Generated by trjconv : CNT in water t= 316.00000
33518
    1C        C    1   2.844   2.772   4.749
    1C        C    2   2.901   2.724   4.869
    1C        C    3   2.842   2.769   4.988
    1C        C    4   2.854   2.783   4.261
    1C        C    5   2.902   2.734   4.384
    1C        C    6   2.854   2.780   4.509
    1C        C    7   3.020   2.645   4.625
    1C        C    8   2.903   2.725   4.629
    1C        C    9   3.085   2.612   4.746
    1C        C   10   3.016   2.643   4.866
    1C        C   11   3.185   2.497   4.980
    1C        C   12   3.063   2.567   4.974
    1C        C   13   2.851   2.779   3.772
    1C        C   14   2.900   2.727   3.894
    1C        C   15   2.849   2.779   4.015
    1C        C   16   3.021   2.656   4.139
    1C        C   17   2.904   2.735   4.138
    1C        C   18   3.083   2.621   4.261
    1C        C   19   3.017   2.652   4.383
    1C        C   20   3.212   2.559   4.504
    1C        C   21   3.080   2.610   4.502
    1C        C   22   3.280   2.530   4.625
    1C        C   23   3.211   2.547   4.747
    1C        C   24   3.415   2.486   4.866
    1C        C   25   3.273   2.505   4.867
    1C        C   26   3.492   2.479   4.983
    1C        C   27   2.857   2.777   3.282
    1C        C   28   2.907   2.731   3.406
    1C        C   29   2.852   2.776   3.528
    1C        C   30   3.020   2.647   3.648
    1C        C   31   2.907   2.731   3.651
    1C        C   32   3.082   2.614   3.771
    1C        C   33   3.019   2.650   3.893
    1C        C   34   3.211   2.565   4.015
    1C        C   35   3.081   2.620   4.016
    1C        C   36   3.279   2.544   4.137
    1C        C   37   3.215   2.570   4.259
    1C        C   38   3.416   2.511   4.383
    1C        C   39   3.278   2.537   4.381
    1C        C   40   3.488   2.498   4.505
    1C        C   41   3.419   2.506   4.628
    1C        C   42   3.632   2.491   4.742
    1C        C   43   3.491   2.477   4.746
    1C        C   44   3.703   2.494   4.864
    1C        C   45   3.631   2.477   4.983
    1C        C   46   2.838   2.757   2.794
    1C        C   47   2.897   2.715   2.916
    1C        C   48   2.850   2.768   3.038
    1C        C   49   3.025   2.649   3.162
    1C        C   50   2.907   2.726   3.160
    1C        C   51   3.083   2.608   3.284
    1C        C   52   3.021   2.648   3.405
    1C        C   53   3.212   2.553   3.528
    1C        C   54   3.083   2.611   3.527
    1C        C   55   3.278   2.533   3.651
    1C        C   56   3.211   2.556   3.773
    1C        C   57   3.417   2.508   3.894
    1C        C   58   3.278   2.533   3.895
    1C        C   59   3.486   2.504   4.017
    1C        C   60   3.417   2.511   4.140
    1C        C   61   3.629   2.502   4.260
    1C        C   62   3.488   2.503   4.262
    1C        C   63   3.701   2.513   4.382
    1C        C   64   3.629   2.500   4.503
    1C        C   65   3.840   2.547   4.626
    1C        C   66   3.705   2.506   4.622
    1C        C   67   3.911   2.563   4.746
    1C        C   68   3.839   2.531   4.864
    1C        C   69   4.054   2.585   4.979
    1C        C   70   3.922   2.540   4.977
    1C        C   71   2.829   2.742   2.306
    1C        C   72   2.888   2.698   2.427
    1C        C   73   2.837   2.747   2.549
    1C        C   74   3.013   2.635   2.673
    1C        C   75   2.892   2.707   2.673
    1C        C   76   3.072   2.594   2.794
    1C        C   77   3.015   2.637   2.916
    1C        C   78   3.211   2.554   3.036
    1C        C   79   3.082   2.613   3.038
    1C        C   80   3.277   2.531   3.159
    1C        C   81   3.213   2.552   3.283
    1C        C   82   3.417   2.501   3.405
    1C        C   83   3.278   2.528   3.406
    1C        C   84   3.488   2.498   3.528
    1C        C   85   3.416   2.502   3.650
    1C        C   86   3.628   2.498   3.768
    1C        C   87   3.487   2.494   3.772
    1C        C   88   3.698   2.507   3.891
    1C        C   89   3.627   2.505   4.013
    1C        C   90   3.832   2.551   4.138
    1C        C   91   3.695   2.517   4.137
    1C        C   92   3.901   2.578   4.258
    1C        C   93   3.837   2.552   4.381
    1C        C   94   4.031   2.638   4.503
    1C        C   95   3.903   2.577   4.503
    1C        C   96   4.098   2.669   4.623
    1C        C   97   4.038   2.626   4.743
    1C        C   98   4.195   2.767   4.864
    1C        C   99   4.104   2.657   4.866
    1C        C  100   4.210   2.846   4.980
    1C        C  101   2.824   2.732   2.072
    1C        C  102   2.992   2.591   2.186
    1C        C  103   2.880   2.680   2.189
    1C        C  104   3.062   2.572   2.308
    1C        C  105   3.006   2.621   2.428
    1C        C  106   3.202   2.540   2.551
    1C        C  107   3.074   2.600   2.550
    1C        C  108   3.272   2.524   2.673
    1C        C  109   3.203   2.541   2.795
    1C        C  110   3.415   2.496   2.916
    1C        C  111   3.277   2.526   2.915
    1C        C  112   3.488   2.498   3.037
    1C        C  113   3.416   2.507   3.159
    1C        C  114   3.627   2.498   3.281
    1C        C  115   3.486   2.498   3.282
    1C        C  116   3.699   2.506   3.402
    1C        C  117   3.629   2.500   3.524
    1C        C  118   3.836   2.544   3.648
    1C        C  119   3.699   2.512   3.647
    1C        C  120   3.900   2.572   3.771
    1C        C  121   3.832   2.551   3.893
    1C        C  122   4.024   2.639   4.016
    1C        C  123   3.900   2.572   4.015
    1C        C  124   4.087   2.680   4.136
    1C        C  125   4.027   2.642   4.259
    1C        C  126   4.199   2.767   4.382
    1C        C  127   4.087   2.680   4.380
    1C        C  128   4.247   2.824   4.502
    1C        C  129   4.202   2.765   4.622
    1C        C  130   4.329   2.937   4.745
    1C        C  131   4.249   2.820   4.744
    1C        C  132   4.354   3.009   4.864
    1C        C  133   4.283   2.964   4.976
    1C        C  134   3.178   2.469   2.079
    1C        C  135   3.045   2.515   2.077
    1C        C  136   3.261   2.481   2.191
    1C        C  137   3.195   2.520   2.310
    1C        C  138   3.406   2.481   2.428
    1C        C  139   3.267   2.506   2.430
    1C        C  140   3.479   2.479   2.549
    1C        C  141   3.411   2.498   2.671
    1C        C  142   3.624   2.493   2.792
    1C        C  143   3.482   2.487   2.792
    1C        C  144   3.697   2.502   2.912
    1C        C  145   3.629   2.498   3.036
    1C        C  146   3.835   2.538   3.157
    1C        C  147   3.699   2.499   3.159
    1C        C  148   3.903   2.563   3.278
    1C        C  149   3.836   2.540   3.401
    1C        C  150   4.026   2.631   3.525
    1C        C  151   3.900   2.568   3.524
    1C        C  152   4.086   2.671   3.647
    1C        C  153   4.026   2.636   3.770
    1C        C  154   4.188   2.770   3.888
    1C        C  155   4.082   2.677   3.893
    1C        C  156   4.244   2.815   4.010
    1C        C  157   4.196   2.769   4.135
    1C        C  158   4.335   2.926   4.256
    1C        C  159   4.245   2.817   4.258
    1C        C  160   4.376   2.989   4.376
    1C        C  161   4.332   2.937   4.499
    1C        C  162   4.436   3.119   4.620
    1C        C  163   4.372   2.993   4.623
    1C        C  164   4.464   3.189   4.739
    1C        C  165   4.436   3.124   4.861
    1C        C  166   4.528   3.319   4.970
    1C        C  167   4.481   3.188   4.977
    1C        C  168   3.477   2.444   2.074
    1C        C  169   3.400   2.462   2.190
    1C        C  170   3.621   2.471   2.308
    1C        C  171   3.478   2.469   2.307
    1C        C  172   3.694   2.489   2.427
    1C        C  173   3.620   2.489   2.548
    1C        C  174   3.828   2.542   2.668
    1C        C  175   3.692   2.503   2.668
    1C        C  176   3.894   2.570   2.789
    1C        C  177   3.833   2.539   2.913
    1C        C  178   4.027   2.625   3.032
    1C        C  179   3.901   2.561   3.035
    1C        C  180   4.087   2.663   3.155
    1C        C  181   4.027   2.630   3.278
    1C        C  182   4.190   2.762   3.401
    1C        C  183   4.085   2.668   3.402
    1C        C  184   4.244   2.811   3.522
    1C        C  185   4.194   2.761   3.644
    1C        C  186   4.335   2.921   3.767
    1C        C  187   4.243   2.814   3.766
    1C        C  188   4.378   2.978   3.889
    1C        C  189   4.334   2.924   4.012
    1C        C  190   4.447   3.105   4.130
    1C        C  191   4.373   2.985   4.133
    1C        C  192   4.471   3.174   4.251
    1C        C  193   4.440   3.115   4.376
    1C        C  194   4.509   3.317   4.493
    1C        C  195   4.466   3.182   4.498
    1C        C  196   4.525   3.390   4.612
    1C        C  197   4.516   3.322   4.736
    1C        C  198   4.562   3.538   4.853
    1C        C  199   4.534   3.398   4.854
    1C        C  200   4.583   3.620   4.968
    1C        C  201   3.615   2.421   2.075
    1C        C  202   3.827   2.518   2.185
    1C        C  203   3.694   2.465   2.186
    1C        C  204   3.901   2.542   2.305
    1C        C  205   3.832   2.520   2.426
    1C        C  206   4.023   2.620   2.546
    1C        C  207   3.899   2.554   2.546
    1C        C  208   4.085   2.660   2.666
    1C        C  209   4.020   2.632   2.788
    1C        C  210   4.201   2.745   2.911
    1C        C  211   4.086   2.662   2.910
    1C        C  212   4.247   2.801   3.032
    1C        C  213   4.194   2.756   3.155
    1C        C  214   4.334   2.914   3.277
    1C        C  215   4.241   2.808   3.278
    1C        C  216   4.376   2.977   3.396
    1C        C  217   4.334   2.920   3.519
    1C        C  218   4.430   3.106   3.642
    1C        C  219   4.373   2.976   3.642
    1C        C  220   4.458   3.172   3.764
    1C        C  221   4.441   3.104   3.887
    1C        C  222   4.502   3.308   4.006
    1C        C  223   4.475   3.170   4.007
    1C        C  224   4.514   3.381   4.127
    1C        C  225   4.506   3.311   4.249
    1C        C  226   4.524   3.525   4.367
    1C        C  227   4.516   3.384   4.369
    1C        C  228   4.520   3.599   4.487
    1C        C  229   4.526   3.531   4.611
    1C        C  230   4.510   3.745   4.726
    1C        C  231   4.539   3.606   4.730
    1C        C  232   4.505   3.820   4.845
    1C        C  233   4.547   3.756   4.962
    1C        C  234   4.022   2.607   2.067
    1C        C  235   3.897   2.546   2.067
    1C        C  236   4.086   2.653   2.183
    1C        C  237   4.025   2.611   2.303
    1C        C  238   4.198   2.740   2.421
    1C        C  239   4.086   2.651   2.423
    1C        C  240   4.253   2.787   2.542
    1C        C  241   4.196   2.747   2.666
    1C        C  242   4.334   2.908   2.786
    1C        C  243   4.248   2.795   2.788
    1C        C  244   4.379   2.962   2.909
    1C        C  245   4.339   2.909   3.033
    1C        C  246   4.439   3.096   3.149
    1C        C  247   4.379   2.969   3.154
    1C        C  248   4.464   3.163   3.271
    1C        C  249   4.439   3.103   3.396
    1C        C  250   4.496   3.305   3.514
    1C        C  251   4.458   3.170   3.520
    1C        C  252   4.513   3.374   3.637
    1C        C  253   4.499   3.308   3.761
    1C        C  254   4.524   3.517   3.881
    1C        C  255   4.515   3.376   3.883
    1C        C  256   4.525   3.593   4.001
    1C        C  257   4.526   3.522   4.123
    1C        C  258   4.492   3.734   4.242
    1C        C  259   4.517   3.595   4.244
    1C        C  260   4.477   3.806   4.363
    1C        C  261   4.491   3.738   4.486
    1C        C  262   4.426   3.943   4.606
    1C        C  263   4.476   3.810   4.606
    1C        C  264   4.397   4.008   4.728
    1C        C  265   4.438   3.945   4.847
    1C        C  266   4.323   4.133   4.963
    1C        C  267   4.399   4.016   4.961
    1C        C  268   4.269   2.773   2.063
    1C        C  269   4.197   2.740   2.178
    1C        C  270   4.349   2.891   2.299
    1C        C  271   4.251   2.788   2.299
    1C        C  272   4.382   2.956   2.420
    1C        C  273   4.337   2.900   2.542
    1C        C  274   4.445   3.086   2.661
    1C        C  275   4.372   2.965   2.663
    1C        C  276   4.476   3.151   2.782
    1C        C  277   4.446   3.086   2.904
    1C        C  278   4.509   3.292   3.024
    1C        C  279   4.469   3.157   3.024
    1C        C  280   4.516   3.367   3.144
    1C        C  281   4.499   3.300   3.267
    1C        C  282   4.518   3.511   3.391
    1C        C  283   4.509   3.370   3.389
    1C        C  284   4.520   3.584   3.512
    1C        C  285   4.526   3.515   3.635
    1C        C  286   4.490   3.722   3.750
    1C        C  287   4.526   3.586   3.758
    1C        C  288   4.474   3.792   3.872
    1C        C  289   4.495   3.731   3.998
    1C        C  290   4.429   3.934   4.117
    1C        C  291   4.476   3.801   4.119
    1C        C  292   4.403   4.001   4.238
    1C        C  293   4.426   3.938   4.362
    1C        C  294   4.325   4.126   4.480
    1C        C  295   4.397   4.005   4.482
    1C        C  296   4.283   4.185   4.601
    1C        C  297   4.323   4.130   4.725
    1C        C  298   4.200   4.312   4.843
    1C        C  299   4.281   4.194   4.844
    1C        C  300   4.170   4.402   4.950
    1C        C  301   4.354   2.883   2.065
    1C        C  302   4.470   3.073   2.177
    1C        C  303   4.398   2.950   2.179
    1C        C  304   4.486   3.144   2.299
    1C        C  305   4.454   3.078   2.419
    1C        C  306   4.506   3.287   2.540
    1C        C  307   4.475   3.150   2.539
    1C        C  308   4.514   3.361   2.660
    1C        C  309   4.506   3.289   2.782
    1C        C  310   4.530   3.503   2.900
    1C        C  311   4.517   3.362   2.902
    1C        C  312   4.519   3.574   3.021
    1C        C  313   4.520   3.508   3.146
    1C        C  314   4.492   3.719   3.263
    1C        C  315   4.517   3.580   3.268
    1C        C  316   4.474   3.788   3.385
    1C        C  317   4.493   3.722   3.509
    1C        C  318   4.424   3.926   3.628
    1C        C  319   4.473   3.793   3.629
    1C        C  320   4.395   3.989   3.750
    1C        C  321   4.426   3.924   3.872
    1C        C  322   4.319   4.111   3.991
    1C        C  323   4.394   3.992   3.992
    1C        C  324   4.279   4.169   4.113
    1C        C  325   4.327   4.121   4.237
    1C        C  326   4.187   4.285   4.355
    1C        C  327   4.285   4.183   4.356
    1C        C  328   4.135   4.335   4.476
    1C        C  329   4.188   4.289   4.599
    1C        C  330   4.030   4.437   4.714
    1C        C  331   4.143   4.351   4.718
    1C        C  332   3.974   4.492   4.831
    1C        C  333   4.055   4.482   4.945
    1C        C  334   4.552   3.272   2.062
    1C        C  335   4.533   3.134   2.063
    1C        C  336   4.542   3.353   2.176
    1C        C  337   4.516   3.283   2.295
    1C        C  338   4.520   3.496   2.414
    1C        C  339   4.519   3.355   2.417
    1C        C  340   4.517   3.571   2.533
    1C        C  341   4.522   3.502   2.657
    1C        C  342   4.491   3.712   2.775
    1C        C  343   4.520   3.574   2.778
    1C        C  344   4.477   3.783   2.897
    1C        C  345   4.498   3.714   3.018
    1C        C  346   4.426   3.916   3.138
    1C        C  347   4.477   3.784   3.139
    1C        C  348   4.393   3.980   3.259
    1C        C  349   4.427   3.921   3.383
    1C        C  350   4.321   4.108   3.503
    1C        C  351   4.396   3.988   3.504
    1C        C  352   4.277   4.163   3.625
    1C        C  353   4.324   4.111   3.748
    1C        C  354   4.176   4.267   3.868
    1C        C  355   4.275   4.166   3.868
    1C        C  356   4.123   4.316   3.989
    1C        C  357   4.180   4.270   4.110
    1C        C  358   4.008   4.395   4.235
    1C        C  359   4.130   4.324   4.231
    1C        C  360   3.953   4.446   4.354
    1C        C  361   4.019   4.416   4.475
    1C        C  362   3.829   4.517   4.592
    1C        C  363   3.957   4.457   4.595
    1C        C  364   3.764   4.549   4.713
    1C        C  365   3.842   4.544   4.830
    1C        C  366   3.633   4.597   4.947
    1C        C  367   3.771   4.581   4.945
    1C        C  368   4.509   3.562   2.051
    1C        C  369   4.525   3.493   2.172
    1C        C  370   4.502   3.708   2.286
    1C        C  371   4.522   3.568   2.292
    1C        C  372   4.483   3.778   2.408
    1C        C  373   4.501   3.711   2.531
    1C        C  374   4.419   3.909   2.647
    1C        C  375   4.476   3.780   2.652
    1C        C  376   4.394   3.976   2.769
    1C        C  377   4.426   3.914   2.892
    1C        C  378   4.323   4.099   3.014
    1C        C  379   4.395   3.977   3.015
    1C        C  380   4.273   4.154   3.134
    1C        C  381   4.311   4.096   3.257
    1C        C  382   4.173   4.256   3.379
    1C        C  383   4.276   4.158   3.379
    1C        C  384   4.117   4.301   3.500
    1C        C  385   4.177   4.263   3.622
    1C        C  386   4.010   4.394   3.743
    1C        C  387   4.124   4.311   3.744
    1C        C  388   3.947   4.429   3.865
    1C        C  389   4.006   4.395   3.988
    1C        C  390   3.821   4.493   4.109
    1C        C  391   3.946   4.426   4.112
    1C        C  392   3.754   4.519   4.230
    1C        C  393   3.825   4.506   4.351
    1C        C  394   3.618   4.559   4.473
    1C        C  395   3.758   4.536   4.472
    1C        C  396   3.548   4.564   4.596
    1C        C  397   3.623   4.562   4.715
    1C        C  398   3.411   4.556   4.842
    1C        C  399   3.551   4.575   4.836
    1C        C  400   3.344   4.520   4.960
    1C        C  401   4.499   3.701   2.051
    1C        C  402   4.452   3.917   2.165
    1C        C  403   4.486   3.780   2.166
    1C        C  404   4.409   3.978   2.285
    1C        C  405   4.438   3.912   2.407
    1C        C  406   4.329   4.100   2.527
    1C        C  407   4.401   3.978   2.526
    1C        C  408   4.279   4.152   2.649
    1C        C  409   4.316   4.094   2.772
    1C        C  410   4.177   4.253   2.889
    1C        C  411   4.281   4.158   2.893
    1C        C  412   4.121   4.301   3.010
    1C        C  413   4.175   4.256   3.133
    1C        C  414   4.005   4.381   3.252
    1C        C  415   4.122   4.302   3.255
    1C        C  416   3.946   4.419   3.375
    1C        C  417   4.003   4.384   3.500
    1C        C  418   3.813   4.477   3.621
    1C        C  419   3.943   4.423   3.622
    1C        C  420   3.750   4.509   3.744
    1C        C  421   3.819   4.491   3.865
    1C        C  422   3.613   4.540   3.987
    1C        C  423   3.751   4.511   3.987
    1C        C  424   3.543   4.547   4.109
    1C        C  425   3.614   4.540   4.232
    1C        C  426   3.403   4.550   4.355
    1C        C  427   3.544   4.555   4.353
    1C        C  428   3.334   4.546   4.478
    1C        C  429   3.406   4.559   4.599
    1C        C  430   3.199   4.519   4.725
    1C        C  431   3.338   4.549   4.722
    1C        C  432   3.130   4.493   4.846
    1C        C  433   3.206   4.503   4.963
    1C        C  434   4.387   4.129   2.054
    1C        C  435   4.441   4.000   2.052
    1C        C  436   4.304   4.168   2.164
    1C        C  437   4.335   4.099   2.285
    1C        C  438   4.185   4.254   2.403
    1C        C  439   4.283   4.153   2.405
    1C        C  440   4.129   4.302   2.523
    1C        C  441   4.180   4.252   2.645
    1C        C  442   4.007   4.379   2.764
    1C        C  443   4.124   4.300   2.766
    1C        C  444   3.945   4.415   2.886
    1C        C  445   4.003   4.378   3.009
    1C        C  446   3.812   4.472   3.132
    1C        C  447   3.941   4.414   3.131
    1C        C  448   3.745   4.491   3.255
    1C        C  449   3.815   4.472   3.376
    1C        C  450   3.612   4.537   3.500
    1C        C  451   3.749   4.501   3.498
    1C        C  452   3.541   4.549   3.622
    1C        C  453   3.612   4.543   3.744
    1C        C  454   3.400   4.550   3.867
    1C        C  455   3.541   4.554   3.866
    1C        C  456   3.331   4.541   3.990
    1C        C  457   3.402   4.544   4.112
    1C        C  458   3.195   4.504   4.240
    1C        C  459   3.331   4.544   4.233
    1C        C  460   3.127   4.484   4.362
    1C        C  461   3.197   4.510   4.482
    1C        C  462   3.001   4.433   4.606
    1C        C  463   3.129   4.492   4.605
    1C        C  464   2.932   4.405   4.726
    1C        C  465   2.995   4.445   4.847
    1C        C  466   2.804   4.344   4.961
    1C        C  467   2.914   4.431   4.964
    1C        C  468   4.129   4.290   2.041
    1C        C  469   4.193   4.258   2.161
    1C        C  470   4.009   4.375   2.277
    1C        C  471   4.133   4.305   2.282
    1C        C  472   3.942   4.400   2.399
    1C        C  473   4.007   4.373   2.521
    1C        C  474   3.813   4.465   2.644
    1C        C  475   3.941   4.406   2.642
    1C        C  476   3.747   4.496   2.765
    1C        C  477   3.816   4.471   2.887
    1C        C  478   3.608   4.519   3.012
    1C        C  479   3.748   4.496   3.008
    1C        C  480   3.536   4.530   3.133
    1C        C  481   3.608   4.522   3.254
    1C        C  482   3.400   4.540   3.380
    1C        C  483   3.541   4.539   3.378
    1C        C  484   3.331   4.531   3.503
    1C        C  485   3.400   4.543   3.625
    1C        C  486   3.191   4.502   3.750
    1C        C  487   3.327   4.538   3.746
    1C        C  488   3.126   4.479   3.873
    1C        C  489   3.196   4.502   3.994
    1C        C  490   3.008   4.410   4.116
    1C        C  491   3.129   4.483   4.117
    1C        C  492   2.949   4.374   4.240
    1C        C  493   3.003   4.418   4.363
    1C        C  494   2.825   4.306   4.484
    1C        C  495   2.941   4.386   4.487
    1C        C  496   2.774   4.258   4.606
    1C        C  497   2.819   4.318   4.726
    1C        C  498   2.669   4.169   4.844
    1C        C  499   2.754   4.282   4.846
    1C        C  500   2.598   4.121   4.955
    1C        C  501   4.007   4.358   2.037
    1C        C  502   3.819   4.465   2.159
    1C        C  503   3.945   4.403   2.154
    1C        C  504   3.746   4.483   2.279
    1C        C  505   3.811   4.452   2.400
    1C        C  506   3.607   4.508   2.527
    1C        C  507   3.746   4.486   2.521
    1C        C  508   3.534   4.519   2.647
    1C        C  509   3.609   4.523   2.767
    1C        C  510   3.397   4.531   2.890
    1C        C  511   3.538   4.530   2.889
    1C        C  512   3.325   4.526   3.012
    1C        C  513   3.395   4.537   3.134
    1C        C  514   3.193   4.496   3.258
    1C        C  515   3.328   4.537   3.258
    1C        C  516   3.128   4.468   3.380
    1C        C  517   3.195   4.493   3.502
    1C        C  518   3.002   4.411   3.628
    1C        C  519   3.129   4.473   3.626
    1C        C  520   2.941   4.375   3.750
    1C        C  521   3.003   4.410   3.872
    1C        C  522   2.837   4.281   3.997
    1C        C  523   2.946   4.370   3.995
    1C        C  524   2.791   4.232   4.122
    1C        C  525   2.839   4.286   4.243
    1C        C  526   2.693   4.133   4.367
    1C        C  527   2.782   4.244   4.365
    1C        C  528   2.649   4.079   4.490
    1C        C  529   2.693   4.142   4.609
    1C        C  530   2.588   3.959   4.734
    1C        C  531   2.642   4.090   4.730
    1C        C  532   2.542   3.904   4.857
    1C        C  533   2.532   3.997   4.965
    1C        C  534   3.618   4.553   2.041
    1C        C  535   3.752   4.511   2.045
    1C        C  536   3.539   4.537   2.159
    1C        C  537   3.609   4.521   2.281
    1C        C  538   3.398   4.511   2.399
    1C        C  539   3.539   4.520   2.404
    1C        C  540   3.326   4.510   2.520
    1C        C  541   3.393   4.514   2.644
    1C        C  542   3.188   4.486   2.769
    1C        C  543   3.327   4.512   2.769
    1C        C  544   3.122   4.469   2.892
    1C        C  545   3.187   4.496   3.015
    1C        C  546   2.998   4.405   3.137
    1C        C  547   3.121   4.473   3.138
    1C        C  548   2.946   4.361   3.261
    1C        C  549   3.002   4.404   3.384
    1C        C  550   2.832   4.284   3.507
    1C        C  551   2.940   4.375   3.507
    1C        C  552   2.782   4.234   3.630
    1C        C  553   2.834   4.283   3.752
    1C        C  554   2.702   4.118   3.878
    1C        C  555   2.787   4.231   3.875
    1C        C  556   2.662   4.063   4.002
    1C        C  557   2.702   4.122   4.124
    1C        C  558   2.591   3.944   4.249
    1C        C  559   2.659   4.068   4.247
    1C        C  560   2.566   3.879   4.372
    1C        C  561   2.589   3.952   4.491
    1C        C  562   2.530   3.751   4.618
    1C        C  563   2.569   3.887   4.614
    1C        C  564   2.515   3.683   4.741
    1C        C  565   2.518   3.762   4.859
    1C        C  566   2.532   3.551   4.980
    1C        C  567   2.521   3.690   4.979
    1C        C  568   3.331   4.479   2.041
    1C        C  569   3.399   4.513   2.158
    1C        C  570   3.184   4.485   2.280
    1C        C  571   3.323   4.512   2.279
    1C        C  572   3.119   4.460   2.403
    1C        C  573   3.187   4.482   2.525
    1C        C  574   2.994   4.398   2.649
    1C        C  575   3.120   4.463   2.647
    1C        C  576   2.938   4.356   2.771
    1C        C  577   3.000   4.398   2.891
    1C        C  578   2.830   4.275   3.017
    1C        C  579   2.941   4.363   3.015
    1C        C  580   2.783   4.224   3.140
    1C        C  581   2.837   4.272   3.262
    1C        C  582   2.702   4.113   3.385
    1C        C  583   2.788   4.226   3.386
    1C        C  584   2.657   4.064   3.509
    1C        C  585   2.695   4.122   3.631
    1C        C  586   2.601   3.934   3.758
    1C        C  587   2.665   4.060   3.755
    1C        C  588   2.572   3.873   3.882
    1C        C  589   2.601   3.936   4.006
    1C        C  590   2.536   3.736   4.131
    1C        C  591   2.570   3.873   4.129
    1C        C  592   2.519   3.670   4.255
    1C        C  593   2.529   3.742   4.376
    1C        C  594   2.502   3.535   4.501
    1C        C  595   2.516   3.675   4.499
    1C        C  596   2.518   3.467   4.624
    1C        C  597   2.512   3.541   4.744
    1C        C  598   2.532   3.329   4.863
    1C        C  599   2.523   3.470   4.866
    1C        C  600   2.540   3.252   4.980
    1C        C  601   3.199   4.437   2.045
    1C        C  602   2.986   4.391   2.160
    1C        C  603   3.120   4.441   2.161
    1C        C  604   2.931   4.356   2.286
    1C        C  605   2.993   4.396   2.407
    1C        C  606   2.822   4.269   2.531
    1C        C  607   2.933   4.357   2.528
    1C        C  608   2.773   4.219   2.654
    1C        C  609   2.826   4.269   2.774
    1C        C  610   2.691   4.108   2.897
    1C        C  611   2.780   4.218   2.898
    1C        C  612   2.654   4.054   3.021
    1C        C  613   2.698   4.112   3.142
    1C        C  614   2.602   3.923   3.270
    1C        C  615   2.660   4.052   3.265
    1C        C  616   2.575   3.863   3.395
    1C        C  617   2.600   3.934   3.514
    1C        C  618   2.531   3.734   3.639
    1C        C  619   2.571   3.869   3.636
    1C        C  620   2.515   3.668   3.764
    1C        C  621   2.533   3.738   3.886
    1C        C  622   2.503   3.527   4.011
    1C        C  623   2.521   3.667   4.008
    1C        C  624   2.503   3.457   4.134
    1C        C  625   2.509   3.529   4.256
    1C        C  626   2.537   3.323   4.382
    1C        C  627   2.509   3.462   4.380
    1C        C  628   2.555   3.254   4.503
    1C        C  629   2.539   3.327   4.623
    1C        C  630   2.595   3.121   4.744
    1C        C  631   2.548   3.256   4.744
    1C        C  632   2.620   3.055   4.867
    1C        C  633   2.568   3.115   4.985
    1C        C  634   2.785   4.301   2.056
    1C        C  635   2.891   4.393   2.052
    1C        C  636   2.756   4.226   2.171
    1C        C  637   2.817   4.271   2.290
    1C        C  638   2.682   4.106   2.411
    1C        C  639   2.769   4.218   2.411
    1C        C  640   2.644   4.047   2.534
    1C        C  641   2.689   4.106   2.654
    1C        C  642   2.584   3.921   2.779
    1C        C  643   2.655   4.044   2.776
    1C        C  644   2.562   3.858   2.904
    1C        C  645   2.593   3.926   3.024
    1C        C  646   2.531   3.725   3.152
    1C        C  647   2.575   3.859   3.147
    1C        C  648   2.515   3.657   3.275
    1C        C  649   2.529   3.729   3.396
    1C        C  650   2.504   3.521   3.523
    1C        C  651   2.512   3.662   3.519
    1C        C  652   2.510   3.452   3.646
    1C        C  653   2.514   3.527   3.766
    1C        C  654   2.536   3.318   3.890
    1C        C  655   2.512   3.457   3.889
    1C        C  656   2.553   3.250   4.013
    1C        C  657   2.532   3.319   4.134
    1C        C  658   2.601   3.122   4.261
    1C        C  659   2.550   3.254   4.259
    1C        C  660   2.632   3.055   4.381
    1C        C  661   2.603   3.121   4.503
    1C        C  662   2.706   2.935   4.627
    1C        C  663   2.632   3.055   4.625
    1C        C  664   2.752   2.880   4.749
    1C        C  665   2.701   2.936   4.869
    1C        C  666   2.751   2.874   4.984
    1C        C  667   2.686   4.024   2.056
    1C        C  668   2.685   4.105   2.170
    1C        C  669   2.593   3.910   2.295
    1C        C  670   2.646   4.042   2.291
    1C        C  671   2.559   3.847   2.416
    1C        C  672   2.580   3.921   2.535
    1C        C  673   2.519   3.718   2.661
    1C        C  674   2.556   3.855   2.658
    1C        C  675   2.509   3.651   2.785
    1C        C  676   2.526   3.721   2.907
    1C        C  677   2.503   3.514   3.031
    1C        C  678   2.512   3.655   3.031
    1C        C  679   2.510   3.446   3.155
    1C        C  680   2.508   3.516   3.278
    1C        C  681   2.520   3.308   3.404
    1C        C  682   2.503   3.448   3.402
    1C        C  683   2.539   3.239   3.526
    1C        C  684   2.524   3.311   3.646
    1C        C  685   2.584   3.109   3.773
    1C        C  686   2.542   3.244   3.769
    1C        C  687   2.629   3.052   3.894
    1C        C  688   2.605   3.119   4.016
    1C        C  689   2.710   2.939   4.140
    1C        C  690   2.631   3.056   4.140
    1C        C  691   2.757   2.886   4.262
    1C        C  692   2.713   2.939   4.385
    1C        C  693   2.754   2.879   4.506
    1C        C  694   2.631   3.895   2.064
    1C        C  695   2.522   3.703   2.174
    1C        C  696   2.577   3.833   2.178
    1C        C  697   2.503   3.641   2.299
    1C        C  698   2.510   3.715   2.419
    1C        C  699   2.486   3.505   2.545
    1C        C  700   2.495   3.646   2.542
    1C        C  701   2.496   3.435   2.667
    1C        C  702   2.495   3.511   2.786
    1C        C  703   2.523   3.302   2.912
    1C        C  704   2.502   3.442   2.909
    1C        C  705   2.540   3.235   3.035
    1C        C  706   2.531   3.306   3.157
    1C        C  707   2.601   3.111   3.282
    1C        C  708   2.548   3.243   3.282
    1C        C  709   2.634   3.049   3.404
    1C        C  710   2.599   3.111   3.526
    1C        C  711   2.707   2.935   3.649
    1C        C  712   2.627   3.051   3.651
    1C        C  713   2.754   2.882   3.771
    1C        C  714   2.711   2.936   3.894
    1C        C  715   2.753   2.882   4.018
    1C        C  716   2.450   3.499   2.059
    1C        C  717   2.486   3.634   2.058
    1C        C  718   2.462   3.423   2.180
    1C        C  719   2.479   3.501   2.298
    1C        C  720   2.514   3.296   2.426
    1C        C  721   2.486   3.434   2.423
    1C        C  722   2.533   3.227   2.547
    1C        C  723   2.518   3.295   2.670
    1C        C  724   2.596   3.099   2.791
    1C        C  725   2.540   3.229   2.792
    1C        C  726   2.628   3.039   2.915
    1C        C  727   2.595   3.105   3.035
    1C        C  728   2.708   2.929   3.159
    1C        C  729   2.631   3.047   3.159
    1C        C  730   2.757   2.877   3.281
    1C        C  731   2.713   2.932   3.404
    1C        C  732   2.756   2.880   3.528
    1C        C  733   2.487   3.202   2.075
    1C        C  734   2.483   3.282   2.189
    1C        C  735   2.581   3.087   2.309
    1C        C  736   2.524   3.217   2.309
    1C        C  737   2.615   3.023   2.430
    1C        C  738   2.589   3.097   2.548
    1C        C  739   2.706   2.918   2.667
    1C        C  740   2.627   3.035   2.669
    1C        C  741   2.745   2.863   2.792
    1C        C  742   2.709   2.923   2.914
    1C        C  743   2.755   2.873   3.038
    1C        C  744   2.546   3.076   2.076
    1C        C  745   2.688   2.902   2.185
    1C        C  746   2.608   3.019   2.188
    1C        C  747   2.737   2.850   2.307
    1C        C  748   2.686   2.902   2.428
    1C        C  749   2.739   2.849   2.548
    1C        C  750   2.737   2.841   2.069
    1C        C  751   3.670   2.351   1.956
    1C        O  752   3.653   2.227   1.943
    1C        O  753   3.655   2.415   1.832
    1C        C  754   4.604   3.049   1.964
    1C        O  755   4.587   3.064   1.840
    1C        O  756   4.714   2.973   2.004
    1C        C  757   4.460   4.236   1.983
    1C        O  758   4.517   4.331   2.044
    1C        O  759   4.488   4.219   1.846
    1C        C  760   3.605   4.677   1.961
    1C        O  761   3.595   4.784   2.027
    1C        O  762   3.523   4.676   1.847
    1C        C  763   2.868   4.504   1.957
    1C        O  764   2.895   4.495   1.834
    1C        O  765   2.774   4.606   1.975
    1C        C  766   2.354   3.479   1.947
    1C        O  767   2.404   3.428   1.843
    1C        O  768   2.216   3.487   1.966
    1C        C  769   4.690   3.584   5.064
    1C        O  770   4.669   3.561   5.186
    1C        O  771   4.811   3.535   5.015
    1C        C  772   4.280   4.450   5.038
    1C        O  773   4.315   4.399   5.148
    1C        O  774   4.346   4.571   5.018
    1C        C  775   4.149   2.503   5.058
    1C        O  776   4.221   2.410   5.012
    1C        O  777   4.152   2.504   5.198
    1C        C  778   2.904   4.540   5.065
    1C        O  779   2.819   4.632   5.052
    1C        O  780   2.928   4.509   5.199
    1C        C  781   2.482   3.051   5.088
    1C        O  782   2.374   2.994   5.058
    1C        O  783   2.535   3.028   5.215
    1C        C  784   2.422   3.981   5.062
    1C        O  785   2.303   4.007   5.031
    1C        O  786   2.449   4.011   5.196
    1C        C  787   2.961   2.443   1.979
    1C        O  788   2.996   2.428   1.859
    1C        O  789   2.895   2.333   2.032
    1C        C  790   3.184   2.392   5.083
    1C        O  791   3.136   2.276   5.067
    1C        O  792   3.226   2.414   5.215
    1C        H  793   4.283   3.023   5.066
    1C        H  794   4.227   2.789   5.069
    1C        H  795   4.485   3.135   5.070
    1C        H  796   4.570   3.361   5.059
    1C        H  797   4.588   3.827   5.030
    1C        H  798   4.369   3.950   5.039
    1C        H  799   4.302   4.168   5.062
    1C        H  800   4.036   4.544   5.030
    1C        H  801   3.822   4.619   5.031
    1C        H  802   3.608   4.671   5.021
    1C        H  803   3.399   4.502   5.051
    1C        H  804   3.156   4.511   5.057
    1C        H  805   3.874   2.537   5.072
    1C        H  806   3.667   2.416   5.064
    1C        H  807   3.016   2.580   5.069
    1C        H  808   3.446   2.458   5.078
    1C        H  809   2.856   2.714   5.079
    1C        H  810   2.727   2.921   5.077
    1C        H  811   2.503   3.297   5.070
    1C        H  812   2.503   3.504   5.071
    1C        H  813   2.576   3.736   5.058
    1C        H  814   2.543   4.199   5.003
    1C        H  815   2.794   4.281   5.047
    1C        H  816   2.693   2.870   1.975
    1C        H  817   2.862   2.710   1.974
    1C        H  818   3.199   2.382   2.021
    1C        H  819   3.421   2.393   1.998
    1C        H  820   3.842   2.554   1.975
    1C        H  821   4.087   2.568   1.991
    1C        H  822   4.289   2.691   1.996
    1C        H  823   4.389   2.915   1.969
    1C        H  824   4.607   3.315   1.980
    1C        H  825   4.459   3.510   1.972
    1C        H  826   4.523   3.749   1.959
    1C        H  827   3.780   4.465   1.952
    1C        H  828   3.949   4.338   1.950
    1C        H  829   4.187   4.297   1.952
    1C        H  830   4.483   3.973   1.958
    1C        H  831   2.647   3.836   1.976
    1C        H  832   2.701   4.069   1.960
    1C        H  833   2.704   4.325   1.991
    1C        H  834   3.347   4.551   1.963
    1C        H  835   3.178   4.363   1.971
    1C        H  836   2.536   3.019   1.986
    1C        H  837   2.394   3.203   2.021
    1C        H  838   2.448   3.693   1.978
    2V3OU   H29  839   2.808   3.547   3.277
    2V3OU   C27  840   2.794   3.507   3.381
    2V3OU   H27  841   2.737   3.567   3.456
    2V3OU   H28  842   2.739   3.412   3.362
    2V3OU   O11  843   2.921   3.468   3.435
    2V3OU   C15  844   2.927   3.405   3.558
    2V3OU   C13  845   3.051   3.374   3.617
    2V3OU   C14  846   3.081   3.270   3.706
    2V3OU   C16  847   2.979   3.188   3.751
    2V3OU    H6  848   2.992   3.100   3.817
    2V3OU   C12  849   3.216   3.233   3.753
    2V3OU    O2  850   3.240   3.127   3.815
    2V3OU   C10  851   3.326   3.309   3.692
    2V3OU    C8  852   3.458   3.271   3.718
    2V3OU   O10  853   3.495   3.158   3.785
    2V3OU   H26  854   3.410   3.116   3.802
    2V3OU    C6  855   3.564   3.351   3.666
    2V3OU    C5  856   3.542   3.467   3.593
    2V3OU    C4  857   3.704   3.301   3.655
    2V3OU    H4  858   3.726   3.229   3.740
    2V3OU    H5  859   3.711   3.234   3.564
    2V3OU    C2  860   3.821   3.400   3.652
    2V3OU    O6  861   3.811   3.483   3.768
    2V3OU   H21  862   3.761   3.557   3.730
    2V3OU    C3  863   3.787   3.499   3.541
    2V3OU    H2  864   3.861   3.583   3.536
    2V3OU    H3  865   3.786   3.443   3.444
    2V3OU   C25  866   3.956   3.333   3.629
    2V3OU    O7  867   3.997   3.294   3.520
    2V3OU   C26  868   4.037   3.295   3.751
    2V3OU   H22  869   4.066   3.389   3.805
    2V3OU   H23  870   4.126   3.235   3.720
    2V3OU    O8  871   3.967   3.214   3.843
    2V3OU   H24  872   3.938   3.270   3.917
    2V3OU    C1  873   3.651   3.564   3.559
    2V3OU    H1  874   3.624   3.614   3.462
    2V3OU    O3  875   3.656   3.660   3.665
    2V3OU   C19  876   3.614   3.796   3.655
    2V3OU    H9  877   3.517   3.806   3.599
    2V3OU    O4  878   3.716   3.852   3.576
    2V3OU   C20  879   3.848   3.879   3.624
    2V3OU   H10  880   3.893   3.775   3.629
    2V3OU   C24  881   3.614   3.856   3.796
    2V3OU   H16  882   3.547   3.793   3.861
    2V3OU   H17  883   3.565   3.956   3.783
    2V3OU   C23  884   3.754   3.878   3.853
    2V3OU   H15  885   3.799   3.776   3.876
    2V3OU    N1  886   3.738   3.948   3.980
    2V3OU   H19  887   3.805   3.931   4.051
    2V3OU   H20  888   3.651   3.927   4.024
    2V3OU   C21  889   3.849   3.955   3.757
    2V3OU   H11  890   3.952   3.921   3.789
    2V3OU    O5  891   3.824   4.095   3.761
    2V3OU   H18  892   3.789   4.112   3.850
    2V3OU   C22  893   3.916   3.951   3.509
    2V3OU   H12  894   3.857   4.044   3.485
    2V3OU   H13  895   3.912   3.888   3.417
    2V3OU   H14  896   4.024   3.965   3.536
    2V3OU   C11  897   3.160   3.472   3.605
    2V3OU    O1  898   3.138   3.592   3.579
    2V3OU    C9  899   3.301   3.428   3.619
    2V3OU    C7  900   3.406   3.504   3.570
    2V3OU    O9  901   3.388   3.614   3.488
    2V3OU   H25  902   3.293   3.631   3.483
    2V3OU   C17  903   2.827   3.318   3.607
    2V3OU    H7  904   2.734   3.350   3.559
    2V3OU   C18  905   2.853   3.220   3.701
    2V3OU    H8  906   2.791   3.169   3.775
    3SOL     OW  907   2.604   4.816   5.844
    3SOL    HW1  908   2.700   4.787   5.835
    3SOL    HW2  909   2.579   4.819   5.941
    4SOL     OW  910   6.856   0.044   7.010
    4SOL    HW1  911   6.899   7.009   6.944
    4SOL    HW2  912   6.793   7.019   0.042
    5SOL     OW  913   5.255   2.354   1.961
    5SOL    HW1  914   5.214   2.276   1.914
    5SOL    HW2  915   5.225   2.439   1.917
    6SOL     OW  916   4.551   2.065   2.331
    6SOL    HW1  917   4.469   2.059   2.388
    6SOL    HW2  918   4.620   2.119   2.378
    7SOL     OW  919   0.395   4.232   3.469
    7SOL    HW1  920   0.401   4.252   3.372
    7SOL    HW2  921   0.462   4.286   3.519
    8SOL     OW  922   2.590   2.416   5.826
    8SOL    HW1  923   2.607   2.320   5.807
    8SOL    HW2  924   2.673   2.459   5.860
    9SOL     OW  925   6.185   2.273   6.104
    9SOL    HW1  926   6.123   2.220   6.047
    9SOL    HW2  927   6.255   2.213   6.143
   10SOL     OW  928   2.953   5.257   4.846
   10SOL    HW1  929   3.008   5.207   4.913
   10SOL    HW2  930   2.983   5.352   4.842
   11SOL     OW  931   1.855   1.465   6.155
   11SOL    HW1  932   1.835   1.452   6.057
   11SOL    HW2  933   1.917   1.543   6.165
   12SOL     OW  934   3.013   4.900   3.761
   12SOL    HW1  935   2.994   4.910   3.859
   12SOL    HW2  936   3.108   4.924   3.743
   13SOL     OW  937   4.047   6.219   3.532
   13SOL    HW1  938   3.999   6.134   3.509
   13SOL    HW2  939   3.984   6.296   3.523
   14SOL     OW  940   3.996   5.196   5.898
   14SOL    HW1  941   4.044   5.240   5.821
   14SOL    HW2  942   3.953   5.267   5.954
   15SOL     OW  943   0.814   6.456   0.174
   15SOL    HW1  944   0.812   6.525   0.246
   15SOL    HW2  945   0.770   6.493   0.092
   16SOL     OW  946   5.287   2.461   6.649
   16SOL    HW1  947   5.242   2.448   6.737
   16SOL    HW2  948   5.228   2.429   6.575
   17SOL     OW  949   5.113   0.113   6.740
   17SOL    HW1  950   5.118   0.133   6.642
   17SOL    HW2  951   5.025   0.070   6.761
   18SOL     OW  952   3.394   0.743   4.848
   18SOL    HW1  953   3.490   0.742   4.819
   18SOL    HW2  954   3.387   0.785   4.939
   19SOL     OW  955   0.210   2.564   2.225
   19SOL    HW1  956   0.115   2.561   2.193
   19SOL    HW2  957   0.269   2.599   2.152
   20SOL     OW  958   4.658   2.216   5.320
   20SOL    HW1  959   4.583   2.168   5.275
   20SOL    HW2  960   4.634   2.234   5.416
   21SOL     OW  961   2.919   0.777   2.957
   21SOL    HW1  962   2.924   0.861   2.904
   21SOL    HW2  963   2.888   0.798   3.050
   22SOL     OW  964   1.386   6.019   0.387
   22SOL    HW1  965   1.349   6.038   0.478
   22SOL    HW2  966   1.448   6.094   0.360
   23SOL     OW  967   4.031   5.189   2.200
   23SOL    HW1  968   3.951   5.132   2.179
   23SOL    HW2  969   4.008   5.253   2.273
   24SOL     OW  970   3.898   0.339   2.384
   24SOL    HW1  971   3.915   0.398   2.305
   24SOL    HW2  972   3.904   0.243   2.356
   25SOL     OW  973   2.352   0.072   3.603
   25SOL    HW1  974   2.289   0.036   3.534
   25SOL    HW2  975   2.442   0.032   3.590
   26SOL     OW  976   6.760   2.111   0.109
   26SOL    HW1  977   6.794   2.165   0.186
   26SOL    HW2  978   6.814   2.131   0.027
   27SOL     OW  979   1.782   1.419   1.817
   27SOL    HW1  980   1.806   1.512   1.844
   27SOL    HW2  981   1.705   1.387   1.872
   28SOL     OW  982   0.901   1.072   4.996
   28SOL    HW1  983   0.908   0.997   4.930
   28SOL    HW2  984   0.811   1.115   4.988
   29SOL     OW  985   6.542   1.445   1.028
   29SOL    HW1  986   6.510   1.413   0.939
   29SOL    HW2  987   6.529   1.544   1.034
   30SOL     OW  988   5.007   0.340   5.323
   30SOL    HW1  989   5.007   0.381   5.232
   30SOL    HW2  990   5.053   0.251   5.319
   31SOL     OW  991   0.512   2.358   5.840
   31SOL    HW1  992   0.575   2.331   5.767
   31SOL    HW2  993   0.423   2.313   5.825
   32SOL     OW  994   1.046   1.904   2.378
   32SOL    HW1  995   1.023   1.824   2.322
   32SOL    HW2  996   0.979   1.976   2.362
   33SOL     OW  997   0.943   4.796   4.955
   33SOL    HW1  998   0.876   4.741   4.904
   33SOL    HW2  999   0.976   4.871   4.897
   34SOL     OW 1000   2.450   5.690   5.163
   34SOL    HW1 1001   2.494   5.780   5.164
   34SOL    HW2 1002   2.389   5.684   5.084
   35SOL     OW 1003   4.293   2.216   5.705
   35SOL    HW1 1004   4.341   2.267   5.777
   35SOL    HW2 1005   4.203   2.187   5.737
   36SOL     OW 1006   4.543   1.849   3.913
   36SOL    HW1 1007   4.500   1.938   3.931
   36SOL    HW2 1008   4.520   1.820   3.820
   37SOL     OW 1009   1.501   2.232   4.946
   37SOL    HW1 1010   1.423   2.242   5.008
   37SOL    HW2 1011   1.471   2.187   4.862
   38SOL     OW 1012   1.309   4.805   1.408
   38SOL    HW1 1013   1.374   4.848   1.470
   38SOL    HW2 1014   1.322   4.840   1.316
   39SOL     OW 1015   5.973   5.000   6.098
   39SOL    HW1 1016   5.939   4.928   6.159
   39SOL    HW2 1017   5.946   4.979   6.004
   40SOL     OW 1018   3.420   2.236   0.573
   40SOL    HW1 1019   3.472   2.153   0.556
   40SOL    HW2 1020   3.373   2.263   0.489
   41SOL     OW 1021   5.633   3.541   3.399
   41SOL    HW1 1022   5.725   3.505   3.410
   41SOL    HW2 1023   5.611   3.547   3.302
   42SOL     OW 1024   3.116   6.252   4.630
   42SOL    HW1 1025   3.169   6.274   4.549
   42SOL    HW2 1026   3.106   6.334   4.687
   43SOL     OW 1027   4.659   0.868   5.292
   43SOL    HW1 1028   4.665   0.860   5.392
   43SOL    HW2 1029   4.568   0.899   5.267
   44SOL     OW 1030   5.543   2.546   5.061
   44SOL    HW1 1031   5.625   2.513   5.107
   44SOL    HW2 1032   5.551   2.645   5.046
   45SOL     OW 1033   4.474   5.162   1.718
   45SOL    HW1 1034   4.450   5.076   1.764
   45SOL    HW2 1035   4.573   5.176   1.725
   46SOL     OW 1036   1.329   2.215   3.859
   46SOL    HW1 1037   1.358   2.169   3.776
   46SOL    HW2 1038   1.409   2.248   3.909
   47SOL     OW 1039   4.008   4.162   1.122
   47SOL    HW1 1040   3.991   4.063   1.121
   47SOL    HW2 1041   3.931   4.209   1.079
   48SOL     OW 1042   6.882   2.408   6.858
   48SOL    HW1 1043   6.835   2.420   6.945
   48SOL    HW2 1044   6.957   2.474   6.851
   49SOL     OW 1045   5.945   2.615   1.720
   49SOL    HW1 1046   5.960   2.623   1.621
   49SOL    HW2 1047   6.026   2.576   1.763
   50SOL     OW 1048   6.600   1.188   5.407
   50SOL    HW1 1049   6.673   1.177   5.476
   50SOL    HW2 1050   6.641   1.209   5.319
   51SOL     OW 1051   2.141   6.252   2.642
   51SOL    HW1 1052   2.215   6.291   2.586
   51SOL    HW2 1053   2.140   6.297   2.731
   52SOL     OW 1054   5.090   3.676   1.489
   52SOL    HW1 1055   5.064   3.770   1.513
   52SOL    HW2 1056   5.184   3.676   1.454
   53SOL     OW 1057   4.836   0.969   3.585
   53SOL    HW1 1058   4.819   1.011   3.495
   53SOL    HW2 1059   4.787   0.883   3.591
   54SOL     OW 1060   5.434   6.846   1.131
   54SOL    HW1 1061   5.529   6.870   1.112
   54SOL    HW2 1062   5.402   6.781   1.063
   55SOL     OW 1063   2.018   2.836   4.970
   55SOL    HW1 1064   1.968   2.920   4.990
   55SOL    HW2 1065   2.102   2.859   4.920
   56SOL     OW 1066   1.061   0.910   0.975
   56SOL    HW1 1067   1.041   0.819   0.941
   56SOL    HW2 1068   1.159   0.918   0.994
   57SOL     OW 1069   3.939   1.090   0.817
   57SOL    HW1 1070   3.918   1.071   0.913
   57SOL    HW2 1071   3.955   1.004   0.769
   58SOL     OW 1072   0.683   6.447   6.153
   58SOL    HW1 1073   0.591   6.446   6.114
   58SOL    HW2 1074   0.748   6.477   6.083
   59SOL     OW 1075   0.081   3.685   6.092
   59SOL    HW1 1076   0.111   3.779   6.079
   59SOL    HW2 1077   0.057   3.670   6.189
   60SOL     OW 1078   4.735   2.616   4.189
   60SOL    HW1 1079   4.795   2.690   4.159
   60SOL    HW2 1080   4.700   2.567   4.109
   61SOL     OW 1081   0.157   1.074   4.558
   61SOL    HW1 1082   0.081   1.128   4.524
   61SOL    HW2 1083   0.203   1.124   4.632
   62SOL     OW 1084   2.235   1.298   1.984
   62SOL    HW1 1085   2.243   1.198   1.986
   62SOL    HW2 1086   2.241   1.334   2.077
   63SOL     OW 1087   3.539   0.171   4.269
   63SOL    HW1 1088   3.539   0.155   4.170
   63SOL    HW2 1089   3.459   0.226   4.294
   64SOL     OW 1090   0.244   3.109   6.130
   64SOL    HW1 1091   0.178   3.068   6.193
   64SOL    HW2 1092   0.306   3.038   6.095
   65SOL     OW 1093   1.068   5.675   6.060
   65SOL    HW1 1094   1.096   5.740   6.131
   65SOL    HW2 1095   0.969   5.675   6.052
   66SOL     OW 1096   3.557   0.711   3.297
   66SOL    HW1 1097   3.461   0.690   3.318
   66SOL    HW2 1098   3.602   0.628   3.263
   67SOL     OW 1099   0.214   3.352   6.433
   67SOL    HW1 1100   0.261   3.367   6.346
   67SOL    HW2 1101   0.260   3.405   6.505
   68SOL     OW 1102   0.342   1.828   6.546
   68SOL    HW1 1103   0.337   1.750   6.609
   68SOL    HW2 1104   0.251   1.870   6.538
   69SOL     OW 1105   1.312   3.140   5.408
   69SOL    HW1 1106   1.243   3.093   5.463
   69SOL    HW2 1107   1.388   3.168   5.468
   70SOL     OW 1108   5.253   5.041   4.661
   70SOL    HW1 1109   5.157   5.064   4.679
   70SOL    HW2 1110   5.267   5.031   4.562
   71SOL     OW 1111   4.989   2.229   3.497
   71SOL    HW1 1112   4.929   2.304   3.468
   71SOL    HW2 1113   4.973   2.149   3.439
   72SOL     OW 1114   0.581   1.103   3.005
   72SOL    HW1 1115   0.617   1.158   2.930
   72SOL    HW2 1116   0.585   1.155   3.090
   73SOL     OW 1117   3.234   0.632   1.235
   73SOL    HW1 1118   3.201   0.661   1.145
   73SOL    HW2 1119   3.325   0.593   1.227
   74SOL     OW 1120   3.476   1.179   6.879
   74SOL    HW1 1121   3.439   1.270   6.899
   74SOL    HW2 1122   3.402   1.119   6.849
   75SOL     OW 1123   3.970   1.266   1.610
   75SOL    HW1 1124   3.958   1.352   1.659
   75SOL    HW2 1125   3.895   1.203   1.635
   76SOL     OW 1126   3.161   3.502   6.510
   76SOL    HW1 1127   3.226   3.471   6.441
   76SOL    HW2 1128   3.073   3.520   6.466
   77SOL     OW 1129   1.831   6.334   2.873
   77SOL    HW1 1130   1.796   6.267   2.938
   77SOL    HW2 1131   1.754   6.382   2.830
   78SOL     OW 1132   4.608   1.504   1.043
   78SOL    HW1 1133   4.572   1.511   0.950
   78SOL    HW2 1134   4.534   1.512   1.109
   79SOL     OW 1135   3.193   6.468   1.358
   79SOL    HW1 1136   3.233   6.381   1.387
   79SOL    HW2 1137   3.133   6.503   1.431
   80SOL     OW 1138   4.091   1.435   4.447
   80SOL    HW1 1139   4.109   1.524   4.487
   80SOL    HW2 1140   4.154   1.368   4.486
   81SOL     OW 1141   1.738   6.679   1.775
   81SOL    HW1 1142   1.756   6.683   1.677
   81SOL    HW2 1143   1.783   6.599   1.814
   82SOL     OW 1144   6.443   5.669   1.497
   82SOL    HW1 1145   6.357   5.639   1.539
   82SOL    HW2 1146   6.507   5.592   1.492
   83SOL     OW 1147   0.876   0.876   6.599
   83SOL    HW1 1148   0.879   0.786   6.640
   83SOL    HW2 1149   0.830   0.871   6.510
   84SOL     OW 1150   5.630   3.868   3.270
   84SOL    HW1 1151   5.722   3.834   3.250
   84SOL    HW2 1152   5.579   3.799   3.321
   85SOL     OW 1153   1.540   0.993   3.220
   85SOL    HW1 1154   1.536   0.951   3.310
   85SOL    HW2 1155   1.567   0.924   3.152
   86SOL     OW 1156   0.007   1.327   6.829
   86SOL    HW1 1157   0.102   1.316   6.860
   86SOL    HW2 1158   7.022   1.282   6.741
   87SOL     OW 1159   3.680   4.049   0.880
   87SOL    HW1 1160   3.712   4.055   0.786
   87SOL    HW2 1161   3.742   4.101   0.939
   88SOL     OW 1162   2.898   2.269   6.414
   88SOL    HW1 1163   2.955   2.221   6.481
   88SOL    HW2 1164   2.820   2.311   6.460
   89SOL     OW 1165   3.238   3.584   0.038
   89SOL    HW1 1166   3.221   3.558   0.133
   89SOL    HW2 1167   3.284   3.509   7.017
   90SOL     OW 1168   3.597   4.913   2.879
   90SOL    HW1 1169   3.623   4.909   2.976
   90SOL    HW2 1170   3.666   4.866   2.824
   91SOL     OW 1171   6.218   3.964   5.931
   91SOL    HW1 1172   6.195   4.061   5.933
   91SOL    HW2 1173   6.196   3.926   5.841
   92SOL     OW 1174   4.719   4.300   0.617
   92SOL    HW1 1175   4.803   4.335   0.659
   92SOL    HW2 1176   4.645   4.367   0.630
   93SOL     OW 1177   3.141   3.308   6.713
   93SOL    HW1 1178   3.141   3.380   6.644
   93SOL    HW2 1179   3.206   3.237   6.687
   94SOL     OW 1180   2.455   5.946   6.919
   94SOL    HW1 1181   2.464   6.045   6.907
   94SOL    HW2 1182   2.390   5.910   6.852
   95SOL     OW 1183   1.894   0.679   3.552
   95SOL    HW1 1184   1.840   0.695   3.470
   95SOL    HW2 1185   1.838   0.632   3.621
   96SOL     OW 1186   4.376   5.555   5.816
   96SOL    HW1 1187   4.376   5.471   5.762
   96SOL    HW2 1188   4.404   5.534   5.910
   97SOL     OW 1189   2.153   3.782   5.005
   97SOL    HW1 1190   2.080   3.848   4.988
   97SOL    HW2 1191   2.237   3.831   5.030
   98SOL     OW 1192   1.049   1.691   0.336
   98SOL    HW1 1193   1.017   1.786   0.333
   98SOL    HW2 1194   1.137   1.687   0.383
   99SOL     OW 1195   3.690   3.709   2.216
   99SOL    HW1 1196   3.602   3.747   2.246
   99SOL    HW2 1197   3.764   3.753   2.267
  100SOL     OW 1198   6.960   6.840   4.274
  100SOL    HW1 1199   6.992   6.767   4.334
  100SOL    HW2 1200   7.009   6.925   4.295
  101SOL     OW 1201   6.922   5.685   2.462
  101SOL    HW1 1202   6.826   5.708   2.444
  101SOL    HW2 1203   6.961   5.641   2.381
  102SOL     OW 1204   3.968   6.108   1.867
  102SOL    HW1 1205   4.002   6.070   1.780
  102SOL    HW2 1206   4.002   6.052   1.943
  103SOL     OW 1207   2.047   2.294   2.791
  103SOL    HW1 1208   2.068   2.389   2.815
  103SOL    HW2 1209   1.948   2.281   2.789
  104SOL     OW 1210   1.422   5.092   1.822
  104SOL    HW1 1211   1.487   5.083   1.746
  104SOL    HW2 1212   1.437   5.018   1.887
  105SOL     OW 1213   5.689   0.949   6.296
  105SOL    HW1 1214   5.645   0.990   6.216
  105SOL    HW2 1215   5.621   0.899   6.349
  106SOL     OW 1216   4.344   6.200   3.154
  106SOL    HW1 1217   4.309   6.271   3.215
  106SOL    HW2 1218   4.308   6.111   3.182
  107SOL     OW 1219   0.226   1.194   6.977
  107SOL    HW1 1220   0.249   1.151   6.889
  107SOL    HW2 1221   0.147   1.148   7.017
  108SOL     OW 1222   3.702   6.647   6.013
  108SOL    HW1 1223   3.700   6.631   5.914
  108SOL    HW2 1224   3.624   6.703   6.039
  109SOL     OW 1225   2.854   0.676   2.613
  109SOL    HW1 1226   2.772   0.720   2.651
  109SOL    HW2 1227   2.921   0.663   2.686
  110SOL     OW 1228   2.448   4.981   4.145
  110SOL    HW1 1229   2.511   5.056   4.168
  110SOL    HW2 1230   2.361   5.020   4.112
  111SOL     OW 1231   2.056   1.110   3.398
  111SOL    HW1 1232   1.960   1.084   3.403
  111SOL    HW2 1233   2.102   1.086   3.483
  112SOL     OW 1234   5.356   6.341   0.777
  112SOL    HW1 1235   5.362   6.326   0.678
  112SOL    HW2 1236   5.437   6.391   0.808
  113SOL     OW 1237   1.313   5.932   2.803
  113SOL    HW1 1238   1.318   5.851   2.745
  113SOL    HW2 1239   1.398   5.941   2.855
  114SOL     OW 1240   1.795   6.383   1.965
  114SOL    HW1 1241   1.838   6.394   2.055
  114SOL    HW2 1242   1.860   6.409   1.894
  115SOL     OW 1243   5.204   0.042   2.925
  115SOL    HW1 1244   5.208   7.001   2.998
  115SOL    HW2 1245   5.180   0.131   2.964
  116SOL     OW 1246   0.263   5.776   1.421
  116SOL    HW1 1247   0.200   5.853   1.425
  116SOL    HW2 1248   0.221   5.696   1.465
  117SOL     OW 1249   1.223   0.656   0.629
  117SOL    HW1 1250   1.159   0.631   0.702
  117SOL    HW2 1251   1.309   0.607   0.642
  118SOL     OW 1252   1.881   2.333   3.086
  118SOL    HW1 1253   1.834   2.269   3.025
  118SOL    HW2 1254   1.841   2.424   3.076
  119SOL     OW 1255   6.992   0.568   6.674
  119SOL    HW1 1256   6.945   0.520   6.748
  119SOL    HW2 1257   6.933   0.640   6.637
  120SOL     OW 1258   4.919   0.332   4.194
  120SOL    HW1 1259   4.842   0.271   4.213
  120SOL    HW2 1260   4.884   0.418   4.156
  121SOL     OW 1261   1.099   3.973   0.675
  121SOL    HW1 1262   1.156   3.986   0.756
  121SOL    HW2 1263   1.004   3.961   0.703
  122SOL     OW 1264   1.623   3.680   0.358
  122SOL    HW1 1265   1.576   3.764   0.331
  122SOL    HW2 1266   1.570   3.633   0.429
  123SOL     OW 1267   0.869   1.153   2.270
  123SOL    HW1 1268   0.927   1.184   2.346
  123SOL    HW2 1269   0.927   1.119   2.196
  124SOL     OW 1270   3.252   2.293   0.789
  124SOL    HW1 1271   3.315   2.351   0.841
  124SOL    HW2 1272   3.290   2.276   0.698
  125SOL     OW 1273   3.112   2.928   0.558
  125SOL    HW1 1274   3.208   2.949   0.542
  125SOL    HW2 1275   3.097   2.916   0.656
  126SOL     OW 1276   3.517   2.893   2.824
  126SOL    HW1 1277   3.515   2.958   2.901
  126SOL    HW2 1278   3.612   2.871   2.801
  127SOL     OW 1279   6.755   6.196   6.070
  127SOL    HW1 1280   6.839   6.187   6.017
  127SOL    HW2 1281   6.741   6.114   6.126
  128SOL     OW 1282   4.888   3.196   1.732
  128SOL    HW1 1283   4.942   3.161   1.655
  128SOL    HW2 1284   4.938   3.179   1.817
  129SOL     OW 1285   3.043   4.164   0.117
  129SOL    HW1 1286   2.991   4.233   0.167
  129SOL    HW2 1287   3.139   4.191   0.114
  130SOL     OW 1288   6.246   0.458   4.669
  130SOL    HW1 1289   6.190   0.539   4.685
  130SOL    HW2 1290   6.338   0.485   4.641
  131SOL     OW 1291   5.627   0.511   3.890
  131SOL    HW1 1292   5.704   0.532   3.951
  131SOL    HW2 1293   5.561   0.586   3.893
  132SOL     OW 1294   3.155   2.830   1.279
  132SOL    HW1 1295   3.185   2.863   1.368
  132SOL    HW2 1296   3.217   2.758   1.248
  133SOL     OW 1297   5.487   0.747   3.891
  133SOL    HW1 1298   5.484   0.763   3.792
  133SOL    HW2 1299   5.406   0.788   3.934
  134SOL     OW 1300   0.068   0.148   2.714
  134SOL    HW1 1301   0.053   0.055   2.747
  134SOL    HW2 1302   0.163   0.174   2.731
  135SOL     OW 1303   5.186   3.591   4.129
  135SOL    HW1 1304   5.134   3.506   4.117
  135SOL    HW2 1305   5.204   3.605   4.227
  136SOL     OW 1306   1.634   6.262   4.517
  136SOL    HW1 1307   1.711   6.226   4.569
  136SOL    HW2 1308   1.554   6.267   4.576
  137SOL     OW 1309   4.270   1.266   4.537
  137SOL    HW1 1310   4.229   1.215   4.612
  137SOL    HW2 1311   4.331   1.206   4.485
  138SOL     OW 1312   0.668   4.221   2.888
  138SOL    HW1 1313   0.685   4.123   2.901
  138SOL    HW2 1314   0.617   4.257   2.966
  139SOL     OW 1315   2.236   5.788   6.257
  139SOL    HW1 1316   2.294   5.716   6.218
  139SOL    HW2 1317   2.224   5.860   6.189
  140SOL     OW 1318   1.099   6.653   3.612
  140SOL    HW1 1319   1.173   6.693   3.559
  140SOL    HW2 1320   1.083   6.559   3.582
  141SOL     OW 1321   6.450   2.336   6.303
  141SOL    HW1 1322   6.435   2.253   6.249
  141SOL    HW2 1323   6.549   2.352   6.312
  142SOL     OW 1324   2.088   3.646   2.143
  142SOL    HW1 1325   2.149   3.588   2.089
  142SOL    HW2 1326   2.041   3.590   2.211
  143SOL     OW 1327   5.586   5.671   0.657
  143SOL    HW1 1328   5.620   5.747   0.711
  143SOL    HW2 1329   5.552   5.599   0.717
  144SOL     OW 1330   2.142   4.826   5.418
  144SOL    HW1 1331   2.119   4.808   5.322
  144SOL    HW2 1332   2.170   4.741   5.462
  145SOL     OW 1333   1.872   5.245   1.175
  145SOL    HW1 1334   1.897   5.307   1.250
  145SOL    HW2 1335   1.955   5.218   1.126
  146SOL     OW 1336   5.103   0.949   6.558
  146SOL    HW1 1337   5.057   1.037   6.567
  146SOL    HW2 1338   5.129   0.916   6.649
  147SOL     OW 1339   5.070   1.482   5.821
  147SOL    HW1 1340   5.101   1.461   5.914
  147SOL    HW2 1341   5.106   1.572   5.793
  148SOL     OW 1342   0.515   5.567   1.680
  148SOL    HW1 1343   0.449   5.639   1.700
  148SOL    HW2 1344   0.594   5.576   1.742
  149SOL     OW 1345   3.227   1.688   4.771
  149SOL    HW1 1346   3.222   1.588   4.772
  149SOL    HW2 1347   3.304   1.717   4.828
  150SOL     OW 1348   4.895   0.316   6.056
  150SOL    HW1 1349   4.929   0.380   6.125
  150SOL    HW2 1350   4.904   0.223   6.091
  151SOL     OW 1351   3.470   1.015   1.815
  151SOL    HW1 1352   3.397   1.048   1.875
  151SOL    HW2 1353   3.510   0.932   1.854
  152SOL     OW 1354   7.020   1.342   0.220
  152SOL    HW1 1355   6.983   1.277   0.153
  152SOL    HW2 1356   7.005   1.435   0.188
  153SOL     OW 1357   2.846   6.927   2.919
  153SOL    HW1 1358   2.862   6.841   2.870
  153SOL    HW2 1359   2.898   7.000   2.876
  154SOL     OW 1360   0.081   3.171   0.465
  154SOL    HW1 1361   0.146   3.121   0.523
  154SOL    HW2 1362   0.077   3.128   0.375
  155SOL     OW 1363   0.944   0.222   3.072
  155SOL    HW1 1364   1.037   0.195   3.098
  155SOL    HW2 1365   0.923   0.310   3.112
  156SOL     OW 1366   6.141   0.551   6.905
  156SOL    HW1 1367   6.188   0.537   6.818
  156SOL    HW2 1368   6.168   0.479   6.969
  157SOL     OW 1369   5.426   3.262   0.671
  157SOL    HW1 1370   5.407   3.259   0.769
  157SOL    HW2 1371   5.373   3.337   0.630
  158SOL     OW 1372   1.821   2.594   0.911
  158SOL    HW1 1373   1.784   2.548   0.829
  158SOL    HW2 1374   1.777   2.557   0.992
  159SOL     OW 1375   4.158   5.242   1.294
  159SOL    HW1 1376   4.175   5.255   1.196
  159SOL    HW2 1377   4.066   5.275   1.315
  160SOL     OW 1378   6.166   0.180   0.696
  160SOL    HW1 1379   6.144   0.275   0.720
  160SOL    HW2 1380   6.258   0.176   0.657
  161SOL     OW 1381   1.938   6.979   2.352
  161SOL    HW1 1382   1.937   6.881   2.333
  161SOL    HW2 1383   2.016   7.000   2.412
  162SOL     OW 1384   3.269   6.742   7.014
  162SOL    HW1 1385   3.252   6.726   0.084
  162SOL    HW2 1386   3.245   6.836   6.991
  163SOL     OW 1387   0.513   5.448   2.791
  163SOL    HW1 1388   0.538   5.538   2.757
  163SOL    HW2 1389   0.417   5.429   2.769
  164SOL     OW 1390   1.033   3.256   2.375
  164SOL    HW1 1391   1.036   3.343   2.424
  164SOL    HW2 1392   0.951   3.205   2.403
  165SOL     OW 1393   5.602   5.075   0.286
  165SOL    HW1 1394   5.686   5.128   0.292
  165SOL    HW2 1395   5.561   5.067   0.377
  166SOL     OW 1396   0.108   3.758   2.356
  166SOL    HW1 1397   0.185   3.760   2.292
  166SOL    HW2 1398   0.092   3.664   2.385
  167SOL     OW 1399   6.406   1.152   6.443
  167SOL    HW1 1400   6.368   1.061   6.459
  167SOL    HW2 1401   6.454   1.153   6.355
  168SOL     OW 1402   4.189   1.927   1.511
  168SOL    HW1 1403   4.229   1.995   1.450
  168SOL    HW2 1404   4.252   1.850   1.521
  169SOL     OW 1405   5.703   2.609   7.010
  169SOL    HW1 1406   5.688   2.514   6.985
  169SOL    HW2 1407   5.798   2.621   0.013
  170SOL     OW 1408   6.806   5.690   2.781
  170SOL    HW1 1409   6.727   5.717   2.836
  170SOL    HW2 1410   6.784   5.702   2.684
  171SOL     OW 1411   2.371   4.262   0.530
  171SOL    HW1 1412   2.400   4.323   0.604
  171SOL    HW2 1413   2.306   4.310   0.471
  172SOL     OW 1414   6.052   2.198   2.321
  172SOL    HW1 1415   5.974   2.221   2.264
  172SOL    HW2 1416   6.022   2.144   2.399
  173SOL     OW 1417   5.860   1.278   4.822
  173SOL    HW1 1418   5.828   1.311   4.734
  173SOL    HW2 1419   5.945   1.226   4.809
  174SOL     OW 1420   4.302   5.627   3.957
  174SOL    HW1 1421   4.218   5.574   3.956
  174SOL    HW2 1422   4.281   5.723   3.978
  175SOL     OW 1423   3.297   1.066   1.286
  175SOL    HW1 1424   3.346   1.012   1.218
  175SOL    HW2 1425   3.265   1.152   1.245
  176SOL     OW 1426   4.947   4.436   2.727
  176SOL    HW1 1427   4.925   4.388   2.813
  176SOL    HW2 1428   4.968   4.369   2.656
  177SOL     OW 1429   4.778   2.849   4.613
  177SOL    HW1 1430   4.737   2.759   4.631
  177SOL    HW2 1431   4.753   2.879   4.521
  178SOL     OW 1432   2.537   4.931   5.140
  178SOL    HW1 1433   2.633   4.952   5.155
  178SOL    HW2 1434   2.528   4.844   5.092
  179SOL     OW 1435   4.066   0.101   0.076
  179SOL    HW1 1436   4.020   0.018   0.046
  179SOL    HW2 1437   4.165   0.085   0.079
  180SOL     OW 1438   2.307   6.843   0.502
  180SOL    HW1 1439   2.392   6.821   0.551
  180SOL    HW2 1440   2.328   6.857   0.405
  181SOL     OW 1441   3.640   3.206   6.097
  181SOL    HW1 1442   3.563   3.143   6.096
  181SOL    HW2 1443   3.616   3.289   6.046
  182SOL     OW 1444   4.344   2.462   6.795
  182SOL    HW1 1445   4.343   2.549   6.745
  182SOL    HW2 1446   4.427   2.456   6.849
  183SOL     OW 1447   3.823   2.130   3.532
  183SOL    HW1 1448   3.914   2.149   3.569
  183SOL    HW2 1449   3.754   2.167   3.594
  184SOL     OW 1450   0.554   6.623   3.485
  184SOL    HW1 1451   0.618   6.547   3.469
  184SOL    HW2 1452   0.602   6.710   3.473
  185SOL     OW 1453   1.464   1.366   4.176
  185SOL    HW1 1454   1.532   1.304   4.136
  185SOL    HW2 1455   1.376   1.319   4.182
  186SOL     OW 1456   5.023   0.196   4.527
  186SOL    HW1 1457   4.926   0.213   4.509
  186SOL    HW2 1458   5.078   0.251   4.463
  187SOL     OW 1459   5.736   6.448   2.399
  187SOL    HW1 1460   5.738   6.542   2.432
  187SOL    HW2 1461   5.740   6.448   2.299
  188SOL     OW 1462   0.460   3.289   4.135
  188SOL    HW1 1463   0.360   3.282   4.135
  188SOL    HW2 1464   0.500   3.200   4.155
  189SOL     OW 1465   1.583   4.958   6.970
  189SOL    HW1 1466   1.673   4.924   6.944
  189SOL    HW2 1467   1.515   4.923   6.905
  190SOL     OW 1468   6.197   4.335   6.369
  190SOL    HW1 1469   6.158   4.243   6.375
  190SOL    HW2 1470   6.284   4.339   6.418
  191SOL     OW 1471   6.710   1.174   6.624
  191SOL    HW1 1472   6.670   1.145   6.711
  191SOL    HW2 1473   6.654   1.245   6.583
  192SOL     OW 1474   0.074   4.718   1.485
  192SOL    HW1 1475   0.121   4.797   1.524
  192SOL    HW2 1476   0.050   4.736   1.390
  193SOL     OW 1477   4.898   3.908   5.087
  193SOL    HW1 1478   4.930   3.879   4.997
  193SOL    HW2 1479   4.951   3.860   5.158
  194SOL     OW 1480   3.944   6.211   3.213
  194SOL    HW1 1481   4.025   6.152   3.220
  194SOL    HW2 1482   3.972   6.307   3.217
  195SOL     OW 1483   1.953   1.086   3.109
  195SOL    HW1 1484   1.946   0.994   3.072
  195SOL    HW2 1485   1.979   1.081   3.206
  196SOL     OW 1486   3.385   6.987   0.351
  196SOL    HW1 1487   3.409   7.009   0.446
  196SOL    HW2 1488   3.378   0.045   0.298
  197SOL     OW 1489   2.716   6.896   0.309
  197SOL    HW1 1490   2.653   6.843   0.251
  197SOL    HW2 1491   2.800   6.844   0.322
  198SOL     OW 1492   4.838   6.698   1.823
  198SOL    HW1 1493   4.805   6.705   1.729
  198SOL    HW2 1494   4.778   6.637   1.875
  199SOL     OW 1495   6.469   1.175   3.128
  199SOL    HW1 1496   6.531   1.159   3.052
  199SOL    HW2 1497   6.517   1.224   3.201
  200SOL     OW 1498   1.162   4.564   2.554
  200SOL    HW1 1499   1.152   4.494   2.625
  200SOL    HW2 1500   1.090   4.553   2.486
  201SOL     OW 1501   4.331   6.596   6.063
  201SOL    HW1 1502   4.248   6.616   6.116
  201SOL    HW2 1503   4.410   6.637   6.108
  202SOL     OW 1504   5.264   0.489   5.210
  202SOL    HW1 1505   5.332   0.511   5.140
  202SOL    HW2 1506   5.173   0.512   5.177
  203SOL     OW 1507   5.226   2.225   4.757
  203SOL    HW1 1508   5.175   2.158   4.811
  203SOL    HW2 1509   5.321   2.228   4.788
  204SOL     OW 1510   0.382   0.662   6.777
  204SOL    HW1 1511   0.322   0.650   6.699
  204SOL    HW2 1512   0.419   0.756   6.777
  205SOL     OW 1513   0.679   1.403   2.198
  205SOL    HW1 1514   0.608   1.431   2.133
  205SOL    HW2 1515   0.734   1.330   2.158
  206SOL     OW 1516   0.411   5.029   2.644
  206SOL    HW1 1517   0.318   5.021   2.680
  206SOL    HW2 1518   0.432   4.950   2.587
  207SOL     OW 1519   4.246   6.933   4.998
  207SOL    HW1 1520   4.341   6.963   4.999
  207SOL    HW2 1521   4.210   6.936   5.092
  208SOL     OW 1522   4.913   3.909   5.782
  208SOL    HW1 1523   4.860   3.825   5.797
  208SOL    HW2 1524   5.009   3.886   5.769
  209SOL     OW 1525   0.900   5.577   5.224
  209SOL    HW1 1526   0.954   5.512   5.278
  209SOL    HW2 1527   0.806   5.580   5.260
  210SOL     OW 1528   4.069   2.196   1.722
  210SOL    HW1 1529   4.031   2.183   1.814
  210SOL    HW2 1530   4.012   2.148   1.655
  211SOL     OW 1531   1.104   6.552   4.365
  211SOL    HW1 1532   1.018   6.588   4.402
  211SOL    HW2 1533   1.106   6.569   4.266
  212SOL     OW 1534   2.242   4.759   2.188
  212SOL    HW1 1535   2.154   4.806   2.196
  212SOL    HW2 1536   2.264   4.714   2.274
  213SOL     OW 1537   3.840   0.727   6.341
  213SOL    HW1 1538   3.906   0.797   6.369
  213SOL    HW2 1539   3.844   0.651   6.405
  214SOL     OW 1540   3.129   6.173   2.330
  214SOL    HW1 1541   3.171   6.166   2.239
  214SOL    HW2 1542   3.057   6.104   2.338
  215SOL     OW 1543   3.056   4.017   1.913
  215SOL    HW1 1544   3.099   4.079   1.846
  215SOL    HW2 1545   3.117   4.008   1.992
  216SOL     OW 1546   1.784   6.817   5.166
  216SOL    HW1 1547   1.719   6.742   5.156
  216SOL    HW2 1548   1.877   6.782   5.158
  217SOL     OW 1549   2.762   2.308   3.995
  217SOL    HW1 1550   2.721   2.396   3.974
  217SOL    HW2 1551   2.694   2.247   4.036
  218SOL     OW 1552   0.943   3.120   4.720
  218SOL    HW1 1553   0.974   3.150   4.630
  218SOL    HW2 1554   0.889   3.036   4.710
  219SOL     OW 1555   2.966   6.475   6.573
  219SOL    HW1 1556   3.062   6.463   6.551
  219SOL    HW2 1557   2.913   6.401   6.532
  220SOL     OW 1558   3.430   6.194   6.791
  220SOL    HW1 1559   3.454   6.154   6.879
  220SOL    HW2 1560   3.337   6.231   6.795
  221SOL     OW 1561   6.617   3.812   2.542
  221SOL    HW1 1562   6.696   3.767   2.585
  221SOL    HW2 1563   6.625   3.805   2.442
  222SOL     OW 1564   2.009   4.834   5.650
  222SOL    HW1 1565   2.080   4.896   5.682
  222SOL    HW2 1566   2.019   4.818   5.552
  223SOL     OW 1567   6.622   3.919   0.620
  223SOL    HW1 1568   6.644   3.833   0.666
  223SOL    HW2 1569   6.706   3.972   0.607
  224SOL     OW 1570   2.602   1.888   3.661
  224SOL    HW1 1571   2.656   1.830   3.599
  224SOL    HW2 1572   2.558   1.830   3.729
  225SOL     OW 1573   4.849   1.262   6.286
  225SOL    HW1 1574   4.841   1.166   6.312
  225SOL    HW2 1575   4.850   1.270   6.186
  226SOL     OW 1576   0.588   6.983   6.302
  226SOL    HW1 1577   0.685   6.963   6.313
  226SOL    HW2 1578   0.533   6.910   6.344
  227SOL     OW 1579   1.550   4.588   2.308
  227SOL    HW1 1580   1.569   4.627   2.218
  227SOL    HW2 1581   1.451   4.583   2.322
  228SOL     OW 1582   3.167   6.377   3.947
  228SOL    HW1 1583   3.073   6.347   3.931
  228SOL    HW2 1584   3.215   6.383   3.859
  229SOL     OW 1585   5.943   6.082   0.552
  229SOL    HW1 1586   5.958   5.984   0.538
  229SOL    HW2 1587   5.844   6.100   0.550
  230SOL     OW 1588   3.174   4.900   3.051
  230SOL    HW1 1589   3.119   4.981   3.032
  230SOL    HW2 1590   3.242   4.888   2.978
  231SOL     OW 1591   6.314   1.775   5.877
  231SOL    HW1 1592   6.261   1.700   5.837
  231SOL    HW2 1593   6.272   1.803   5.964
  232SOL     OW 1594   0.860   4.055   6.158
  232SOL    HW1 1595   0.877   4.071   6.060
  232SOL    HW2 1596   0.823   3.963   6.170
  233SOL     OW 1597   2.121   0.953   4.286
  233SOL    HW1 1598   2.211   0.931   4.250
  233SOL    HW2 1599   2.060   0.981   4.212
  234SOL     OW 1600   3.066   6.287   5.516
  234SOL    HW1 1601   3.089   6.194   5.545
  234SOL    HW2 1602   3.142   6.324   5.462
  235SOL     OW 1603   2.897   3.529   2.403
  235SOL    HW1 1604   2.947   3.613   2.420
  235SOL    HW2 1605   2.872   3.523   2.307
  236SOL     OW 1606   6.249   3.028   6.670
  236SOL    HW1 1607   6.269   3.103   6.607
  236SOL    HW2 1608   6.288   2.943   6.635
  237SOL     OW 1609   6.694   6.605   0.800
  237SOL    HW1 1610   6.742   6.579   0.716
  237SOL    HW2 1611   6.607   6.556   0.806
  238SOL     OW 1612   6.239   2.244   0.045
  238SOL    HW1 1613   6.242   2.337   0.081
  238SOL    HW2 1614   6.302   2.186   0.097
  239SOL     OW 1615   6.507   5.095   0.005
  239SOL    HW1 1616   6.457   5.159   6.973
  239SOL    HW2 1617   6.442   5.045   0.063
  240SOL     OW 1618   0.127   3.016   5.170
  240SOL    HW1 1619   0.124   3.019   5.270
  240SOL    HW2 1620   0.147   3.108   5.135
  241SOL     OW 1621   1.100   0.382   3.912
  241SOL    HW1 1622   1.036   0.417   3.980
  241SOL    HW2 1623   1.098   0.282   3.913
  242SOL     OW 1624   2.226   2.878   6.321
  242SOL    HW1 1625   2.264   2.966   6.294
  242SOL    HW2 1626   2.280   2.804   6.282
  243SOL     OW 1627   4.991   6.889   6.522
  243SOL    HW1 1628   5.033   6.891   6.613
  243SOL    HW2 1629   4.993   6.981   6.483
  244SOL     OW 1630   4.763   2.862   4.348
  244SOL    HW1 1631   4.844   2.833   4.299
  244SOL    HW2 1632   4.691   2.793   4.339
  245SOL     OW 1633   6.953   2.194   4.544
  245SOL    HW1 1634   6.859   2.215   4.518
  245SOL    HW2 1635   6.966   2.211   4.641
  246SOL     OW 1636   5.592   3.073   3.205
  246SOL    HW1 1637   5.551   2.988   3.173
  246SOL    HW2 1638   5.689   3.075   3.182
  247SOL     OW 1639   1.939   1.752   2.520
  247SOL    HW1 1640   1.968   1.695   2.444
  247SOL    HW2 1641   1.918   1.844   2.487
  248SOL     OW 1642   4.446   2.496   4.888
  248SOL    HW1 1643   4.360   2.489   4.938
  248SOL    HW2 1644   4.517   2.446   4.937
  249SOL     OW 1645   4.759   0.284   5.438
  249SOL    HW1 1646   4.846   0.270   5.391
  249SOL    HW2 1647   4.756   0.227   5.520
  250SOL     OW 1648   4.547   2.283   5.573
  250SOL    HW1 1649   4.470   2.231   5.609
  250SOL    HW2 1650   4.522   2.380   5.568
  251SOL     OW 1651   4.375   4.658   6.074
  251SOL    HW1 1652   4.419   4.703   6.152
  251SOL    HW2 1653   4.276   4.669   6.081
  252SOL     OW 1654   6.881   0.719   6.912
  252SOL    HW1 1655   6.897   0.631   6.957
  252SOL    HW2 1656   6.803   0.711   6.850
  253SOL     OW 1657   2.093   4.630   0.259
  253SOL    HW1 1658   2.074   4.727   0.245
  253SOL    HW2 1659   2.156   4.598   0.188
  254SOL     OW 1660   6.540   2.791   3.413
  254SOL    HW1 1661   6.502   2.882   3.394
  254SOL    HW2 1662   6.491   2.750   3.489
  255SOL     OW 1663   2.084   2.734   4.120
  255SOL    HW1 1664   2.009   2.763   4.062
  255SOL    HW2 1665   2.083   2.634   4.128
  256SOL     OW 1666   6.666   4.680   0.125
  256SOL    HW1 1667   6.637   4.587   0.103
  256SOL    HW2 1668   6.747   4.677   0.183
  257SOL     OW 1669   3.485   5.310   5.258
  257SOL    HW1 1670   3.471   5.406   5.234
  257SOL    HW2 1671   3.400   5.259   5.247
  258SOL     OW 1672   5.532   3.662   4.551
  258SOL    HW1 1673   5.630   3.641   4.554
  258SOL    HW2 1674   5.486   3.619   4.629
  259SOL     OW 1675   2.186   3.067   2.280
  259SOL    HW1 1676   2.175   3.082   2.379
  259SOL    HW2 1677   2.130   3.134   2.231
  260SOL     OW 1678   4.262   0.851   1.146
  260SOL    HW1 1679   4.356   0.875   1.121
  260SOL    HW2 1680   4.244   0.881   1.240
  261SOL     OW 1681   6.760   3.768   1.242
  261SOL    HW1 1682   6.675   3.789   1.291
  261SOL    HW2 1683   6.832   3.830   1.273
  262SOL     OW 1684   0.742   3.904   1.837
  262SOL    HW1 1685   0.750   3.805   1.834
  262SOL    HW2 1686   0.759   3.942   1.746
  263SOL     OW 1687   0.125   1.402   3.934
  263SOL    HW1 1688   0.031   1.431   3.955
  263SOL    HW2 1689   0.177   1.480   3.899
  264SOL     OW 1690   6.153   4.599   5.507
  264SOL    HW1 1691   6.146   4.698   5.522
  264SOL    HW2 1692   6.190   4.582   5.415
  265SOL     OW 1693   5.008   3.847   3.095
  265SOL    HW1 1694   5.012   3.825   3.192
  265SOL    HW2 1695   5.031   3.765   3.041
  266SOL     OW 1696   3.445   3.036   6.189
  266SOL    HW1 1697   3.476   2.942   6.175
  266SOL    HW2 1698   3.505   3.083   6.253
  267SOL     OW 1699   6.695   2.642   5.892
  267SOL    HW1 1700   6.783   2.596   5.878
  267SOL    HW2 1701   6.646   2.649   5.805
  268SOL     OW 1702   5.103   5.710   5.269
  268SOL    HW1 1703   5.121   5.675   5.177
  268SOL    HW2 1704   5.186   5.704   5.323
  269SOL     OW 1705   1.644   1.910   0.472
  269SOL    HW1 1706   1.711   1.875   0.406
  269SOL    HW2 1707   1.554   1.912   0.430
  270SOL     OW 1708   0.022   1.027   1.898
  270SOL    HW1 1709   6.989   1.078   1.835
  270SOL    HW2 1710   0.117   1.037   1.868
  271SOL     OW 1711   2.961   1.736   0.378
  271SOL    HW1 1712   2.877   1.787   0.356
  271SOL    HW2 1713   2.937   1.648   0.418
  272SOL     OW 1714   3.213   5.531   4.427
  272SOL    HW1 1715   3.226   5.445   4.477
  272SOL    HW2 1716   3.291   5.591   4.446
  273SOL     OW 1717   1.595   5.386   5.198
  273SOL    HW1 1718   1.592   5.404   5.296
  273SOL    HW2 1719   1.622   5.291   5.182
  274SOL     OW 1720   5.440   2.174   4.162
  274SOL    HW1 1721   5.426   2.245   4.092
  274SOL    HW2 1722   5.461   2.217   4.250
  275SOL     OW 1723   0.603   5.735   6.257
  275SOL    HW1 1724   0.553   5.649   6.271
  275SOL    HW2 1725   0.599   5.789   6.341
  276SOL     OW 1726   6.645   5.476   3.846
  276SOL    HW1 1727   6.677   5.525   3.765
  276SOL    HW2 1728   6.558   5.429   3.825
  277SOL     OW 1729   3.100   1.332   6.565
  277SOL    HW1 1730   3.180   1.380   6.528
  277SOL    HW2 1731   3.114   1.233   6.556
  278SOL     OW 1732   6.498   3.571   2.149
  278SOL    HW1 1733   6.433   3.589   2.223
  278SOL    HW2 1734   6.487   3.477   2.117
  279SOL     OW 1735   6.285   2.782   4.418
  279SOL    HW1 1736   6.364   2.835   4.449
  279SOL    HW2 1737   6.286   2.775   4.318
  280SOL     OW 1738   4.256   6.982   3.418
  280SOL    HW1 1739   4.200   6.928   3.355
  280SOL    HW2 1740   4.218   6.975   3.510
  281SOL     OW 1741   2.980   4.808   3.248
  281SOL    HW1 1742   3.004   4.864   3.327
  281SOL    HW2 1743   3.041   4.832   3.172
  282SOL     OW 1744   3.915   2.409   5.332
  282SOL    HW1 1745   4.012   2.418   5.309
  282SOL    HW2 1746   3.877   2.329   5.285
  283SOL     OW 1747   5.803   0.721   5.870
  283SOL    HW1 1748   5.780   0.626   5.888
  283SOL    HW2 1749   5.900   0.737   5.889
  284SOL     OW 1750   1.022   4.621   4.707
  284SOL    HW1 1751   0.936   4.668   4.725
  284SOL    HW2 1752   1.027   4.539   4.763
  285SOL     OW 1753   5.030   5.686   0.286
  285SOL    HW1 1754   4.947   5.734   0.314
  285SOL    HW2 1755   5.096   5.687   0.361
  286SOL     OW 1756   4.558   4.718   5.718
  286SOL    HW1 1757   4.566   4.625   5.753
  286SOL    HW2 1758   4.619   4.729   5.640
  287SOL     OW 1759   1.479   5.471   6.415
  287SOL    HW1 1760   1.421   5.513   6.346
  287SOL    HW2 1761   1.564   5.439   6.373
  288SOL     OW 1762   4.116   1.348   0.161
  288SOL    HW1 1763   4.150   1.410   0.089
  288SOL    HW2 1764   4.017   1.341   0.155
  289SOL     OW 1765   0.520   5.231   5.634
  289SOL    HW1 1766   0.568   5.238   5.546
  289SOL    HW2 1767   0.559   5.296   5.699
  290SOL     OW 1768   5.083   1.068   3.732
  290SOL    HW1 1769   4.996   1.042   3.690
  290SOL    HW2 1770   5.066   1.125   3.812
  291SOL     OW 1771   4.210   1.143   4.171
  291SOL    HW1 1772   4.241   1.219   4.114
  291SOL    HW2 1773   4.236   1.056   4.127
  292SOL     OW 1774   4.931   1.410   4.031
  292SOL    HW1 1775   4.873   1.466   4.090
  292SOL    HW2 1776   4.929   1.446   3.937
  293SOL     OW 1777   4.011   6.506   1.340
  293SOL    HW1 1778   4.103   6.539   1.319
  293SOL    HW2 1779   3.954   6.583   1.370
  294SOL     OW 1780   5.787   5.655   6.858
  294SOL    HW1 1781   5.693   5.639   6.828
  294SOL    HW2 1782   5.840   5.694   6.783
  295SOL     OW 1783   2.288   2.173   5.337
  295SOL    HW1 1784   2.263   2.141   5.246
  295SOL    HW2 1785   2.377   2.219   5.333
  296SOL     OW 1786   6.981   2.498   1.792
  296SOL    HW1 1787   6.951   2.525   1.700
  296SOL    HW2 1788   6.902   2.491   1.852
  297SOL     OW 1789   3.054   5.171   3.388
  297SOL    HW1 1790   3.121   5.101   3.365
  297SOL    HW2 1791   3.071   5.206   3.480
  298SOL     OW 1792   4.374   6.777   0.038
  298SOL    HW1 1793   4.343   6.719   6.989
  298SOL    HW2 1794   4.332   6.746   0.123
  299SOL     OW 1795   4.383   2.162   6.814
  299SOL    HW1 1796   4.451   2.215   6.864
  299SOL    HW2 1797   4.296   2.211   6.815
  300SOL     OW 1798   4.177   0.241   2.755
  300SOL    HW1 1799   4.094   0.278   2.712
  300SOL    HW2 1800   4.257   0.283   2.713
  301SOL     OW 1801   4.939   1.444   1.318
  301SOL    HW1 1802   5.033   1.465   1.342
  301SOL    HW2 1803   4.879   1.461   1.397
  302SOL     OW 1804   6.991   0.895   2.660
  302SOL    HW1 1805   0.032   0.911   2.588
  302SOL    HW2 1806   6.951   0.805   2.648
  303SOL     OW 1807   6.382   5.870   1.978
  303SOL    HW1 1808   6.480   5.878   1.997
  303SOL    HW2 1809   6.339   5.960   1.990
  304SOL     OW 1810   2.298   6.687   6.628
  304SOL    HW1 1811   2.209   6.654   6.596
  304SOL    HW2 1812   2.370   6.644   6.574
  305SOL     OW 1813   1.339   2.941   1.087
  305SOL    HW1 1814   1.316   2.940   1.184
  305SOL    HW2 1815   1.433   2.973   1.075
  306SOL     OW 1816   0.249   1.075   2.826
  306SOL    HW1 1817   0.271   1.128   2.908
  306SOL    HW2 1818   0.287   1.121   2.746
  307SOL     OW 1819   4.269   4.288   0.071
  307SOL    HW1 1820   4.361   4.319   0.095
  307SOL    HW2 1821   4.267   4.188   0.066
  308SOL     OW 1822   5.725   2.370   4.118
  308SOL    HW1 1823   5.716   2.328   4.028
  308SOL    HW2 1824   5.796   2.441   4.114
  309SOL     OW 1825   1.606   6.199   0.302
  309SOL    HW1 1826   1.568   6.259   0.232
  309SOL    HW2 1827   1.684   6.150   0.264
  310SOL     OW 1828   4.917   6.384   4.616
  310SOL    HW1 1829   4.822   6.411   4.597
  310SOL    HW2 1830   4.979   6.456   4.583
  311SOL     OW 1831   2.986   5.310   2.821
  311SOL    HW1 1832   3.015   5.271   2.734
  311SOL    HW2 1833   3.003   5.245   2.895
  312SOL     OW 1834   3.688   2.107   3.956
  312SOL    HW1 1835   3.594   2.077   3.974
  312SOL    HW2 1836   3.707   2.097   3.859
  313SOL     OW 1837   3.414   4.110   2.291
  313SOL    HW1 1838   3.511   4.119   2.269
  313SOL    HW2 1839   3.397   4.146   2.382
  314SOL     OW 1840   2.447   4.588   5.386
  314SOL    HW1 1841   2.406   4.546   5.305
  314SOL    HW2 1842   2.538   4.623   5.363
  315SOL     OW 1843   0.976   2.396   4.006
  315SOL    HW1 1844   0.991   2.298   3.989
  315SOL    HW2 1845   1.062   2.445   3.998
  316SOL     OW 1846   3.752   0.467   4.393
  316SOL    HW1 1847   3.763   0.494   4.297
  316SOL    HW2 1848   3.822   0.512   4.449
  317SOL     OW 1849   0.074   1.547   1.497
  317SOL    HW1 1850   0.122   1.635   1.491
  317SOL    HW2 1851   0.006   1.551   1.570
  318SOL     OW 1852   6.475   0.042   7.017
  318SOL    HW1 1853   6.515   0.081   6.934
  318SOL    HW2 1854   6.503   6.973   7.025
  319SOL     OW 1855   6.543   1.343   3.475
  319SOL    HW1 1856   6.519   1.335   3.572
  319SOL    HW2 1857   6.531   1.437   3.445
  320SOL     OW 1858   5.978   2.989   0.288
  320SOL    HW1 1859   5.987   3.023   0.194
  320SOL    HW2 1860   5.957   3.066   0.349
  321SOL     OW 1861   4.093   2.182   6.814
  321SOL    HW1 1862   4.052   2.247   6.877
  321SOL    HW2 1863   4.050   2.191   6.724
  322SOL     OW 1864   3.309   2.977   4.546
  322SOL    HW1 1865   3.272   3.048   4.605
  322SOL    HW2 1866   3.248   2.897   4.547
  323SOL     OW 1867   1.017   2.740   5.608
  323SOL    HW1 1868   1.070   2.750   5.691
  323SOL    HW2 1869   1.072   2.692   5.539
  324SOL     OW 1870   2.645   0.186   2.910
  324SOL    HW1 1871   2.716   0.147   2.969
  324SOL    HW2 1872   2.655   0.286   2.907
  325SOL     OW 1873   0.561   3.163   1.926
  325SOL    HW1 1874   0.607   3.212   1.853
  325SOL    HW2 1875   0.629   3.126   1.990
  326SOL     OW 1876   0.873   4.522   6.113
  326SOL    HW1 1877   0.917   4.500   6.026
  326SOL    HW2 1878   0.918   4.472   6.187
  327SOL     OW 1879   2.396   4.781   2.798
  327SOL    HW1 1880   2.421   4.841   2.722
  327SOL    HW2 1881   2.429   4.821   2.884
  328SOL     OW 1882   2.098   4.955   1.864
  328SOL    HW1 1883   2.100   5.051   1.834
  328SOL    HW2 1884   2.089   4.952   1.964
  329SOL     OW 1885   2.604   3.627   5.783
  329SOL    HW1 1886   2.525   3.672   5.742
  329SOL    HW2 1887   2.613   3.535   5.745
  330SOL     OW 1888   3.144   6.479   0.953
  330SOL    HW1 1889   3.216   6.425   0.910
  330SOL    HW2 1890   3.084   6.418   1.006
  331SOL     OW 1891   4.662   5.529   0.595
  331SOL    HW1 1892   4.656   5.520   0.495
  331SOL    HW2 1893   4.718   5.609   0.617
  332SOL     OW 1894   5.510   2.819   5.356
  332SOL    HW1 1895   5.533   2.751   5.425
  332SOL    HW2 1896   5.591   2.839   5.301
  333SOL     OW 1897   4.344   0.737   5.539
  333SOL    HW1 1898   4.281   0.814   5.555
  333SOL    HW2 1899   4.315   0.659   5.594
  334SOL     OW 1900   2.883   2.103   0.290
  334SOL    HW1 1901   2.980   2.105   0.313
  334SOL    HW2 1902   2.837   2.183   0.328
  335SOL     OW 1903   3.617   0.174   6.497
  335SOL    HW1 1904   3.633   0.093   6.553
  335SOL    HW2 1905   3.597   0.253   6.555
  336SOL     OW 1906   3.100   0.809   3.414
  336SOL    HW1 1907   3.165   0.734   3.397
  336SOL    HW2 1908   3.146   0.880   3.468
  337SOL     OW 1909   6.856   3.461   5.246
  337SOL    HW1 1910   6.779   3.524   5.256
  337SOL    HW2 1911   6.897   3.444   5.335
  338SOL     OW 1912   3.237   2.422   1.333
  338SOL    HW1 1913   3.208   2.474   1.413
  338SOL    HW2 1914   3.243   2.325   1.357
  339SOL     OW 1915   4.402   5.421   4.657
  339SOL    HW1 1916   4.370   5.515   4.644
  339SOL    HW2 1917   4.485   5.422   4.713
  340SOL     OW 1918   5.175   3.406   4.561
  340SOL    HW1 1919   5.213   3.313   4.567
  340SOL    HW2 1920   5.106   3.418   4.633
  341SOL     OW 1921   6.072   6.484   4.443
  341SOL    HW1 1922   6.103   6.573   4.409
  341SOL    HW2 1923   6.013   6.497   4.522
  342SOL     OW 1924   5.687   3.585   0.193
  342SOL    HW1 1925   5.612   3.650   0.187
  342SOL    HW2 1926   5.654   3.493   0.169
  343SOL     OW 1927   0.706   5.966   1.725
  343SOL    HW1 1928   0.652   6.050   1.714
  343SOL    HW2 1929   0.687   5.904   1.649
  344SOL     OW 1930   0.859   3.412   1.878
  344SOL    HW1 1931   0.802   3.357   1.816
  344SOL    HW2 1932   0.951   3.372   1.883
  345SOL     OW 1933   5.230   2.317   3.530
  345SOL    HW1 1934   5.261   2.294   3.623
  345SOL    HW2 1935   5.140   2.277   3.515
  346SOL     OW 1936   1.797   1.135   2.316
  346SOL    HW1 1937   1.720   1.126   2.380
  346SOL    HW2 1938   1.793   1.062   2.249
  347SOL     OW 1939   3.056   5.840   0.353
  347SOL    HW1 1940   2.957   5.856   0.353
  347SOL    HW2 1941   3.092   5.850   0.260
  348SOL     OW 1942   4.873   3.677   2.681
  348SOL    HW1 1943   4.849   3.628   2.597
  348SOL    HW2 1944   4.824   3.764   2.684
  349SOL     OW 1945   7.007   5.147   1.685
  349SOL    HW1 1946   6.964   5.177   1.770
  349SOL    HW2 1947   6.936   5.122   1.619
  350SOL     OW 1948   2.909   1.796   1.546
  350SOL    HW1 1949   3.002   1.810   1.582
  350SOL    HW2 1950   2.864   1.885   1.536
  351SOL     OW 1951   2.380   3.420   1.000
  351SOL    HW1 1952   2.391   3.518   1.013
  351SOL    HW2 1953   2.469   3.375   1.007
  352SOL     OW 1954   3.477   6.650   3.799
  352SOL    HW1 1955   3.555   6.593   3.823
  352SOL    HW2 1956   3.392   6.602   3.824
  353SOL     OW 1957   3.359   0.172   0.197
  353SOL    HW1 1958   3.454   0.180   0.167
  353SOL    HW2 1959   3.333   0.253   0.249
  354SOL     OW 1960   4.438   2.200   1.604
  354SOL    HW1 1961   4.381   2.272   1.645
  354SOL    HW2 1962   4.429   2.116   1.657
  355SOL     OW 1963   1.512   4.486   2.994
  355SOL    HW1 1964   1.492   4.486   3.092
  355SOL    HW2 1965   1.440   4.533   2.945
  356SOL     OW 1966   1.979   0.434   5.420
  356SOL    HW1 1967   2.028   0.432   5.507
  356SOL    HW2 1968   1.881   0.442   5.437
  357SOL     OW 1969   7.015   6.782   5.427
  357SOL    HW1 1970   6.928   6.751   5.388
  357SOL    HW2 1971   0.062   6.724   5.392
  358SOL     OW 1972   4.608   6.389   0.561
  358SOL    HW1 1973   4.559   6.303   0.549
  358SOL    HW2 1974   4.583   6.430   0.649
  359SOL     OW 1975   3.077   2.032   2.037
  359SOL    HW1 1976   2.993   2.055   1.987
  359SOL    HW2 1977   3.104   1.938   2.014
  360SOL     OW 1978   1.293   4.695   5.712
  360SOL    HW1 1979   1.374   4.645   5.682
  360SOL    HW2 1980   1.311   4.794   5.707
  361SOL     OW 1981   6.770   6.323   3.073
  361SOL    HW1 1982   6.764   6.242   3.015
  361SOL    HW2 1983   6.742   6.300   3.166
  362SOL     OW 1984   3.421   2.728   1.606
  362SOL    HW1 1985   3.416   2.646   1.550
  362SOL    HW2 1986   3.468   2.708   1.691
  363SOL     OW 1987   5.500   4.019   3.069
  363SOL    HW1 1988   5.409   4.036   3.106
  363SOL    HW2 1989   5.549   3.954   3.127
  364SOL     OW 1990   6.595   5.103   6.434
  364SOL    HW1 1991   6.553   5.180   6.386
  364SOL    HW2 1992   6.632   5.133   6.522
  365SOL     OW 1993   5.415   0.185   2.332
  365SOL    HW1 1994   5.385   0.102   2.287
  365SOL    HW2 1995   5.423   0.259   2.265
  366SOL     OW 1996   5.356   1.387   6.956
  366SOL    HW1 1997   5.409   1.373   6.873
  366SOL    HW2 1998   5.271   1.333   6.951
  367SOL     OW 1999   6.152   2.461   1.157
  367SOL    HW1 2000   6.190   2.546   1.121
  367SOL    HW2 2001   6.225   2.404   1.195
  368SOL     OW 2002   0.781   2.830   5.707
  368SOL    HW1 2003   0.872   2.801   5.678
  368SOL    HW2 2004   0.785   2.925   5.738
  369SOL     OW 2005   5.792   5.066   2.314
  369SOL    HW1 2006   5.753   5.062   2.406
  369SOL    HW2 2007   5.797   4.973   2.276
  370SOL     OW 2008   1.353   1.543   5.159
  370SOL    HW1 2009   1.300   1.475   5.108
  370SOL    HW2 2010   1.375   1.507   5.249
  371SOL     OW 2011   1.776   4.817   6.032
  371SOL    HW1 2012   1.693   4.792   6.081
  371SOL    HW2 2013   1.761   4.805   5.934
  372SOL     OW 2014   1.876   7.013   6.299
  372SOL    HW1 2015   1.873   0.020   6.205
  372SOL    HW2 2016   1.784   7.013   6.337
  373SOL     OW 2017   6.200   6.137   4.822
  373SOL    HW1 2018   6.248   6.052   4.801
  373SOL    HW2 2019   6.148   6.167   4.741
  374SOL     OW 2020   2.627   1.979   3.998
  374SOL    HW1 2021   2.576   1.903   3.957
  374SOL    HW2 2022   2.718   1.984   3.957
  375SOL     OW 2023   0.542   4.446   3.535
  375SOL    HW1 2024   0.526   4.452   3.437
  375SOL    HW2 2025   0.519   4.534   3.578
  376SOL     OW 2026   1.967   1.188   5.116
  376SOL    HW1 2027   1.908   1.122   5.162
  376SOL    HW2 2028   1.944   1.281   5.145
  377SOL     OW 2029   1.277   2.143   0.474
  377SOL    HW1 2030   1.279   2.177   0.568
  377SOL    HW2 2031   1.321   2.209   0.414
  378SOL     OW 2032   4.616   2.347   6.961
  378SOL    HW1 2033   4.588   2.393   0.018
  378SOL    HW2 2034   4.686   2.402   6.914
  379SOL     OW 2035   6.164   2.210   1.365
  379SOL    HW1 2036   6.251   2.250   1.336
  379SOL    HW2 2037   6.138   2.246   1.454
  380SOL     OW 2038   3.294   1.185   0.882
  380SOL    HW1 2039   3.298   1.278   0.845
  380SOL    HW2 2040   3.385   1.143   0.875
  381SOL     OW 2041   1.909   4.084   3.352
  381SOL    HW1 2042   1.904   4.131   3.440
  381SOL    HW2 2043   2.003   4.057   3.333
  382SOL     OW 2044   6.149   0.739   0.298
  382SOL    HW1 2045   6.209   0.659   0.304
  382SOL    HW2 2046   6.119   0.752   0.204
  383SOL     OW 2047   4.002   3.269   6.722
  383SOL    HW1 2048   4.052   3.284   6.807
  383SOL    HW2 2049   3.979   3.356   6.680
  384SOL     OW 2050   6.344   5.273   4.623
  384SOL    HW1 2051   6.285   5.334   4.676
  384SOL    HW2 2052   6.352   5.307   4.530
  385SOL     OW 2053   2.991   4.717   5.361
  385SOL    HW1 2054   3.090   4.709   5.376
  385SOL    HW2 2055   2.962   4.650   5.294
  386SOL     OW 2056   3.062   6.783   4.202
  386SOL    HW1 2057   2.988   6.757   4.140
  386SOL    HW2 2058   3.073   6.712   4.272
  387SOL     OW 2059   1.195   6.311   2.856
  387SOL    HW1 2060   1.223   6.339   2.764
  387SOL    HW2 2061   1.263   6.247   2.892
  388SOL     OW 2062   1.127   2.646   5.362
  388SOL    HW1 2063   1.120   2.546   5.355
  388SOL    HW2 2064   1.215   2.675   5.326
  389SOL     OW 2065   3.889   3.677   1.813
  389SOL    HW1 2066   3.855   3.629   1.732
  389SOL    HW2 2067   3.823   3.668   1.888
  390SOL     OW 2068   2.622   1.883   2.322
  390SOL    HW1 2069   2.699   1.928   2.368
  390SOL    HW2 2070   2.584   1.812   2.381
  391SOL     OW 2071   2.317   1.952   6.462
  391SOL    HW1 2072   2.406   1.995   6.448
  391SOL    HW2 2073   2.328   1.853   6.462
  392SOL     OW 2074   1.532   4.700   0.499
  392SOL    HW1 2075   1.571   4.639   0.429
  392SOL    HW2 2076   1.432   4.693   0.497
  393SOL     OW 2077   1.251   4.359   6.418
  393SOL    HW1 2078   1.241   4.456   6.439
  393SOL    HW2 2079   1.170   4.327   6.369
  394SOL     OW 2080   6.712   1.826   0.111
  394SOL    HW1 2081   6.613   1.819   0.116
  394SOL    HW2 2082   6.739   1.922   0.100
  395SOL     OW 2083   4.948   3.532   2.878
  395SOL    HW1 2084   4.904   3.586   2.807
  395SOL    HW2 2085   5.047   3.545   2.873
  396SOL     OW 2086   3.491   3.998   1.384
  396SOL    HW1 2087   3.564   4.031   1.324
  396SOL    HW2 2088   3.451   3.915   1.345
  397SOL     OW 2089   5.429   1.387   5.946
  397SOL    HW1 2090   5.339   1.359   5.978
  397SOL    HW2 2091   5.467   1.455   6.009
  398SOL     OW 2092   0.899   6.345   2.452
  398SOL    HW1 2093   0.844   6.424   2.424
  398SOL    HW2 2094   0.914   6.349   2.551
  399SOL     OW 2095   6.236   6.085   2.721
  399SOL    HW1 2096   6.239   6.179   2.688
  399SOL    HW2 2097   6.230   6.023   2.642
  400SOL     OW 2098   6.778   6.693   5.814
  400SOL    HW1 2099   6.857   6.631   5.814
  400SOL    HW2 2100   6.808   6.785   5.788
  401SOL     OW 2101   5.348   0.727   5.806
  401SOL    HW1 2102   5.446   0.740   5.820
  401SOL    HW2 2103   5.304   0.704   5.893
  402SOL     OW 2104   5.787   6.852   3.173
  402SOL    HW1 2105   5.810   6.915   3.247
  402SOL    HW2 2106   5.837   6.878   3.090
  403SOL     OW 2107   3.959   2.077   4.001
  403SOL    HW1 2108   3.970   1.988   3.956
  403SOL    HW2 2109   3.862   2.096   4.015
  404SOL     OW 2110   1.467   5.183   4.259
  404SOL    HW1 2111   1.473   5.199   4.160
  404SOL    HW2 2112   1.559   5.170   4.296
  405SOL     OW 2113   1.672   3.788   1.775
  405SOL    HW1 2114   1.740   3.731   1.820
  405SOL    HW2 2115   1.651   3.867   1.834
  406SOL     OW 2116   1.201   4.758   4.563
  406SOL    HW1 2117   1.212   4.722   4.471
  406SOL    HW2 2118   1.135   4.702   4.614
  407SOL     OW 2119   1.436   0.886   4.050
  407SOL    HW1 2120   1.530   0.919   4.042
  407SOL    HW2 2121   1.431   0.791   4.018
  408SOL     OW 2122   1.530   2.315   2.852
  408SOL    HW1 2123   1.478   2.230   2.864
  408SOL    HW2 2124   1.471   2.392   2.875
  409SOL     OW 2125   6.909   3.053   1.429
  409SOL    HW1 2126   6.980   3.032   1.361
  409SOL    HW2 2127   6.865   3.139   1.405
  410SOL     OW 2128   1.666   1.776   1.563
  410SOL    HW1 2129   1.668   1.715   1.642
  410SOL    HW2 2130   1.747   1.760   1.506
  411SOL     OW 2131   5.560   0.174   1.834
  411SOL    HW1 2132   5.544   0.210   1.927
  411SOL    HW2 2133   5.546   0.248   1.768
  412SOL     OW 2134   4.545   5.856   4.130
  412SOL    HW1 2135   4.578   5.779   4.076
  412SOL    HW2 2136   4.448   5.870   4.111
  413SOL     OW 2137   5.197   3.974   1.654
  413SOL    HW1 2138   5.208   4.066   1.615
  413SOL    HW2 2139   5.146   3.981   1.740
  414SOL     OW 2140   3.512   5.595   3.290
  414SOL    HW1 2141   3.476   5.675   3.242
  414SOL    HW2 2142   3.610   5.606   3.304
  415SOL     OW 2143   0.808   6.258   6.931
  415SOL    HW1 2144   0.854   6.315   6.863
  415SOL    HW2 2145   0.814   6.302   7.021
  416SOL     OW 2146   5.172   6.693   4.220
  416SOL    HW1 2147   5.118   6.769   4.184
  416SOL    HW2 2148   5.251   6.677   4.161
  417SOL     OW 2149   2.722   5.453   6.426
  417SOL    HW1 2150   2.659   5.375   6.418
  417SOL    HW2 2151   2.798   5.441   6.363
  418SOL     OW 2152   4.240   6.358   0.136
  418SOL    HW1 2153   4.332   6.319   0.129
  418SOL    HW2 2154   4.196   6.324   0.219
  419SOL     OW 2155   2.088   0.197   1.881
  419SOL    HW1 2156   2.025   0.200   1.959
  419SOL    HW2 2157   2.182   0.204   1.914
  420SOL     OW 2158   5.761   1.334   0.151
  420SOL    HW1 2159   5.747   1.267   0.078
  420SOL    HW2 2160   5.840   1.392   0.128
  421SOL     OW 2161   6.804   4.287   6.002
  421SOL    HW1 2162   6.860   4.278   5.919
  421SOL    HW2 2163   6.863   4.307   6.080
  422SOL     OW 2164   6.203   3.528   1.548
  422SOL    HW1 2165   6.191   3.595   1.620
  422SOL    HW2 2166   6.155   3.443   1.573
  423SOL     OW 2167   1.007   1.925   6.388
  423SOL    HW1 2168   1.069   1.921   6.309
  423SOL    HW2 2169   1.032   1.854   6.453
  424SOL     OW 2170   2.258   4.799   0.820
  424SOL    HW1 2171   2.353   4.830   0.821
  424SOL    HW2 2172   2.248   4.718   0.878
  425SOL     OW 2173   5.177   1.527   3.330
  425SOL    HW1 2174   5.235   1.581   3.269
  425SOL    HW2 2175   5.139   1.585   3.401
  426SOL     OW 2176   3.701   1.973   4.936
  426SOL    HW1 2177   3.670   2.059   4.975
  426SOL    HW2 2178   3.638   1.900   4.963
  427SOL     OW 2179   5.318   6.572   3.526
  427SOL    HW1 2180   5.407   6.604   3.559
  427SOL    HW2 2181   5.324   6.554   3.428
  428SOL     OW 2182   4.067   0.283   4.898
  428SOL    HW1 2183   3.989   0.289   4.960
  428SOL    HW2 2184   4.135   0.351   4.924
  429SOL     OW 2185   1.359   3.719   1.191
  429SOL    HW1 2186   1.388   3.679   1.104
  429SOL    HW2 2187   1.360   3.819   1.184
  430SOL     OW 2188   0.960   0.823   5.126
  430SOL    HW1 2189   0.945   0.903   5.068
  430SOL    HW2 2190   0.895   0.751   5.101
  431SOL     OW 2191   3.253   0.095   0.952
  431SOL    HW1 2192   3.264   0.067   0.856
  431SOL    HW2 2193   3.266   0.194   0.959
  432SOL     OW 2194   6.557   1.745   0.473
  432SOL    HW1 2195   6.647   1.788   0.468
  432SOL    HW2 2196   6.562   1.652   0.437
  433SOL     OW 2197   2.584   6.798   4.906
  433SOL    HW1 2198   2.538   6.798   4.817
  433SOL    HW2 2199   2.575   6.708   4.948
  434SOL     OW 2200   3.170   6.001   3.125
  434SOL    HW1 2201   3.153   6.003   3.027
  434SOL    HW2 2202   3.085   5.977   3.173
  435SOL     OW 2203   5.197   2.625   7.012
  435SOL    HW1 2204   5.143   2.556   6.963
  435SOL    HW2 2205   5.294   2.606   7.000
  436SOL     OW 2206   2.987   6.135   1.482
  436SOL    HW1 2207   2.924   6.174   1.416
  436SOL    HW2 2208   2.963   6.039   1.499
  437SOL     OW 2209   0.876   1.519   0.226
  437SOL    HW1 2210   0.815   1.567   0.163
  437SOL    HW2 2211   0.948   1.582   0.257
  438SOL     OW 2212   1.746   3.920   3.473
  438SOL    HW1 2213   1.745   3.837   3.417
  438SOL    HW2 2214   1.790   3.994   3.423
  439SOL     OW 2215   5.480   4.898   2.942
  439SOL    HW1 2216   5.440   4.823   2.995
  439SOL    HW2 2217   5.456   4.985   2.984
  440SOL     OW 2218   2.171   1.482   4.996
  440SOL    HW1 2219   2.254   1.432   5.021
  440SOL    HW2 2220   2.151   1.550   5.067
  441SOL     OW 2221   0.655   3.116   3.994
  441SOL    HW1 2222   0.705   3.161   4.069
  441SOL    HW2 2223   0.626   3.025   4.024
  442SOL     OW 2224   3.517   5.445   5.490
  442SOL    HW1 2225   3.534   5.401   5.402
  442SOL    HW2 2226   3.604   5.476   5.530
  443SOL     OW 2227   5.927   4.599   4.386
  443SOL    HW1 2228   6.013   4.629   4.428
  443SOL    HW2 2229   5.893   4.519   4.435
  444SOL     OW 2230   4.744   0.884   5.819
  444SOL    HW1 2231   4.682   0.950   5.862
  444SOL    HW2 2232   4.693   0.802   5.793
  445SOL     OW 2233   0.971   5.735   2.961
  445SOL    HW1 2234   1.064   5.706   2.939
  445SOL    HW2 2235   0.918   5.657   2.994
  446SOL     OW 2236   2.644   5.852   4.042
  446SOL    HW1 2237   2.624   5.826   4.136
  446SOL    HW2 2238   2.703   5.782   4.000
  447SOL     OW 2239   0.536   2.908   6.122
  447SOL    HW1 2240   0.515   2.920   6.219
  447SOL    HW2 2241   0.616   2.964   6.099
  448SOL     OW 2242   2.071   0.594   3.177
  448SOL    HW1 2243   2.019   0.511   3.154
  448SOL    HW2 2244   2.169   0.577   3.163
  449SOL     OW 2245   3.801   0.944   3.892
  449SOL    HW1 2246   3.794   0.981   3.985
  449SOL    HW2 2247   3.846   0.855   3.895
  450SOL     OW 2248   1.191   5.313   3.175
  450SOL    HW1 2249   1.279   5.273   3.152
  450SOL    HW2 2250   1.122   5.284   3.108
  451SOL     OW 2251   1.515   2.137   3.253
  451SOL    HW1 2252   1.512   2.218   3.312
  451SOL    HW2 2253   1.458   2.153   3.172
  452SOL     OW 2254   5.586   6.950   0.436
  452SOL    HW1 2255   5.539   6.905   0.360
  452SOL    HW2 2256   5.661   6.892   0.468
  453SOL     OW 2257   4.175   0.755   6.116
  453SOL    HW1 2258   4.150   0.659   6.128
  453SOL    HW2 2259   4.252   0.777   6.176
  454SOL     OW 2260   6.705   4.674   6.404
  454SOL    HW1 2261   6.626   4.727   6.436
  454SOL    HW2 2262   6.674   4.607   6.337
  455SOL     OW 2263   6.021   2.224   3.447
  455SOL    HW1 2264   6.005   2.310   3.398
  455SOL    HW2 2265   5.934   2.183   3.471
  456SOL     OW 2266   6.185   6.603   3.742
  456SOL    HW1 2267   6.114   6.585   3.810
  456SOL    HW2 2268   6.171   6.542   3.663
  457SOL     OW 2269   1.788   2.367   4.004
  457SOL    HW1 2270   1.715   2.300   3.987
  457SOL    HW2 2271   1.770   2.414   4.091
  458SOL     OW 2272   4.529   5.840   3.157
  458SOL    HW1 2273   4.467   5.870   3.084
  458SOL    HW2 2274   4.564   5.919   3.206
  459SOL     OW 2275   1.812   6.339   5.525
  459SOL    HW1 2276   1.795   6.398   5.445
  459SOL    HW2 2277   1.844   6.396   5.601
  460SOL     OW 2278   2.395   6.442   3.983
  460SOL    HW1 2279   2.468   6.379   4.009
  460SOL    HW2 2280   2.317   6.429   4.044
  461SOL     OW 2281   6.693   6.371   6.684
  461SOL    HW1 2282   6.679   6.407   6.592
  461SOL    HW2 2283   6.759   6.296   6.681
  462SOL     OW 2284   4.113   3.295   7.000
  462SOL    HW1 2285   4.023   3.255   7.017
  462SOL    HW2 2286   4.140   3.351   0.052
  463SOL     OW 2287   5.382   5.800   3.215
  463SOL    HW1 2288   5.297   5.758   3.246
  463SOL    HW2 2289   5.361   5.887   3.169
  464SOL     OW 2290   2.551   1.691   5.638
  464SOL    HW1 2291   2.563   1.602   5.593
  464SOL    HW2 2292   2.573   1.764   5.573
  465SOL     OW 2293   0.783   2.925   0.313
  465SOL    HW1 2294   0.734   2.849   0.355
  465SOL    HW2 2295   0.838   2.891   0.237
  466SOL     OW 2296   1.228   6.430   3.452
  466SOL    HW1 2297   1.281   6.352   3.485
  466SOL    HW2 2298   1.286   6.486   3.393
  467SOL     OW 2299   1.615   1.156   0.801
  467SOL    HW1 2300   1.705   1.198   0.794
  467SOL    HW2 2301   1.550   1.222   0.839
  468SOL     OW 2302   3.531   0.109   6.013
  468SOL    HW1 2303   3.521   0.205   5.985
  468SOL    HW2 2304   3.493   0.097   6.105
  469SOL     OW 2305   2.784   3.247   6.376
  469SOL    HW1 2306   2.809   3.302   6.456
  469SOL    HW2 2307   2.685   3.249   6.363
  470SOL     OW 2308   4.543   6.311   1.825
  470SOL    HW1 2309   4.485   6.391   1.813
  470SOL    HW2 2310   4.576   6.307   1.919
  471SOL     OW 2311   2.523   2.632   3.557
  471SOL    HW1 2312   2.592   2.568   3.523
  471SOL    HW2 2313   2.475   2.673   3.480
  472SOL     OW 2314   4.558   3.534   6.747
  472SOL    HW1 2315   4.484   3.482   6.705
  472SOL    HW2 2316   4.596   3.483   6.824
  473SOL     OW 2317   1.379   2.745   2.684
  473SOL    HW1 2318   1.281   2.725   2.684
  473SOL    HW2 2319   1.402   2.796   2.602
  474SOL     OW 2320   5.273   5.017   4.383
  474SOL    HW1 2321   5.248   5.065   4.299
  474SOL    HW2 2322   5.304   4.924   4.361
  475SOL     OW 2323   6.071   1.222   6.468
  475SOL    HW1 2324   6.143   1.190   6.530
  475SOL    HW2 2325   6.032   1.144   6.419
  476SOL     OW 2326   0.515   3.293   3.311
  476SOL    HW1 2327   0.437   3.282   3.372
  476SOL    HW2 2328   0.597   3.310   3.365
  477SOL     OW 2329   2.588   6.167   3.278
  477SOL    HW1 2330   2.662   6.106   3.306
  477SOL    HW2 2331   2.603   6.258   3.319
  478SOL     OW 2332   3.649   6.187   2.485
  478SOL    HW1 2333   3.704   6.255   2.533
  478SOL    HW2 2334   3.552   6.211   2.492
  479SOL     OW 2335   4.503   1.862   6.111
  479SOL    HW1 2336   4.448   1.779   6.116
  479SOL    HW2 2337   4.466   1.924   6.042
  480SOL     OW 2338   2.896   0.608   0.168
  480SOL    HW1 2339   2.841   0.678   0.123
  480SOL    HW2 2340   2.958   0.566   0.101
  481SOL     OW 2341   2.161   6.979   1.252
  481SOL    HW1 2342   2.090   6.989   1.182
  481SOL    HW2 2343   2.228   0.025   1.242
  482SOL     OW 2344   4.073   4.805   2.129
  482SOL    HW1 2345   4.029   4.830   2.216
  482SOL    HW2 2346   4.152   4.747   2.147
  483SOL     OW 2347   6.304   1.702   2.186
  483SOL    HW1 2348   6.232   1.633   2.176
  483SOL    HW2 2349   6.282   1.762   2.263
  484SOL     OW 2350   1.750   3.466   4.825
  484SOL    HW1 2351   1.692   3.504   4.897
  484SOL    HW2 2352   1.697   3.458   4.741
  485SOL     OW 2353   3.947   5.635   2.777
  485SOL    HW1 2354   3.938   5.678   2.687
  485SOL    HW2 2355   3.859   5.634   2.823
  486SOL     OW 2356   6.834   1.557   0.674
  486SOL    HW1 2357   6.762   1.490   0.693
  486SOL    HW2 2358   6.894   1.524   0.602
  487SOL     OW 2359   0.762   0.973   2.771
  487SOL    HW1 2360   0.742   1.046   2.705
  487SOL    HW2 2361   0.676   0.927   2.796
  488SOL     OW 2362   0.499   1.217   1.786
  488SOL    HW1 2363   0.571   1.186   1.849
  488SOL    HW2 2364   0.419   1.245   1.838
  489SOL     OW 2365   4.114   6.176   6.013
  489SOL    HW1 2366   4.146   6.082   6.023
  489SOL    HW2 2367   4.114   6.201   5.917
  490SOL     OW 2368   0.568   5.878   2.947
  490SOL    HW1 2369   0.588   5.959   3.003
  490SOL    HW2 2370   0.470   5.874   2.930
  491SOL     OW 2371   0.961   4.047   2.304
  491SOL    HW1 2372   0.919   3.957   2.289
  491SOL    HW2 2373   0.923   4.089   2.386
  492SOL     OW 2374   1.303   0.474   4.726
  492SOL    HW1 2375   1.212   0.460   4.688
  492SOL    HW2 2376   1.366   0.500   4.653
  493SOL     OW 2377   5.121   6.182   5.649
  493SOL    HW1 2378   5.158   6.202   5.558
  493SOL    HW2 2379   5.150   6.091   5.677
  494SOL     OW 2380   0.230   6.492   7.022
  494SOL    HW1 2381   0.205   6.406   6.978
  494SOL    HW2 2382   0.281   6.550   6.958
  495SOL     OW 2383   4.771   5.759   3.788
  495SOL    HW1 2384   4.707   5.705   3.843
  495SOL    HW2 2385   4.812   5.830   3.844
  496SOL     OW 2386   4.971   2.856   1.722
  496SOL    HW1 2387   4.913   2.830   1.799
  496SOL    HW2 2388   4.993   2.775   1.668
  497SOL     OW 2389   2.678   1.653   4.857
  497SOL    HW1 2390   2.649   1.744   4.884
  497SOL    HW2 2391   2.610   1.613   4.795
  498SOL     OW 2392   0.835   4.564   1.260
  498SOL    HW1 2393   0.839   4.500   1.337
  498SOL    HW2 2394   0.904   4.635   1.272
  499SOL     OW 2395   1.446   5.910   4.418
  499SOL    HW1 2396   1.417   5.814   4.415
  499SOL    HW2 2397   1.407   5.960   4.341
  500SOL     OW 2398   0.247   2.609   5.853
  500SOL    HW1 2399   0.269   2.702   5.882
  500SOL    HW2 2400   0.288   2.543   5.916
  501SOL     OW 2401   3.138   6.740   0.939
  501SOL    HW1 2402   3.095   6.771   0.854
  501SOL    HW2 2403   3.145   6.640   0.937
  502SOL     OW 2404   1.316   3.924   6.346
  502SOL    HW1 2405   1.409   3.890   6.336
  502SOL    HW2 2406   1.293   3.982   6.268
  503SOL     OW 2407   0.208   5.340   6.547
  503SOL    HW1 2408   0.269   5.292   6.483
  503SOL    HW2 2409   0.249   5.340   6.638
  504SOL     OW 2410   1.085   4.993   2.515
  504SOL    HW1 2411   1.159   4.932   2.544
  504SOL    HW2 2412   1.112   5.088   2.533
  505SOL     OW 2413   3.087   6.040   5.273
  505SOL    HW1 2414   3.055   6.131   5.246
  505SOL    HW2 2415   3.173   6.020   5.226
  506SOL     OW 2416   2.903   4.875   4.024
  506SOL    HW1 2417   2.820   4.844   4.070
  506SOL    HW2 2418   2.959   4.928   4.088
  507SOL     OW 2419   3.603   6.746   3.367
  507SOL    HW1 2420   3.524   6.723   3.309
  507SOL    HW2 2421   3.575   6.741   3.463
  508SOL     OW 2422   6.356   3.504   2.836
  508SOL    HW1 2423   6.384   3.416   2.798
  508SOL    HW2 2424   6.306   3.555   2.767
  509SOL     OW 2425   2.889   1.445   1.237
  509SOL    HW1 2426   2.852   1.375   1.298
  509SOL    HW2 2427   2.867   1.536   1.273
  510SOL     OW 2428   6.380   3.981   6.562
  510SOL    HW1 2429   6.347   3.919   6.633
  510SOL    HW2 2430   6.419   4.062   6.604
  511SOL     OW 2431   1.446   2.268   6.146
  511SOL    HW1 2432   1.466   2.175   6.177
  511SOL    HW2 2433   1.357   2.297   6.182
  512SOL     OW 2434   6.583   2.944   6.428
  512SOL    HW1 2435   6.566   2.851   6.458
  512SOL    HW2 2436   6.522   3.007   6.476
  513SOL     OW 2437   6.017   6.888   3.453
  513SOL    HW1 2438   6.047   6.965   3.397
  513SOL    HW2 2439   5.976   6.922   3.538
  514SOL     OW 2440   6.384   1.520   4.097
  514SOL    HW1 2441   6.387   1.523   4.197
  514SOL    HW2 2442   6.393   1.426   4.066
  515SOL     OW 2443   0.887   6.904   0.082
  515SOL    HW1 2444   0.823   6.976   0.110
  515SOL    HW2 2445   0.974   6.917   0.129
  516SOL     OW 2446   2.891   4.787   2.139
  516SOL    HW1 2447   2.807   4.842   2.145
  516SOL    HW2 2448   2.883   4.722   2.063
  517SOL     OW 2449   4.369   5.634   1.276
  517SOL    HW1 2450   4.334   5.655   1.367
  517SOL    HW2 2451   4.442   5.698   1.253
  518SOL     OW 2452   2.736   1.975   3.239
  518SOL    HW1 2453   2.757   2.051   3.301
  518SOL    HW2 2454   2.664   1.918   3.279
  519SOL     OW 2455   0.399   6.250   4.320
  519SOL    HW1 2456   0.346   6.172   4.354
  519SOL    HW2 2457   0.336   6.321   4.288
  520SOL     OW 2458   5.932   3.511   6.757
  520SOL    HW1 2459   5.940   3.411   6.764
  520SOL    HW2 2460   5.879   3.546   6.833
  521SOL     OW 2461   6.277   5.657   5.245
  521SOL    HW1 2462   6.209   5.634   5.175
  521SOL    HW2 2463   6.278   5.756   5.258
  522SOL     OW 2464   3.715   3.358   4.792
  522SOL    HW1 2465   3.792   3.328   4.735
  522SOL    HW2 2466   3.639   3.383   4.733
  523SOL     OW 2467   1.127   6.031   1.522
  523SOL    HW1 2468   1.112   6.120   1.566
  523SOL    HW2 2469   1.215   5.994   1.551
  524SOL     OW 2470   0.344   1.625   2.758
  524SOL    HW1 2471   0.359   1.563   2.681
  524SOL    HW2 2472   0.358   1.719   2.728
  525SOL     OW 2473   2.277   3.745   5.915
  525SOL    HW1 2474   2.215   3.808   5.961
  525SOL    HW2 2475   2.321   3.791   5.838
  526SOL     OW 2476   4.030   5.890   3.818
  526SOL    HW1 2477   4.037   5.808   3.761
  526SOL    HW2 2478   4.121   5.931   3.829
  527SOL     OW 2479   5.840   3.024   0.691
  527SOL    HW1 2480   5.841   3.044   0.593
  527SOL    HW2 2481   5.751   3.046   0.729
  528SOL     OW 2482   0.879   2.241   3.785
  528SOL    HW1 2483   0.939   2.167   3.815
  528SOL    HW2 2484   0.923   2.329   3.803
  529SOL     OW 2485   1.167   6.611   5.054
  529SOL    HW1 2486   1.209   6.595   5.143
  529SOL    HW2 2487   1.230   6.581   4.982
  530SOL     OW 2488   3.632   3.214   4.408
  530SOL    HW1 2489   3.700   3.271   4.455
  530SOL    HW2 2490   3.623   3.127   4.457
  531SOL     OW 2491   0.597   1.963   3.041
  531SOL    HW1 2492   0.623   2.059   3.054
  531SOL    HW2 2493   0.665   1.918   2.984
  532SOL     OW 2494   0.519   3.161   6.546
  532SOL    HW1 2495   0.607   3.126   6.578
  532SOL    HW2 2496   0.510   3.258   6.572
  533SOL     OW 2497   3.794   6.241   4.180
  533SOL    HW1 2498   3.805   6.163   4.118
  533SOL    HW2 2499   3.699   6.246   4.210
  534SOL     OW 2500   5.390   6.103   2.096
  534SOL    HW1 2501   5.436   6.135   2.179
  534SOL    HW2 2502   5.297   6.073   2.118
  535SOL     OW 2503   0.078   3.465   4.632
  535SOL    HW1 2504   0.127   3.527   4.692
  535SOL    HW2 2505   0.022   3.518   4.568
  536SOL     OW 2506   6.007   4.721   2.077
  536SOL    HW1 2507   6.063   4.785   2.024
  536SOL    HW2 2508   5.920   4.764   2.100
  537SOL     OW 2509   2.629   6.569   4.671
  537SOL    HW1 2510   2.654   6.617   4.587
  537SOL    HW2 2511   2.707   6.515   4.702
  538SOL     OW 2512   0.896   4.916   3.765
  538SOL    HW1 2513   0.900   4.965   3.677
  538SOL    HW2 2514   0.828   4.960   3.824
  539SOL     OW 2515   1.710   5.847   1.029
  539SOL    HW1 2516   1.714   5.747   1.039
  539SOL    HW2 2517   1.615   5.877   1.039
  540SOL     OW 2518   1.966   1.095   2.774
  540SOL    HW1 2519   2.017   1.009   2.766
  540SOL    HW2 2520   2.016   1.168   2.727
  541SOL     OW 2521   5.036   5.610   3.859
  541SOL    HW1 2522   4.946   5.647   3.840
  541SOL    HW2 2523   5.031   5.510   3.863
  542SOL     OW 2524   6.100   6.158   6.657
  542SOL    HW1 2525   6.148   6.185   6.573
  542SOL    HW2 2526   6.001   6.162   6.642
  543SOL     OW 2527   0.980   3.423   5.118
  543SOL    HW1 2528   0.932   3.377   5.192
  543SOL    HW2 2529   1.026   3.355   5.060
  544SOL     OW 2530   2.198   4.890   0.154
  544SOL    HW1 2531   2.105   4.918   0.129
  544SOL    HW2 2532   2.221   4.929   0.243
  545SOL     OW 2533   3.194   1.638   1.704
  545SOL    HW1 2534   3.126   1.580   1.658
  545SOL    HW2 2535   3.273   1.651   1.644
  546SOL     OW 2536   2.244   3.148   0.476
  546SOL    HW1 2537   2.238   3.057   0.516
  546SOL    HW2 2538   2.213   3.145   0.381
  547SOL     OW 2539   3.395   0.716   0.336
  547SOL    HW1 2540   3.448   0.794   0.303
  547SOL    HW2 2541   3.456   0.649   0.378
  548SOL     OW 2542   3.695   3.432   2.229
  548SOL    HW1 2543   3.729   3.525   2.241
  548SOL    HW2 2544   3.631   3.410   2.302
  549SOL     OW 2545   5.113   3.064   1.585
  549SOL    HW1 2546   5.067   3.079   1.497
  549SOL    HW2 2547   5.062   2.996   1.638
  550SOL     OW 2548   0.665   5.565   3.732
  550SOL    HW1 2549   0.642   5.648   3.783
  550SOL    HW2 2550   0.653   5.581   3.634
  551SOL     OW 2551   1.087   0.562   2.627
  551SOL    HW1 2552   1.073   0.483   2.567
  551SOL    HW2 2553   1.098   0.531   2.721
  552SOL     OW 2554   5.707   4.422   6.716
  552SOL    HW1 2555   5.728   4.382   6.805
  552SOL    HW2 2556   5.793   4.443   6.669
  553SOL     OW 2557   2.760   6.771   2.594
  553SOL    HW1 2558   2.677   6.764   2.538
  553SOL    HW2 2559   2.801   6.862   2.581
  554SOL     OW 2560   5.733   0.172   6.589
  554SOL    HW1 2561   5.687   0.128   6.666
  554SOL    HW2 2562   5.666   0.194   6.518
  555SOL     OW 2563   1.613   4.731   3.934
  555SOL    HW1 2564   1.598   4.685   4.022
  555SOL    HW2 2565   1.549   4.697   3.866
  556SOL     OW 2566   4.351   2.115   3.374
  556SOL    HW1 2567   4.432   2.137   3.319
  556SOL    HW2 2568   4.361   2.023   3.412
  557SOL     OW 2569   0.110   5.279   0.845
  557SOL    HW1 2570   0.155   5.346   0.786
  557SOL    HW2 2571   0.154   5.278   0.934
  558SOL     OW 2572   3.165   3.157   4.712
  558SOL    HW1 2573   3.073   3.195   4.709
  558SOL    HW2 2574   3.190   3.136   4.807
  559SOL     OW 2575   6.531   6.152   6.968
  559SOL    HW1 2576   6.460   6.219   6.988
  559SOL    HW2 2577   6.519   6.117   6.875
  560SOL     OW 2578   4.763   4.880   6.823
  560SOL    HW1 2579   4.849   4.850   6.782
  560SOL    HW2 2580   4.693   4.810   6.810
  561SOL     OW 2581   0.770   1.323   1.499
  561SOL    HW1 2582   0.685   1.272   1.485
  561SOL    HW2 2583   0.749   1.421   1.501
  562SOL     OW 2584   4.923   0.676   5.861
  562SOL    HW1 2585   4.952   0.608   5.794
  562SOL    HW2 2586   4.942   0.767   5.826
  563SOL     OW 2587   2.363   0.867   3.798
  563SOL    HW1 2588   2.303   0.789   3.780
  563SOL    HW2 2589   2.400   0.901   3.711
  564SOL     OW 2590   1.572   1.992   0.059
  564SOL    HW1 2591   1.590   1.928   7.011
  564SOL    HW2 2592   1.479   1.976   0.095
  565SOL     OW 2593   3.783   2.846   5.257
  565SOL    HW1 2594   3.763   2.924   5.316
  565SOL    HW2 2595   3.730   2.853   5.173
  566SOL     OW 2596   0.195   5.126   3.792
  566SOL    HW1 2597   0.225   5.153   3.700
  566SOL    HW2 2598   0.097   5.143   3.801
  567SOL     OW 2599   2.929   2.776   1.470
  567SOL    HW1 2600   3.009   2.757   1.413
  567SOL    HW2 2601   2.922   2.707   1.542
  568SOL     OW 2602   4.641   1.427   0.218
  568SOL    HW1 2603   4.562   1.486   0.230
  568SOL    HW2 2604   4.723   1.482   0.207
  569SOL     OW 2605   1.602   3.197   6.654
  569SOL    HW1 2606   1.561   3.250   6.580
  569SOL    HW2 2607   1.666   3.255   6.705
  570SOL     OW 2608   3.384   6.648   6.754
  570SOL    HW1 2609   3.321   6.685   6.686
  570SOL    HW2 2610   3.348   6.667   6.846
  571SOL     OW 2611   3.122   0.338   1.780
  571SOL    HW1 2612   3.073   0.284   1.848
  571SOL    HW2 2613   3.173   0.278   1.719
  572SOL     OW 2614   2.735   4.887   5.507
  572SOL    HW1 2615   2.826   4.908   5.543
  572SOL    HW2 2616   2.726   4.788   5.496
  573SOL     OW 2617   5.388   1.768   5.684
  573SOL    HW1 2618   5.417   1.709   5.609
  573SOL    HW2 2619   5.455   1.762   5.759
  574SOL     OW 2620   3.203   1.634   4.242
  574SOL    HW1 2621   3.121   1.604   4.291
  574SOL    HW2 2622   3.221   1.571   4.166
  575SOL     OW 2623   5.090   4.098   0.344
  575SOL    HW1 2624   5.150   4.046   0.406
  575SOL    HW2 2625   5.055   4.179   0.392
  576SOL     OW 2626   0.994   2.001   2.937
  576SOL    HW1 2627   0.969   2.037   3.027
  576SOL    HW2 2628   1.004   1.902   2.942
  577SOL     OW 2629   1.562   1.406   2.354
  577SOL    HW1 2630   1.489   1.461   2.395
  577SOL    HW2 2631   1.535   1.377   2.262
  578SOL     OW 2632   5.717   5.851   3.456
  578SOL    HW1 2633   5.724   5.936   3.404
  578SOL    HW2 2634   5.727   5.870   3.553
  579SOL     OW 2635   2.031   2.707   2.507
  579SOL    HW1 2636   2.070   2.618   2.483
  579SOL    HW2 2637   2.039   2.722   2.606
  580SOL     OW 2638   6.344   5.266   0.587
  580SOL    HW1 2639   6.363   5.359   0.619
  580SOL    HW2 2640   6.353   5.263   0.487
  581SOL     OW 2641   2.999   3.515   1.821
  581SOL    HW1 2642   3.017   3.563   1.734
  581SOL    HW2 2643   2.936   3.439   1.804
  582SOL     OW 2644   4.486   6.826   2.113
  582SOL    HW1 2645   4.426   6.898   2.077
  582SOL    HW2 2646   4.526   6.776   2.036
  583SOL     OW 2647   3.153   4.974   5.917
  583SOL    HW1 2648   3.173   4.897   5.978
  583SOL    HW2 2649   3.188   4.955   5.826
  584SOL     OW 2650   3.088   3.876   6.046
  584SOL    HW1 2651   3.160   3.833   5.991
  584SOL    HW2 2652   3.000   3.835   6.024
  585SOL     OW 2653   5.643   2.914   6.532
  585SOL    HW1 2654   5.584   2.931   6.453
  585SOL    HW2 2655   5.622   2.824   6.570
  586SOL     OW 2656   3.679   1.804   5.664
  586SOL    HW1 2657   3.673   1.708   5.693
  586SOL    HW2 2658   3.594   1.851   5.688
  587SOL     OW 2659   4.225   1.434   5.803
  587SOL    HW1 2660   4.182   1.375   5.871
  587SOL    HW2 2661   4.155   1.482   5.751
  588SOL     OW 2662   2.147   4.856   1.613
  588SOL    HW1 2663   2.174   4.941   1.568
  588SOL    HW2 2664   2.159   4.864   1.712
  589SOL     OW 2665   3.176   4.751   1.428
  589SOL    HW1 2666   3.152   4.844   1.456
  589SOL    HW2 2667   3.182   4.748   1.328
  590SOL     OW 2668   4.996   3.499   3.538
  590SOL    HW1 2669   4.960   3.407   3.551
  590SOL    HW2 2670   5.092   3.502   3.567
  591SOL     OW 2671   4.099   5.616   4.151
  591SOL    HW1 2672   4.151   5.583   4.231
  591SOL    HW2 2673   4.040   5.692   4.179
  592SOL     OW 2674   3.343   0.931   1.521
  592SOL    HW1 2675   3.386   0.998   1.582
  592SOL    HW2 2676   3.316   0.977   1.436
  593SOL     OW 2677   4.849   2.437   3.370
  593SOL    HW1 2678   4.825   2.411   3.277
  593SOL    HW2 2679   4.819   2.531   3.388
  594SOL     OW 2680   6.262   2.490   6.822
  594SOL    HW1 2681   6.349   2.443   6.836
  594SOL    HW2 2682   6.190   2.423   6.807
  595SOL     OW 2683   5.927   6.612   3.405
  595SOL    HW1 2684   5.865   6.589   3.480
  595SOL    HW2 2685   5.956   6.708   3.414
  596SOL     OW 2686   1.655   4.795   3.222
  596SOL    HW1 2687   1.732   4.797   3.158
  596SOL    HW2 2688   1.682   4.748   3.306
  597SOL     OW 2689   3.780   7.001   0.283
  597SOL    HW1 2690   3.705   6.936   0.292
  597SOL    HW2 2691   3.865   6.952   0.262
  598SOL     OW 2692   3.912   4.887   5.522
  598SOL    HW1 2693   3.859   4.830   5.459
  598SOL    HW2 2694   3.861   4.897   5.608
  599SOL     OW 2695   2.628   6.233   2.249
  599SOL    HW1 2696   2.610   6.292   2.170
  599SOL    HW2 2697   2.640   6.290   2.330
  600SOL     OW 2698   0.609   1.197   0.330
  600SOL    HW1 2699   0.585   1.219   0.235
  600SOL    HW2 2700   0.565   1.110   0.355
  601SOL     OW 2701   2.891   0.248   4.287
  601SOL    HW1 2702   2.984   0.241   4.251
  601SOL    HW2 2703   2.845   0.160   4.275
  602SOL     OW 2704   2.430   2.640   6.262
  602SOL    HW1 2705   2.396   2.556   6.304
  602SOL    HW2 2706   2.406   2.641   6.165
  603SOL     OW 2707   3.304   2.109   3.773
  603SOL    HW1 2708   3.233   2.065   3.827
  603SOL    HW2 2709   3.263   2.175   3.710
  604SOL     OW 2710   1.201   3.324   1.441
  604SOL    HW1 2711   1.191   3.382   1.360
  604SOL    HW2 2712   1.168   3.374   1.521
  605SOL     OW 2713   0.161   6.553   2.270
  605SOL    HW1 2714   0.072   6.531   2.230
  605SOL    HW2 2715   0.173   6.653   2.271
  606SOL     OW 2716   4.824   0.282   6.761
  606SOL    HW1 2717   4.811   0.283   6.860
  606SOL    HW2 2718   4.818   0.376   6.726
  607SOL     OW 2719   6.342   0.061   5.983
  607SOL    HW1 2720   6.356   0.148   5.937
  607SOL    HW2 2721   6.254   0.022   5.955
  608SOL     OW 2722   2.769   6.238   6.490
  608SOL    HW1 2723   2.775   6.274   6.397
  608SOL    HW2 2724   2.673   6.230   6.517
  609SOL     OW 2725   3.979   3.187   3.261
  609SOL    HW1 2726   4.033   3.257   3.214
  609SOL    HW2 2727   3.984   3.202   3.360
  610SOL     OW 2728   4.999   3.368   2.140
  610SOL    HW1 2729   4.976   3.443   2.077
  610SOL    HW2 2730   4.920   3.309   2.151
  611SOL     OW 2731   3.952   0.181   0.314
  611SOL    HW1 2732   3.888   0.105   0.317
  611SOL    HW2 2733   4.005   0.177   0.229
  612SOL     OW 2734   3.933   6.621   5.479
  612SOL    HW1 2735   3.882   6.687   5.423
  612SOL    HW2 2736   4.017   6.595   5.432
  613SOL     OW 2737   4.334   6.982   5.592
  613SOL    HW1 2738   4.402   6.915   5.622
  613SOL    HW2 2739   4.278   7.009   5.670
  614SOL     OW 2740   4.595   4.403   1.098
  614SOL    HW1 2741   4.653   4.454   1.162
  614SOL    HW2 2742   4.524   4.464   1.062
  615SOL     OW 2743   6.999   2.705   2.132
  615SOL    HW1 2744   0.020   2.742   2.053
  615SOL    HW2 2745   7.022   2.758   2.214
  616SOL     OW 2746   0.666   2.087   3.829
  616SOL    HW1 2747   0.704   2.017   3.769
  616SOL    HW2 2748   0.725   2.169   3.826
  617SOL     OW 2749   6.365   3.649   6.153
  617SOL    HW1 2750   6.316   3.735   6.166
  617SOL    HW2 2751   6.441   3.663   6.089
  618SOL     OW 2752   6.690   2.365   6.673
  618SOL    HW1 2753   6.721   2.387   6.580
  618SOL    HW2 2754   6.766   2.373   6.737
  619SOL     OW 2755   4.603   0.694   6.673
  619SOL    HW1 2756   4.553   0.714   6.758
  619SOL    HW2 2757   4.673   0.763   6.659
  620SOL     OW 2758   4.710   2.854   1.271
  620SOL    HW1 2759   4.610   2.860   1.276
  620SOL    HW2 2760   4.736   2.799   1.191
  621SOL     OW 2761   2.384   6.249   6.247
  621SOL    HW1 2762   2.423   6.334   6.210
  621SOL    HW2 2763   2.301   6.271   6.297
  622SOL     OW 2764   1.536   1.168   4.535
  622SOL    HW1 2765   1.625   1.171   4.580
  622SOL    HW2 2766   1.531   1.242   4.467
  623SOL     OW 2767   1.237   6.190   6.125
  623SOL    HW1 2768   1.236   6.092   6.104
  623SOL    HW2 2769   1.144   6.227   6.117
  624SOL     OW 2770   0.224   1.577   1.814
  624SOL    HW1 2771   0.265   1.668   1.812
  624SOL    HW2 2772   0.129   1.585   1.845
  625SOL     OW 2773   1.226   1.784   1.983
  625SOL    HW1 2774   1.278   1.739   2.056
  625SOL    HW2 2775   1.134   1.745   1.979
  626SOL     OW 2776   0.890   6.042   3.167
  626SOL    HW1 2777   0.986   6.023   3.146
  626SOL    HW2 2778   0.865   6.132   3.131
  627SOL     OW 2779   6.461   6.466   0.775
  627SOL    HW1 2780   6.447   6.415   0.690
  627SOL    HW2 2781   6.402   6.429   0.846
  628SOL     OW 2782   5.442   5.703   5.834
  628SOL    HW1 2783   5.508   5.698   5.908
  628SOL    HW2 2784   5.401   5.794   5.831
  629SOL     OW 2785   0.633   0.618   6.925
  629SOL    HW1 2786   0.672   0.548   6.865
  629SOL    HW2 2787   0.543   0.645   6.890
  630SOL     OW 2788   0.353   1.568   0.987
  630SOL    HW1 2789   0.281   1.574   1.057
  630SOL    HW2 2790   0.439   1.541   1.031
  631SOL     OW 2791   4.107   1.439   5.362
  631SOL    HW1 2792   4.166   1.508   5.321
  631SOL    HW2 2793   4.011   1.468   5.356
  632SOL     OW 2794   3.913   1.512   1.738
  632SOL    HW1 2795   3.896   1.590   1.679
  632SOL    HW2 2796   3.951   1.544   1.825
  633SOL     OW 2797   3.320   3.713   6.610
  633SOL    HW1 2798   3.250   3.644   6.591
  633SOL    HW2 2799   3.410   3.669   6.613
  634SOL     OW 2800   4.096   3.219   2.687
  634SOL    HW1 2801   4.125   3.242   2.594
  634SOL    HW2 2802   4.050   3.131   2.687
  635SOL     OW 2803   4.417   5.454   0.741
  635SOL    HW1 2804   4.507   5.451   0.699
  635SOL    HW2 2805   4.379   5.547   0.733
  636SOL     OW 2806   3.237   6.384   0.345
  636SOL    HW1 2807   3.256   6.400   0.248
  636SOL    HW2 2808   3.249   6.287   0.366
  637SOL     OW 2809   6.737   3.355   2.935
  637SOL    HW1 2810   6.772   3.341   2.843
  637SOL    HW2 2811   6.814   3.365   2.998
  638SOL     OW 2812   5.501   2.393   3.155
  638SOL    HW1 2813   5.517   2.355   3.245
  638SOL    HW2 2814   5.582   2.378   3.097
  639SOL     OW 2815   4.892   3.485   3.154
  639SOL    HW1 2816   4.830   3.549   3.200
  639SOL    HW2 2817   4.865   3.478   3.057
  640SOL     OW 2818   0.230   5.131   4.060
  640SOL    HW1 2819   0.205   5.224   4.084
  640SOL    HW2 2820   0.213   5.116   3.962
  641SOL     OW 2821   0.534   4.499   5.387
  641SOL    HW1 2822   0.556   4.405   5.415
  641SOL    HW2 2823   0.575   4.518   5.298
  642SOL     OW 2824   0.049   3.331   3.809
  642SOL    HW1 2825   0.076   3.237   3.789
  642SOL    HW2 2826   0.127   3.393   3.797
  643SOL     OW 2827   6.019   6.349   6.267
  643SOL    HW1 2828   6.053   6.344   6.173
  643SOL    HW2 2829   5.920   6.367   6.266
  644SOL     OW 2830   1.741   6.785   4.265
  644SOL    HW1 2831   1.765   6.702   4.214
  644SOL    HW2 2832   1.695   6.760   4.350
  645SOL     OW 2833   4.374   0.283   5.065
  645SOL    HW1 2834   4.429   0.252   5.143
  645SOL    HW2 2835   4.286   0.318   5.098
  646SOL     OW 2836   3.630   0.918   4.529
  646SOL    HW1 2837   3.633   0.869   4.442
  646SOL    HW2 2838   3.643   1.016   4.514
  647SOL     OW 2839   5.496   2.003   5.339
  647SOL    HW1 2840   5.418   2.009   5.401
  647SOL    HW2 2841   5.531   1.909   5.338
  648SOL     OW 2842   0.722   3.576   3.556
  648SOL    HW1 2843   0.697   3.663   3.598
  648SOL    HW2 2844   0.822   3.571   3.546
  649SOL     OW 2845   2.322   4.363   0.973
  649SOL    HW1 2846   2.398   4.329   1.029
  649SOL    HW2 2847   2.295   4.454   1.004
  650SOL     OW 2848   5.926   4.207   6.962
  650SOL    HW1 2849   5.913   4.249   0.025
  650SOL    HW2 2850   5.936   4.108   6.973
  651SOL     OW 2851   0.883   6.389   6.425
  651SOL    HW1 2852   0.847   6.411   6.334
  651SOL    HW2 2853   0.863   6.293   6.445
  652SOL     OW 2854   5.141   0.271   3.942
  652SOL    HW1 2855   5.126   0.322   3.857
  652SOL    HW2 2856   5.144   0.334   4.019
  653SOL     OW 2857   1.305   5.772   6.684
  653SOL    HW1 2858   1.221   5.813   6.719
  653SOL    HW2 2859   1.285   5.721   6.600
  654SOL     OW 2860   0.723   5.549   6.878
  654SOL    HW1 2861   0.658   5.482   6.914
  654SOL    HW2 2862   0.813   5.532   6.917
  655SOL     OW 2863   0.104   5.972   1.527
  655SOL    HW1 2864   0.171   5.996   1.598
  655SOL    HW2 2865   0.079   6.054   1.476
  656SOL     OW 2866   1.840   6.255   1.175
  656SOL    HW1 2867   1.783   6.337   1.182
  656SOL    HW2 2868   1.790   6.176   1.212
  657SOL     OW 2869   2.480   3.719   1.626
  657SOL    HW1 2870   2.435   3.632   1.605
  657SOL    HW2 2871   2.426   3.795   1.588
  658SOL     OW 2872   2.200   3.900   6.801
  658SOL    HW1 2873   2.111   3.855   6.796
  658SOL    HW2 2874   2.268   3.844   6.753
  659SOL     OW 2875   1.448   5.901   5.309
  659SOL    HW1 2876   1.519   5.937   5.248
  659SOL    HW2 2877   1.363   5.888   5.258
  660SOL     OW 2878   5.822   3.850   2.290
  660SOL    HW1 2879   5.830   3.862   2.191
  660SOL    HW2 2880   5.769   3.767   2.310
  661SOL     OW 2881   4.847   4.339   3.234
  661SOL    HW1 2882   4.805   4.429   3.230
  661SOL    HW2 2883   4.778   4.271   3.256
  662SOL     OW 2884   4.306   0.489   4.899
  662SOL    HW1 2885   4.377   0.559   4.911
  662SOL    HW2 2886   4.334   0.405   4.946
  663SOL     OW 2887   1.415   3.589   6.538
  663SOL    HW1 2888   1.512   3.588   6.511
  663SOL    HW2 2889   1.408   3.571   6.636
  664SOL     OW 2890   6.957   5.147   6.632
  664SOL    HW1 2891   0.025   5.171   6.606
  664SOL    HW2 2892   6.895   5.177   6.560
  665SOL     OW 2893   4.350   4.755   0.874
  665SOL    HW1 2894   4.358   4.779   0.777
  665SOL    HW2 2895   4.321   4.836   0.925
  666SOL     OW 2896   5.094   1.581   2.894
  666SOL    HW1 2897   5.100   1.669   2.846
  666SOL    HW2 2898   5.058   1.511   2.832
  667SOL     OW 2899   6.049   3.664   3.543
  667SOL    HW1 2900   6.084   3.731   3.608
  667SOL    HW2 2901   6.083   3.684   3.452
  668SOL     OW 2902   4.690   5.991   6.662
  668SOL    HW1 2903   4.616   5.998   6.730
  668SOL    HW2 2904   4.651   5.963   6.574
  669SOL     OW 2905   3.928   5.981   3.503
  669SOL    HW1 2906   3.890   5.944   3.418
  669SOL    HW2 2907   3.854   6.007   3.564
  670SOL     OW 2908   2.645   2.827   1.443
  670SOL    HW1 2909   2.738   2.792   1.441
  670SOL    HW2 2910   2.646   2.926   1.427
  671SOL     OW 2911   2.354   5.629   0.250
  671SOL    HW1 2912   2.300   5.690   0.192
  671SOL    HW2 2913   2.422   5.581   0.195
  672SOL     OW 2914   0.877   4.396   1.708
  672SOL    HW1 2915   0.960   4.381   1.761
  672SOL    HW2 2916   0.822   4.468   1.751
  673SOL     OW 2917   6.664   0.690   1.293
  673SOL    HW1 2918   6.718   0.713   1.212
  673SOL    HW2 2919   6.605   0.612   1.273
  674SOL     OW 2920   6.952   2.945   4.387
  674SOL    HW1 2921   6.918   2.900   4.470
  674SOL    HW2 2922   6.880   3.004   4.350
  675SOL     OW 2923   0.824   1.045   4.205
  675SOL    HW1 2924   0.724   1.036   4.212
  675SOL    HW2 2925   0.848   1.086   4.117
  676SOL     OW 2926   4.042   6.060   2.719
  676SOL    HW1 2927   4.128   6.095   2.684
  676SOL    HW2 2928   3.985   6.137   2.749
  677SOL     OW 2929   5.794   1.475   6.776
  677SOL    HW1 2930   5.850   1.441   6.699
  677SOL    HW2 2931   5.846   1.465   6.861
  678SOL     OW 2932   1.768   1.153   4.679
  678SOL    HW1 2933   1.745   1.242   4.719
  678SOL    HW2 2934   1.792   1.089   4.752
  679SOL     OW 2935   4.737   1.781   4.551
  679SOL    HW1 2936   4.837   1.786   4.556
  679SOL    HW2 2937   4.708   1.794   4.456
  680SOL     OW 2938   6.210   5.710   5.890
  680SOL    HW1 2939   6.159   5.732   5.807
  680SOL    HW2 2940   6.148   5.714   5.969
  681SOL     OW 2941   5.340   6.117   1.270
  681SOL    HW1 2942   5.391   6.184   1.325
  681SOL    HW2 2943   5.398   6.039   1.249
  682SOL     OW 2944   1.732   0.559   0.492
  682SOL    HW1 2945   1.732   0.527   0.587
  682SOL    HW2 2946   1.638   0.579   0.464
  683SOL     OW 2947   3.705   2.798   6.810
  683SOL    HW1 2948   3.762   2.751   6.877
  683SOL    HW2 2949   3.629   2.843   6.856
  684SOL     OW 2950   6.521   0.702   0.160
  684SOL    HW1 2951   6.547   0.783   0.107
  684SOL    HW2 2952   6.433   0.719   0.206
  685SOL     OW 2953   4.528   1.255   4.388
  685SOL    HW1 2954   4.583   1.260   4.472
  685SOL    HW2 2955   4.585   1.220   4.314
  686SOL     OW 2956   5.723   2.257   3.867
  686SOL    HW1 2957   5.632   2.226   3.839
  686SOL    HW2 2958   5.778   2.277   3.786
  687SOL     OW 2959   0.520   2.535   4.858
  687SOL    HW1 2960   0.479   2.578   4.939
  687SOL    HW2 2961   0.450   2.524   4.787
  688SOL     OW 2962   1.608   3.107   0.006
  688SOL    HW1 2963   1.542   3.089   0.078
  688SOL    HW2 2964   1.627   3.022   6.982
  689SOL     OW 2965   0.170   4.053   5.951
  689SOL    HW1 2966   0.232   4.026   5.877
  689SOL    HW2 2967   0.114   4.130   5.920
  690SOL     OW 2968   0.764   4.082   3.295
  690SOL    HW1 2969   0.703   4.147   3.249
  690SOL    HW2 2970   0.792   4.119   3.383
  691SOL     OW 2971   2.538   0.333   6.419
  691SOL    HW1 2972   2.524   0.248   6.470
  691SOL    HW2 2973   2.615   0.383   6.458
  692SOL     OW 2974   4.256   5.910   4.023
  692SOL    HW1 2975   4.308   5.987   4.061
  692SOL    HW2 2976   4.159   5.924   4.043
  693SOL     OW 2977   6.570   0.515   3.568
  693SOL    HW1 2978   6.572   0.429   3.518
  693SOL    HW2 2979   6.527   0.586   3.511
  694SOL     OW 2980   4.230   6.453   2.570
  694SOL    HW1 2981   4.169   6.532   2.578
  694SOL    HW2 2982   4.278   6.439   2.657
  695SOL     OW 2983   4.282   5.718   4.931
  695SOL    HW1 2984   4.322   5.787   4.991
  695SOL    HW2 2985   4.186   5.739   4.915
  696SOL     OW 2986   3.248   5.446   2.508
  696SOL    HW1 2987   3.163   5.498   2.499
  696SOL    HW2 2988   3.305   5.458   2.426
  697SOL     OW 2989   2.237   2.866   3.942
  697SOL    HW1 2990   2.291   2.807   3.881
  697SOL    HW2 2991   2.190   2.810   4.010
  698SOL     OW 2992   5.473   0.419   0.049
  698SOL    HW1 2993   5.518   0.495   0.097
  698SOL    HW2 2994   5.463   0.342   0.112
  699SOL     OW 2995   1.633   3.893   6.122
  699SOL    HW1 2996   1.549   3.947   6.126
  699SOL    HW2 2997   1.631   3.833   6.043
  700SOL     OW 2998   2.700   1.338   3.539
  700SOL    HW1 2999   2.666   1.332   3.445
  700SOL    HW2 3000   2.774   1.271   3.551
  701SOL     OW 3001   5.850   3.113   5.040
  701SOL    HW1 3002   5.889   3.060   5.115
  701SOL    HW2 3003   5.923   3.161   4.992
  702SOL     OW 3004   0.303   6.674   6.127
  702SOL    HW1 3005   0.350   6.761   6.110
  702SOL    HW2 3006   0.210   6.678   6.089
  703SOL     OW 3007   3.307   4.353   6.403
  703SOL    HW1 3008   3.372   4.279   6.384
  703SOL    HW2 3009   3.215   4.314   6.410
  704SOL     OW 3010   1.040   1.465   7.019
  704SOL    HW1 3011   1.014   1.480   0.088
  704SOL    HW2 3012   0.974   1.511   6.959
  705SOL     OW 3013   5.924   6.108   3.081
  705SOL    HW1 3014   5.846   6.168   3.100
  705SOL    HW2 3015   5.948   6.114   2.984
  706SOL     OW 3016   4.374   2.422   4.097
  706SOL    HW1 3017   4.298   2.375   4.051
  706SOL    HW2 3018   4.358   2.423   4.195
  707SOL     OW 3019   4.971   6.577   2.140
  707SOL    HW1 3020   5.012   6.489   2.117
  707SOL    HW2 3021   4.982   6.595   2.238
  708SOL     OW 3022   3.751   0.696   1.395
  708SOL    HW1 3023   3.666   0.681   1.444
  708SOL    HW2 3024   3.741   0.663   1.301
  709SOL     OW 3025   0.834   5.384   0.739
  709SOL    HW1 3026   0.769   5.310   0.721
  709SOL    HW2 3027   0.885   5.405   0.655
  710SOL     OW 3028   3.415   2.987   2.574
  710SOL    HW1 3029   3.324   3.024   2.560
  710SOL    HW2 3030   3.428   2.964   2.671
  711SOL     OW 3031   0.168   2.439   5.469
  711SOL    HW1 3032   0.125   2.524   5.499
  711SOL    HW2 3033   0.119   2.402   5.390
  712SOL     OW 3034   3.813   3.410   0.897
  712SOL    HW1 3035   3.885   3.475   0.872
  712SOL    HW2 3036   3.737   3.417   0.832
  713SOL     OW 3037   4.036   3.045   6.372
  713SOL    HW1 3038   3.988   3.049   6.284
  713SOL    HW2 3039   4.026   2.954   6.412
  714SOL     OW 3040   6.752   4.246   4.233
  714SOL    HW1 3041   6.711   4.220   4.146
  714SOL    HW2 3042   6.690   4.307   4.282
  715SOL     OW 3043   5.688   5.442   0.010
  715SOL    HW1 3044   5.716   5.366   6.978
  715SOL    HW2 3045   5.687   5.526   6.983
  716SOL     OW 3046   1.084   0.098   0.879
  716SOL    HW1 3047   1.174   0.131   0.907
  716SOL    HW2 3048   1.043   0.044   0.952
  717SOL     OW 3049   6.266   4.664   6.145
  717SOL    HW1 3050   6.300   4.758   6.140
  717SOL    HW2 3051   6.317   4.606   6.082
  718SOL     OW 3052   4.986   2.657   6.509
  718SOL    HW1 3053   4.945   2.683   6.422
  718SOL    HW2 3054   5.011   2.560   6.507
  719SOL     OW 3055   6.485   0.746   1.909
  719SOL    HW1 3056   6.554   0.745   1.837
  719SOL    HW2 3057   6.396   0.719   1.872
  720SOL     OW 3058   3.591   1.015   6.614
  720SOL    HW1 3059   3.592   0.941   6.681
  720SOL    HW2 3060   3.532   1.089   6.647
  721SOL     OW 3061   2.631   1.092   4.085
  721SOL    HW1 3062   2.664   1.012   4.135
  721SOL    HW2 3063   2.669   1.092   3.992
  722SOL     OW 3064   2.701   0.395   4.639
  722SOL    HW1 3065   2.686   0.359   4.731
  722SOL    HW2 3066   2.660   0.333   4.572
  723SOL     OW 3067   1.973   3.931   2.823
  723SOL    HW1 3068   2.054   3.916   2.880
  723SOL    HW2 3069   1.930   4.018   2.848
  724SOL     OW 3070   1.213   2.914   4.494
  724SOL    HW1 3071   1.306   2.932   4.524
  724SOL    HW2 3072   1.169   2.848   4.556
  725SOL     OW 3073   3.682   5.762   0.816
  725SOL    HW1 3074   3.763   5.750   0.760
  725SOL    HW2 3075   3.709   5.789   0.908
  726SOL     OW 3076   4.307   4.812   0.593
  726SOL    HW1 3077   4.227   4.768   0.553
  726SOL    HW2 3078   4.379   4.822   0.524
  727SOL     OW 3079   5.504   5.025   6.176
  727SOL    HW1 3080   5.421   5.070   6.210
  727SOL    HW2 3081   5.479   4.943   6.125
  728SOL     OW 3082   6.432   3.580   4.934
  728SOL    HW1 3083   6.407   3.510   5.002
  728SOL    HW2 3084   6.515   3.553   4.887
  729SOL     OW 3085   1.238   2.268   0.714
  729SOL    HW1 3086   1.228   2.365   0.732
  729SOL    HW2 3087   1.284   2.224   0.791
  730SOL     OW 3088   5.407   0.977   3.105
  730SOL    HW1 3089   5.446   0.899   3.154
  730SOL    HW2 3090   5.327   1.010   3.153
  731SOL     OW 3091   5.423   4.634   5.747
  731SOL    HW1 3092   5.444   4.539   5.724
  731SOL    HW2 3093   5.335   4.639   5.793
  732SOL     OW 3094   0.431   2.598   2.057
  732SOL    HW1 3095   0.457   2.536   1.984
  732SOL    HW2 3096   0.447   2.693   2.028
  733SOL     OW 3097   5.956   6.416   5.755
  733SOL    HW1 3098   5.907   6.375   5.678
  733SOL    HW2 3099   5.990   6.344   5.815
  734SOL     OW 3100   6.893   4.569   2.488
  734SOL    HW1 3101   6.978   4.586   2.539
  734SOL    HW2 3102   6.827   4.525   2.548
  735SOL     OW 3103   3.634   2.322   0.713
  735SOL    HW1 3104   3.547   2.277   0.689
  735SOL    HW2 3105   3.682   2.347   0.629
  736SOL     OW 3106   1.081   0.518   3.096
  736SOL    HW1 3107   1.083   0.468   3.183
  736SOL    HW2 3108   1.160   0.579   3.092
  737SOL     OW 3109   4.740   2.286   5.793
  737SOL    HW1 3110   4.834   2.305   5.766
  737SOL    HW2 3111   4.677   2.328   5.728
  738SOL     OW 3112   1.844   4.766   2.353
  738SOL    HW1 3113   1.848   4.812   2.442
  738SOL    HW2 3114   1.850   4.667   2.366
  739SOL     OW 3115   4.427   0.637   3.972
  739SOL    HW1 3116   4.443   0.538   3.967
  739SOL    HW2 3117   4.433   0.667   4.067
  740SOL     OW 3118   5.197   0.042   1.010
  740SOL    HW1 3119   5.154   0.098   0.940
  740SOL    HW2 3120   5.171   6.973   0.997
  741SOL     OW 3121   2.177   6.536   3.199
  741SOL    HW1 3122   2.087   6.546   3.158
  741SOL    HW2 3123   2.226   6.623   3.194
  742SOL     OW 3124   2.657   6.590   2.076
  742SOL    HW1 3125   2.581   6.603   2.012
  742SOL    HW2 3126   2.713   6.673   2.078
  743SOL     OW 3127   0.264   3.848   4.084
  743SOL    HW1 3128   0.242   3.804   4.171
  743SOL    HW2 3129   0.243   3.786   4.008
  744SOL     OW 3130   5.641   0.618   6.871
  744SOL    HW1 3131   5.729   0.573   6.857
  744SOL    HW2 3132   5.576   0.553   6.910
  745SOL     OW 3133   0.511   5.980   5.073
  745SOL    HW1 3134   0.482   5.891   5.038
  745SOL    HW2 3135   0.587   6.014   5.018
  746SOL     OW 3136   6.997   4.978   5.810
  746SOL    HW1 3137   0.062   4.940   5.800
  746SOL    HW2 3138   6.985   5.014   5.903
  747SOL     OW 3139   3.775   6.289   4.462
  747SOL    HW1 3140   3.848   6.308   4.528
  747SOL    HW2 3141   3.816   6.270   4.373
  748SOL     OW 3142   3.943   4.854   2.374
  748SOL    HW1 3143   3.916   4.932   2.431
  748SOL    HW2 3144   3.861   4.801   2.350
  749SOL     OW 3145   6.312   4.287   5.169
  749SOL    HW1 3146   6.398   4.263   5.126
  749SOL    HW2 3147   6.320   4.378   5.210
  750SOL     OW 3148   1.588   2.373   0.904
  750SOL    HW1 3149   1.572   2.444   0.836
  750SOL    HW2 3150   1.524   2.297   0.889
  751SOL     OW 3151   3.507   2.053   6.475
  751SOL    HW1 3152   3.566   1.974   6.463
  751SOL    HW2 3153   3.504   2.079   6.572
  752SOL     OW 3154   3.622   1.341   2.464
  752SOL    HW1 3155   3.533   1.303   2.436
  752SOL    HW2 3156   3.667   1.277   2.526
  753SOL     OW 3157   1.837   3.359   5.057
  753SOL    HW1 3158   1.800   3.393   4.971
  753SOL    HW2 3159   1.935   3.379   5.062
  754SOL     OW 3160   5.281   2.674   5.877
  754SOL    HW1 3161   5.277   2.692   5.976
  754SOL    HW2 3162   5.308   2.758   5.829
  755SOL     OW 3163   1.222   4.307   5.191
  755SOL    HW1 3164   1.164   4.229   5.215
  755SOL    HW2 3165   1.185   4.390   5.233
  756SOL     OW 3166   3.792   0.054   0.543
  756SOL    HW1 3167   3.764   0.039   0.448
  756SOL    HW2 3168   3.766   0.147   0.571
  757SOL     OW 3169   1.093   0.118   3.909
  757SOL    HW1 3170   1.030   0.045   3.936
  757SOL    HW2 3171   1.186   0.080   3.900
  758SOL     OW 3172   3.647   6.930   1.925
  758SOL    HW1 3173   3.739   6.971   1.934
  758SOL    HW2 3174   3.624   6.921   1.828
  759SOL     OW 3175   0.404   1.223   1.087
  759SOL    HW1 3176   0.308   1.244   1.070
  759SOL    HW2 3177   0.444   1.293   1.145
  760SOL     OW 3178   5.344   0.460   5.460
  760SOL    HW1 3179   5.443   0.457   5.466
  760SOL    HW2 3180   5.316   0.454   5.364
  761SOL     OW 3181   5.663   2.794   5.708
  761SOL    HW1 3182   5.697   2.726   5.643
  761SOL    HW2 3183   5.692   2.769   5.800
  762SOL     OW 3184   2.381   0.787   4.915
  762SOL    HW1 3185   2.439   0.705   4.916
  762SOL    HW2 3186   2.432   0.864   4.952
  763SOL     OW 3187   4.126   5.460   6.051
  763SOL    HW1 3188   4.222   5.469   6.025
  763SOL    HW2 3189   4.100   5.538   6.107
  764SOL     OW 3190   5.210   2.054   5.165
  764SOL    HW1 3191   5.301   2.065   5.205
  764SOL    HW2 3192   5.147   2.017   5.233
  765SOL     OW 3193   1.248   6.520   1.344
  765SOL    HW1 3194   1.329   6.461   1.342
  765SOL    HW2 3195   1.238   6.565   1.256
  766SOL     OW 3196   2.533   3.537   6.675
  766SOL    HW1 3197   2.484   3.624   6.674
  766SOL    HW2 3198   2.620   3.549   6.724
  767SOL     OW 3199   6.162   5.700   1.979
  767SOL    HW1 3200   6.142   5.635   1.905
  767SOL    HW2 3201   6.241   5.756   1.954
  768SOL     OW 3202   2.516   6.330   2.022
  768SOL    HW1 3203   2.431   6.301   2.067
  768SOL    HW2 3204   2.511   6.428   2.002
  769SOL     OW 3205   3.377   0.462   4.897
  769SOL    HW1 3206   3.367   0.388   4.830
  769SOL    HW2 3207   3.409   0.545   4.852
  770SOL     OW 3208   2.325   4.160   3.143
  770SOL    HW1 3209   2.373   4.246   3.154
  770SOL    HW2 3210   2.325   4.134   3.046
  771SOL     OW 3211   2.551   5.294   2.547
  771SOL    HW1 3212   2.604   5.372   2.513
  771SOL    HW2 3213   2.612   5.224   2.583
  772SOL     OW 3214   5.672   4.990   0.752
  772SOL    HW1 3215   5.693   4.900   0.713
  772SOL    HW2 3216   5.758   5.038   0.772
  773SOL     OW 3217   0.570   3.631   5.082
  773SOL    HW1 3218   0.510   3.639   5.162
  773SOL    HW2 3219   0.529   3.569   5.015
  774SOL     OW 3220   1.029   1.549   1.209
  774SOL    HW1 3221   0.964   1.480   1.239
  774SOL    HW2 3222   1.001   1.639   1.242
  775SOL     OW 3223   0.688   2.229   2.782
  775SOL    HW1 3224   0.591   2.250   2.799
  775SOL    HW2 3225   0.744   2.276   2.850
  776SOL     OW 3226   1.226   0.206   6.369
  776SOL    HW1 3227   1.135   0.191   6.332
  776SOL    HW2 3228   1.267   0.117   6.393
  777SOL     OW 3229   2.433   4.808   1.378
  777SOL    HW1 3230   2.519   4.758   1.377
  777SOL    HW2 3231   2.448   4.901   1.411
  778SOL     OW 3232   2.994   1.290   2.520
  778SOL    HW1 3233   3.051   1.366   2.490
  778SOL    HW2 3234   2.927   1.269   2.449
  779SOL     OW 3235   6.860   2.748   2.550
  779SOL    HW1 3236   6.900   2.743   2.642
  779SOL    HW2 3237   6.918   2.804   2.491
  780SOL     OW 3238   6.473   3.807   3.605
  780SOL    HW1 3239   6.522   3.800   3.518
  780SOL    HW2 3240   6.389   3.859   3.592
  781SOL     OW 3241   5.388   1.070   6.907
  781SOL    HW1 3242   5.449   1.049   6.983
  781SOL    HW2 3243   5.440   1.113   6.833
  782SOL     OW 3244   1.398   4.214   6.760
  782SOL    HW1 3245   1.494   4.236   6.743
  782SOL    HW2 3246   1.388   4.115   6.767
  783SOL     OW 3247   4.049   5.550   0.763
  783SOL    HW1 3248   4.131   5.579   0.811
  783SOL    HW2 3249   4.049   5.589   0.671
  784SOL     OW 3250   5.678   6.149   0.513
  784SOL    HW1 3251   5.626   6.112   0.437
  784SOL    HW2 3252   5.640   6.115   0.599
  785SOL     OW 3253   0.469   2.616   2.912
  785SOL    HW1 3254   0.411   2.644   2.988
  785SOL    HW2 3255   0.441   2.525   2.881
  786SOL     OW 3256   1.349   0.732   1.652
  786SOL    HW1 3257   1.415   0.671   1.696
  786SOL    HW2 3258   1.370   0.739   1.555
  787SOL     OW 3259   3.136   0.223   6.809
  787SOL    HW1 3260   3.050   0.185   6.841
  787SOL    HW2 3261   3.138   0.221   6.709
  788SOL     OW 3262   3.882   2.956   5.872
  788SOL    HW1 3263   3.786   2.929   5.880
  788SOL    HW2 3264   3.918   2.925   5.784
  789SOL     OW 3265   5.023   4.082   0.761
  789SOL    HW1 3266   4.965   4.004   0.741
  789SOL    HW2 3267   5.093   4.056   0.828
  790SOL     OW 3268   2.123   1.403   4.260
  790SOL    HW1 3269   2.129   1.497   4.292
  790SOL    HW2 3270   2.064   1.350   4.321
  791SOL     OW 3271   3.286   5.589   3.938
  791SOL    HW1 3272   3.326   5.678   3.918
  791SOL    HW2 3273   3.231   5.595   4.021
  792SOL     OW 3274   0.667   6.643   1.004
  792SOL    HW1 3275   0.710   6.733   1.010
  792SOL    HW2 3276   0.603   6.643   0.926
  793SOL     OW 3277   4.675   4.977   3.633
  793SOL    HW1 3278   4.710   4.890   3.601
  793SOL    HW2 3279   4.616   5.017   3.563
  794SOL     OW 3280   3.423   3.861   5.483
  794SOL    HW1 3281   3.403   3.958   5.495
  794SOL    HW2 3282   3.395   3.811   5.565
  795SOL     OW 3283   3.582   6.816   4.174
  795SOL    HW1 3284   3.494   6.803   4.129
  795SOL    HW2 3285   3.567   6.848   4.268
  796SOL     OW 3286   0.482   2.049   6.736
  796SOL    HW1 3287   0.415   2.035   6.809
  796SOL    HW2 3288   0.445   2.016   6.650
  797SOL     OW 3289   5.376   3.180   0.935
  797SOL    HW1 3290   5.283   3.144   0.929
  797SOL    HW2 3291   5.397   3.202   1.030
  798SOL     OW 3292   4.094   0.218   1.997
  798SOL    HW1 3293   4.125   0.132   2.038
  798SOL    HW2 3294   4.109   0.293   2.061
  799SOL     OW 3295   6.310   0.282   5.828
  799SOL    HW1 3296   6.223   0.263   5.782
  799SOL    HW2 3297   6.385   0.261   5.766
  800SOL     OW 3298   5.284   2.434   2.509
  800SOL    HW1 3299   5.232   2.361   2.554
  800SOL    HW2 3300   5.260   2.438   2.413
  801SOL     OW 3301   1.153   3.627   4.209
  801SOL    HW1 3302   1.148   3.628   4.110
  801SOL    HW2 3303   1.203   3.546   4.239
  802SOL     OW 3304   4.451   1.541   0.829
  802SOL    HW1 3305   4.409   1.630   0.811
  802SOL    HW2 3306   4.402   1.471   0.778
  803SOL     OW 3307   0.314   6.878   5.340
  803SOL    HW1 3308   0.234   6.913   5.292
  803SOL    HW2 3309   0.389   6.943   5.333
  804SOL     OW 3310   5.178   5.540   6.702
  804SOL    HW1 3311   5.099   5.533   6.641
  804SOL    HW2 3312   5.172   5.470   6.773
  805SOL     OW 3313   3.889   7.023   5.465
  805SOL    HW1 3314   3.830   6.979   5.398
  805SOL    HW2 3315   3.980   0.011   5.426
  806SOL     OW 3316   5.327   1.221   4.363
  806SOL    HW1 3317   5.329   1.237   4.462
  806SOL    HW2 3318   5.401   1.160   4.337
  807SOL     OW 3319   1.529   1.941   4.130
  807SOL    HW1 3320   1.447   1.963   4.181
  807SOL    HW2 3321   1.511   1.863   4.069
  808SOL     OW 3322   4.305   3.513   6.355
  808SOL    HW1 3323   4.365   3.535   6.279
  808SOL    HW2 3324   4.210   3.509   6.323
  809SOL     OW 3325   6.962   5.042   1.325
  809SOL    HW1 3326   0.027   5.046   1.284
  809SOL    HW2 3327   6.946   5.124   1.379
  810SOL     OW 3328   3.245   2.603   1.149
  810SOL    HW1 3329   3.272   2.543   1.224
  810SOL    HW2 3330   3.197   2.549   1.079
  811SOL     OW 3331   3.949   5.460   4.937
  811SOL    HW1 3332   4.029   5.492   4.988
  811SOL    HW2 3333   3.968   5.371   4.896
  812SOL     OW 3334   0.255   1.337   1.923
  812SOL    HW1 3335   0.177   1.321   1.983
  812SOL    HW2 3336   0.246   1.426   1.878
  813SOL     OW 3337   3.351   6.217   5.596
  813SOL    HW1 3338   3.284   6.242   5.667
  813SOL    HW2 3339   3.353   6.117   5.587
  814SOL     OW 3340   6.781   6.132   2.653
  814SOL    HW1 3341   6.865   6.119   2.601
  814SOL    HW2 3342   6.741   6.221   2.630
  815SOL     OW 3343   0.469   3.539   2.977
  815SOL    HW1 3344   0.474   3.603   3.055
  815SOL    HW2 3345   0.514   3.454   3.001
  816SOL     OW 3346   6.280   6.335   0.937
  816SOL    HW1 3347   6.207   6.362   0.874
  816SOL    HW2 3348   6.256   6.361   1.030
  817SOL     OW 3349   2.055   4.034   0.394
  817SOL    HW1 3350   2.073   4.019   0.491
  817SOL    HW2 3351   1.995   4.114   0.383
  818SOL     OW 3352   6.293   2.849   2.321
  818SOL    HW1 3353   6.200   2.884   2.311
  818SOL    HW2 3354   6.300   2.795   2.405
  819SOL     OW 3355   5.671   2.803   3.015
  819SOL    HW1 3356   5.749   2.765   3.066
  819SOL    HW2 3357   5.636   2.734   2.952
  820SOL     OW 3358   2.934   2.511   5.318
  820SOL    HW1 3359   2.983   2.459   5.388
  820SOL    HW2 3360   2.998   2.572   5.271
  821SOL     OW 3361   1.337   4.006   1.145
  821SOL    HW1 3362   1.289   4.043   1.224
  821SOL    HW2 3363   1.414   4.065   1.122
  822SOL     OW 3364   1.720   4.319   3.810
  822SOL    HW1 3365   1.767   4.296   3.895
  822SOL    HW2 3366   1.755   4.406   3.775
  823SOL     OW 3367   5.628   3.787   6.756
  823SOL    HW1 3368   5.536   3.825   6.766
  823SOL    HW2 3369   5.649   3.728   6.834
  824SOL     OW 3370   5.499   1.073   6.141
  824SOL    HW1 3371   5.404   1.055   6.168
  824SOL    HW2 3372   5.502   1.098   6.044
  825SOL     OW 3373   0.512   4.023   1.090
  825SOL    HW1 3374   0.433   4.036   1.151
  825SOL    HW2 3375   0.538   4.112   1.051
  826SOL     OW 3376   5.225   3.053   5.310
  826SOL    HW1 3377   5.244   3.147   5.338
  826SOL    HW2 3378   5.234   2.992   5.388
  827SOL     OW 3379   2.963   4.912   5.641
  827SOL    HW1 3380   3.020   4.986   5.605
  827SOL    HW2 3381   3.020   4.835   5.668
  828SOL     OW 3382   5.377   6.978   6.458
  828SOL    HW1 3383   5.351   0.024   6.395
  828SOL    HW2 3384   5.317   6.899   6.444
  829SOL     OW 3385   3.055   3.841   2.940
  829SOL    HW1 3386   3.014   3.884   3.020
  829SOL    HW2 3387   3.023   3.746   2.933
  830SOL     OW 3388   4.987   5.119   6.675
  830SOL    HW1 3389   4.997   5.115   6.576
  830SOL    HW2 3390   4.966   5.028   6.710
  831SOL     OW 3391   5.939   0.720   6.608
  831SOL    HW1 3392   6.019   0.694   6.662
  831SOL    HW2 3393   5.964   0.729   6.512
  832SOL     OW 3394   2.989   0.748   1.840
  832SOL    HW1 3395   2.938   0.779   1.760
  832SOL    HW2 3396   2.925   0.729   1.915
  833SOL     OW 3397   0.502   3.808   5.729
  833SOL    HW1 3398   0.596   3.827   5.756
  833SOL    HW2 3399   0.501   3.751   5.647
  834SOL     OW 3400   3.930   3.666   0.348
  834SOL    HW1 3401   4.024   3.657   0.381
  834SOL    HW2 3402   3.930   3.675   0.248
  835SOL     OW 3403   3.432   0.213   5.020
  835SOL    HW1 3404   3.386   0.260   4.944
  835SOL    HW2 3405   3.365   0.156   5.069
  836SOL     OW 3406   3.985   6.318   0.004
  836SOL    HW1 3407   3.996   6.266   6.946
  836SOL    HW2 3408   4.072   6.359   0.029
  837SOL     OW 3409   5.216   0.158   0.432
  837SOL    HW1 3410   5.234   0.256   0.420
  837SOL    HW2 3411   5.122   0.138   0.405
  838SOL     OW 3412   2.455   0.810   4.521
  838SOL    HW1 3413   2.407   0.727   4.548
  838SOL    HW2 3414   2.480   0.862   4.603
  839SOL     OW 3415   2.011   2.723   1.935
  839SOL    HW1 3416   2.100   2.766   1.948
  839SOL    HW2 3417   2.007   2.637   1.987
  840SOL     OW 3418   6.129   6.343   6.857
  840SOL    HW1 3419   6.041   6.353   6.904
  840SOL    HW2 3420   6.122   6.268   6.791
  841SOL     OW 3421   3.899   5.040   6.718
  841SOL    HW1 3422   3.985   4.996   6.745
  841SOL    HW2 3423   3.844   5.057   6.800
  842SOL     OW 3424   4.064   6.862   4.798
  842SOL    HW1 3425   4.107   6.819   4.719
  842SOL    HW2 3426   4.133   6.876   4.870
  843SOL     OW 3427   1.280   1.607   1.132
  843SOL    HW1 3428   1.195   1.587   1.180
  843SOL    HW2 3429   1.320   1.692   1.168
  844SOL     OW 3430   6.108   0.522   1.034
  844SOL    HW1 3431   6.194   0.549   1.078
  844SOL    HW2 3432   6.048   0.601   1.027
  845SOL     OW 3433   5.476   4.378   5.627
  845SOL    HW1 3434   5.422   4.336   5.700
  845SOL    HW2 3435   5.571   4.351   5.637
  846SOL     OW 3436   2.068   2.198   6.707
  846SOL    HW1 3437   1.978   2.198   6.752
  846SOL    HW2 3438   2.062   2.147   6.621
  847SOL     OW 3439   1.815   3.406   1.393
  847SOL    HW1 3440   1.902   3.406   1.444
  847SOL    HW2 3441   1.755   3.477   1.429
  848SOL     OW 3442   6.056   0.665   6.334
  848SOL    HW1 3443   6.125   0.594   6.324
  848SOL    HW2 3444   6.042   0.711   6.246
  849SOL     OW 3445   0.546   4.191   6.248
  849SOL    HW1 3446   0.597   4.275   6.230
  849SOL    HW2 3447   0.477   4.209   6.318
  850SOL     OW 3448   5.029   0.534   3.781
  850SOL    HW1 3449   5.082   0.483   3.712
  850SOL    HW2 3450   4.934   0.505   3.777
  851SOL     OW 3451   0.307   1.816   2.477
  851SOL    HW1 3452   0.384   1.875   2.505
  851SOL    HW2 3453   0.237   1.871   2.433
  852SOL     OW 3454   1.212   2.979   6.698
  852SOL    HW1 3455   1.251   3.038   6.768
  852SOL    HW2 3456   1.272   2.900   6.683
  853SOL     OW 3457   2.025   4.331   2.767
  853SOL    HW1 3458   1.927   4.320   2.784
  853SOL    HW2 3459   2.076   4.278   2.834
  854SOL     OW 3460   4.791   6.065   1.653
  854SOL    HW1 3461   4.793   6.081   1.751
  854SOL    HW2 3462   4.744   6.141   1.608
  855SOL     OW 3463   0.039   0.682   1.940
  855SOL    HW1 3464   0.100   0.755   1.971
  855SOL    HW2 3465   0.013   0.625   2.018
  856SOL     OW 3466   1.611   2.131   5.355
  856SOL    HW1 3467   1.560   2.045   5.360
  856SOL    HW2 3468   1.615   2.173   5.446
  857SOL     OW 3469   5.965   4.453   2.009
  857SOL    HW1 3470   6.017   4.392   2.069
  857SOL    HW2 3471   5.984   4.548   2.033
  858SOL     OW 3472   3.097   3.466   1.253
  858SOL    HW1 3473   3.166   3.431   1.190
  858SOL    HW2 3474   3.068   3.557   1.224
  859SOL     OW 3475   4.827   5.648   5.618
  859SOL    HW1 3476   4.776   5.709   5.678
  859SOL    HW2 3477   4.874   5.578   5.672
  860SOL     OW 3478   4.793   3.843   0.283
  860SOL    HW1 3479   4.852   3.909   0.237
  860SOL    HW2 3480   4.713   3.823   0.226
  861SOL     OW 3481   2.417   6.378   3.707
  861SOL    HW1 3482   2.514   6.365   3.688
  861SOL    HW2 3483   2.406   6.417   3.799
  862SOL     OW 3484   0.841   4.160   4.798
  862SOL    HW1 3485   0.920   4.131   4.852
  862SOL    HW2 3486   0.787   4.080   4.772
  863SOL     OW 3487   6.471   0.188   0.836
  863SOL    HW1 3488   6.558   0.163   0.880
  863SOL    HW2 3489   6.406   0.218   0.907
  864SOL     OW 3490   4.276   5.020   3.536
  864SOL    HW1 3491   4.280   4.953   3.610
  864SOL    HW2 3492   4.258   5.110   3.573
  865SOL     OW 3493   0.708   5.919   5.831
  865SOL    HW1 3494   0.661   5.990   5.884
  865SOL    HW2 3495   0.715   5.835   5.885
  866SOL     OW 3496   1.850   1.663   1.919
  866SOL    HW1 3497   1.824   1.745   1.868
  866SOL    HW2 3498   1.933   1.682   1.972
  867SOL     OW 3499   4.025   3.915   0.769
  867SOL    HW1 3500   4.114   3.950   0.799
  867SOL    HW2 3501   4.026   3.904   0.669
  868SOL     OW 3502   5.613   0.687   1.481
  868SOL    HW1 3503   5.683   0.655   1.417
  868SOL    HW2 3504   5.523   0.655   1.450
  869SOL     OW 3505   6.589   4.962   3.197
  869SOL    HW1 3506   6.623   4.905   3.271
  869SOL    HW2 3507   6.490   4.969   3.202
  870SOL     OW 3508   3.911   3.167   0.765
  870SOL    HW1 3509   3.892   3.226   0.843
  870SOL    HW2 3510   3.942   3.222   0.688
  871SOL     OW 3511   4.900   2.977   3.316
  871SOL    HW1 3512   4.910   3.073   3.288
  871SOL    HW2 3513   4.849   2.973   3.402
  872SOL     OW 3514   5.326   4.357   4.105
  872SOL    HW1 3515   5.229   4.373   4.121
  872SOL    HW2 3516   5.338   4.316   4.014
  873SOL     OW 3517   5.993   6.821   4.051
  873SOL    HW1 3518   6.081   6.867   4.057
  873SOL    HW2 3519   5.947   6.824   4.139
  874SOL     OW 3520   0.988   4.377   5.891
  874SOL    HW1 3521   1.002   4.446   5.820
  874SOL    HW2 3522   1.073   4.365   5.942
  875SOL     OW 3523   3.354   2.994   0.471
  875SOL    HW1 3524   3.408   2.947   0.401
  875SOL    HW2 3525   3.413   3.020   0.547
  876SOL     OW 3526   0.485   5.082   2.925
  876SOL    HW1 3527   0.501   4.992   2.966
  876SOL    HW2 3528   0.456   5.070   2.830
  877SOL     OW 3529   4.118   4.105   6.685
  877SOL    HW1 3530   4.155   4.026   6.637
  877SOL    HW2 3531   4.084   4.078   6.774
  878SOL     OW 3532   3.717   5.468   5.156
  878SOL    HW1 3533   3.684   5.555   5.119
  878SOL    HW2 3534   3.720   5.400   5.084
  879SOL     OW 3535   2.834   2.105   1.925
  879SOL    HW1 3536   2.789   2.124   1.838
  879SOL    HW2 3537   2.842   2.190   1.978
  880SOL     OW 3538   3.444   4.107   5.594
  880SOL    HW1 3539   3.409   4.084   5.685
  880SOL    HW2 3540   3.541   4.128   5.600
  881SOL     OW 3541   4.629   4.050   5.361
  881SOL    HW1 3542   4.654   3.965   5.315
  881SOL    HW2 3543   4.636   4.126   5.297
  882SOL     OW 3544   1.270   1.870   4.586
  882SOL    HW1 3545   1.180   1.854   4.546
  882SOL    HW2 3546   1.341   1.840   4.522
  883SOL     OW 3547   4.749   5.408   6.015
  883SOL    HW1 3548   4.762   5.476   6.087
  883SOL    HW2 3549   4.668   5.353   6.035
  884SOL     OW 3550   0.027   4.075   0.096
  884SOL    HW1 3551   7.001   3.997   0.130
  884SOL    HW2 3552   0.102   4.095   0.159
  885SOL     OW 3553   4.939   5.478   6.350
  885SOL    HW1 3554   4.921   5.504   6.445
  885SOL    HW2 3555   4.962   5.560   6.297
  886SOL     OW 3556   3.993   0.543   1.109
  886SOL    HW1 3557   4.063   0.556   1.179
  886SOL    HW2 3558   4.035   0.506   1.026
  887SOL     OW 3559   3.813   6.722   4.050
  887SOL    HW1 3560   3.884   6.791   4.036
  887SOL    HW2 3561   3.739   6.761   4.105
  888SOL     OW 3562   5.541   6.058   2.959
  888SOL    HW1 3563   5.598   5.996   3.013
  888SOL    HW2 3564   5.496   6.123   3.020
  889SOL     OW 3565   1.611   6.404   5.810
  889SOL    HW1 3566   1.651   6.313   5.809
  889SOL    HW2 3567   1.576   6.425   5.901
  890SOL     OW 3568   2.015   4.931   2.151
  890SOL    HW1 3569   1.946   4.887   2.208
  890SOL    HW2 3570   2.041   5.019   2.191
  891SOL     OW 3571   6.073   4.222   0.961
  891SOL    HW1 3572   5.993   4.210   0.903
  891SOL    HW2 3573   6.156   4.207   0.907
  892SOL     OW 3574   3.926   4.313   5.781
  892SOL    HW1 3575   3.906   4.405   5.748
  892SOL    HW2 3576   4.008   4.279   5.735
  893SOL     OW 3577   1.689   1.220   2.011
  893SOL    HW1 3578   1.776   1.212   1.963
  893SOL    HW2 3579   1.694   1.167   2.096
  894SOL     OW 3580   1.756   2.075   3.417
  894SOL    HW1 3581   1.717   2.136   3.348
  894SOL    HW2 3582   1.853   2.095   3.427
  895SOL     OW 3583   1.136   5.879   4.704
  895SOL    HW1 3584   1.134   5.811   4.631
  895SOL    HW2 3585   1.099   5.966   4.671
  896SOL     OW 3586   6.229   6.290   2.300
  896SOL    HW1 3587   6.230   6.191   2.309
  896SOL    HW2 3588   6.165   6.329   2.366
  897SOL     OW 3589   4.741   1.040   0.432
  897SOL    HW1 3590   4.757   1.056   0.529
  897SOL    HW2 3591   4.745   0.942   0.412
  898SOL     OW 3592   4.255   6.172   2.903
  898SOL    HW1 3593   4.275   6.206   2.995
  898SOL    HW2 3594   4.158   6.184   2.883
  899SOL     OW 3595   0.265   5.285   0.476
  899SOL    HW1 3596   0.234   5.329   0.560
  899SOL    HW2 3597   0.224   5.331   0.397
  900SOL     OW 3598   4.398   6.287   0.902
  900SOL    HW1 3599   4.435   6.377   0.879
  900SOL    HW2 3600   4.470   6.218   0.893
  901SOL     OW 3601   0.935   1.221   5.390
  901SOL    HW1 3602   0.920   1.242   5.487
  901SOL    HW2 3603   1.028   1.186   5.377
  902SOL     OW 3604   0.578   2.297   0.277
  902SOL    HW1 3605   0.485   2.322   0.250
  902SOL    HW2 3606   0.575   2.216   0.335
  903SOL     OW 3607   6.729   4.253   6.310
  903SOL    HW1 3608   6.715   4.320   6.383
  903SOL    HW2 3609   6.643   4.239   6.261
  904SOL     OW 3610   1.941   2.801   3.211
  904SOL    HW1 3611   2.035   2.831   3.229
  904SOL    HW2 3612   1.881   2.881   3.211
  905SOL     OW 3613   4.824   3.796   6.166
  905SOL    HW1 3614   4.808   3.705   6.128
  905SOL    HW2 3615   4.759   3.813   6.240
  906SOL     OW 3616   0.854   3.082   5.770
  906SOL    HW1 3617   0.866   3.151   5.699
  906SOL    HW2 3618   0.785   3.112   5.836
  907SOL     OW 3619   6.157   3.151   2.713
  907SOL    HW1 3620   6.101   3.234   2.706
  907SOL    HW2 3621   6.098   3.071   2.701
  908SOL     OW 3622   1.717   6.066   3.234
  908SOL    HW1 3623   1.712   5.974   3.195
  908SOL    HW2 3624   1.650   6.075   3.308
  909SOL     OW 3625   2.839   6.107   2.016
  909SOL    HW1 3626   2.832   6.184   2.080
  909SOL    HW2 3627   2.927   6.113   1.968
  910SOL     OW 3628   2.765   0.438   1.230
  910SOL    HW1 3629   2.670   0.457   1.202
  910SOL    HW2 3630   2.770   0.432   1.329
  911SOL     OW 3631   6.896   5.194   1.046
  911SOL    HW1 3632   6.833   5.256   1.000
  911SOL    HW2 3633   6.987   5.236   1.050
  912SOL     OW 3634   6.099   0.638   4.320
  912SOL    HW1 3635   6.143   0.550   4.336
  912SOL    HW2 3636   6.168   0.709   4.309
  913SOL     OW 3637   1.674   0.854   3.021
  913SOL    HW1 3638   1.772   0.850   3.037
  913SOL    HW2 3639   1.654   0.928   2.956
  914SOL     OW 3640   2.437   6.199   4.998
  914SOL    HW1 3641   2.466   6.203   4.903
  914SOL    HW2 3642   2.364   6.132   5.008
  915SOL     OW 3643   1.349   3.625   6.830
  915SOL    HW1 3644   1.390   3.547   6.878
  915SOL    HW2 3645   1.253   3.633   6.856
  916SOL     OW 3646   1.438   2.767   1.678
  916SOL    HW1 3647   1.503   2.709   1.629
  916SOL    HW2 3648   1.424   2.730   1.770
  917SOL     OW 3649   5.606   0.453   2.420
  917SOL    HW1 3650   5.557   0.538   2.440
  917SOL    HW2 3651   5.540   0.377   2.418
  918SOL     OW 3652   2.598   6.579   6.913
  918SOL    HW1 3653   2.560   6.533   6.832
  918SOL    HW2 3654   2.681   6.531   6.942
  919SOL     OW 3655   6.541   5.426   2.693
  919SOL    HW1 3656   6.556   5.341   2.642
  919SOL    HW2 3657   6.609   5.433   2.767
  920SOL     OW 3658   2.486   5.742   3.179
  920SOL    HW1 3659   2.469   5.648   3.149
  920SOL    HW2 3660   2.432   5.805   3.123
  921SOL     OW 3661   4.812   4.167   4.018
  921SOL    HW1 3662   4.798   4.104   3.942
  921SOL    HW2 3663   4.848   4.117   4.097
  922SOL     OW 3664   3.686   2.851   5.582
  922SOL    HW1 3665   3.783   2.833   5.570
  922SOL    HW2 3666   3.673   2.944   5.618
  923SOL     OW 3667   2.996   4.452   6.024
  923SOL    HW1 3668   2.951   4.441   5.935
  923SOL    HW2 3669   2.930   4.483   6.092
  924SOL     OW 3670   6.630   2.530   2.381
  924SOL    HW1 3671   6.595   2.485   2.299
  924SOL    HW2 3672   6.615   2.628   2.375
  925SOL     OW 3673   7.005   1.976   6.311
  925SOL    HW1 3674   6.934   2.023   6.258
  925SOL    HW2 3675   7.013   1.882   6.281
  926SOL     OW 3676   6.220   1.289   0.563
  926SOL    HW1 3677   6.123   1.267   0.571
  926SOL    HW2 3678   6.264   1.222   0.502
  927SOL     OW 3679   5.706   3.808   3.610
  927SOL    HW1 3680   5.776   3.850   3.669
  927SOL    HW2 3681   5.729   3.712   3.594
  928SOL     OW 3682   1.448   6.452   0.368
  928SOL    HW1 3683   1.484   6.385   0.432
  928SOL    HW2 3684   1.351   6.435   0.352
  929SOL     OW 3685   0.801   0.583   1.036
  929SOL    HW1 3686   0.828   0.669   0.993
  929SOL    HW2 3687   0.742   0.531   0.974
  930SOL     OW 3688   5.610   6.020   4.828
  930SOL    HW1 3689   5.672   5.959   4.777
  930SOL    HW2 3690   5.519   5.979   4.831
  931SOL     OW 3691   5.862   3.049   3.124
  931SOL    HW1 3692   5.830   3.028   3.032
  931SOL    HW2 3693   5.943   2.994   3.145
  932SOL     OW 3694   2.942   6.706   2.774
  932SOL    HW1 3695   2.991   6.619   2.767
  932SOL    HW2 3696   2.882   6.717   2.695
  933SOL     OW 3697   0.889   5.835   3.323
  933SOL    HW1 3698   0.801   5.796   3.298
  933SOL    HW2 3699   0.900   5.925   3.282
  934SOL     OW 3700   1.541   0.808   4.489
  934SOL    HW1 3701   1.551   0.779   4.584
  934SOL    HW2 3702   1.465   0.873   4.482
  935SOL     OW 3703   5.108   4.137   5.315
  935SOL    HW1 3704   5.138   4.229   5.288
  935SOL    HW2 3705   5.105   4.078   5.234
  936SOL     OW 3706   1.666   1.128   6.407
  936SOL    HW1 3707   1.623   1.108   6.495
  936SOL    HW2 3708   1.705   1.220   6.409
  937SOL     OW 3709   5.009   1.418   4.648
  937SOL    HW1 3710   5.061   1.500   4.671
  937SOL    HW2 3711   5.009   1.355   4.726
  938SOL     OW 3712   0.420   5.469   6.264
  938SOL    HW1 3713   0.396   5.476   6.168
  938SOL    HW2 3714   0.414   5.374   6.294
  939SOL     OW 3715   5.370   0.762   5.495
  939SOL    HW1 3716   5.441   0.775   5.565
  939SOL    HW2 3717   5.363   0.665   5.473
  940SOL     OW 3718   0.761   3.175   2.431
  940SOL    HW1 3719   0.716   3.150   2.345
  940SOL    HW2 3720   0.700   3.155   2.507
  941SOL     OW 3721   6.565   0.805   4.843
  941SOL    HW1 3722   6.502   0.859   4.787
  941SOL    HW2 3723   6.525   0.715   4.861
  942SOL     OW 3724   4.783   0.105   3.727
  942SOL    HW1 3725   4.690   0.141   3.727
  942SOL    HW2 3726   4.795   0.044   3.649
  943SOL     OW 3727   1.814   3.484   3.505
  943SOL    HW1 3728   1.721   3.446   3.504
  943SOL    HW2 3729   1.851   3.478   3.598
  944SOL     OW 3730   6.702   3.922   5.451
  944SOL    HW1 3731   6.779   3.979   5.480
  944SOL    HW2 3732   6.621   3.945   5.505
  945SOL     OW 3733   6.634   4.757   5.615
  945SOL    HW1 3734   6.706   4.826   5.624
  945SOL    HW2 3735   6.673   4.666   5.625
  946SOL     OW 3736   4.440   3.082   5.675
  946SOL    HW1 3737   4.341   3.071   5.685
  946SOL    HW2 3738   4.462   3.094   5.578
  947SOL     OW 3739   3.618   2.909   4.288
  947SOL    HW1 3740   3.519   2.906   4.302
  947SOL    HW2 3741   3.639   2.895   4.191
  948SOL     OW 3742   4.107   0.105   0.867
  948SOL    HW1 3743   4.137   0.187   0.914
  948SOL    HW2 3744   4.018   0.121   0.825
  949SOL     OW 3745   1.114   6.682   6.351
  949SOL    HW1 3746   1.113   6.629   6.436
  949SOL    HW2 3747   1.099   6.778   6.372
  950SOL     OW 3748   4.256   4.839   1.857
  950SOL    HW1 3749   4.341   4.824   1.908
  950SOL    HW2 3750   4.270   4.814   1.761
  951SOL     OW 3751   2.135   0.390   2.846
  951SOL    HW1 3752   2.101   0.350   2.761
  951SOL    HW2 3753   2.209   0.333   2.882
  952SOL     OW 3754   5.295   1.848   2.704
  952SOL    HW1 3755   5.326   1.943   2.707
  952SOL    HW2 3756   5.195   1.846   2.699
  953SOL     OW 3757   4.895   5.713   4.851
  953SOL    HW1 3758   4.806   5.693   4.892
  953SOL    HW2 3759   4.967   5.685   4.914
  954SOL     OW 3760   4.823   5.838   0.378
  954SOL    HW1 3761   4.735   5.801   0.347
  954SOL    HW2 3762   4.821   5.849   0.477
  955SOL     OW 3763   0.028   4.496   2.906
  955SOL    HW1 3764   0.045   4.552   2.825
  955SOL    HW2 3765   0.109   4.443   2.928
  956SOL     OW 3766   0.295   2.142   2.690
  956SOL    HW1 3767   0.210   2.144   2.742
  956SOL    HW2 3768   0.280   2.179   2.598
  957SOL     OW 3769   0.578   5.051   4.452
  957SOL    HW1 3770   0.610   5.024   4.362
  957SOL    HW2 3771   0.486   5.089   4.445
  958SOL     OW 3772   4.479   1.944   2.733
  958SOL    HW1 3773   4.445   1.935   2.639
  958SOL    HW2 3774   4.481   1.853   2.776
  959SOL     OW 3775   3.446   5.348   3.219
  959SOL    HW1 3776   3.495   5.289   3.154
  959SOL    HW2 3777   3.497   5.433   3.233
  960SOL     OW 3778   0.214   5.601   3.257
  960SOL    HW1 3779   0.205   5.690   3.213
  960SOL    HW2 3780   0.307   5.567   3.244
  961SOL     OW 3781   4.470   0.128   3.406
  961SOL    HW1 3782   4.387   0.073   3.414
  961SOL    HW2 3783   4.481   0.159   3.312
  962SOL     OW 3784   1.300   1.073   4.213
  962SOL    HW1 3785   1.370   1.009   4.181
  962SOL    HW2 3786   1.258   1.118   4.135
  963SOL     OW 3787   6.709   2.352   6.311
  963SOL    HW1 3788   6.781   2.399   6.363
  963SOL    HW2 3789   6.744   2.329   6.221
  964SOL     OW 3790   6.211   4.227   6.968
  964SOL    HW1 3791   6.217   4.298   0.012
  964SOL    HW2 3792   6.118   4.223   6.932
  965SOL     OW 3793   5.778   1.620   0.701
  965SOL    HW1 3794   5.828   1.691   0.750
  965SOL    HW2 3795   5.801   1.625   0.603
  966SOL     OW 3796   5.111   2.582   1.846
  966SOL    HW1 3797   5.028   2.584   1.901
  966SOL    HW2 3798   5.175   2.650   1.880
  967SOL     OW 3799   2.278   4.631   1.608
  967SOL    HW1 3800   2.235   4.721   1.608
  967SOL    HW2 3801   2.230   4.571   1.544
  968SOL     OW 3802   3.549   1.770   2.151
  968SOL    HW1 3803   3.520   1.775   2.247
  968SOL    HW2 3804   3.569   1.862   2.118
  969SOL     OW 3805   3.470   5.893   6.504
  969SOL    HW1 3806   3.483   5.932   6.413
  969SOL    HW2 3807   3.435   5.800   6.496
  970SOL     OW 3808   4.701   1.254   5.878
  970SOL    HW1 3809   4.649   1.205   5.808
  970SOL    HW2 3810   4.745   1.333   5.837
  971SOL     OW 3811   6.713   2.302   2.977
  971SOL    HW1 3812   6.725   2.366   2.901
  971SOL    HW2 3813   6.761   2.216   2.957
  972SOL     OW 3814   5.630   4.108   1.569
  972SOL    HW1 3815   5.658   4.109   1.473
  972SOL    HW2 3816   5.640   4.015   1.606
  973SOL     OW 3817   6.872   4.647   6.866
  973SOL    HW1 3818   6.918   4.578   6.811
  973SOL    HW2 3819   6.916   4.653   6.956
  974SOL     OW 3820   5.710   0.072   2.405
  974SOL    HW1 3821   5.777   0.115   2.344
  974SOL    HW2 3822   5.618   0.096   2.376
  975SOL     OW 3823   1.815   5.460   6.542
  975SOL    HW1 3824   1.777   5.534   6.597
  975SOL    HW2 3825   1.819   5.489   6.446
  976SOL     OW 3826   6.303   3.427   3.123
  976SOL    HW1 3827   6.328   3.455   3.030
  976SOL    HW2 3828   6.318   3.503   3.186
  977SOL     OW 3829   1.215   0.890   2.808
  977SOL    HW1 3830   1.143   0.918   2.871
  977SOL    HW2 3831   1.200   0.794   2.781
  978SOL     OW 3832   4.756   3.677   5.727
  978SOL    HW1 3833   4.746   3.597   5.668
  978SOL    HW2 3834   4.722   3.758   5.678
  979SOL     OW 3835   0.086   2.222   1.024
  979SOL    HW1 3836   0.053   2.238   1.117
  979SOL    HW2 3837   0.157   2.290   1.002
  980SOL     OW 3838   4.283   2.382   3.790
  980SOL    HW1 3839   4.205   2.372   3.851
  980SOL    HW2 3840   4.361   2.418   3.841
  981SOL     OW 3841   1.352   2.289   5.231
  981SOL    HW1 3842   1.431   2.286   5.293
  981SOL    HW2 3843   1.310   2.199   5.226
  982SOL     OW 3844   2.153   2.189   3.670
  982SOL    HW1 3845   2.169   2.092   3.689
  982SOL    HW2 3846   2.113   2.233   3.750
  983SOL     OW 3847   5.731   2.057   4.791
  983SOL    HW1 3848   5.738   2.039   4.693
  983SOL    HW2 3849   5.823   2.058   4.831
  984SOL     OW 3850   2.760   1.787   4.536
  984SOL    HW1 3851   2.701   1.717   4.497
  984SOL    HW2 3852   2.818   1.746   4.606
  985SOL     OW 3853   4.878   4.780   6.432
  985SOL    HW1 3854   4.895   4.784   6.334
  985SOL    HW2 3855   4.805   4.845   6.456
  986SOL     OW 3856   5.505   4.379   0.819
  986SOL    HW1 3857   5.504   4.380   0.919
  986SOL    HW2 3858   5.519   4.285   0.787
  987SOL     OW 3859   4.275   6.991   1.827
  987SOL    HW1 3860   4.281   0.022   1.745
  987SOL    HW2 3861   4.294   0.019   1.908
  988SOL     OW 3862   3.382   3.270   3.111
  988SOL    HW1 3863   3.454   3.220   3.061
  988SOL    HW2 3864   3.381   3.240   3.206
  989SOL     OW 3865   6.549   0.805   5.296
  989SOL    HW1 3866   6.542   0.872   5.370
  989SOL    HW2 3867   6.551   0.713   5.334
  990SOL     OW 3868   4.272   0.591   1.821
  990SOL    HW1 3869   4.268   0.619   1.916
  990SOL    HW2 3870   4.202   0.521   1.804
  991SOL     OW 3871   1.511   3.159   5.197
  991SOL    HW1 3872   1.593   3.190   5.245
  991SOL    HW2 3873   1.432   3.208   5.231
  992SOL     OW 3874   0.072   2.825   2.371
  992SOL    HW1 3875   0.108   2.903   2.423
  992SOL    HW2 3876   0.136   2.748   2.378
  993SOL     OW 3877   1.578   4.557   2.037
  993SOL    HW1 3878   1.610   4.624   1.970
  993SOL    HW2 3879   1.633   4.474   2.031
  994SOL     OW 3880   3.462   3.841   2.290
  994SOL    HW1 3881   3.409   3.758   2.308
  994SOL    HW2 3882   3.410   3.902   2.231
  995SOL     OW 3883   3.706   3.084   5.365
  995SOL    HW1 3884   3.644   3.149   5.321
  995SOL    HW2 3885   3.690   3.085   5.464
  996SOL     OW 3886   2.175   4.597   4.071
  996SOL    HW1 3887   2.263   4.608   4.116
  996SOL    HW2 3888   2.125   4.521   4.113
  997SOL     OW 3889   1.260   0.688   3.034
  997SOL    HW1 3890   1.237   0.775   3.077
  997SOL    HW2 3891   1.357   0.688   3.009
  998SOL     OW 3892   4.037   6.649   4.419
  998SOL    HW1 3893   3.995   6.592   4.349
  998SOL    HW2 3894   4.049   6.742   4.384
  999SOL     OW 3895   5.196   4.305   2.058
  999SOL    HW1 3896   5.243   4.218   2.047
  999SOL    HW2 3897   5.169   4.341   1.968
 1000SOL     OW 3898   1.813   0.674   2.129
 1000SOL    HW1 3899   1.785   0.768   2.149
 1000SOL    HW2 3900   1.792   0.653   2.033
 1001SOL     OW 3901   5.701   6.411   0.515
 1001SOL    HW1 3902   5.692   6.311   0.509
 1001SOL    HW2 3903   5.669   6.453   0.430
 1002SOL     OW 3904   6.076   1.634   0.508
 1002SOL    HW1 3905   6.142   1.696   0.465
 1002SOL    HW2 3906   6.092   1.633   0.607
 1003SOL     OW 3907   2.432   6.130   1.356
 1003SOL    HW1 3908   2.386   6.065   1.295
 1003SOL    HW2 3909   2.492   6.079   1.418
 1004SOL     OW 3910   0.412   0.684   1.655
 1004SOL    HW1 3911   0.488   0.701   1.593
 1004SOL    HW2 3912   0.335   0.645   1.604
 1005SOL     OW 3913   1.204   2.319   3.480
 1005SOL    HW1 3914   1.287   2.369   3.456
 1005SOL    HW2 3915   1.144   2.313   3.401
 1006SOL     OW 3916   1.287   5.195   0.947
 1006SOL    HW1 3917   1.370   5.140   0.958
 1006SOL    HW2 3918   1.239   5.166   0.865
 1007SOL     OW 3919   4.979   0.124   4.860
 1007SOL    HW1 3920   5.016   0.217   4.854
 1007SOL    HW2 3921   5.004   0.073   4.777
 1008SOL     OW 3922   1.856   3.089   4.953
 1008SOL    HW1 3923   1.890   3.159   5.016
 1008SOL    HW2 3924   1.783   3.127   4.898
 1009SOL     OW 3925   0.116   5.540   5.040
 1009SOL    HW1 3926   0.140   5.478   4.965
 1009SOL    HW2 3927   0.160   5.509   5.124
 1010SOL     OW 3928   3.639   2.738   6.138
 1010SOL    HW1 3929   3.655   2.810   6.071
 1010SOL    HW2 3930   3.626   2.651   6.090
 1011SOL     OW 3931   2.321   5.032   2.111
 1011SOL    HW1 3932   2.252   5.081   2.166
 1011SOL    HW2 3933   2.303   4.934   2.115
 1012SOL     OW 3934   6.379   0.552   1.355
 1012SOL    HW1 3935   6.415   0.505   1.436
 1012SOL    HW2 3936   6.285   0.580   1.373
 1013SOL     OW 3937   1.272   1.295   5.832
 1013SOL    HW1 3938   1.176   1.305   5.857
 1013SOL    HW2 3939   1.326   1.368   5.875
 1014SOL     OW 3940   5.155   5.982   6.326
 1014SOL    HW1 3941   5.163   6.041   6.246
 1014SOL    HW2 3942   5.092   6.024   6.392
 1015SOL     OW 3943   2.535   6.894   5.559
 1015SOL    HW1 3944   2.503   6.927   5.648
 1015SOL    HW2 3945   2.507   6.957   5.487
 1016SOL     OW 3946   3.627   3.559   0.071
 1016SOL    HW1 3947   3.713   3.554   0.020
 1016SOL    HW2 3948   3.554   3.515   0.018
 1017SOL     OW 3949   3.930   2.777   1.265
 1017SOL    HW1 3950   3.988   2.707   1.224
 1017SOL    HW2 3951   3.844   2.783   1.214
 1018SOL     OW 3952   0.796   3.437   4.504
 1018SOL    HW1 3953   0.833   3.450   4.596
 1018SOL    HW2 3954   0.716   3.496   4.493
 1019SOL     OW 3955   6.807   0.255   1.220
 1019SOL    HW1 3956   6.753   0.191   1.166
 1019SOL    HW2 3957   6.878   0.296   1.163
 1020SOL     OW 3958   0.977   6.593   1.354
 1020SOL    HW1 3959   0.921   6.550   1.283
 1020SOL    HW2 3960   1.068   6.553   1.353
 1021SOL     OW 3961   5.058   0.340   1.286
 1021SOL    HW1 3962   5.015   0.250   1.293
 1021SOL    HW2 3963   4.998   0.402   1.236
 1022SOL     OW 3964   3.610   4.780   6.412
 1022SOL    HW1 3965   3.557   4.695   6.418
 1022SOL    HW2 3966   3.549   4.858   6.427
 1023SOL     OW 3967   0.794   6.991   2.670
 1023SOL    HW1 3968   0.731   6.935   2.724
 1023SOL    HW2 3969   0.865   0.001   2.729
 1024SOL     OW 3970   6.680   2.806   4.165
 1024SOL    HW1 3971   6.601   2.851   4.124
 1024SOL    HW2 3972   6.665   2.796   4.264
 1025SOL     OW 3973   2.571   3.162   0.786
 1025SOL    HW1 3974   2.543   3.258   0.778
 1025SOL    HW2 3975   2.557   3.130   0.880
 1026SOL     OW 3976   2.391   2.753   1.308
 1026SOL    HW1 3977   2.422   2.674   1.255
 1026SOL    HW2 3978   2.468   2.790   1.360
 1027SOL     OW 3979   2.803   6.680   1.039
 1027SOL    HW1 3980   2.740   6.700   0.965
 1027SOL    HW2 3981   2.795   6.750   1.110
 1028SOL     OW 3982   2.594   6.205   6.944
 1028SOL    HW1 3983   2.542   6.241   7.021
 1028SOL    HW2 3984   2.671   6.150   6.978
 1029SOL     OW 3985   2.119   0.404   0.250
 1029SOL    HW1 3986   2.046   0.449   0.301
 1029SOL    HW2 3987   2.207   0.429   0.289
 1030SOL     OW 3988   3.372   3.811   1.902
 1030SOL    HW1 3989   3.343   3.725   1.944
 1030SOL    HW2 3990   3.334   3.888   1.953
 1031SOL     OW 3991   4.789   5.315   1.102
 1031SOL    HW1 3992   4.843   5.352   1.026
 1031SOL    HW2 3993   4.691   5.323   1.080
 1032SOL     OW 3994   2.047   1.723   4.803
 1032SOL    HW1 3995   2.144   1.700   4.814
 1032SOL    HW2 3996   2.008   1.745   4.892
 1033SOL     OW 3997   1.571   6.132   0.782
 1033SOL    HW1 3998   1.502   6.083   0.835
 1033SOL    HW2 3999   1.635   6.067   0.742
 1034SOL     OW 4000   0.381   5.647   5.256
 1034SOL    HW1 4001   0.336   5.561   5.280
 1034SOL    HW2 4002   0.329   5.723   5.293
 1035SOL     OW 4003   1.248   1.343   4.526
 1035SOL    HW1 4004   1.196   1.349   4.612
 1035SOL    HW2 4005   1.309   1.423   4.519
 1036SOL     OW 4006   2.753   1.123   1.978
 1036SOL    HW1 4007   2.849   1.149   1.981
 1036SOL    HW2 4008   2.722   1.117   1.883
 1037SOL     OW 4009   1.539   0.471   1.812
 1037SOL    HW1 4010   1.442   0.445   1.808
 1037SOL    HW2 4011   1.595   0.388   1.810
 1038SOL     OW 4012   1.627   0.144   5.778
 1038SOL    HW1 4013   1.596   0.082   5.706
 1038SOL    HW2 4014   1.725   0.160   5.768
 1039SOL     OW 4015   3.475   3.134   5.830
 1039SOL    HW1 4016   3.515   3.217   5.868
 1039SOL    HW2 4017   3.377   3.147   5.815
 1040SOL     OW 4018   4.727   2.719   2.676
 1040SOL    HW1 4019   4.732   2.736   2.774
 1040SOL    HW2 4020   4.730   2.806   2.627
 1041SOL     OW 4021   6.512   6.998   4.473
 1041SOL    HW1 4022   6.445   6.956   4.412
 1041SOL    HW2 4023   6.487   0.067   4.489
 1042SOL     OW 4024   4.206   4.990   2.362
 1042SOL    HW1 4025   4.135   4.945   2.416
 1042SOL    HW2 4026   4.163   5.037   2.284
 1043SOL     OW 4027   3.725   1.716   4.530
 1043SOL    HW1 4028   3.747   1.741   4.436
 1043SOL    HW2 4029   3.633   1.747   4.552
 1044SOL     OW 4030   4.971   4.191   2.258
 1044SOL    HW1 4031   5.034   4.252   2.209
 1044SOL    HW2 4032   4.900   4.160   2.195
 1045SOL     OW 4033   3.975   6.413   2.411
 1045SOL    HW1 4034   3.931   6.368   2.333
 1045SOL    HW2 4035   4.072   6.392   2.411
 1046SOL     OW 4036   1.089   0.242   0.483
 1046SOL    HW1 4037   1.175   0.269   0.440
 1046SOL    HW2 4038   1.021   0.223   0.413
 1047SOL     OW 4039   1.714   0.631   3.350
 1047SOL    HW1 4040   1.725   0.555   3.286
 1047SOL    HW2 4041   1.632   0.683   3.327
 1048SOL     OW 4042   5.745   6.242   4.826
 1048SOL    HW1 4043   5.704   6.320   4.779
 1048SOL    HW2 4044   5.688   6.161   4.815
 1049SOL     OW 4045   6.238   5.591   3.799
 1049SOL    HW1 4046   6.191   5.529   3.736
 1049SOL    HW2 4047   6.186   5.600   3.883
 1050SOL     OW 4048   4.269   5.571   1.003
 1050SOL    HW1 4049   4.317   5.574   1.090
 1050SOL    HW2 4050   4.335   5.577   0.928
 1051SOL     OW 4051   2.346   6.203   0.921
 1051SOL    HW1 4052   2.323   6.111   0.892
 1051SOL    HW2 4053   2.445   6.211   0.932
 1052SOL     OW 4054   3.795   0.359   4.683
 1052SOL    HW1 4055   3.729   0.402   4.621
 1052SOL    HW2 4056   3.885   0.358   4.641
 1053SOL     OW 4057   5.787   4.824   3.116
 1053SOL    HW1 4058   5.753   4.776   3.197
 1053SOL    HW2 4059   5.818   4.758   3.048
 1054SOL     OW 4060   2.217   3.933   5.437
 1054SOL    HW1 4061   2.310   3.926   5.402
 1054SOL    HW2 4062   2.219   3.950   5.535
 1055SOL     OW 4063   5.290   6.792   3.947
 1055SOL    HW1 4064   5.316   6.884   3.918
 1055SOL    HW2 4065   5.238   6.748   3.873
 1056SOL     OW 4066   1.759   4.834   5.741
 1056SOL    HW1 4067   1.697   4.821   5.663
 1056SOL    HW2 4068   1.852   4.852   5.707
 1057SOL     OW 4069   3.245   3.409   2.520
 1057SOL    HW1 4070   3.231   3.391   2.423
 1057SOL    HW2 4071   3.157   3.405   2.568
 1058SOL     OW 4072   4.906   1.304   3.333
 1058SOL    HW1 4073   4.990   1.301   3.387
 1058SOL    HW2 4074   4.927   1.336   3.240
 1059SOL     OW 4075   2.191   0.343   1.415
 1059SOL    HW1 4076   2.262   0.353   1.484
 1059SOL    HW2 4077   2.228   0.295   1.336
 1060SOL     OW 4078   6.921   4.490   4.501
 1060SOL    HW1 4079   6.840   4.514   4.554
 1060SOL    HW2 4080   6.947   4.395   4.520
 1061SOL     OW 4081   5.723   3.628   1.222
 1061SOL    HW1 4082   5.637   3.636   1.272
 1061SOL    HW2 4083   5.712   3.564   1.146
 1062SOL     OW 4084   5.521   3.820   6.252
 1062SOL    HW1 4085   5.582   3.837   6.174
 1062SOL    HW2 4086   5.520   3.900   6.312
 1063SOL     OW 4087   1.941   4.911   1.285
 1063SOL    HW1 4088   1.992   4.853   1.222
 1063SOL    HW2 4089   2.003   4.974   1.332
 1064SOL     OW 4090   2.010   4.208   1.965
 1064SOL    HW1 4091   2.103   4.232   1.936
 1064SOL    HW2 4092   1.953   4.192   1.884
 1065SOL     OW 4093   4.355   0.048   4.050
 1065SOL    HW1 4094   4.435   7.023   4.021
 1065SOL    HW2 4095   4.290   7.014   4.095
 1066SOL     OW 4096   4.753   0.685   4.003
 1066SOL    HW1 4097   4.732   0.604   3.949
 1066SOL    HW2 4098   4.685   0.696   4.075
 1067SOL     OW 4099   0.882   3.294   0.530
 1067SOL    HW1 4100   0.952   3.333   0.589
 1067SOL    HW2 4101   0.920   3.281   0.438
 1068SOL     OW 4102   5.061   4.864   2.595
 1068SOL    HW1 4103   5.149   4.877   2.641
 1068SOL    HW2 4104   5.047   4.767   2.578
 1069SOL     OW 4105   4.696   4.618   0.799
 1069SOL    HW1 4106   4.755   4.571   0.864
 1069SOL    HW2 4107   4.731   4.711   0.784
 1070SOL     OW 4108   0.286   0.018   2.142
 1070SOL    HW1 4109   0.241   0.033   2.230
 1070SOL    HW2 4110   0.317   0.105   2.104
 1071SOL     OW 4111   1.958   0.349   3.066
 1071SOL    HW1 4112   1.942   0.259   3.105
 1071SOL    HW2 4113   2.008   0.340   2.980
 1072SOL     OW 4114   1.832   0.278   1.160
 1072SOL    HW1 4115   1.831   0.186   1.122
 1072SOL    HW2 4116   1.869   0.276   1.253
 1073SOL     OW 4117   4.463   6.772   1.857
 1073SOL    HW1 4118   4.530   6.784   1.784
 1073SOL    HW2 4119   4.394   6.845   1.852
 1074SOL     OW 4120   2.573   5.468   0.717
 1074SOL    HW1 4121   2.487   5.440   0.761
 1074SOL    HW2 4122   2.553   5.527   0.639
 1075SOL     OW 4123   4.280   6.715   3.935
 1075SOL    HW1 4124   4.258   6.791   3.997
 1075SOL    HW2 4125   4.233   6.632   3.966
 1076SOL     OW 4126   6.318   3.880   5.445
 1076SOL    HW1 4127   6.319   3.860   5.347
 1076SOL    HW2 4128   6.391   3.945   5.466
 1077SOL     OW 4129   5.517   0.283   1.160
 1077SOL    HW1 4130   5.468   0.212   1.211
 1077SOL    HW2 4131   5.514   0.262   1.062
 1078SOL     OW 4132   0.779   1.650   2.257
 1078SOL    HW1 4133   0.745   1.562   2.224
 1078SOL    HW2 4134   0.879   1.651   2.253
 1079SOL     OW 4135   2.137   6.024   1.924
 1079SOL    HW1 4136   2.144   6.076   2.009
 1079SOL    HW2 4137   2.228   5.998   1.893
 1080SOL     OW 4138   1.591   4.474   3.522
 1080SOL    HW1 4139   1.503   4.463   3.568
 1080SOL    HW2 4140   1.663   4.492   3.590
 1081SOL     OW 4141   0.436   6.169   6.501
 1081SOL    HW1 4142   0.409   6.207   6.413
 1081SOL    HW2 4143   0.456   6.243   6.565
 1082SOL     OW 4144   3.852   1.972   5.820
 1082SOL    HW1 4145   3.833   1.947   5.915
 1082SOL    HW2 4146   3.785   1.928   5.760
 1083SOL     OW 4147   3.903   3.920   1.075
 1083SOL    HW1 4148   3.886   3.830   1.114
 1083SOL    HW2 4149   3.916   3.912   0.976
 1084SOL     OW 4150   6.284   5.703   0.367
 1084SOL    HW1 4151   6.354   5.764   0.403
 1084SOL    HW2 4152   6.313   5.668   0.278
 1085SOL     OW 4153   1.338   3.783   3.815
 1085SOL    HW1 4154   1.403   3.855   3.837
 1085SOL    HW2 4155   1.306   3.794   3.720
 1086SOL     OW 4156   6.552   6.229   1.717
 1086SOL    HW1 4157   6.605   6.180   1.649
 1086SOL    HW2 4158   6.614   6.271   1.784
 1087SOL     OW 4159   6.119   2.758   5.709
 1087SOL    HW1 4160   6.032   2.806   5.698
 1087SOL    HW2 4161   6.113   2.693   5.784
 1088SOL     OW 4162   6.320   4.625   3.408
 1088SOL    HW1 4163   6.267   4.666   3.482
 1088SOL    HW2 4164   6.259   4.576   3.345
 1089SOL     OW 4165   1.350   6.529   4.800
 1089SOL    HW1 4166   1.373   6.435   4.775
 1089SOL    HW2 4167   1.425   6.569   4.853
 1090SOL     OW 4168   2.445   1.483   3.563
 1090SOL    HW1 4169   2.382   1.467   3.639
 1090SOL    HW2 4170   2.526   1.425   3.574
 1091SOL     OW 4171   2.609   2.745   5.589
 1091SOL    HW1 4172   2.523   2.698   5.572
 1091SOL    HW2 4173   2.643   2.784   5.504
 1092SOL     OW 4174   1.571   4.006   0.523
 1092SOL    HW1 4175   1.648   4.007   0.587
 1092SOL    HW2 4176   1.605   4.016   0.429
 1093SOL     OW 4177   1.401   1.662   2.144
 1093SOL    HW1 4178   1.484   1.691   2.192
 1093SOL    HW2 4179   1.385   1.565   2.161
 1094SOL     OW 4180   0.835   6.149   3.939
 1094SOL    HW1 4181   0.871   6.085   3.871
 1094SOL    HW2 4182   0.738   6.166   3.921
 1095SOL     OW 4183   0.779   2.642   6.121
 1095SOL    HW1 4184   0.816   2.592   6.199
 1095SOL    HW2 4185   0.831   2.727   6.108
 1096SOL     OW 4186   3.395   4.499   1.720
 1096SOL    HW1 4187   3.421   4.408   1.753
 1096SOL    HW2 4188   3.445   4.568   1.772
 1097SOL     OW 4189   1.809   4.113   4.024
 1097SOL    HW1 4190   1.881   4.062   4.073
 1097SOL    HW2 4191   1.771   4.183   4.084
 1098SOL     OW 4192   4.438   3.160   1.000
 1098SOL    HW1 4193   4.435   3.192   0.906
 1098SOL    HW2 4194   4.532   3.136   1.025
 1099SOL     OW 4195   4.177   1.679   5.149
 1099SOL    HW1 4196   4.139   1.644   5.064
 1099SOL    HW2 4197   4.259   1.733   5.129
 1100SOL     OW 4198   3.239   2.118   5.892
 1100SOL    HW1 4199   3.307   2.171   5.840
 1100SOL    HW2 4200   3.212   2.038   5.838
 1101SOL     OW 4201   5.971   2.194   0.263
 1101SOL    HW1 4202   5.996   2.278   0.310
 1101SOL    HW2 4203   5.890   2.154   0.306
 1102SOL     OW 4204   0.855   5.807   4.484
 1102SOL    HW1 4205   0.758   5.823   4.504
 1102SOL    HW2 4206   0.896   5.890   4.448
 1103SOL     OW 4207   3.541   1.820   1.194
 1103SOL    HW1 4208   3.554   1.774   1.107
 1103SOL    HW2 4209   3.444   1.841   1.207
 1104SOL     OW 4210   2.205   3.337   5.192
 1104SOL    HW1 4211   2.300   3.351   5.219
 1104SOL    HW2 4212   2.147   3.341   5.274
 1105SOL     OW 4213   6.077   3.975   4.859
 1105SOL    HW1 4214   6.064   4.008   4.953
 1105SOL    HW2 4215   5.996   3.923   4.831
 1106SOL     OW 4216   0.949   2.007   0.990
 1106SOL    HW1 4217   0.886   1.940   1.030
 1106SOL    HW2 4218   1.036   2.006   1.040
 1107SOL     OW 4219   2.248   0.284   6.620
 1107SOL    HW1 4220   2.321   0.222   6.589
 1107SOL    HW2 4221   2.270   0.377   6.591
 1108SOL     OW 4222   3.220   1.078   5.843
 1108SOL    HW1 4223   3.218   1.058   5.745
 1108SOL    HW2 4224   3.145   1.139   5.866
 1109SOL     OW 4225   4.501   6.998   4.730
 1109SOL    HW1 4226   4.426   0.036   4.746
 1109SOL    HW2 4227   4.585   0.007   4.771
 1110SOL     OW 4228   2.565   2.150   3.126
 1110SOL    HW1 4229   2.632   2.077   3.112
 1110SOL    HW2 4230   2.498   2.121   3.194
 1111SOL     OW 4231   4.977   4.809   6.683
 1111SOL    HW1 4232   4.947   4.761   6.600
 1111SOL    HW2 4233   5.061   4.767   6.717
 1112SOL     OW 4234   5.082   1.355   2.291
 1112SOL    HW1 4235   5.149   1.427   2.273
 1112SOL    HW2 4236   4.990   1.394   2.296
 1113SOL     OW 4237   0.060   3.345   3.092
 1113SOL    HW1 4238   6.994   3.349   3.129
 1113SOL    HW2 4239   0.119   3.410   3.140
 1114SOL     OW 4240   4.187   1.659   6.516
 1114SOL    HW1 4241   4.245   1.627   6.441
 1114SOL    HW2 4242   4.173   1.758   6.508
 1115SOL     OW 4243   4.298   3.145   0.420
 1115SOL    HW1 4244   4.203   3.155   0.449
 1115SOL    HW2 4245   4.303   3.156   0.321
 1116SOL     OW 4246   5.398   5.993   5.275
 1116SOL    HW1 4247   5.469   6.018   5.209
 1116SOL    HW2 4248   5.309   5.990   5.228
 1117SOL     OW 4249   1.537   2.355   1.334
 1117SOL    HW1 4250   1.610   2.302   1.377
 1117SOL    HW2 4251   1.504   2.306   1.253
 1118SOL     OW 4252   2.666   4.295   1.354
 1118SOL    HW1 4253   2.602   4.370   1.339
 1118SOL    HW2 4254   2.743   4.328   1.409
 1119SOL     OW 4255   4.316   3.964   0.308
 1119SOL    HW1 4256   4.365   4.043   0.345
 1119SOL    HW2 4257   4.381   3.890   0.290
 1120SOL     OW 4258   5.905   6.963   4.952
 1120SOL    HW1 4259   5.914   0.004   4.879
 1120SOL    HW2 4260   5.840   6.996   5.021
 1121SOL     OW 4261   5.185   5.289   2.455
 1121SOL    HW1 4262   5.091   5.317   2.477
 1121SOL    HW2 4263   5.189   5.189   2.450
 1122SOL     OW 4264   4.898   3.443   0.165
 1122SOL    HW1 4265   4.916   3.539   0.185
 1122SOL    HW2 4266   4.826   3.435   0.096
 1123SOL     OW 4267   5.402   1.368   3.618
 1123SOL    HW1 4268   5.346   1.344   3.538
 1123SOL    HW2 4269   5.370   1.315   3.697
 1124SOL     OW 4270   6.452   4.221   4.824
 1124SOL    HW1 4271   6.395   4.303   4.824
 1124SOL    HW2 4272   6.519   4.226   4.750
 1125SOL     OW 4273   3.128   1.427   4.843
 1125SOL    HW1 4274   3.167   1.418   4.752
 1125SOL    HW2 4275   3.028   1.435   4.837
 1126SOL     OW 4276   5.179   5.413   6.972
 1126SOL    HW1 4277   5.083   5.388   6.983
 1126SOL    HW2 4278   5.234   5.331   6.958
 1127SOL     OW 4279   4.597   4.944   4.857
 1127SOL    HW1 4280   4.589   5.014   4.785
 1127SOL    HW2 4281   4.506   4.907   4.878
 1128SOL     OW 4282   5.279   1.984   5.516
 1128SOL    HW1 4283   5.301   1.922   5.592
 1128SOL    HW2 4284   5.190   1.959   5.478
 1129SOL     OW 4285   3.237   0.635   6.756
 1129SOL    HW1 4286   3.323   0.614   6.802
 1129SOL    HW2 4287   3.226   0.577   6.676
 1130SOL     OW 4288   1.543   4.706   0.825
 1130SOL    HW1 4289   1.572   4.656   0.743
 1130SOL    HW2 4290   1.603   4.683   0.901
 1131SOL     OW 4291   6.868   6.241   6.323
 1131SOL    HW1 4292   6.923   6.157   6.326
 1131SOL    HW2 4293   6.823   6.248   6.234
 1132SOL     OW 4294   4.961   0.088   1.251
 1132SOL    HW1 4295   4.957   0.045   1.161
 1132SOL    HW2 4296   5.031   0.043   1.306
 1133SOL     OW 4297   0.941   0.421   1.204
 1133SOL    HW1 4298   0.874   0.347   1.206
 1133SOL    HW2 4299   0.911   0.492   1.140
 1134SOL     OW 4300   4.642   1.468   1.399
 1134SOL    HW1 4301   4.662   1.566   1.408
 1134SOL    HW2 4302   4.570   1.455   1.331
 1135SOL     OW 4303   1.992   1.249   2.489
 1135SOL    HW1 4304   1.947   1.338   2.500
 1135SOL    HW2 4305   1.925   1.183   2.454
 1136SOL     OW 4306   3.075   4.908   4.833
 1136SOL    HW1 4307   3.133   4.984   4.861
 1136SOL    HW2 4308   3.093   4.886   4.737
 1137SOL     OW 4309   1.553   1.637   6.060
 1137SOL    HW1 4310   1.460   1.667   6.041
 1137SOL    HW2 4311   1.606   1.634   5.975
 1138SOL     OW 4312   0.687   1.364   6.677
 1138SOL    HW1 4313   0.679   1.399   6.584
 1138SOL    HW2 4314   0.674   1.264   6.675
 1139SOL     OW 4315   3.174   5.375   1.347
 1139SOL    HW1 4316   3.210   5.377   1.254
 1139SOL    HW2 4317   3.190   5.285   1.388
 1140SOL     OW 4318   3.486   1.182   2.111
 1140SOL    HW1 4319   3.469   1.087   2.138
 1140SOL    HW2 4320   3.413   1.213   2.050
 1141SOL     OW 4321   0.168   6.805   6.471
 1141SOL    HW1 4322   0.170   6.844   6.379
 1141SOL    HW2 4323   0.127   6.714   6.468
 1142SOL     OW 4324   3.070   0.424   3.965
 1142SOL    HW1 4325   3.005   0.349   3.977
 1142SOL    HW2 4326   3.025   0.511   3.981
 1143SOL     OW 4327   1.593   3.515   1.967
 1143SOL    HW1 4328   1.551   3.466   2.044
 1143SOL    HW2 4329   1.533   3.590   1.939
 1144SOL     OW 4330   6.409   4.800   5.467
 1144SOL    HW1 4331   6.502   4.788   5.501
 1144SOL    HW2 4332   6.352   4.840   5.539
 1145SOL     OW 4333   0.308   3.913   2.154
 1145SOL    HW1 4334   0.241   3.966   2.102
 1145SOL    HW2 4335   0.398   3.922   2.111
 1146SOL     OW 4336   6.315   0.906   1.650
 1146SOL    HW1 4337   6.415   0.904   1.660
 1146SOL    HW2 4338   6.278   0.983   1.702
 1147SOL     OW 4339   1.506   5.007   0.911
 1147SOL    HW1 4340   1.562   4.940   0.863
 1147SOL    HW2 4341   1.555   5.040   0.992
 1148SOL     OW 4342   4.994   6.828   0.054
 1148SOL    HW1 4343   5.028   6.811   6.988
 1148SOL    HW2 4344   4.912   6.774   0.070
 1149SOL     OW 4345   6.377   4.140   2.532
 1149SOL    HW1 4346   6.385   4.113   2.436
 1149SOL    HW2 4347   6.332   4.229   2.538
 1150SOL     OW 4348   2.649   4.045   1.036
 1150SOL    HW1 4349   2.595   4.093   0.966
 1150SOL    HW2 4350   2.667   3.952   1.006
 1151SOL     OW 4351   4.674   5.287   6.736
 1151SOL    HW1 4352   4.625   5.288   6.823
 1151SOL    HW2 4353   4.698   5.193   6.713
 1152SOL     OW 4354   6.859   5.788   6.079
 1152SOL    HW1 4355   6.799   5.709   6.064
 1152SOL    HW2 4356   6.804   5.868   6.104
 1153SOL     OW 4357   2.240   0.050   2.318
 1153SOL    HW1 4358   2.165   0.113   2.296
 1153SOL    HW2 4359   2.225   0.010   2.409
 1154SOL     OW 4360   0.760   3.947   1.580
 1154SOL    HW1 4361   0.858   3.930   1.579
 1154SOL    HW2 4362   0.719   3.909   1.497
 1155SOL     OW 4363   2.415   5.191   6.891
 1155SOL    HW1 4364   2.322   5.211   6.925
 1155SOL    HW2 4365   2.473   5.165   6.968
 1156SOL     OW 4366   2.743   1.197   4.927
 1156SOL    HW1 4367   2.661   1.193   4.984
 1156SOL    HW2 4368   2.733   1.138   4.848
 1157SOL     OW 4369   5.913   0.630   4.926
 1157SOL    HW1 4370   5.937   0.701   4.992
 1157SOL    HW2 4371   5.917   0.540   4.970
 1158SOL     OW 4372   6.903   6.011   5.633
 1158SOL    HW1 4373   6.901   5.915   5.660
 1158SOL    HW2 4374   6.997   6.045   5.634
 1159SOL     OW 4375   6.032   6.584   3.948
 1159SOL    HW1 4376   5.943   6.541   3.958
 1159SOL    HW2 4377   6.026   6.680   3.977
 1160SOL     OW 4378   3.571   3.187   0.673
 1160SOL    HW1 4379   3.632   3.246   0.621
 1160SOL    HW2 4380   3.597   3.190   0.770
 1161SOL     OW 4381   5.901   0.393   6.568
 1161SOL    HW1 4382   5.847   0.314   6.599
 1161SOL    HW2 4383   5.896   0.465   6.637
 1162SOL     OW 4384   2.926   1.916   6.674
 1162SOL    HW1 4385   2.906   1.858   6.596
 1162SOL    HW2 4386   3.025   1.921   6.687
 1163SOL     OW 4387   6.778   3.407   1.529
 1163SOL    HW1 4388   6.692   3.450   1.554
 1163SOL    HW2 4389   6.761   3.336   1.461
 1164SOL     OW 4390   5.539   2.481   4.660
 1164SOL    HW1 4391   5.484   2.447   4.583
 1164SOL    HW2 4392   5.602   2.409   4.691
 1165SOL     OW 4393   2.402   4.812   4.352
 1165SOL    HW1 4394   2.395   4.721   4.313
 1165SOL    HW2 4395   2.451   4.872   4.290
 1166SOL     OW 4396   3.832   6.631   0.484
 1166SOL    HW1 4397   3.755   6.676   0.529
 1166SOL    HW2 4398   3.871   6.692   0.415
 1167SOL     OW 4399   4.185   6.565   6.298
 1167SOL    HW1 4400   4.207   6.658   6.327
 1167SOL    HW2 4401   4.089   6.546   6.316
 1168SOL     OW 4402   5.513   1.870   3.721
 1168SOL    HW1 4403   5.579   1.862   3.795
 1168SOL    HW2 4404   5.450   1.792   3.723
 1169SOL     OW 4405   5.645   2.517   6.302
 1169SOL    HW1 4406   5.680   2.476   6.217
 1169SOL    HW2 4407   5.640   2.616   6.290
 1170SOL     OW 4408   5.132   1.178   2.900
 1170SOL    HW1 4409   5.217   1.208   2.943
 1170SOL    HW2 4410   5.151   1.101   2.839
 1171SOL     OW 4411   2.973   6.771   0.332
 1171SOL    HW1 4412   3.069   6.780   0.306
 1171SOL    HW2 4413   2.951   6.674   0.343
 1172SOL     OW 4414   3.255   3.963   2.120
 1172SOL    HW1 4415   3.171   3.938   2.167
 1172SOL    HW2 4416   3.306   4.030   2.176
 1173SOL     OW 4417   3.183   0.159   5.880
 1173SOL    HW1 4418   3.220   0.226   5.815
 1173SOL    HW2 4419   3.221   0.177   5.971
 1174SOL     OW 4420   3.145   4.301   6.892
 1174SOL    HW1 4421   3.195   4.284   6.808
 1174SOL    HW2 4422   3.148   4.220   6.950
 1175SOL     OW 4423   4.014   2.975   6.850
 1175SOL    HW1 4424   3.993   2.970   6.948
 1175SOL    HW2 4425   4.010   3.070   6.820
 1176SOL     OW 4426   5.879   4.062   0.375
 1176SOL    HW1 4427   5.830   4.128   0.432
 1176SOL    HW2 4428   5.902   3.981   0.430
 1177SOL     OW 4429   7.016   1.514   6.289
 1177SOL    HW1 4430   0.006   1.431   6.342
 1177SOL    HW2 4431   6.943   1.567   6.332
 1178SOL     OW 4432   3.500   3.711   1.260
 1178SOL    HW1 4433   3.440   3.650   1.311
 1178SOL    HW2 4434   3.531   3.666   1.177
 1179SOL     OW 4435   3.329   6.102   0.404
 1179SOL    HW1 4436   3.231   6.087   0.402
 1179SOL    HW2 4437   3.373   6.034   0.463
 1180SOL     OW 4438   2.347   6.032   3.809
 1180SOL    HW1 4439   2.309   5.974   3.737
 1180SOL    HW2 4440   2.273   6.077   3.858
 1181SOL     OW 4441   6.918   2.396   5.067
 1181SOL    HW1 4442   6.964   2.484   5.085
 1181SOL    HW2 4443   6.905   2.348   5.154
 1182SOL     OW 4444   2.881   5.334   3.873
 1182SOL    HW1 4445   2.827   5.335   3.957
 1182SOL    HW2 4446   2.854   5.411   3.815
 1183SOL     OW 4447   3.657   6.078   1.797
 1183SOL    HW1 4448   3.667   6.159   1.855
 1183SOL    HW2 4449   3.718   6.006   1.830
 1184SOL     OW 4450   4.783   6.731   6.377
 1184SOL    HW1 4451   4.816   6.686   6.295
 1184SOL    HW2 4452   4.856   6.786   6.417
 1185SOL     OW 4453   1.444   0.526   0.711
 1185SOL    HW1 4454   1.464   0.573   0.797
 1185SOL    HW2 4455   1.477   0.432   0.716
 1186SOL     OW 4456   6.156   5.975   6.351
 1186SOL    HW1 4457   6.192   6.067   6.364
 1186SOL    HW2 4458   6.218   5.908   6.391
 1187SOL     OW 4459   5.787   0.227   5.266
 1187SOL    HW1 4460   5.767   0.151   5.205
 1187SOL    HW2 4461   5.716   0.234   5.336
 1188SOL     OW 4462   3.633   6.271   6.555
 1188SOL    HW1 4463   3.555   6.276   6.492
 1188SOL    HW2 4464   3.599   6.250   6.647
 1189SOL     OW 4465   6.329   0.926   2.155
 1189SOL    HW1 4466   6.361   1.020   2.149
 1189SOL    HW2 4467   6.402   0.868   2.192
 1190SOL     OW 4468   3.352   5.171   3.905
 1190SOL    HW1 4469   3.273   5.233   3.905
 1190SOL    HW2 4470   3.427   5.212   3.957
 1191SOL     OW 4471   2.990   6.615   4.650
 1191SOL    HW1 4472   2.969   6.675   4.727
 1191SOL    HW2 4473   3.063   6.656   4.595
 1192SOL     OW 4474   5.463   6.243   3.181
 1192SOL    HW1 4475   5.432   6.327   3.224
 1192SOL    HW2 4476   5.392   6.173   3.188
 1193SOL     OW 4477   0.560   0.842   5.281
 1193SOL    HW1 4478   0.485   0.906   5.270
 1193SOL    HW2 4479   0.645   0.892   5.297
 1194SOL     OW 4480   0.166   1.564   1.192
 1194SOL    HW1 4481   0.077   1.559   1.147
 1194SOL    HW2 4482   0.154   1.590   1.288
 1195SOL     OW 4483   6.723   3.503   1.162
 1195SOL    HW1 4484   6.742   3.600   1.175
 1195SOL    HW2 4485   6.639   3.492   1.108
 1196SOL     OW 4486   6.180   5.117   2.173
 1196SOL    HW1 4487   6.144   5.117   2.266
 1196SOL    HW2 4488   6.257   5.181   2.167
 1197SOL     OW 4489   4.696   6.569   4.090
 1197SOL    HW1 4490   4.731   6.480   4.122
 1197SOL    HW2 4491   4.736   6.642   4.146
 1198SOL     OW 4492   1.215   3.913   2.451
 1198SOL    HW1 4493   1.300   3.953   2.418
 1198SOL    HW2 4494   1.138   3.949   2.398
 1199SOL     OW 4495   3.684   3.244   2.729
 1199SOL    HW1 4496   3.715   3.293   2.810
 1199SOL    HW2 4497   3.735   3.277   2.649
 1200SOL     OW 4498   4.004   3.882   4.103
 1200SOL    HW1 4499   4.032   3.804   4.047
 1200SOL    HW2 4500   4.004   3.965   4.047
 1201SOL     OW 4501   6.968   1.061   4.097
 1201SOL    HW1 4502   6.936   0.972   4.130
 1201SOL    HW2 4503   0.041   1.062   4.093
 1202SOL     OW 4504   6.160   0.982   5.766
 1202SOL    HW1 4505   6.216   1.040   5.825
 1202SOL    HW2 4506   6.124   0.905   5.818
 1203SOL     OW 4507   0.302   6.790   1.118
 1203SOL    HW1 4508   0.359   6.863   1.156
 1203SOL    HW2 4509   0.346   6.702   1.136
 1204SOL     OW 4510   4.510   1.764   2.038
 1204SOL    HW1 4511   4.413   1.748   2.057
 1204SOL    HW2 4512   4.548   1.682   1.995
 1205SOL     OW 4513   3.509   3.274   0.291
 1205SOL    HW1 4514   3.437   3.270   0.361
 1205SOL    HW2 4515   3.583   3.332   0.324
 1206SOL     OW 4516   1.545   2.594   4.475
 1206SOL    HW1 4517   1.484   2.539   4.532
 1206SOL    HW2 4518   1.595   2.658   4.533
 1207SOL     OW 4519   0.168   0.636   0.155
 1207SOL    HW1 4520   0.246   0.581   0.124
 1207SOL    HW2 4521   0.185   0.668   0.248
 1208SOL     OW 4522   3.297   3.643   1.438
 1208SOL    HW1 4523   3.328   3.548   1.435
 1208SOL    HW2 4524   3.229   3.658   1.366
 1209SOL     OW 4525   5.436   0.463   4.263
 1209SOL    HW1 4526   5.367   0.479   4.193
 1209SOL    HW2 4527   5.492   0.545   4.275
 1210SOL     OW 4528   4.842   6.980   3.520
 1210SOL    HW1 4529   4.841   6.935   3.431
 1210SOL    HW2 4530   4.911   6.937   3.578
 1211SOL     OW 4531   0.878   3.695   2.936
 1211SOL    HW1 4532   0.954   3.716   2.873
 1211SOL    HW2 4533   0.913   3.642   3.013
 1212SOL     OW 4534   6.387   0.787   6.226
 1212SOL    HW1 4535   6.362   0.811   6.132
 1212SOL    HW2 4536   6.485   0.804   6.239
 1213SOL     OW 4537   5.561   2.285   2.491
 1213SOL    HW1 4538   5.489   2.321   2.432
 1213SOL    HW2 4539   5.582   2.191   2.464
 1214SOL     OW 4540   0.408   2.422   6.431
 1214SOL    HW1 4541   0.437   2.403   6.337
 1214SOL    HW2 4542   0.420   2.339   6.486
 1215SOL     OW 4543   2.290   5.062   2.882
 1215SOL    HW1 4544   2.217   5.069   2.814
 1215SOL    HW2 4545   2.334   5.152   2.892
 1216SOL     OW 4546   6.958   1.079   0.526
 1216SOL    HW1 4547   6.931   1.036   0.612
 1216SOL    HW2 4548   6.975   1.177   0.541
 1217SOL     OW 4549   2.654   4.779   0.566
 1217SOL    HW1 4550   2.652   4.684   0.536
 1217SOL    HW2 4551   2.746   4.815   0.558
 1218SOL     OW 4552   1.467   3.982   5.839
 1218SOL    HW1 4553   1.462   4.034   5.924
 1218SOL    HW2 4554   1.529   3.904   5.851
 1219SOL     OW 4555   5.042   5.538   1.521
 1219SOL    HW1 4556   5.033   5.438   1.514
 1219SOL    HW2 4557   5.016   5.580   1.434
 1220SOL     OW 4558   6.948   3.893   2.491
 1220SOL    HW1 4559   6.926   3.841   2.574
 1220SOL    HW2 4560   7.007   3.837   2.432
 1221SOL     OW 4561   5.572   3.337   6.034
 1221SOL    HW1 4562   5.505   3.410   6.051
 1221SOL    HW2 4563   5.541   3.281   5.957
 1222SOL     OW 4564   0.608   0.530   0.180
 1222SOL    HW1 4565   0.602   0.547   0.082
 1222SOL    HW2 4566   0.693   0.570   0.216
 1223SOL     OW 4567   3.436   1.520   0.431
 1223SOL    HW1 4568   3.365   1.590   0.432
 1223SOL    HW2 4569   3.397   1.433   0.462
 1224SOL     OW 4570   2.964   5.706   6.923
 1224SOL    HW1 4571   2.913   5.784   6.959
 1224SOL    HW2 4572   2.923   5.621   6.958
 1225SOL     OW 4573   3.923   2.577   0.264
 1225SOL    HW1 4574   4.004   2.580   0.205
 1225SOL    HW2 4575   3.874   2.491   0.250
 1226SOL     OW 4576   4.470   6.125   0.522
 1226SOL    HW1 4577   4.466   6.027   0.541
 1226SOL    HW2 4578   4.377   6.161   0.516
 1227SOL     OW 4579   5.234   5.106   6.233
 1227SOL    HW1 4580   5.189   5.054   6.160
 1227SOL    HW2 4581   5.195   5.198   6.238
 1228SOL     OW 4582   3.318   2.547   7.016
 1228SOL    HW1 4583   3.316   2.461   6.966
 1228SOL    HW2 4584   3.230   2.595   7.004
 1229SOL     OW 4585   1.612   5.392   0.166
 1229SOL    HW1 4586   1.638   5.353   0.077
 1229SOL    HW2 4587   1.585   5.319   0.228
 1230SOL     OW 4588   5.853   5.592   2.277
 1230SOL    HW1 4589   5.851   5.614   2.374
 1230SOL    HW2 4590   5.849   5.493   2.265
 1231SOL     OW 4591   1.784   1.918   5.536
 1231SOL    HW1 4592   1.702   1.881   5.579
 1231SOL    HW2 4593   1.798   2.013   5.566
 1232SOL     OW 4594   6.099   1.489   4.861
 1232SOL    HW1 4595   6.095   1.416   4.929
 1232SOL    HW2 4596   6.068   1.453   4.772
 1233SOL     OW 4597   0.248   6.009   4.731
 1233SOL    HW1 4598   0.173   6.072   4.712
 1233SOL    HW2 4599   0.320   6.057   4.782
 1234SOL     OW 4600   6.246   2.147   5.565
 1234SOL    HW1 4601   6.260   2.240   5.598
 1234SOL    HW2 4602   6.310   2.085   5.611
 1235SOL     OW 4603   6.321   5.040   1.456
 1235SOL    HW1 4604   6.235   4.995   1.480
 1235SOL    HW2 4605   6.362   4.993   1.377
 1236SOL     OW 4606   3.702   1.300   2.019
 1236SOL    HW1 4607   3.653   1.339   1.941
 1236SOL    HW2 4608   3.635   1.265   2.086
 1237SOL     OW 4609   0.770   4.769   5.232
 1237SOL    HW1 4610   0.856   4.774   5.181
 1237SOL    HW2 4611   0.787   4.729   5.322
 1238SOL     OW 4612   1.489   0.675   5.522
 1238SOL    HW1 4613   1.543   0.659   5.604
 1238SOL    HW2 4614   1.392   0.675   5.545
 1239SOL     OW 4615   0.262   0.143   5.994
 1239SOL    HW1 4616   0.299   0.053   5.970
 1239SOL    HW2 4617   0.247   0.196   5.911
 1240SOL     OW 4618   5.948   5.808   1.278
 1240SOL    HW1 4619   5.976   5.884   1.220
 1240SOL    HW2 4620   5.853   5.785   1.260
 1241SOL     OW 4621   5.889   4.662   5.688
 1241SOL    HW1 4622   5.865   4.757   5.707
 1241SOL    HW2 4623   5.834   4.628   5.613
 1242SOL     OW 4624   2.084   4.559   0.692
 1242SOL    HW1 4625   2.019   4.623   0.732
 1242SOL    HW2 4626   2.163   4.610   0.655
 1243SOL     OW 4627   0.823   1.592   4.862
 1243SOL    HW1 4628   0.849   1.525   4.793
 1243SOL    HW2 4629   0.839   1.555   4.953
 1244SOL     OW 4630   5.236   5.733   5.015
 1244SOL    HW1 4631   5.314   5.704   5.070
 1244SOL    HW2 4632   5.192   5.653   4.975
 1245SOL     OW 4633   5.535   4.225   6.651
 1245SOL    HW1 4634   5.603   4.295   6.673
 1245SOL    HW2 4635   5.508   4.178   6.735
 1246SOL     OW 4636   3.398   1.885   2.624
 1246SOL    HW1 4637   3.316   1.934   2.652
 1246SOL    HW2 4638   3.456   1.869   2.704
 1247SOL     OW 4639   6.619   6.967   6.017
 1247SOL    HW1 4640   6.666   0.018   5.973
 1247SOL    HW2 4641   6.521   6.986   6.022
 1248SOL     OW 4642   1.705   6.011   3.702
 1248SOL    HW1 4643   1.783   6.069   3.724
 1248SOL    HW2 4644   1.631   6.030   3.766
 1249SOL     OW 4645   0.513   2.851   1.958
 1249SOL    HW1 4646   0.607   2.867   1.927
 1249SOL    HW2 4647   0.450   2.906   1.904
 1250SOL     OW 4648   5.530   4.950   3.523
 1250SOL    HW1 4649   5.525   4.986   3.430
 1250SOL    HW2 4650   5.442   4.965   3.569
 1251SOL     OW 4651   1.971   0.827   3.038
 1251SOL    HW1 4652   1.986   0.739   3.084
 1251SOL    HW2 4653   2.054   0.852   2.988
 1252SOL     OW 4654   3.817   4.801   6.253
 1252SOL    HW1 4655   3.874   4.881   6.275
 1252SOL    HW2 4656   3.745   4.792   6.323
 1253SOL     OW 4657   3.184   6.831   2.867
 1253SOL    HW1 4658   3.261   6.808   2.808
 1253SOL    HW2 4659   3.099   6.800   2.825
 1254SOL     OW 4660   0.270   2.018   3.988
 1254SOL    HW1 4661   0.345   2.085   3.989
 1254SOL    HW2 4662   0.182   2.066   3.995
 1255SOL     OW 4663   5.557   1.565   6.122
 1255SOL    HW1 4664   5.478   1.589   6.178
 1255SOL    HW2 4665   5.608   1.491   6.166
 1256SOL     OW 4666   0.607   6.429   3.896
 1256SOL    HW1 4667   0.564   6.479   3.821
 1256SOL    HW2 4668   0.566   6.338   3.904
 1257SOL     OW 4669   7.007   5.148   4.441
 1257SOL    HW1 4670   0.041   5.220   4.472
 1257SOL    HW2 4671   7.006   5.074   4.508
 1258SOL     OW 4672   1.663   5.044   2.789
 1258SOL    HW1 4673   1.707   5.087   2.868
 1258SOL    HW2 4674   1.565   5.065   2.790
 1259SOL     OW 4675   3.651   6.748   4.954
 1259SOL    HW1 4676   3.713   6.698   4.893
 1259SOL    HW2 4677   3.704   6.800   5.021
 1260SOL     OW 4678   3.282   1.804   0.691
 1260SOL    HW1 4679   3.375   1.775   0.715
 1260SOL    HW2 4680   3.250   1.870   0.759
 1261SOL     OW 4681   6.685   5.257   6.691
 1261SOL    HW1 4682   6.666   5.348   6.729
 1261SOL    HW2 4683   6.710   5.195   6.765
 1262SOL     OW 4684   5.225   4.876   1.368
 1262SOL    HW1 4685   5.136   4.835   1.352
 1262SOL    HW2 4686   5.231   4.906   1.463
 1263SOL     OW 4687   6.840   1.741   1.338
 1263SOL    HW1 4688   6.897   1.701   1.266
 1263SOL    HW2 4689   6.778   1.671   1.374
 1264SOL     OW 4690   0.138   3.801   1.345
 1264SOL    HW1 4691   0.228   3.812   1.387
 1264SOL    HW2 4692   0.077   3.753   1.409
 1265SOL     OW 4693   5.169   5.856   3.622
 1265SOL    HW1 4694   5.203   5.896   3.708
 1265SOL    HW2 4695   5.097   5.790   3.643
 1266SOL     OW 4696   0.725   1.294   3.920
 1266SOL    HW1 4697   0.793   1.298   3.993
 1266SOL    HW2 4698   0.738   1.371   3.858
 1267SOL     OW 4699   5.556   6.340   1.294
 1267SOL    HW1 4700   5.631   6.404   1.305
 1267SOL    HW2 4701   5.484   6.381   1.237
 1268SOL     OW 4702   4.170   2.754   0.193
 1268SOL    HW1 4703   4.246   2.812   0.222
 1268SOL    HW2 4704   4.123   2.718   0.274
 1269SOL     OW 4705   5.659   6.323   5.799
 1269SOL    HW1 4706   5.713   6.267   5.862
 1269SOL    HW2 4707   5.684   6.300   5.705
 1270SOL     OW 4708   2.165   4.112   3.825
 1270SOL    HW1 4709   2.074   4.082   3.854
 1270SOL    HW2 4710   2.221   4.129   3.906
 1271SOL     OW 4711   3.079   2.240   3.622
 1271SOL    HW1 4712   3.020   2.194   3.688
 1271SOL    HW2 4713   3.119   2.173   3.559
 1272SOL     OW 4714   5.528   5.485   0.208
 1272SOL    HW1 4715   5.564   5.434   0.287
 1272SOL    HW2 4716   5.592   5.476   0.132
 1273SOL     OW 4717   0.660   4.653   6.619
 1273SOL    HW1 4718   0.585   4.631   6.556
 1273SOL    HW2 4719   0.726   4.579   6.619
 1274SOL     OW 4720   6.436   3.600   1.855
 1274SOL    HW1 4721   6.418   3.691   1.817
 1274SOL    HW2 4722   6.384   3.589   1.940
 1275SOL     OW 4723   3.238   1.298   4.313
 1275SOL    HW1 4724   3.244   1.345   4.401
 1275SOL    HW2 4725   3.163   1.338   4.259
 1276SOL     OW 4726   6.846   0.483   4.721
 1276SOL    HW1 4727   6.869   0.526   4.808
 1276SOL    HW2 4728   6.930   0.466   4.670
 1277SOL     OW 4729   1.059   6.534   6.118
 1277SOL    HW1 4730   1.097   6.564   6.205
 1277SOL    HW2 4731   1.012   6.611   6.075
 1278SOL     OW 4732   1.026   0.257   5.166
 1278SOL    HW1 4733   1.061   0.200   5.092
 1278SOL    HW2 4734   1.101   0.310   5.206
 1279SOL     OW 4735   3.531   6.111   0.953
 1279SOL    HW1 4736   3.620   6.083   0.988
 1279SOL    HW2 4737   3.522   6.083   0.858
 1280SOL     OW 4738   3.159   6.574   4.365
 1280SOL    HW1 4739   3.243   6.625   4.381
 1280SOL    HW2 4740   3.175   6.477   4.382
 1281SOL     OW 4741   1.415   6.293   3.151
 1281SOL    HW1 4742   1.398   6.377   3.099
 1281SOL    HW2 4743   1.359   6.219   3.115
 1282SOL     OW 4744   0.764   1.874   6.260
 1282SOL    HW1 4745   0.778   1.782   6.223
 1282SOL    HW2 4746   0.849   1.906   6.301
 1283SOL     OW 4747   6.711   2.967   4.993
 1283SOL    HW1 4748   6.719   3.065   4.977
 1283SOL    HW2 4749   6.800   2.923   4.977
 1284SOL     OW 4750   4.701   1.329   2.331
 1284SOL    HW1 4751   4.665   1.249   2.282
 1284SOL    HW2 4752   4.637   1.406   2.320
 1285SOL     OW 4753   4.794   2.453   6.766
 1285SOL    HW1 4754   4.780   2.454   6.667
 1285SOL    HW2 4755   4.776   2.544   6.803
 1286SOL     OW 4756   4.908   3.664   2.335
 1286SOL    HW1 4757   4.919   3.594   2.264
 1286SOL    HW2 4758   4.942   3.752   2.301
 1287SOL     OW 4759   5.336   4.842   5.403
 1287SOL    HW1 4760   5.244   4.851   5.365
 1287SOL    HW2 4761   5.337   4.875   5.498
 1288SOL     OW 4762   4.875   3.488   6.768
 1288SOL    HW1 4763   4.922   3.417   6.821
 1288SOL    HW2 4764   4.888   3.471   6.670
 1289SOL     OW 4765   1.094   6.448   2.166
 1289SOL    HW1 4766   1.181   6.496   2.156
 1289SOL    HW2 4767   1.111   6.358   2.206
 1290SOL     OW 4768   1.341   0.030   6.985
 1290SOL    HW1 4769   1.360   0.038   0.056
 1290SOL    HW2 4770   1.380   0.109   6.937
 1291SOL     OW 4771   0.144   3.974   5.478
 1291SOL    HW1 4772   0.162   3.919   5.559
 1291SOL    HW2 4773   0.080   3.925   5.418
 1292SOL     OW 4774   0.208   5.908   2.381
 1292SOL    HW1 4775   0.197   5.889   2.284
 1292SOL    HW2 4776   0.269   5.840   2.422
 1293SOL     OW 4777   1.285   1.911   0.123
 1293SOL    HW1 4778   1.246   1.842   0.062
 1293SOL    HW2 4779   1.237   1.998   0.110
 1294SOL     OW 4780   1.076   3.704   6.839
 1294SOL    HW1 4781   1.066   3.798   6.805
 1294SOL    HW2 4782   0.993   3.678   6.889
 1295SOL     OW 4783   0.062   3.605   2.707
 1295SOL    HW1 4784   0.151   3.650   2.717
 1295SOL    HW2 4785   0.062   3.551   2.622
 1296SOL     OW 4786   3.555   0.477   5.435
 1296SOL    HW1 4787   3.570   0.431   5.522
 1296SOL    HW2 4788   3.533   0.573   5.451
 1297SOL     OW 4789   5.924   0.928   1.151
 1297SOL    HW1 4790   5.910   1.027   1.155
 1297SOL    HW2 4791   5.860   0.882   1.213
 1298SOL     OW 4792   6.023   4.820   2.815
 1298SOL    HW1 4793   5.931   4.853   2.799
 1298SOL    HW2 4794   6.075   4.820   2.729
 1299SOL     OW 4795   0.988   3.774   3.183
 1299SOL    HW1 4796   1.035   3.780   3.095
 1299SOL    HW2 4797   1.020   3.694   3.233
 1300SOL     OW 4798   3.240   2.918   1.530
 1300SOL    HW1 4799   3.316   2.861   1.561
 1300SOL    HW2 4800   3.217   2.985   1.602
 1301SOL     OW 4801   0.708   5.751   1.560
 1301SOL    HW1 4802   0.664   5.781   1.475
 1301SOL    HW2 4803   0.659   5.672   1.596
 1302SOL     OW 4804   4.650   0.533   5.426
 1302SOL    HW1 4805   4.730   0.585   5.454
 1302SOL    HW2 4806   4.675   0.437   5.413
 1303SOL     OW 4807   4.517   1.511   2.360
 1303SOL    HW1 4808   4.492   1.508   2.263
 1303SOL    HW2 4809   4.439   1.480   2.414
 1304SOL     OW 4810   1.693   0.710   6.567
 1304SOL    HW1 4811   1.759   0.740   6.498
 1304SOL    HW2 4812   1.609   0.763   6.559
 1305SOL     OW 4813   4.999   3.070   0.135
 1305SOL    HW1 4814   4.915   3.111   0.100
 1305SOL    HW2 4815   5.047   3.022   0.062
 1306SOL     OW 4816   0.479   4.310   5.018
 1306SOL    HW1 4817   0.379   4.313   5.012
 1306SOL    HW2 4818   0.507   4.225   5.062
 1307SOL     OW 4819   0.870   3.482   4.767
 1307SOL    HW1 4820   0.900   3.531   4.848
 1307SOL    HW2 4821   0.849   3.387   4.791
 1308SOL     OW 4822   5.667   6.407   4.627
 1308SOL    HW1 4823   5.610   6.480   4.588
 1308SOL    HW2 4824   5.706   6.351   4.553
 1309SOL     OW 4825   4.921   3.184   5.337
 1309SOL    HW1 4826   4.834   3.230   5.353
 1309SOL    HW2 4827   4.907   3.105   5.278
 1310SOL     OW 4828   0.642   3.891   4.564
 1310SOL    HW1 4829   0.735   3.872   4.597
 1310SOL    HW2 4830   0.577   3.829   4.608
 1311SOL     OW 4831   0.751   6.930   4.670
 1311SOL    HW1 4832   0.679   6.985   4.627
 1311SOL    HW2 4833   0.754   6.840   4.627
 1312SOL     OW 4834   1.610   0.583   6.325
 1312SOL    HW1 4835   1.677   0.584   6.399
 1312SOL    HW2 4836   1.646   0.633   6.246
 1313SOL     OW 4837   0.594   4.089   3.717
 1313SOL    HW1 4838   0.512   4.092   3.774
 1313SOL    HW2 4839   0.601   3.999   3.674
 1314SOL     OW 4840   4.160   0.949   5.624
 1314SOL    HW1 4841   4.078   0.897   5.648
 1314SOL    HW2 4842   4.141   1.006   5.544
 1315SOL     OW 4843   0.166   0.904   0.864
 1315SOL    HW1 4844   0.193   0.918   0.960
 1315SOL    HW2 4845   0.187   0.986   0.811
 1316SOL     OW 4846   1.942   6.690   4.825
 1316SOL    HW1 4847   1.914   6.758   4.757
 1316SOL    HW2 4848   1.890   6.606   4.811
 1317SOL     OW 4849   2.244   4.230   5.766
 1317SOL    HW1 4850   2.279   4.140   5.793
 1317SOL    HW2 4851   2.281   4.299   5.828
 1318SOL     OW 4852   1.055   0.532   0.807
 1318SOL    HW1 4853   1.130   0.490   0.858
 1318SOL    HW2 4854   0.988   0.462   0.782
 1319SOL     OW 4855   0.270   1.069   6.732
 1319SOL    HW1 4856   0.212   1.018   6.669
 1319SOL    HW2 4857   0.313   1.146   6.685
 1320SOL     OW 4858   5.425   3.542   0.368
 1320SOL    HW1 4859   5.417   3.553   0.269
 1320SOL    HW2 4860   5.370   3.464   0.398
 1321SOL     OW 4861   5.271   1.978   5.897
 1321SOL    HW1 4862   5.211   2.054   5.870
 1321SOL    HW2 4863   5.366   2.009   5.893
 1322SOL     OW 4864   3.914   0.690   3.866
 1322SOL    HW1 4865   3.867   0.615   3.820
 1322SOL    HW2 4866   4.013   0.680   3.854
 1323SOL     OW 4867   4.616   1.701   5.826
 1323SOL    HW1 4868   4.676   1.622   5.806
 1323SOL    HW2 4869   4.543   1.672   5.888
 1324SOL     OW 4870   1.258   3.276   0.062
 1324SOL    HW1 4871   1.241   3.305   6.995
 1324SOL    HW2 4872   1.285   3.356   0.117
 1325SOL     OW 4873   2.159   6.625   2.318
 1325SOL    HW1 4874   2.213   6.660   2.395
 1325SOL    HW2 4875   2.214   6.629   2.234
 1326SOL     OW 4876   4.889   3.273   5.001
 1326SOL    HW1 4877   4.863   3.369   5.008
 1326SOL    HW2 4878   4.837   3.219   5.067
 1327SOL     OW 4879   1.613   5.001   1.646
 1327SOL    HW1 4880   1.614   4.912   1.601
 1327SOL    HW2 4881   1.661   5.068   1.590
 1328SOL     OW 4882   1.583   3.039   1.117
 1328SOL    HW1 4883   1.589   3.133   1.149
 1328SOL    HW2 4884   1.638   3.028   1.034
 1329SOL     OW 4885   0.612   2.409   1.406
 1329SOL    HW1 4886   0.536   2.386   1.346
 1329SOL    HW2 4887   0.683   2.339   1.398
 1330SOL     OW 4888   0.094   1.272   1.671
 1330SOL    HW1 4889   0.165   1.283   1.741
 1330SOL    HW2 4890   0.019   1.335   1.689
 1331SOL     OW 4891   5.111   2.804   3.380
 1331SOL    HW1 4892   5.030   2.842   3.335
 1331SOL    HW2 4893   5.143   2.868   3.449
 1332SOL     OW 4894   2.977   0.040   0.278
 1332SOL    HW1 4895   2.942   6.973   0.283
 1332SOL    HW2 4896   3.060   0.041   0.221
 1333SOL     OW 4897   3.451   3.589   5.392
 1333SOL    HW1 4898   3.543   3.558   5.371
 1333SOL    HW2 4899   3.451   3.688   5.408
 1334SOL     OW 4900   6.390   2.132   4.331
 1334SOL    HW1 4901   6.303   2.169   4.363
 1334SOL    HW2 4902   6.465   2.190   4.364
 1335SOL     OW 4903   2.653   1.363   3.273
 1335SOL    HW1 4904   2.665   1.456   3.238
 1335SOL    HW2 4905   2.568   1.324   3.238
 1336SOL     OW 4906   1.862   2.124   5.720
 1336SOL    HW1 4907   1.945   2.078   5.753
 1336SOL    HW2 4908   1.785   2.100   5.781
 1337SOL     OW 4909   1.958   1.993   5.282
 1337SOL    HW1 4910   1.923   2.086   5.287
 1337SOL    HW2 4911   1.898   1.931   5.333
 1338SOL     OW 4912   6.013   2.112   5.926
 1338SOL    HW1 4913   6.064   2.121   5.841
 1338SOL    HW2 4914   5.980   2.018   5.936
 1339SOL     OW 4915   0.829   1.598   6.233
 1339SOL    HW1 4916   0.848   1.561   6.142
 1339SOL    HW2 4917   0.876   1.544   6.302
 1340SOL     OW 4918   0.548   1.996   2.486
 1340SOL    HW1 4919   0.642   2.029   2.485
 1340SOL    HW2 4920   0.489   2.066   2.528
 1341SOL     OW 4921   5.147   0.118   5.852
 1341SOL    HW1 4922   5.093   0.153   5.776
 1341SOL    HW2 4923   5.210   0.188   5.884
 1342SOL     OW 4924   1.934   5.082   6.086
 1342SOL    HW1 4925   1.945   4.988   6.053
 1342SOL    HW2 4926   1.943   5.146   6.010
 1343SOL     OW 4927   4.603   6.136   2.952
 1343SOL    HW1 4928   4.591   6.206   3.022
 1343SOL    HW2 4929   4.552   6.053   2.978
 1344SOL     OW 4930   6.707   4.663   4.121
 1344SOL    HW1 4931   6.789   4.611   4.098
 1344SOL    HW2 4932   6.730   4.760   4.128
 1345SOL     OW 4933   2.094   0.853   2.751
 1345SOL    HW1 4934   2.055   0.763   2.731
 1345SOL    HW2 4935   2.177   0.842   2.805
 1346SOL     OW 4936   0.632   6.184   4.204
 1346SOL    HW1 4937   0.686   6.266   4.226
 1346SOL    HW2 4938   0.546   6.187   4.255
 1347SOL     OW 4939   6.347   5.618   4.512
 1347SOL    HW1 4940   6.337   5.537   4.454
 1347SOL    HW2 4941   6.264   5.673   4.509
 1348SOL     OW 4942   5.126   5.040   2.376
 1348SOL    HW1 4943   5.181   4.982   2.316
 1348SOL    HW2 4944   5.098   4.988   2.457
 1349SOL     OW 4945   4.610   2.213   6.009
 1349SOL    HW1 4946   4.510   2.220   5.999
 1349SOL    HW2 4947   4.653   2.225   5.920
 1350SOL     OW 4948   4.819   4.120   6.869
 1350SOL    HW1 4949   4.878   4.055   6.918
 1350SOL    HW2 4950   4.860   4.210   6.869
 1351SOL     OW 4951   6.858   1.388   3.540
 1351SOL    HW1 4952   6.828   1.355   3.629
 1351SOL    HW2 4953   6.780   1.394   3.478
 1352SOL     OW 4954   6.636   6.774   3.095
 1352SOL    HW1 4955   6.678   6.829   3.167
 1352SOL    HW2 4956   6.578   6.832   3.038
 1353SOL     OW 4957   6.684   3.769   6.171
 1353SOL    HW1 4958   6.658   3.785   6.266
 1353SOL    HW2 4959   6.764   3.825   6.148
 1354SOL     OW 4960   1.141   2.890   0.709
 1354SOL    HW1 4961   1.128   2.863   0.613
 1354SOL    HW2 4962   1.070   2.957   0.733
 1355SOL     OW 4963   0.084   2.676   5.499
 1355SOL    HW1 4964   7.022   2.649   5.537
 1355SOL    HW2 4965   0.099   2.774   5.515
 1356SOL     OW 4966   2.983   3.571   2.903
 1356SOL    HW1 4967   2.977   3.487   2.957
 1356SOL    HW2 4968   2.922   3.565   2.824
 1357SOL     OW 4969   1.339   3.802   5.111
 1357SOL    HW1 4970   1.381   3.774   5.197
 1357SOL    HW2 4971   1.410   3.835   5.048
 1358SOL     OW 4972   4.015   1.222   6.207
 1358SOL    HW1 4973   4.104   1.244   6.167
 1358SOL    HW2 4974   4.011   1.124   6.229
 1359SOL     OW 4975   5.711   4.788   1.963
 1359SOL    HW1 4976   5.736   4.843   1.884
 1359SOL    HW2 4977   5.731   4.692   1.945
 1360SOL     OW 4978   3.826   2.878   0.748
 1360SOL    HW1 4979   3.856   2.969   0.778
 1360SOL    HW2 4980   3.899   2.812   0.766
 1361SOL     OW 4981   0.351   5.802   5.545
 1361SOL    HW1 4982   0.286   5.727   5.555
 1361SOL    HW2 4983   0.331   5.852   5.461
 1362SOL     OW 4984   3.108   4.043   4.363
 1362SOL    HW1 4985   3.174   4.004   4.427
 1362SOL    HW2 4986   3.156   4.103   4.298
 1363SOL     OW 4987   6.999   5.996   3.613
 1363SOL    HW1 4988   7.006   5.918   3.552
 1363SOL    HW2 4989   6.906   6.003   3.649
 1364SOL     OW 4990   6.592   2.207   1.375
 1364SOL    HW1 4991   6.556   2.134   1.433
 1364SOL    HW2 4992   6.676   2.176   1.330
 1365SOL     OW 4993   1.200   2.723   5.825
 1365SOL    HW1 4994   1.258   2.661   5.877
 1365SOL    HW2 4995   1.242   2.814   5.824
 1366SOL     OW 4996   0.274   4.554   0.295
 1366SOL    HW1 4997   0.356   4.528   0.244
 1366SOL    HW2 4998   0.301   4.608   0.375
 1367SOL     OW 4999   1.808   5.998   2.441
 1367SOL    HW1 5000   1.886   5.962   2.390
 1367SOL    HW2 5001   1.839   6.033   2.530
 1368SOL     OW 5002   0.104   0.287   4.222
 1368SOL    HW1 5003   0.123   0.262   4.127
 1368SOL    HW2 5004   0.176   0.250   4.282
 1369SOL     OW 5005   2.561   0.362   2.679
 1369SOL    HW1 5006   2.608   0.406   2.755
 1369SOL    HW2 5007   2.537   0.431   2.610
 1370SOL     OW 5008   4.155   1.452   2.533
 1370SOL    HW1 5009   4.099   1.477   2.454
 1370SOL    HW2 5010   4.103   1.469   2.617
 1371SOL     OW 5011   6.202   1.699   4.626
 1371SOL    HW1 5012   6.183   1.790   4.590
 1371SOL    HW2 5013   6.199   1.702   4.726
 1372SOL     OW 5014   1.364   2.857   0.827
 1372SOL    HW1 5015   1.284   2.850   0.766
 1372SOL    HW2 5016   1.333   2.854   0.922
 1373SOL     OW 5017   4.182   2.509   0.022
 1373SOL    HW1 5018   4.201   2.476   6.956
 1373SOL    HW2 5019   4.204   2.606   0.028
 1374SOL     OW 5020   4.293   2.275   0.821
 1374SOL    HW1 5021   4.279   2.181   0.851
 1374SOL    HW2 5022   4.205   2.320   0.807
 1375SOL     OW 5023   0.044   5.516   6.428
 1375SOL    HW1 5024   0.042   5.498   6.329
 1375SOL    HW2 5025   0.121   5.466   6.469
 1376SOL     OW 5026   4.614   4.651   5.199
 1376SOL    HW1 5027   4.666   4.672   5.117
 1376SOL    HW2 5028   4.676   4.622   5.272
 1377SOL     OW 5029   0.564   3.200   5.601
 1377SOL    HW1 5030   0.654   3.229   5.568
 1377SOL    HW2 5031   0.497   3.210   5.527
 1378SOL     OW 5032   6.042   1.512   4.538
 1378SOL    HW1 5033   5.987   1.562   4.471
 1378SOL    HW2 5034   6.099   1.577   4.588
 1379SOL     OW 5035   4.004   6.472   3.227
 1379SOL    HW1 5036   4.011   6.552   3.168
 1379SOL    HW2 5037   4.082   6.469   3.288
 1380SOL     OW 5038   0.462   6.969   3.756
 1380SOL    HW1 5039   0.507   7.025   3.825
 1380SOL    HW2 5040   0.401   7.026   3.702
 1381SOL     OW 5041   6.014   1.422   6.952
 1381SOL    HW1 5042   6.060   1.500   6.910
 1381SOL    HW2 5043   6.043   1.413   0.021
 1382SOL     OW 5044   5.058   3.309   0.782
 1382SOL    HW1 5045   5.076   3.221   0.825
 1382SOL    HW2 5046   4.969   3.343   0.814
 1383SOL     OW 5047   0.663   0.412   2.106
 1383SOL    HW1 5048   0.666   0.471   2.025
 1383SOL    HW2 5049   0.651   0.469   2.188
 1384SOL     OW 5050   4.716   0.743   2.165
 1384SOL    HW1 5051   4.710   0.770   2.069
 1384SOL    HW2 5052   4.656   0.665   2.182
 1385SOL     OW 5053   2.524   4.431   3.322
 1385SOL    HW1 5054   2.617   4.452   3.354
 1385SOL    HW2 5055   2.466   4.407   3.400
 1386SOL     OW 5056   2.950   0.676   4.034
 1386SOL    HW1 5057   2.890   0.630   4.100
 1386SOL    HW2 5058   3.023   0.723   4.084
 1387SOL     OW 5059   3.229   5.941   2.852
 1387SOL    HW1 5060   3.286   6.022   2.842
 1387SOL    HW2 5061   3.240   5.882   2.773
 1388SOL     OW 5062   0.364   0.727   3.167
 1388SOL    HW1 5063   0.394   0.735   3.071
 1388SOL    HW2 5064   0.421   0.660   3.214
 1389SOL     OW 5065   6.901   1.765   4.132
 1389SOL    HW1 5066   6.882   1.822   4.052
 1389SOL    HW2 5067   6.973   1.808   4.187
 1390SOL     OW 5068   6.574   3.112   6.206
 1390SOL    HW1 5069   6.550   3.207   6.229
 1390SOL    HW2 5070   6.622   3.070   6.283
 1391SOL     OW 5071   6.022   0.285   5.385
 1391SOL    HW1 5072   5.940   0.249   5.340
 1391SOL    HW2 5073   6.006   0.381   5.410
 1392SOL     OW 5074   6.094   6.542   5.569
 1392SOL    HW1 5075   6.033   6.602   5.516
 1392SOL    HW2 5076   6.040   6.490   5.634
 1393SOL     OW 5077   6.535   4.232   6.092
 1393SOL    HW1 5078   6.513   4.136   6.107
 1393SOL    HW2 5079   6.624   4.239   6.047
 1394SOL     OW 5080   3.412   5.943   5.571
 1394SOL    HW1 5081   3.415   5.853   5.527
 1394SOL    HW2 5082   3.359   5.938   5.656
 1395SOL     OW 5083   1.575   4.474   4.878
 1395SOL    HW1 5084   1.659   4.510   4.837
 1395SOL    HW2 5085   1.499   4.490   4.815
 1396SOL     OW 5086   0.214   1.213   5.191
 1396SOL    HW1 5087   0.172   1.232   5.102
 1396SOL    HW2 5088   0.151   1.158   5.246
 1397SOL     OW 5089   0.387   6.412   4.614
 1397SOL    HW1 5090   0.352   6.353   4.541
 1397SOL    HW2 5091   0.345   6.385   4.701
 1398SOL     OW 5092   2.809   0.893   6.367
 1398SOL    HW1 5093   2.863   0.832   6.424
 1398SOL    HW2 5094   2.817   0.987   6.402
 1399SOL     OW 5095   4.230   5.877   0.367
 1399SOL    HW1 5096   4.222   5.923   0.279
 1399SOL    HW2 5097   4.228   5.944   0.441
 1400SOL     OW 5098   0.529   1.832   4.185
 1400SOL    HW1 5099   0.433   1.844   4.210
 1400SOL    HW2 5100   0.536   1.779   4.101
 1401SOL     OW 5101   5.958   0.226   3.815
 1401SOL    HW1 5102   5.908   0.307   3.784
 1401SOL    HW2 5103   5.982   0.170   3.736
 1402SOL     OW 5104   5.193   3.983   6.324
 1402SOL    HW1 5105   5.265   4.015   6.263
 1402SOL    HW2 5106   5.106   3.980   6.275
 1403SOL     OW 5107   2.657   2.030   0.906
 1403SOL    HW1 5108   2.579   2.064   0.855
 1403SOL    HW2 5109   2.645   2.050   1.003
 1404SOL     OW 5110   6.563   0.402   6.632
 1404SOL    HW1 5111   6.605   0.325   6.680
 1404SOL    HW2 5112   6.504   0.453   6.695
 1405SOL     OW 5113   2.659   3.431   0.761
 1405SOL    HW1 5114   2.695   3.383   0.682
 1405SOL    HW2 5115   2.587   3.494   0.732
 1406SOL     OW 5116   1.369   5.876   0.710
 1406SOL    HW1 5117   1.330   5.962   0.675
 1406SOL    HW2 5118   1.321   5.848   0.793
 1407SOL     OW 5119   0.583   3.621   3.849
 1407SOL    HW1 5120   0.522   3.549   3.816
 1407SOL    HW2 5121   0.585   3.696   3.783
 1408SOL     OW 5122   4.680   1.050   6.492
 1408SOL    HW1 5123   4.620   1.109   6.546
 1408SOL    HW2 5124   4.739   0.997   6.553
 1409SOL     OW 5125   0.421   0.643   5.119
 1409SOL    HW1 5126   0.411   0.716   5.188
 1409SOL    HW2 5127   0.491   0.578   5.149
 1410SOL     OW 5128   1.472   4.315   6.273
 1410SOL    HW1 5129   1.398   4.322   6.339
 1410SOL    HW2 5130   1.489   4.405   6.232
 1411SOL     OW 5131   2.907   6.263   0.147
 1411SOL    HW1 5132   2.867   6.338   0.094
 1411SOL    HW2 5133   3.006   6.262   0.133
 1412SOL     OW 5134   0.920   3.609   1.150
 1412SOL    HW1 5135   0.831   3.568   1.170
 1412SOL    HW2 5136   0.991   3.561   1.202
 1413SOL     OW 5137   2.384   1.163   4.140
 1413SOL    HW1 5138   2.473   1.161   4.094
 1413SOL    HW2 5139   2.394   1.123   4.232
 1414SOL     OW 5140   2.115   1.622   1.727
 1414SOL    HW1 5141   2.166   1.600   1.810
 1414SOL    HW2 5142   2.143   1.560   1.654
 1415SOL     OW 5143   2.553   1.731   3.864
 1415SOL    HW1 5144   2.472   1.702   3.915
 1415SOL    HW2 5145   2.617   1.655   3.856
 1416SOL     OW 5146   4.409   6.049   4.688
 1416SOL    HW1 5147   4.464   6.131   4.703
 1416SOL    HW2 5148   4.465   5.968   4.707
 1417SOL     OW 5149   3.000   2.860   0.196
 1417SOL    HW1 5150   2.972   2.851   0.291
 1417SOL    HW2 5151   2.934   2.918   0.148
 1418SOL     OW 5152   3.237   3.518   1.963
 1418SOL    HW1 5153   3.245   3.498   2.061
 1418SOL    HW2 5154   3.141   3.509   1.936
 1419SOL     OW 5155   3.251   6.194   4.140
 1419SOL    HW1 5156   3.181   6.134   4.180
 1419SOL    HW2 5157   3.210   6.252   4.071
 1420SOL     OW 5158   3.398   6.124   3.137
 1420SOL    HW1 5159   3.443   6.137   3.048
 1420SOL    HW2 5160   3.311   6.078   3.124
 1421SOL     OW 5161   1.594   4.600   4.166
 1421SOL    HW1 5162   1.507   4.555   4.146
 1421SOL    HW2 5163   1.613   4.595   4.264
 1422SOL     OW 5164   1.866   4.489   6.202
 1422SOL    HW1 5165   1.767   4.481   6.200
 1422SOL    HW2 5166   1.903   4.466   6.111
 1423SOL     OW 5167   4.546   6.801   4.528
 1423SOL    HW1 5168   4.568   6.851   4.444
 1423SOL    HW2 5169   4.500   6.863   4.592
 1424SOL     OW 5170   6.689   3.457   6.536
 1424SOL    HW1 5171   6.730   3.400   6.606
 1424SOL    HW2 5172   6.731   3.548   6.539
 1425SOL     OW 5173   1.922   5.546   5.842
 1425SOL    HW1 5174   1.876   5.587   5.921
 1425SOL    HW2 5175   1.863   5.476   5.802
 1426SOL     OW 5176   2.860   2.576   6.806
 1426SOL    HW1 5177   2.896   2.483   6.812
 1426SOL    HW2 5178   2.801   2.584   6.725
 1427SOL     OW 5179   6.840   6.873   4.609
 1427SOL    HW1 5180   6.755   6.914   4.579
 1427SOL    HW2 5181   6.827   6.776   4.626
 1428SOL     OW 5182   0.491   2.145   0.489
 1428SOL    HW1 5183   0.561   2.202   0.532
 1428SOL    HW2 5184   0.464   2.072   0.553
 1429SOL     OW 5185   4.751   1.594   0.522
 1429SOL    HW1 5186   4.711   1.506   0.550
 1429SOL    HW2 5187   4.814   1.579   0.446
 1430SOL     OW 5188   1.690   4.965   4.162
 1430SOL    HW1 5189   1.653   4.950   4.254
 1430SOL    HW2 5190   1.622   4.937   4.094
 1431SOL     OW 5191   2.626   2.191   0.104
 1431SOL    HW1 5192   2.674   2.249   0.170
 1431SOL    HW2 5193   2.693   2.140   0.050
 1432SOL     OW 5194   3.130   1.451   1.425
 1432SOL    HW1 5195   3.138   1.354   1.445
 1432SOL    HW2 5196   3.061   1.466   1.354
 1433SOL     OW 5197   4.924   0.582   5.453
 1433SOL    HW1 5198   4.947   0.496   5.409
 1433SOL    HW2 5199   4.991   0.652   5.426
 1434SOL     OW 5200   1.014   0.503   6.172
 1434SOL    HW1 5201   1.066   0.431   6.125
 1434SOL    HW2 5202   1.046   0.511   6.266
 1435SOL     OW 5203   6.903   6.754   3.019
 1435SOL    HW1 5204   6.870   6.829   2.962
 1435SOL    HW2 5205   6.832   6.726   3.082
 1436SOL     OW 5206   5.002   4.311   6.870
 1436SOL    HW1 5207   5.071   4.250   6.910
 1436SOL    HW2 5208   5.045   4.369   6.801
 1437SOL     OW 5209   3.079   2.003   5.639
 1437SOL    HW1 5210   3.115   2.043   5.555
 1437SOL    HW2 5211   2.980   2.016   5.643
 1438SOL     OW 5212   3.045   0.052   2.149
 1438SOL    HW1 5213   2.990   0.058   2.232
 1438SOL    HW2 5214   2.987   0.072   2.070
 1439SOL     OW 5215   6.675   4.476   0.943
 1439SOL    HW1 5216   6.747   4.517   0.998
 1439SOL    HW2 5217   6.711   4.396   0.894
 1440SOL     OW 5218   3.614   2.917   5.919
 1440SOL    HW1 5219   3.538   2.857   5.892
 1440SOL    HW2 5220   3.594   3.011   5.891
 1441SOL     OW 5221   6.193   1.946   3.926
 1441SOL    HW1 5222   6.246   1.876   3.880
 1441SOL    HW2 5223   6.106   1.960   3.877
 1442SOL     OW 5224   6.014   5.250   6.675
 1442SOL    HW1 5225   5.972   5.339   6.660
 1442SOL    HW2 5226   6.068   5.224   6.594
 1443SOL     OW 5227   0.731   3.243   4.328
 1443SOL    HW1 5228   0.742   3.301   4.248
 1443SOL    HW2 5229   0.772   3.288   4.408
 1444SOL     OW 5230   4.043   6.208   1.035
 1444SOL    HW1 5231   4.071   6.300   1.063
 1444SOL    HW2 5232   4.121   6.160   0.995
 1445SOL     OW 5233   0.639   2.954   2.192
 1445SOL    HW1 5234   0.713   2.889   2.207
 1445SOL    HW2 5235   0.582   2.923   2.115
 1446SOL     OW 5236   4.639   2.401   0.377
 1446SOL    HW1 5237   4.735   2.429   0.386
 1446SOL    HW2 5238   4.631   2.305   0.404
 1447SOL     OW 5239   6.094   7.003   5.572
 1447SOL    HW1 5240   6.085   0.057   5.630
 1447SOL    HW2 5241   6.145   7.026   5.489
 1448SOL     OW 5242   6.614   2.867   6.858
 1448SOL    HW1 5243   6.680   2.936   6.829
 1448SOL    HW2 5244   6.662   2.796   6.911
 1449SOL     OW 5245   0.624   0.965   0.633
 1449SOL    HW1 5246   0.700   0.910   0.666
 1449SOL    HW2 5247   0.655   1.058   0.615
 1450SOL     OW 5248   0.789   2.202   1.384
 1450SOL    HW1 5249   0.882   2.166   1.391
 1450SOL    HW2 5250   0.759   2.200   1.289
 1451SOL     OW 5251   2.509   0.541   2.475
 1451SOL    HW1 5252   2.426   0.582   2.515
 1451SOL    HW2 5253   2.575   0.613   2.457
 1452SOL     OW 5254   4.559   0.577   5.044
 1452SOL    HW1 5255   4.519   0.582   5.135
 1452SOL    HW2 5256   4.619   0.655   5.030
 1453SOL     OW 5257   0.137   3.821   4.996
 1453SOL    HW1 5258   0.177   3.911   5.014
 1453SOL    HW2 5259   0.040   3.831   4.972
 1454SOL     OW 5260   0.048   3.053   2.654
 1454SOL    HW1 5261   7.020   3.077   2.573
 1454SOL    HW2 5262   0.145   3.057   2.631
 1455SOL     OW 5263   1.001   0.294   1.710
 1455SOL    HW1 5264   1.094   0.313   1.742
 1455SOL    HW2 5265   0.955   0.233   1.775
 1456SOL     OW 5266   6.681   6.407   5.529
 1456SOL    HW1 5267   6.633   6.489   5.561
 1456SOL    HW2 5268   6.620   6.353   5.472
 1457SOL     OW 5269   1.392   6.690   1.523
 1457SOL    HW1 5270   1.329   6.617   1.495
 1457SOL    HW2 5271   1.484   6.653   1.532
 1458SOL     OW 5272   5.608   5.585   3.434
 1458SOL    HW1 5273   5.670   5.663   3.439
 1458SOL    HW2 5274   5.550   5.594   3.354
 1459SOL     OW 5275   2.752   5.471   5.712
 1459SOL    HW1 5276   2.658   5.496   5.689
 1459SOL    HW2 5277   2.772   5.379   5.678
 1460SOL     OW 5278   0.622   5.605   5.355
 1460SOL    HW1 5279   0.523   5.598   5.341
 1460SOL    HW2 5280   0.649   5.701   5.355
 1461SOL     OW 5281   6.962   5.187   3.862
 1461SOL    HW1 5282   6.894   5.114   3.866
 1461SOL    HW2 5283   6.949   5.249   3.939
 1462SOL     OW 5284   1.027   0.538   6.453
 1462SOL    HW1 5285   0.990   0.600   6.522
 1462SOL    HW2 5286   1.058   0.454   6.499
 1463SOL     OW 5287   0.340   5.768   6.693
 1463SOL    HW1 5288   0.367   5.682   6.650
 1463SOL    HW2 5289   0.266   5.751   6.759
 1464SOL     OW 5290   6.029   0.081   0.958
 1464SOL    HW1 5291   6.107   0.049   1.013
 1464SOL    HW2 5292   6.062   0.119   0.872
 1465SOL     OW 5293   1.792   1.032   3.404
 1465SOL    HW1 5294   1.717   1.000   3.346
 1465SOL    HW2 5295   1.755   1.060   3.493
 1466SOL     OW 5296   1.048   1.682   2.222
 1466SOL    HW1 5297   1.077   1.590   2.195
 1466SOL    HW2 5298   1.058   1.744   2.144
 1467SOL     OW 5299   1.764   2.195   2.866
 1467SOL    HW1 5300   1.685   2.257   2.866
 1467SOL    HW2 5301   1.733   2.103   2.892
 1468SOL     OW 5302   5.222   5.666   2.778
 1468SOL    HW1 5303   5.298   5.696   2.835
 1468SOL    HW2 5304   5.184   5.744   2.729
 1469SOL     OW 5305   0.519   0.805   2.083
 1469SOL    HW1 5306   0.587   0.863   2.130
 1469SOL    HW2 5307   0.561   0.764   2.002
 1470SOL     OW 5308   1.557   1.808   2.505
 1470SOL    HW1 5309   1.593   1.898   2.482
 1470SOL    HW2 5310   1.457   1.809   2.500
 1471SOL     OW 5311   0.770   0.031   0.522
 1471SOL    HW1 5312   0.690   7.000   0.506
 1471SOL    HW2 5313   0.750   0.124   0.491
 1472SOL     OW 5314   3.997   6.292   5.500
 1472SOL    HW1 5315   4.039   6.381   5.482
 1472SOL    HW2 5316   3.899   6.303   5.516
 1473SOL     OW 5317   5.056   6.133   4.603
 1473SOL    HW1 5318   5.011   6.221   4.618
 1473SOL    HW2 5319   5.118   6.115   4.680
 1474SOL     OW 5320   5.484   5.499   2.192
 1474SOL    HW1 5321   5.534   5.457   2.268
 1474SOL    HW2 5322   5.533   5.480   2.107
 1475SOL     OW 5323   6.465   6.817   2.170
 1475SOL    HW1 5324   6.393   6.768   2.220
 1475SOL    HW2 5325   6.444   6.816   2.073
 1476SOL     OW 5326   2.388   1.320   1.373
 1476SOL    HW1 5327   2.404   1.324   1.472
 1476SOL    HW2 5328   2.397   1.225   1.342
 1477SOL     OW 5329   3.278   0.465   6.528
 1477SOL    HW1 5330   3.363   0.449   6.577
 1477SOL    HW2 5331   3.298   0.487   6.432
 1478SOL     OW 5332   6.090   5.351   0.296
 1478SOL    HW1 5333   6.092   5.252   0.309
 1478SOL    HW2 5334   6.162   5.377   0.232
 1479SOL     OW 5335   1.813   3.303   7.006
 1479SOL    HW1 5336   1.862   3.343   0.056
 1479SOL    HW2 5337   1.748   3.234   0.013
 1480SOL     OW 5338   3.459   0.854   5.837
 1480SOL    HW1 5339   3.519   0.872   5.759
 1480SOL    HW2 5340   3.378   0.912   5.831
 1481SOL     OW 5341   6.322   2.320   5.809
 1481SOL    HW1 5342   6.302   2.404   5.860
 1481SOL    HW2 5343   6.324   2.243   5.872
 1482SOL     OW 5344   4.852   2.275   1.330
 1482SOL    HW1 5345   4.793   2.330   1.390
 1482SOL    HW2 5346   4.828   2.179   1.340
 1483SOL     OW 5347   4.956   2.041   6.439
 1483SOL    HW1 5348   4.969   2.109   6.367
 1483SOL    HW2 5349   4.963   1.949   6.400
 1484SOL     OW 5350   5.964   4.690   4.132
 1484SOL    HW1 5351   5.985   4.786   4.152
 1484SOL    HW2 5352   5.932   4.645   4.215
 1485SOL     OW 5353   3.713   1.484   3.366
 1485SOL    HW1 5354   3.695   1.422   3.442
 1485SOL    HW2 5355   3.801   1.529   3.381
 1486SOL     OW 5356   5.256   1.733   3.137
 1486SOL    HW1 5357   5.163   1.767   3.123
 1486SOL    HW2 5358   5.295   1.703   3.050
 1487SOL     OW 5359   6.280   2.748   6.526
 1487SOL    HW1 5360   6.277   2.740   6.426
 1487SOL    HW2 5361   6.191   2.723   6.564
 1488SOL     OW 5362   5.113   1.692   3.763
 1488SOL    HW1 5363   5.043   1.622   3.749
 1488SOL    HW2 5364   5.077   1.764   3.823
 1489SOL     OW 5365   3.757   5.232   4.550
 1489SOL    HW1 5366   3.766   5.317   4.499
 1489SOL    HW2 5367   3.847   5.205   4.586
 1490SOL     OW 5368   1.097   2.499   1.886
 1490SOL    HW1 5369   1.047   2.543   1.811
 1490SOL    HW2 5370   1.079   2.548   1.971
 1491SOL     OW 5371   6.437   4.002   3.781
 1491SOL    HW1 5372   6.497   3.931   3.743
 1491SOL    HW2 5373   6.438   3.995   3.881
 1492SOL     OW 5374   5.401   0.646   2.468
 1492SOL    HW1 5375   5.317   0.605   2.504
 1492SOL    HW2 5376   5.387   0.674   2.373
 1493SOL     OW 5377   4.232   6.481   4.557
 1493SOL    HW1 5378   4.206   6.386   4.567
 1493SOL    HW2 5379   4.157   6.533   4.515
 1494SOL     OW 5380   5.546   2.035   6.227
 1494SOL    HW1 5381   5.603   1.961   6.261
 1494SOL    HW2 5382   5.525   2.019   6.130
 1495SOL     OW 5383   6.769   2.425   4.307
 1495SOL    HW1 5384   6.741   2.396   4.398
 1495SOL    HW2 5385   6.832   2.503   4.315
 1496SOL     OW 5386   0.557   1.128   1.499
 1496SOL    HW1 5387   0.483   1.066   1.475
 1496SOL    HW2 5388   0.552   1.151   1.596
 1497SOL     OW 5389   6.408   2.867   3.068
 1497SOL    HW1 5390   6.479   2.799   3.085
 1497SOL    HW2 5391   6.427   2.915   2.983
 1498SOL     OW 5392   1.745   5.265   6.287
 1498SOL    HW1 5393   1.780   5.297   6.376
 1498SOL    HW2 5394   1.776   5.171   6.271
 1499SOL     OW 5395   1.425   3.317   6.464
 1499SOL    HW1 5396   1.454   3.299   6.370
 1499SOL    HW2 5397   1.419   3.416   6.478
 1500SOL     OW 5398   6.655   6.423   0.374
 1500SOL    HW1 5399   6.587   6.494   0.391
 1500SOL    HW2 5400   6.673   6.417   0.276
 1501SOL     OW 5401   5.381   2.174   6.398
 1501SOL    HW1 5402   5.420   2.254   6.445
 1501SOL    HW2 5403   5.454   2.124   6.351
 1502SOL     OW 5404   5.071   0.460   0.729
 1502SOL    HW1 5405   4.988   0.424   0.772
 1502SOL    HW2 5406   5.052   0.480   0.633
 1503SOL     OW 5407   1.195   3.106   1.594
 1503SOL    HW1 5408   1.182   3.185   1.534
 1503SOL    HW2 5409   1.281   3.115   1.644
 1504SOL     OW 5410   0.833   0.540   5.356
 1504SOL    HW1 5411   0.857   0.446   5.379
 1504SOL    HW2 5412   0.903   0.602   5.392
 1505SOL     OW 5413   5.850   1.288   5.608
 1505SOL    HW1 5414   5.802   1.373   5.633
 1505SOL    HW2 5415   5.907   1.258   5.684
 1506SOL     OW 5416   1.078   5.645   0.847
 1506SOL    HW1 5417   1.045   5.705   0.775
 1506SOL    HW2 5418   1.081   5.551   0.814
 1507SOL     OW 5419   1.154   1.987   5.679
 1507SOL    HW1 5420   1.148   2.077   5.636
 1507SOL    HW2 5421   1.066   1.964   5.721
 1508SOL     OW 5422   6.951   1.075   2.194
 1508SOL    HW1 5423   6.968   1.002   2.127
 1508SOL    HW2 5424   6.858   1.110   2.180
 1509SOL     OW 5425   4.201   2.103   6.108
 1509SOL    HW1 5426   4.190   2.065   6.200
 1509SOL    HW2 5427   4.162   2.195   6.104
 1510SOL     OW 5428   4.828   2.239   4.825
 1510SOL    HW1 5429   4.863   2.153   4.788
 1510SOL    HW2 5430   4.903   2.291   4.865
 1511SOL     OW 5431   3.338   3.155   1.694
 1511SOL    HW1 5432   3.354   3.250   1.721
 1511SOL    HW2 5433   3.409   3.096   1.734
 1512SOL     OW 5434   0.829   5.248   1.240
 1512SOL    HW1 5435   0.926   5.261   1.216
 1512SOL    HW2 5436   0.811   5.150   1.253
 1513SOL     OW 5437   3.566   0.476   4.019
 1513SOL    HW1 5438   3.558   0.386   4.062
 1513SOL    HW2 5439   3.555   0.467   3.920
 1514SOL     OW 5440   4.382   2.015   5.920
 1514SOL    HW1 5441   4.326   2.061   5.988
 1514SOL    HW2 5442   4.323   1.978   5.848
 1515SOL     OW 5443   5.484   2.154   3.808
 1515SOL    HW1 5444   5.395   2.186   3.841
 1515SOL    HW2 5445   5.475   2.060   3.774
 1516SOL     OW 5446   6.422   0.009   0.419
 1516SOL    HW1 5447   6.422   0.081   0.489
 1516SOL    HW2 5448   6.487   6.964   0.445
 1517SOL     OW 5449   4.692   6.289   3.921
 1517SOL    HW1 5450   4.641   6.204   3.910
 1517SOL    HW2 5451   4.735   6.291   4.011
 1518SOL     OW 5452   0.789   3.420   0.054
 1518SOL    HW1 5453   0.884   3.429   0.024
 1518SOL    HW2 5454   0.786   3.385   0.147
 1519SOL     OW 5455   6.122   4.914   1.603
 1519SOL    HW1 5456   6.190   4.846   1.628
 1519SOL    HW2 5457   6.032   4.885   1.635
 1520SOL     OW 5458   0.570   3.631   2.164
 1520SOL    HW1 5459   0.526   3.604   2.249
 1520SOL    HW2 5460   0.516   3.599   2.087
 1521SOL     OW 5461   1.662   4.266   6.709
 1521SOL    HW1 5462   1.672   4.295   6.614
 1521SOL    HW2 5463   1.748   4.224   6.741
 1522SOL     OW 5464   6.234   0.114   5.406
 1522SOL    HW1 5465   6.167   0.181   5.373
 1522SOL    HW2 5466   6.326   0.153   5.400
 1523SOL     OW 5467   5.400   5.285   1.192
 1523SOL    HW1 5468   5.429   5.190   1.186
 1523SOL    HW2 5469   5.411   5.317   1.287
 1524SOL     OW 5470   1.578   2.036   1.978
 1524SOL    HW1 5471   1.651   1.997   2.036
 1524SOL    HW2 5472   1.608   2.125   1.942
 1525SOL     OW 5473   6.764   2.448   0.098
 1525SOL    HW1 5474   6.689   2.446   0.165
 1525SOL    HW2 5475   6.824   2.525   0.119
 1526SOL     OW 5476   7.011   0.315   6.864
 1526SOL    HW1 5477   0.035   0.272   6.789
 1526SOL    HW2 5478   6.942   0.251   6.899
 1527SOL     OW 5479   3.445   1.476   5.186
 1527SOL    HW1 5480   3.352   1.487   5.151
 1527SOL    HW2 5481   3.445   1.493   5.285
 1528SOL     OW 5482   5.092   6.162   2.555
 1528SOL    HW1 5483   5.003   6.125   2.531
 1528SOL    HW2 5484   5.160   6.133   2.488
 1529SOL     OW 5485   3.708   0.407   0.066
 1529SOL    HW1 5486   3.685   0.502   0.086
 1529SOL    HW2 5487   3.794   0.404   0.015
 1530SOL     OW 5488   3.327   1.615   2.122
 1530SOL    HW1 5489   3.420   1.653   2.122
 1530SOL    HW2 5490   3.293   1.610   2.216
 1531SOL     OW 5491   4.512   1.013   4.634
 1531SOL    HW1 5492   4.456   1.012   4.551
 1531SOL    HW2 5493   4.541   1.107   4.653
 1532SOL     OW 5494   2.672   3.784   6.169
 1532SOL    HW1 5495   2.710   3.734   6.247
 1532SOL    HW2 5496   2.730   3.769   6.088
 1533SOL     OW 5497   6.959   3.073   0.251
 1533SOL    HW1 5498   6.920   3.148   0.197
 1533SOL    HW2 5499   6.893   3.043   0.320
 1534SOL     OW 5500   1.720   4.927   6.267
 1534SOL    HW1 5501   1.732   4.923   6.168
 1534SOL    HW2 5502   1.801   4.889   6.311
 1535SOL     OW 5503   5.087   6.396   3.866
 1535SOL    HW1 5504   5.069   6.311   3.816
 1535SOL    HW2 5505   5.083   6.378   3.964
 1536SOL     OW 5506   4.140   4.273   5.298
 1536SOL    HW1 5507   4.167   4.212   5.373
 1536SOL    HW2 5508   4.221   4.317   5.260
 1537SOL     OW 5509   4.463   6.294   3.421
 1537SOL    HW1 5510   4.521   6.351   3.362
 1537SOL    HW2 5511   4.505   6.287   3.511
 1538SOL     OW 5512   4.365   6.259   5.784
 1538SOL    HW1 5513   4.368   6.327   5.857
 1538SOL    HW2 5514   4.270   6.242   5.758
 1539SOL     OW 5515   4.076   3.878   1.990
 1539SOL    HW1 5516   4.148   3.948   1.990
 1539SOL    HW2 5517   4.026   3.883   1.903
 1540SOL     OW 5518   2.011   6.416   5.926
 1540SOL    HW1 5519   1.962   6.425   6.013
 1540SOL    HW2 5520   2.023   6.319   5.904
 1541SOL     OW 5521   3.546   2.906   2.336
 1541SOL    HW1 5522   3.503   2.927   2.424
 1541SOL    HW2 5523   3.578   2.991   2.293
 1542SOL     OW 5524   6.225   5.700   2.249
 1542SOL    HW1 5525   6.189   5.777   2.300
 1542SOL    HW2 5526   6.184   5.698   2.157
 1543SOL     OW 5527   3.598   4.385   5.244
 1543SOL    HW1 5528   3.533   4.317   5.277
 1543SOL    HW2 5529   3.673   4.338   5.197
 1544SOL     OW 5530   3.341   3.619   3.144
 1544SOL    HW1 5531   3.279   3.657   3.213
 1544SOL    HW2 5532   3.420   3.577   3.190
 1545SOL     OW 5533   4.945   0.999   4.083
 1545SOL    HW1 5534   4.982   0.936   4.151
 1545SOL    HW2 5535   4.896   0.947   4.013
 1546SOL     OW 5536   4.252   6.537   5.816
 1546SOL    HW1 5537   4.154   6.524   5.805
 1546SOL    HW2 5538   4.270   6.576   5.907
 1547SOL     OW 5539   1.572   3.573   2.883
 1547SOL    HW1 5540   1.651   3.585   2.943
 1547SOL    HW2 5541   1.512   3.502   2.921
 1548SOL     OW 5542   4.845   4.149   5.678
 1548SOL    HW1 5543   4.860   4.051   5.692
 1548SOL    HW2 5544   4.863   4.198   5.763
 1549SOL     OW 5545   4.280   1.039   3.405
 1549SOL    HW1 5546   4.252   1.113   3.343
 1549SOL    HW2 5547   4.366   0.999   3.374
 1550SOL     OW 5548   2.641   4.784   6.358
 1550SOL    HW1 5549   2.737   4.807   6.373
 1550SOL    HW2 5550   2.614   4.710   6.419
 1551SOL     OW 5551   1.903   4.197   6.328
 1551SOL    HW1 5552   1.994   4.231   6.306
 1551SOL    HW2 5553   1.836   4.238   6.266
 1552SOL     OW 5554   6.894   6.738   0.519
 1552SOL    HW1 5555   6.820   6.798   0.488
 1552SOL    HW2 5556   6.969   6.742   0.454
 1553SOL     OW 5557   0.553   1.286   5.705
 1553SOL    HW1 5558   0.573   1.241   5.618
 1553SOL    HW2 5559   0.457   1.311   5.708
 1554SOL     OW 5560   4.494   1.392   3.312
 1554SOL    HW1 5561   4.464   1.308   3.268
 1554SOL    HW2 5562   4.560   1.371   3.384
 1555SOL     OW 5563   4.911   2.126   0.648
 1555SOL    HW1 5564   4.849   2.152   0.575
 1555SOL    HW2 5565   4.899   2.029   0.669
 1556SOL     OW 5566   2.701   1.004   0.834
 1556SOL    HW1 5567   2.775   0.949   0.873
 1556SOL    HW2 5568   2.674   1.075   0.899
 1557SOL     OW 5569   1.972   1.101   6.732
 1557SOL    HW1 5570   2.014   1.149   6.654
 1557SOL    HW2 5571   2.005   1.141   6.817
 1558SOL     OW 5572   5.724   1.112   4.476
 1558SOL    HW1 5573   5.725   1.053   4.556
 1558SOL    HW2 5574   5.748   1.205   4.503
 1559SOL     OW 5575   0.345   2.640   0.062
 1559SOL    HW1 5576   0.355   2.668   6.993
 1559SOL    HW2 5577   0.300   2.551   0.066
 1560SOL     OW 5578   2.589   2.087   6.454
 1560SOL    HW1 5579   2.572   2.173   6.406
 1560SOL    HW2 5580   2.648   2.029   6.398
 1561SOL     OW 5581   6.970   6.038   3.019
 1561SOL    HW1 5582   0.000   6.025   2.938
 1561SOL    HW2 5583   6.874   6.041   2.993
 1562SOL     OW 5584   3.934   6.026   2.152
 1562SOL    HW1 5585   3.849   5.977   2.138
 1562SOL    HW2 5586   3.983   5.987   2.230
 1563SOL     OW 5587   2.259   0.872   5.802
 1563SOL    HW1 5588   2.338   0.823   5.838
 1563SOL    HW2 5589   2.190   0.881   5.873
 1564SOL     OW 5590   1.214   3.018   2.798
 1564SOL    HW1 5591   1.220   2.921   2.774
 1564SOL    HW2 5592   1.119   3.049   2.788
 1565SOL     OW 5593   4.208   5.227   4.576
 1565SOL    HW1 5594   4.141   5.275   4.520
 1565SOL    HW2 5595   4.270   5.292   4.618
 1566SOL     OW 5596   5.475   4.791   4.287
 1566SOL    HW1 5597   5.488   4.698   4.253
 1566SOL    HW2 5598   5.501   4.857   4.216
 1567SOL     OW 5599   6.296   6.315   0.071
 1567SOL    HW1 5600   6.283   6.229   0.121
 1567SOL    HW2 5601   6.233   6.319   7.021
 1568SOL     OW 5602   2.077   5.558   1.264
 1568SOL    HW1 5603   1.989   5.531   1.302
 1568SOL    HW2 5604   2.147   5.492   1.292
 1569SOL     OW 5605   2.750   6.947   3.350
 1569SOL    HW1 5606   2.795   0.005   3.377
 1569SOL    HW2 5607   2.816   6.886   3.307
 1570SOL     OW 5608   2.064   6.969   0.546
 1570SOL    HW1 5609   2.045   6.926   0.634
 1570SOL    HW2 5610   2.149   6.932   0.509
 1571SOL     OW 5611   6.011   1.614   2.381
 1571SOL    HW1 5612   6.051   1.570   2.300
 1571SOL    HW2 5613   5.923   1.572   2.402
 1572SOL     OW 5614   1.034   6.090   0.435
 1572SOL    HW1 5615   1.049   5.992   0.425
 1572SOL    HW2 5616   0.945   6.114   0.394
 1573SOL     OW 5617   5.968   3.182   1.961
 1573SOL    HW1 5618   6.051   3.130   1.937
 1573SOL    HW2 5619   5.994   3.269   2.001
 1574SOL     OW 5620   6.804   1.104   3.036
 1574SOL    HW1 5621   6.784   1.022   3.089
 1574SOL    HW2 5622   6.879   1.085   2.973
 1575SOL     OW 5623   2.892   2.106   1.267
 1575SOL    HW1 5624   2.794   2.102   1.247
 1575SOL    HW2 5625   2.908   2.077   1.361
 1576SOL     OW 5626   0.987   1.027   2.942
 1576SOL    HW1 5627   1.009   1.121   2.912
 1576SOL    HW2 5628   0.902   0.997   2.898
 1577SOL     OW 5629   2.756   0.437   5.270
 1577SOL    HW1 5630   2.817   0.465   5.196
 1577SOL    HW2 5631   2.763   0.502   5.346
 1578SOL     OW 5632   5.616   2.773   6.239
 1578SOL    HW1 5633   5.670   2.853   6.266
 1578SOL    HW2 5634   5.535   2.803   6.189
 1579SOL     OW 5635   0.806   2.063   2.434
 1579SOL    HW1 5636   0.796   2.056   2.334
 1579SOL    HW2 5637   0.849   2.151   2.457
 1580SOL     OW 5638   3.246   4.141   3.917
 1580SOL    HW1 5639   3.218   4.235   3.900
 1580SOL    HW2 5640   3.171   4.079   3.896
 1581SOL     OW 5641   6.583   4.336   5.066
 1581SOL    HW1 5642   6.565   4.268   4.995
 1581SOL    HW2 5643   6.588   4.427   5.026
 1582SOL     OW 5644   2.753   6.879   3.960
 1582SOL    HW1 5645   2.761   6.926   4.048
 1582SOL    HW2 5646   2.689   6.803   3.969
 1583SOL     OW 5647   0.840   5.528   3.103
 1583SOL    HW1 5648   0.818   5.461   3.032
 1583SOL    HW2 5649   0.896   5.485   3.173
 1584SOL     OW 5650   0.766   6.153   6.652
 1584SOL    HW1 5651   0.850   6.100   6.663
 1584SOL    HW2 5652   0.782   6.248   6.682
 1585SOL     OW 5653   4.760   1.658   3.538
 1585SOL    HW1 5654   4.698   1.698   3.605
 1585SOL    HW2 5655   4.743   1.559   3.532
 1586SOL     OW 5656   3.308   4.825   1.923
 1586SOL    HW1 5657   3.391   4.770   1.922
 1586SOL    HW2 5658   3.323   4.909   1.871
 1587SOL     OW 5659   3.154   5.845   6.155
 1587SOL    HW1 5660   3.233   5.790   6.128
 1587SOL    HW2 5661   3.076   5.785   6.172
 1588SOL     OW 5662   3.883   0.640   2.636
 1588SOL    HW1 5663   3.893   0.729   2.681
 1588SOL    HW2 5664   3.786   0.613   2.636
 1589SOL     OW 5665   6.678   3.206   1.844
 1589SOL    HW1 5666   6.636   3.163   1.924
 1589SOL    HW2 5667   6.613   3.206   1.768
 1590SOL     OW 5668   4.039   0.068   5.222
 1590SOL    HW1 5669   4.098   0.083   5.301
 1590SOL    HW2 5670   4.012   0.156   5.183
 1591SOL     OW 5671   6.760   5.330   1.838
 1591SOL    HW1 5672   6.725   5.239   1.862
 1591SOL    HW2 5673   6.758   5.389   1.919
 1592SOL     OW 5674   1.832   3.942   7.009
 1592SOL    HW1 5675   1.866   3.920   0.074
 1592SOL    HW2 5676   1.750   3.887   6.991
 1593SOL     OW 5677   1.032   6.297   5.307
 1593SOL    HW1 5678   1.078   6.377   5.268
 1593SOL    HW2 5679   1.100   6.231   5.338
 1594SOL     OW 5680   0.375   6.277   1.794
 1594SOL    HW1 5681   0.402   6.325   1.710
 1594SOL    HW2 5682   0.448   6.286   1.862
 1595SOL     OW 5683   1.613   5.085   0.270
 1595SOL    HW1 5684   1.550   5.008   0.260
 1595SOL    HW2 5685   1.640   5.093   0.367
 1596SOL     OW 5686   0.265   2.491   3.648
 1596SOL    HW1 5687   0.168   2.479   3.624
 1596SOL    HW2 5688   0.272   2.522   3.743
 1597SOL     OW 5689   1.529   6.390   0.111
 1597SOL    HW1 5690   1.508   6.426   0.020
 1597SOL    HW2 5691   1.482   6.444   0.180
 1598SOL     OW 5692   0.008   4.242   5.815
 1598SOL    HW1 5693   0.033   4.337   5.833
 1598SOL    HW2 5694   0.041   4.215   5.725
 1599SOL     OW 5695   4.915   5.184   5.025
 1599SOL    HW1 5696   4.911   5.278   5.056
 1599SOL    HW2 5697   4.828   5.138   5.042
 1600SOL     OW 5698   4.208   1.241   3.229
 1600SOL    HW1 5699   4.175   1.234   3.135
 1600SOL    HW2 5700   4.189   1.332   3.265
 1601SOL     OW 5701   6.901   5.786   4.659
 1601SOL    HW1 5702   6.842   5.743   4.727
 1601SOL    HW2 5703   6.852   5.794   4.572
 1602SOL     OW 5704   4.160   6.001   3.222
 1602SOL    HW1 5705   4.174   5.976   3.317
 1602SOL    HW2 5706   4.103   5.933   3.177
 1603SOL     OW 5707   1.341   6.187   3.482
 1603SOL    HW1 5708   1.428   6.147   3.454
 1603SOL    HW2 5709   1.272   6.115   3.491
 1604SOL     OW 5710   6.141   4.373   1.666
 1604SOL    HW1 5711   6.080   4.295   1.658
 1604SOL    HW2 5712   6.134   4.429   1.583
 1605SOL     OW 5713   6.259   5.312   1.415
 1605SOL    HW1 5714   6.286   5.222   1.448
 1605SOL    HW2 5715   6.288   5.382   1.480
 1606SOL     OW 5716   3.665   0.892   5.677
 1606SOL    HW1 5717   3.695   0.909   5.771
 1606SOL    HW2 5718   3.744   0.879   5.618
 1607SOL     OW 5719   3.970   1.326   1.074
 1607SOL    HW1 5720   3.878   1.289   1.060
 1607SOL    HW2 5721   3.975   1.370   1.164
 1608SOL     OW 5722   1.335   0.889   3.697
 1608SOL    HW1 5723   1.240   0.903   3.668
 1608SOL    HW2 5724   1.345   0.798   3.737
 1609SOL     OW 5725   4.424   0.154   0.262
 1609SOL    HW1 5726   4.464   0.063   0.270
 1609SOL    HW2 5727   4.430   0.184   0.167
 1610SOL     OW 5728   6.183   4.662   6.399
 1610SOL    HW1 5729   6.114   4.594   6.426
 1610SOL    HW2 5730   6.210   4.646   6.304
 1611SOL     OW 5731   2.443   3.682   0.973
 1611SOL    HW1 5732   2.396   3.763   0.937
 1611SOL    HW2 5733   2.541   3.692   0.960
 1612SOL     OW 5734   2.864   6.967   6.557
 1612SOL    HW1 5735   2.921   6.888   6.534
 1612SOL    HW2 5736   2.860   6.976   6.657
 1613SOL     OW 5737   1.339   5.761   1.784
 1613SOL    HW1 5738   1.322   5.788   1.879
 1613SOL    HW2 5739   1.434   5.734   1.773
 1614SOL     OW 5740   5.407   2.897   0.042
 1614SOL    HW1 5741   5.504   2.914   0.027
 1614SOL    HW2 5742   5.360   2.891   6.981
 1615SOL     OW 5743   5.488   5.313   0.528
 1615SOL    HW1 5744   5.577   5.357   0.544
 1615SOL    HW2 5745   5.502   5.215   0.511
 1616SOL     OW 5746   3.180   1.477   5.128
 1616SOL    HW1 5747   3.153   1.499   5.034
 1616SOL    HW2 5748   3.122   1.528   5.192
 1617SOL     OW 5749   5.940   6.793   2.709
 1617SOL    HW1 5750   5.962   6.778   2.805
 1617SOL    HW2 5751   5.968   6.885   2.682
 1618SOL     OW 5752   1.782   4.902   1.939
 1618SOL    HW1 5753   1.793   4.862   1.848
 1618SOL    HW2 5754   1.857   4.966   1.956
 1619SOL     OW 5755   1.114   4.263   2.203
 1619SOL    HW1 5756   1.060   4.186   2.237
 1619SOL    HW2 5757   1.194   4.227   2.154
 1620SOL     OW 5758   2.740   4.718   1.711
 1620SOL    HW1 5759   2.803   4.794   1.694
 1620SOL    HW2 5760   2.780   4.656   1.778
 1621SOL     OW 5761   0.218   1.008   0.522
 1621SOL    HW1 5762   0.122   1.010   0.550
 1621SOL    HW2 5763   0.276   1.024   0.601
 1622SOL     OW 5764   0.583   3.158   5.073
 1622SOL    HW1 5765   0.519   3.085   5.047
 1622SOL    HW2 5766   0.615   3.143   5.166
 1623SOL     OW 5767   2.122   3.102   5.131
 1623SOL    HW1 5768   2.155   3.196   5.125
 1623SOL    HW2 5769   2.200   3.039   5.129
 1624SOL     OW 5770   3.171   1.032   5.257
 1624SOL    HW1 5771   3.246   1.096   5.277
 1624SOL    HW2 5772   3.103   1.077   5.199
 1625SOL     OW 5773   0.890   5.216   0.039
 1625SOL    HW1 5774   0.948   5.197   0.118
 1625SOL    HW2 5775   0.832   5.295   0.057
 1626SOL     OW 5776   4.112   1.818   0.071
 1626SOL    HW1 5777   4.096   1.789   7.003
 1626SOL    HW2 5778   4.039   1.784   0.130
 1627SOL     OW 5779   6.148   3.687   3.276
 1627SOL    HW1 5780   6.246   3.669   3.290
 1627SOL    HW2 5781   6.102   3.601   3.253
 1628SOL     OW 5782   4.845   4.379   0.203
 1628SOL    HW1 5783   4.942   4.374   0.223
 1628SOL    HW2 5784   4.831   4.382   0.104
 1629SOL     OW 5785   3.078   0.833   4.224
 1629SOL    HW1 5786   3.089   0.928   4.252
 1629SOL    HW2 5787   3.061   0.776   4.304
 1630SOL     OW 5788   0.890   4.719   5.500
 1630SOL    HW1 5789   0.966   4.662   5.532
 1630SOL    HW2 5790   0.926   4.801   5.457
 1631SOL     OW 5791   1.400   3.119   6.824
 1631SOL    HW1 5792   1.476   3.133   6.761
 1631SOL    HW2 5793   1.428   3.144   6.916
 1632SOL     OW 5794   6.561   2.404   0.627
 1632SOL    HW1 5795   6.493   2.371   0.561
 1632SOL    HW2 5796   6.650   2.413   0.583
 1633SOL     OW 5797   5.287   3.588   4.389
 1633SOL    HW1 5798   5.369   3.640   4.413
 1633SOL    HW2 5799   5.272   3.515   4.456
 1634SOL     OW 5800   4.222   5.480   5.051
 1634SOL    HW1 5801   4.251   5.490   5.146
 1634SOL    HW2 5802   4.265   5.552   4.996
 1635SOL     OW 5803   6.963   4.991   6.121
 1635SOL    HW1 5804   6.888   5.056   6.119
 1635SOL    HW2 5805   6.963   4.942   6.208
 1636SOL     OW 5806   2.760   4.341   1.656
 1636SOL    HW1 5807   2.795   4.398   1.730
 1636SOL    HW2 5808   2.796   4.248   1.665
 1637SOL     OW 5809   1.063   0.224   2.563
 1637SOL    HW1 5810   1.011   0.239   2.647
 1637SOL    HW2 5811   1.138   0.159   2.581
 1638SOL     OW 5812   0.075   4.092   3.267
 1638SOL    HW1 5813   0.055   4.054   3.358
 1638SOL    HW2 5814   0.036   4.184   3.261
 1639SOL     OW 5815   4.884   6.980   1.915
 1639SOL    HW1 5816   4.949   6.945   1.982
 1639SOL    HW2 5817   4.847   6.903   1.862
 1640SOL     OW 5818   6.028   0.746   0.065
 1640SOL    HW1 5819   6.070   0.720   7.004
 1640SOL    HW2 5820   5.940   0.791   0.048
 1641SOL     OW 5821   4.720   2.681   3.429
 1641SOL    HW1 5822   4.635   2.652   3.473
 1641SOL    HW2 5823   4.739   2.776   3.452
 1642SOL     OW 5824   6.289   3.442   6.350
 1642SOL    HW1 5825   6.224   3.407   6.419
 1642SOL    HW2 5826   6.239   3.465   6.267
 1643SOL     OW 5827   2.828   4.893   5.127
 1643SOL    HW1 5828   2.841   4.890   5.226
 1643SOL    HW2 5829   2.816   4.800   5.092
 1644SOL     OW 5830   6.321   3.555   0.416
 1644SOL    HW1 5831   6.334   3.640   0.467
 1644SOL    HW2 5832   6.298   3.577   0.321
 1645SOL     OW 5833   3.292   5.273   5.547
 1645SOL    HW1 5834   3.389   5.293   5.535
 1645SOL    HW2 5835   3.252   5.339   5.610
 1646SOL     OW 5836   2.836   6.100   0.357
 1646SOL    HW1 5837   2.859   6.157   0.278
 1646SOL    HW2 5838   2.752   6.049   0.337
 1647SOL     OW 5839   5.837   2.900   4.846
 1647SOL    HW1 5840   5.816   2.979   4.903
 1647SOL    HW2 5841   5.753   2.861   4.809
 1648SOL     OW 5842   5.219   5.084   0.594
 1648SOL    HW1 5843   5.123   5.057   0.583
 1648SOL    HW2 5844   5.236   5.168   0.543
 1649SOL     OW 5845   3.085   0.722   4.514
 1649SOL    HW1 5846   3.174   0.697   4.475
 1649SOL    HW2 5847   3.093   0.730   4.613
 1650SOL     OW 5848   1.740   6.152   5.816
 1650SOL    HW1 5849   1.826   6.147   5.764
 1650SOL    HW2 5850   1.689   6.068   5.804
 1651SOL     OW 5851   0.597   1.991   1.517
 1651SOL    HW1 5852   0.657   1.946   1.582
 1651SOL    HW2 5853   0.652   2.043   1.451
 1652SOL     OW 5854   1.033   3.830   2.651
 1652SOL    HW1 5855   1.112   3.841   2.591
 1652SOL    HW2 5856   0.970   3.762   2.612
 1653SOL     OW 5857   1.011   6.986   1.101
 1653SOL    HW1 5858   1.051   6.957   1.188
 1653SOL    HW2 5859   1.000   6.907   1.041
 1654SOL     OW 5860   0.678   3.773   1.319
 1654SOL    HW1 5861   0.658   3.675   1.320
 1654SOL    HW2 5862   0.676   3.807   1.225
 1655SOL     OW 5863   0.318   2.401   5.179
 1655SOL    HW1 5864   0.344   2.414   5.274
 1655SOL    HW2 5865   0.220   2.384   5.173
 1656SOL     OW 5866   2.590   4.655   2.153
 1656SOL    HW1 5867   2.507   4.630   2.103
 1656SOL    HW2 5868   2.669   4.612   2.111
 1657SOL     OW 5869   0.011   1.002   3.180
 1657SOL    HW1 5870   0.005   1.033   3.085
 1657SOL    HW2 5871   7.014   1.077   3.241
 1658SOL     OW 5872   0.197   6.076   1.086
 1658SOL    HW1 5873   0.174   6.122   1.172
 1658SOL    HW2 5874   0.249   5.994   1.105
 1659SOL     OW 5875   3.830   0.073   5.989
 1659SOL    HW1 5876   3.749   0.067   6.048
 1659SOL    HW2 5877   3.911   0.044   6.040
 1660SOL     OW 5878   0.695   5.022   3.956
 1660SOL    HW1 5879   0.773   5.060   4.006
 1660SOL    HW2 5880   0.626   4.990   4.022
 1661SOL     OW 5881   2.642   0.442   1.876
 1661SOL    HW1 5882   2.710   0.426   1.947
 1661SOL    HW2 5883   2.636   0.540   1.857
 1662SOL     OW 5884   6.801   0.912   4.510
 1662SOL    HW1 5885   6.818   0.932   4.606
 1662SOL    HW2 5886   6.752   0.989   4.468
 1663SOL     OW 5887   4.707   6.035   2.662
 1663SOL    HW1 5888   4.642   5.959   2.673
 1663SOL    HW2 5889   4.707   6.090   2.745
 1664SOL     OW 5890   2.002   0.443   4.693
 1664SOL    HW1 5891   1.966   0.502   4.620
 1664SOL    HW2 5892   1.939   0.368   4.709
 1665SOL     OW 5893   0.089   1.694   2.893
 1665SOL    HW1 5894   0.099   1.601   2.859
 1665SOL    HW2 5895   0.043   1.692   2.982
 1666SOL     OW 5896   5.329   2.130   6.790
 1666SOL    HW1 5897   5.315   2.192   6.866
 1666SOL    HW2 5898   5.243   2.082   6.769
 1667SOL     OW 5899   6.853   5.906   1.534
 1667SOL    HW1 5900   6.949   5.920   1.509
 1667SOL    HW2 5901   6.841   5.815   1.573
 1668SOL     OW 5902   5.256   6.376   5.203
 1668SOL    HW1 5903   5.190   6.355   5.132
 1668SOL    HW2 5904   5.329   6.433   5.166
 1669SOL     OW 5905   6.616   5.576   6.479
 1669SOL    HW1 5906   6.538   5.588   6.541
 1669SOL    HW2 5907   6.695   5.544   6.530
 1670SOL     OW 5908   0.255   3.677   5.534
 1670SOL    HW1 5909   0.353   3.656   5.530
 1670SOL    HW2 5910   0.222   3.663   5.627
 1671SOL     OW 5911   5.167   1.464   1.518
 1671SOL    HW1 5912   5.170   1.553   1.473
 1671SOL    HW2 5913   5.260   1.435   1.542
 1672SOL     OW 5914   1.794   3.085   0.950
 1672SOL    HW1 5915   1.808   3.179   0.920
 1672SOL    HW2 5916   1.875   3.054   1.001
 1673SOL     OW 5917   1.045   1.850   4.424
 1673SOL    HW1 5918   1.082   1.902   4.347
 1673SOL    HW2 5919   0.945   1.841   4.414
 1674SOL     OW 5920   0.906   3.724   2.447
 1674SOL    HW1 5921   0.854   3.787   2.390
 1674SOL    HW2 5922   0.894   3.631   2.414
 1675SOL     OW 5923   4.735   0.083   6.564
 1675SOL    HW1 5924   4.640   0.109   6.547
 1675SOL    HW2 5925   4.776   0.145   6.631
 1676SOL     OW 5926   1.974   2.451   1.603
 1676SOL    HW1 5927   2.061   2.409   1.629
 1676SOL    HW2 5928   1.983   2.550   1.600
 1677SOL     OW 5929   3.018   3.891   4.636
 1677SOL    HW1 5930   2.985   3.867   4.545
 1677SOL    HW2 5931   2.988   3.821   4.701
 1678SOL     OW 5932   4.912   4.095   4.271
 1678SOL    HW1 5933   4.994   4.041   4.290
 1678SOL    HW2 5934   4.856   4.101   4.353
 1679SOL     OW 5935   2.124   2.464   4.150
 1679SOL    HW1 5936   2.067   2.421   4.220
 1679SOL    HW2 5937   2.201   2.405   4.128
 1680SOL     OW 5938   0.179   2.755   4.588
 1680SOL    HW1 5939   0.217   2.803   4.509
 1680SOL    HW2 5940   0.230   2.670   4.604
 1681SOL     OW 5941   6.613   5.745   0.308
 1681SOL    HW1 5942   6.555   5.710   0.234
 1681SOL    HW2 5943   6.692   5.792   0.269
 1682SOL     OW 5944   1.329   1.005   4.495
 1682SOL    HW1 5945   1.406   1.058   4.530
 1682SOL    HW2 5946   1.300   1.042   4.406
 1683SOL     OW 5947   4.921   4.985   1.460
 1683SOL    HW1 5948   5.009   4.943   1.482
 1683SOL    HW2 5949   4.854   4.914   1.442
 1684SOL     OW 5950   1.672   5.826   2.195
 1684SOL    HW1 5951   1.598   5.890   2.219
 1684SOL    HW2 5952   1.758   5.876   2.188
 1685SOL     OW 5953   2.928   0.846   5.006
 1685SOL    HW1 5954   2.855   0.875   4.945
 1685SOL    HW2 5955   2.972   0.927   5.046
 1686SOL     OW 5956   3.022   5.842   4.966
 1686SOL    HW1 5957   2.942   5.814   5.019
 1686SOL    HW2 5958   3.000   5.923   4.912
 1687SOL     OW 5959   2.134   3.772   1.586
 1687SOL    HW1 5960   2.192   3.851   1.564
 1687SOL    HW2 5961   2.181   3.688   1.560
 1688SOL     OW 5962   2.119   2.875   4.343
 1688SOL    HW1 5963   2.106   2.831   4.254
 1688SOL    HW2 5964   2.039   2.931   4.365
 1689SOL     OW 5965   5.786   1.385   2.990
 1689SOL    HW1 5966   5.717   1.400   2.918
 1689SOL    HW2 5967   5.800   1.470   3.041
 1690SOL     OW 5968   1.346   2.744   3.545
 1690SOL    HW1 5969   1.340   2.770   3.642
 1690SOL    HW2 5970   1.440   2.758   3.514
 1691SOL     OW 5971   5.825   3.543   3.651
 1691SOL    HW1 5972   5.901   3.587   3.602
 1691SOL    HW2 5973   5.852   3.450   3.676
 1692SOL     OW 5974   5.773   6.550   1.360
 1692SOL    HW1 5975   5.782   6.645   1.390
 1692SOL    HW2 5976   5.846   6.496   1.402
 1693SOL     OW 5977   0.166   2.051   1.949
 1693SOL    HW1 5978   0.092   2.086   2.008
 1693SOL    HW2 5979   0.253   2.058   1.998
 1694SOL     OW 5980   5.394   0.415   2.794
 1694SOL    HW1 5981   5.392   0.326   2.748
 1694SOL    HW2 5982   5.489   0.437   2.816
 1695SOL     OW 5983   3.467   1.109   5.320
 1695SOL    HW1 5984   3.393   1.176   5.324
 1695SOL    HW2 5985   3.548   1.150   5.278
 1696SOL     OW 5986   4.423   4.235   0.752
 1696SOL    HW1 5987   4.451   4.205   0.843
 1696SOL    HW2 5988   4.447   4.331   0.739
 1697SOL     OW 5989   5.524   0.171   0.906
 1697SOL    HW1 5990   5.606   0.213   0.867
 1697SOL    HW2 5991   5.465   0.140   0.831
 1698SOL     OW 5992   4.115   0.418   0.612
 1698SOL    HW1 5993   4.132   0.506   0.568
 1698SOL    HW2 5994   4.159   0.345   0.559
 1699SOL     OW 5995   1.767   0.471   0.742
 1699SOL    HW1 5996   1.803   0.534   0.811
 1699SOL    HW2 5997   1.735   0.387   0.787
 1700SOL     OW 5998   5.530   2.515   3.601
 1700SOL    HW1 5999   5.536   2.427   3.554
 1700SOL    HW2 6000   5.443   2.559   3.577
 1701SOL     OW 6001   4.564   4.461   6.439
 1701SOL    HW1 6002   4.541   4.552   6.474
 1701SOL    HW2 6003   4.481   4.406   6.430
 1702SOL     OW 6004   6.791   2.447   0.515
 1702SOL    HW1 6005   6.767   2.486   0.426
 1702SOL    HW2 6006   6.887   2.468   0.536
 1703SOL     OW 6007   2.909   2.643   1.705
 1703SOL    HW1 6008   2.930   2.558   1.753
 1703SOL    HW2 6009   2.814   2.642   1.675
 1704SOL     OW 6010   1.204   2.525   0.789
 1704SOL    HW1 6011   1.131   2.544   0.722
 1704SOL    HW2 6012   1.185   2.573   0.874
 1705SOL     OW 6013   3.345   1.833   1.539
 1705SOL    HW1 6014   3.345   1.781   1.453
 1705SOL    HW2 6015   3.264   1.892   1.542
 1706SOL     OW 6016   4.437   1.016   1.837
 1706SOL    HW1 6017   4.437   1.103   1.885
 1706SOL    HW2 6018   4.404   1.028   1.744
 1707SOL     OW 6019   5.216   1.968   2.050
 1707SOL    HW1 6020   5.306   1.935   2.076
 1707SOL    HW2 6021   5.185   2.037   2.116
 1708SOL     OW 6022   5.024   5.228   1.555
 1708SOL    HW1 6023   4.974   5.179   1.485
 1708SOL    HW2 6024   5.117   5.192   1.561
 1709SOL     OW 6025   3.268   5.590   2.033
 1709SOL    HW1 6026   3.200   5.517   2.030
 1709SOL    HW2 6027   3.275   5.635   1.944
 1710SOL     OW 6028   5.400   5.467   4.054
 1710SOL    HW1 6029   5.345   5.549   4.040
 1710SOL    HW2 6030   5.393   5.438   4.149
 1711SOL     OW 6031   1.066   4.554   4.093
 1711SOL    HW1 6032   1.050   4.478   4.031
 1711SOL    HW2 6033   0.984   4.573   4.146
 1712SOL     OW 6034   6.862   2.507   5.489
 1712SOL    HW1 6035   6.853   2.446   5.568
 1712SOL    HW2 6036   6.795   2.581   5.496
 1713SOL     OW 6037   4.694   2.674   1.500
 1713SOL    HW1 6038   4.689   2.768   1.466
 1713SOL    HW2 6039   4.776   2.630   1.466
 1714SOL     OW 6040   3.145   1.799   5.476
 1714SOL    HW1 6041   3.064   1.795   5.417
 1714SOL    HW2 6042   3.127   1.859   5.554
 1715SOL     OW 6043   6.949   5.769   3.174
 1715SOL    HW1 6044   6.909   5.790   3.085
 1715SOL    HW2 6045   0.021   5.786   3.171
 1716SOL     OW 6046   4.863   6.824   2.887
 1716SOL    HW1 6047   4.860   6.736   2.933
 1716SOL    HW2 6048   4.944   6.829   2.829
 1717SOL     OW 6049   2.379   6.677   5.893
 1717SOL    HW1 6050   2.378   6.742   5.969
 1717SOL    HW2 6051   2.352   6.587   5.926
 1718SOL     OW 6052   2.164   2.277   1.310
 1718SOL    HW1 6053   2.130   2.363   1.272
 1718SOL    HW2 6054   2.114   2.200   1.270
 1719SOL     OW 6055   1.733   3.328   0.781
 1719SOL    HW1 6056   1.676   3.402   0.815
 1719SOL    HW2 6057   1.827   3.342   0.811
 1720SOL     OW 6058   0.523   3.089   6.908
 1720SOL    HW1 6059   0.456   3.036   6.856
 1720SOL    HW2 6060   0.590   3.028   6.949
 1721SOL     OW 6061   1.506   6.346   1.298
 1721SOL    HW1 6062   1.533   6.377   1.207
 1721SOL    HW2 6063   1.581   6.359   1.362
 1722SOL     OW 6064   3.684   1.448   3.872
 1722SOL    HW1 6065   3.705   1.537   3.832
 1722SOL    HW2 6066   3.754   1.423   3.938
 1723SOL     OW 6067   6.340   2.375   2.675
 1723SOL    HW1 6068   6.275   2.305   2.646
 1723SOL    HW2 6069   6.432   2.348   2.648
 1724SOL     OW 6070   6.862   2.819   1.533
 1724SOL    HW1 6071   6.777   2.828   1.583
 1724SOL    HW2 6072   6.896   2.910   1.508
 1725SOL     OW 6073   1.517   4.846   6.519
 1725SOL    HW1 6074   1.556   4.755   6.502
 1725SOL    HW2 6075   1.506   4.894   6.432
 1726SOL     OW 6076   5.709   4.644   5.003
 1726SOL    HW1 6077   5.684   4.727   5.053
 1726SOL    HW2 6078   5.778   4.667   4.934
 1727SOL     OW 6079   3.359   2.958   3.981
 1727SOL    HW1 6080   3.305   3.017   3.921
 1727SOL    HW2 6081   3.354   2.993   4.075
 1728SOL     OW 6082   5.085   4.727   5.569
 1728SOL    HW1 6083   5.013   4.674   5.614
 1728SOL    HW2 6084   5.124   4.674   5.494
 1729SOL     OW 6085   2.515   4.474   3.063
 1729SOL    HW1 6086   2.504   4.459   3.161
 1729SOL    HW2 6087   2.577   4.551   3.047
 1730SOL     OW 6088   0.891   6.777   6.033
 1730SOL    HW1 6089   0.878   6.831   6.116
 1730SOL    HW2 6090   0.916   6.838   5.958
 1731SOL     OW 6091   6.829   3.733   2.693
 1731SOL    HW1 6092   6.785   3.692   2.772
 1731SOL    HW2 6093   6.914   3.684   2.673
 1732SOL     OW 6094   2.428   5.367   5.670
 1732SOL    HW1 6095   2.426   5.285   5.728
 1732SOL    HW2 6096   2.343   5.371   5.616
 1733SOL     OW 6097   1.865   4.485   1.423
 1733SOL    HW1 6098   1.844   4.558   1.488
 1733SOL    HW2 6099   1.811   4.404   1.445
 1734SOL     OW 6100   4.180   3.055   1.057
 1734SOL    HW1 6101   4.205   2.987   0.987
 1734SOL    HW2 6102   4.260   3.112   1.076
 1735SOL     OW 6103   5.117   6.124   0.617
 1735SOL    HW1 6104   5.081   6.135   0.710
 1735SOL    HW2 6105   5.050   6.158   0.551
 1736SOL     OW 6106   3.136   3.203   0.397
 1736SOL    HW1 6107   3.175   3.111   0.401
 1736SOL    HW2 6108   3.120   3.237   0.490
 1737SOL     OW 6109   2.822   1.046   4.357
 1737SOL    HW1 6110   2.914   1.063   4.321
 1737SOL    HW2 6111   2.778   0.973   4.304
 1738SOL     OW 6112   2.050   2.264   3.904
 1738SOL    HW1 6113   1.955   2.270   3.933
 1738SOL    HW2 6114   2.102   2.342   3.941
 1739SOL     OW 6115   0.362   2.105   5.471
 1739SOL    HW1 6116   0.453   2.083   5.437
 1739SOL    HW2 6117   0.334   2.195   5.436
 1740SOL     OW 6118   0.158   1.757   5.625
 1740SOL    HW1 6119   0.252   1.765   5.658
 1740SOL    HW2 6120   0.097   1.737   5.702
 1741SOL     OW 6121   2.663   0.868   3.628
 1741SOL    HW1 6122   2.636   0.820   3.544
 1741SOL    HW2 6123   2.703   0.803   3.692
 1742SOL     OW 6124   5.513   0.566   6.214
 1742SOL    HW1 6125   5.510   0.650   6.268
 1742SOL    HW2 6126   5.606   0.530   6.212
 1743SOL     OW 6127   1.418   2.580   1.145
 1743SOL    HW1 6128   1.395   2.631   1.229
 1743SOL    HW2 6129   1.375   2.625   1.067
 1744SOL     OW 6130   6.533   1.501   2.689
 1744SOL    HW1 6131   6.461   1.558   2.728
 1744SOL    HW2 6132   6.525   1.408   2.725
 1745SOL     OW 6133   5.983   6.104   2.812
 1745SOL    HW1 6134   6.079   6.089   2.789
 1745SOL    HW2 6135   5.947   6.181   2.759
 1746SOL     OW 6136   1.314   4.502   4.734
 1746SOL    HW1 6137   1.237   4.449   4.770
 1746SOL    HW2 6138   1.281   4.586   4.692
 1747SOL     OW 6139   5.476   1.729   2.901
 1747SOL    HW1 6140   5.434   1.750   2.813
 1747SOL    HW2 6141   5.512   1.636   2.900
 1748SOL     OW 6142   1.288   1.007   5.078
 1748SOL    HW1 6143   1.259   0.920   5.038
 1748SOL    HW2 6144   1.321   0.991   5.171
 1749SOL     OW 6145   2.687   0.550   4.934
 1749SOL    HW1 6146   2.687   0.617   4.860
 1749SOL    HW2 6147   2.594   0.541   4.970
 1750SOL     OW 6148   5.386   6.215   4.491
 1750SOL    HW1 6149   5.458   6.281   4.471
 1750SOL    HW2 6150   5.298   6.262   4.501
 1751SOL     OW 6151   4.166   6.308   5.097
 1751SOL    HW1 6152   4.259   6.304   5.060
 1751SOL    HW2 6153   4.162   6.254   5.181
 1752SOL     OW 6154   0.140   2.152   1.510
 1752SOL    HW1 6155   0.104   2.060   1.494
 1752SOL    HW2 6156   0.126   2.176   1.606
 1753SOL     OW 6157   0.365   1.113   0.752
 1753SOL    HW1 6158   0.344   1.211   0.755
 1753SOL    HW2 6159   0.450   1.096   0.802
 1754SOL     OW 6160   1.881   4.458   0.218
 1754SOL    HW1 6161   1.956   4.514   0.253
 1754SOL    HW2 6162   1.887   4.451   0.118
 1755SOL     OW 6163   0.201   5.889   2.076
 1755SOL    HW1 6164   0.201   5.789   2.083
 1755SOL    HW2 6165   0.126   5.918   2.017
 1756SOL     OW 6166   4.186   5.923   6.063
 1756SOL    HW1 6167   4.205   5.882   5.974
 1756SOL    HW2 6168   4.271   5.932   6.114
 1757SOL     OW 6169   2.733   5.534   5.002
 1757SOL    HW1 6170   2.661   5.553   4.935
 1757SOL    HW2 6171   2.694   5.484   5.079
 1758SOL     OW 6172   1.915   0.059   3.926
 1758SOL    HW1 6173   1.978   0.088   3.854
 1758SOL    HW2 6174   1.829   0.030   3.885
 1759SOL     OW 6175   1.617   5.785   6.273
 1759SOL    HW1 6176   1.545   5.813   6.336
 1759SOL    HW2 6177   1.635   5.687   6.285
 1760SOL     OW 6178   5.391   1.298   2.989
 1760SOL    HW1 6179   5.454   1.223   3.011
 1760SOL    HW2 6180   5.384   1.360   3.066
 1761SOL     OW 6181   0.251   0.185   1.110
 1761SOL    HW1 6182   0.251   0.085   1.110
 1761SOL    HW2 6183   0.251   0.218   1.016
 1762SOL     OW 6184   0.502   1.087   5.104
 1762SOL    HW1 6185   0.421   1.045   5.146
 1762SOL    HW2 6186   0.583   1.062   5.157
 1763SOL     OW 6187   1.212   3.456   3.635
 1763SOL    HW1 6188   1.293   3.512   3.655
 1763SOL    HW2 6189   1.228   3.404   3.551
 1764SOL     OW 6190   1.988   3.804   2.575
 1764SOL    HW1 6191   1.901   3.809   2.526
 1764SOL    HW2 6192   1.977   3.843   2.666
 1765SOL     OW 6193   3.545   1.096   0.958
 1765SOL    HW1 6194   3.590   1.042   0.887
 1765SOL    HW2 6195   3.596   1.087   1.044
 1766SOL     OW 6196   4.863   4.003   2.630
 1766SOL    HW1 6197   4.939   3.949   2.594
 1766SOL    HW2 6198   4.868   4.005   2.730
 1767SOL     OW 6199   0.161   3.333   2.848
 1767SOL    HW1 6200   0.144   3.421   2.804
 1767SOL    HW2 6201   0.111   3.330   2.934
 1768SOL     OW 6202   4.409   1.594   5.981
 1768SOL    HW1 6203   4.473   1.526   6.015
 1768SOL    HW2 6204   4.361   1.558   5.900
 1769SOL     OW 6205   4.033   2.176   5.809
 1769SOL    HW1 6206   4.009   2.237   5.885
 1769SOL    HW2 6207   3.985   2.089   5.820
 1770SOL     OW 6208   6.987   4.118   4.316
 1770SOL    HW1 6209   6.892   4.143   4.300
 1770SOL    HW2 6210   7.024   4.173   4.390
 1771SOL     OW 6211   1.841   5.114   0.062
 1771SOL    HW1 6212   1.856   5.152   6.997
 1771SOL    HW2 6213   1.743   5.113   0.082
 1772SOL     OW 6214   3.365   0.190   3.388
 1772SOL    HW1 6215   3.415   0.138   3.457
 1772SOL    HW2 6216   3.415   0.189   3.301
 1773SOL     OW 6217   3.296   4.035   6.982
 1773SOL    HW1 6218   3.307   3.948   6.935
 1773SOL    HW2 6219   3.329   4.109   6.924
 1774SOL     OW 6220   4.515   0.589   1.691
 1774SOL    HW1 6221   4.424   0.588   1.733
 1774SOL    HW2 6222   4.506   0.585   1.592
 1775SOL     OW 6223   1.562   5.930   4.661
 1775SOL    HW1 6224   1.488   5.987   4.697
 1775SOL    HW2 6225   1.542   5.906   4.566
 1776SOL     OW 6226   4.377   0.912   5.953
 1776SOL    HW1 6227   4.293   0.867   5.983
 1776SOL    HW2 6228   4.355   0.984   5.888
 1777SOL     OW 6229   3.023   6.018   5.641
 1777SOL    HW1 6230   3.067   5.964   5.713
 1777SOL    HW2 6231   2.994   5.957   5.567
 1778SOL     OW 6232   4.153   2.219   4.281
 1778SOL    HW1 6233   4.077   2.253   4.336
 1778SOL    HW2 6234   4.239   2.251   4.321
 1779SOL     OW 6235   4.008   1.966   4.310
 1779SOL    HW1 6236   4.047   2.041   4.364
 1779SOL    HW2 6237   3.989   1.998   4.217
 1780SOL     OW 6238   1.995   4.577   5.717
 1780SOL    HW1 6239   2.020   4.673   5.719
 1780SOL    HW2 6240   2.065   4.525   5.667
 1781SOL     OW 6241   5.069   5.602   3.576
 1781SOL    HW1 6242   5.049   5.591   3.673
 1781SOL    HW2 6243   5.147   5.545   3.551
 1782SOL     OW 6244   3.195   1.827   3.191
 1782SOL    HW1 6245   3.127   1.901   3.194
 1782SOL    HW2 6246   3.234   1.822   3.099
 1783SOL     OW 6247   2.298   3.141   6.382
 1783SOL    HW1 6248   2.315   3.174   6.289
 1783SOL    HW2 6249   2.205   3.163   6.409
 1784SOL     OW 6250   3.077   0.628   2.778
 1784SOL    HW1 6251   3.089   0.690   2.855
 1784SOL    HW2 6252   3.101   0.535   2.807
 1785SOL     OW 6253   5.255   5.429   3.427
 1785SOL    HW1 6254   5.355   5.425   3.422
 1785SOL    HW2 6255   5.220   5.474   3.344
 1786SOL     OW 6256   1.337   3.110   0.594
 1786SOL    HW1 6257   1.436   3.114   0.598
 1786SOL    HW2 6258   1.303   3.045   0.662
 1787SOL     OW 6259   1.915   0.656   4.965
 1787SOL    HW1 6260   1.841   0.665   5.032
 1787SOL    HW2 6261   1.889   0.590   4.894
 1788SOL     OW 6262   3.348   3.899   0.192
 1788SOL    HW1 6263   3.354   3.803   0.164
 1788SOL    HW2 6264   3.303   3.952   0.120
 1789SOL     OW 6265   6.412   2.321   2.290
 1789SOL    HW1 6266   6.353   2.401   2.300
 1789SOL    HW2 6267   6.357   2.238   2.295
 1790SOL     OW 6268   3.958   6.279   4.670
 1790SOL    HW1 6269   4.038   6.222   4.688
 1790SOL    HW2 6270   3.935   6.332   4.752
 1791SOL     OW 6271   0.723   1.859   4.769
 1791SOL    HW1 6272   0.646   1.826   4.715
 1791SOL    HW2 6273   0.772   1.780   4.807
 1792SOL     OW 6274   0.636   1.358   4.446
 1792SOL    HW1 6275   0.577   1.370   4.366
 1792SOL    HW2 6276   0.642   1.444   4.497
 1793SOL     OW 6277   6.896   0.175   3.569
 1793SOL    HW1 6278   6.955   0.125   3.505
 1793SOL    HW2 6279   6.893   0.272   3.542
 1794SOL     OW 6280   5.098   6.539   6.527
 1794SOL    HW1 6281   5.019   6.482   6.549
 1794SOL    HW2 6282   5.179   6.481   6.517
 1795SOL     OW 6283   6.959   4.975   2.179
 1795SOL    HW1 6284   6.945   5.061   2.129
 1795SOL    HW2 6285   0.010   4.926   2.139
 1796SOL     OW 6286   2.502   1.403   4.255
 1796SOL    HW1 6287   2.488   1.481   4.194
 1796SOL    HW2 6288   2.445   1.327   4.223
 1797SOL     OW 6289   1.607   0.406   5.913
 1797SOL    HW1 6290   1.606   0.382   6.010
 1797SOL    HW2 6291   1.637   0.327   5.859
 1798SOL     OW 6292   4.840   2.598   5.530
 1798SOL    HW1 6293   4.931   2.637   5.539
 1798SOL    HW2 6294   4.846   2.499   5.525
 1799SOL     OW 6295   5.907   1.942   6.483
 1799SOL    HW1 6296   5.824   1.994   6.503
 1799SOL    HW2 6297   5.974   1.957   6.556
 1800SOL     OW 6298   5.350   4.316   3.789
 1800SOL    HW1 6299   5.387   4.397   3.743
 1800SOL    HW2 6300   5.405   4.236   3.765
 1801SOL     OW 6301   1.322   1.614   2.939
 1801SOL    HW1 6302   1.394   1.618   3.008
 1801SOL    HW2 6303   1.347   1.548   2.869
 1802SOL     OW 6304   5.411   5.143   2.574
 1802SOL    HW1 6305   5.369   5.224   2.531
 1802SOL    HW2 6306   5.377   5.135   2.667
 1803SOL     OW 6307   6.520   6.234   1.236
 1803SOL    HW1 6308   6.560   6.268   1.151
 1803SOL    HW2 6309   6.593   6.212   1.301
 1804SOL     OW 6310   3.296   3.419   5.223
 1804SOL    HW1 6311   3.323   3.323   5.214
 1804SOL    HW2 6312   3.354   3.464   5.290
 1805SOL     OW 6313   0.767   4.001   5.850
 1805SOL    HW1 6314   0.833   3.937   5.812
 1805SOL    HW2 6315   0.756   4.079   5.789
 1806SOL     OW 6316   1.690   2.156   1.514
 1806SOL    HW1 6317   1.668   2.219   1.588
 1806SOL    HW2 6318   1.789   2.151   1.502
 1807SOL     OW 6319   6.139   2.047   6.580
 1807SOL    HW1 6320   6.166   2.133   6.536
 1807SOL    HW2 6321   6.190   2.036   6.665
 1808SOL     OW 6322   6.029   4.309   4.965
 1808SOL    HW1 6323   6.077   4.236   5.015
 1808SOL    HW2 6324   6.095   4.376   4.933
 1809SOL     OW 6325   2.493   2.389   4.560
 1809SOL    HW1 6326   2.458   2.421   4.472
 1809SOL    HW2 6327   2.592   2.381   4.556
 1810SOL     OW 6328   1.911   0.137   5.512
 1810SOL    HW1 6329   2.008   0.156   5.530
 1810SOL    HW2 6330   1.901   0.040   5.488
 1811SOL     OW 6331   4.316   4.848   3.324
 1811SOL    HW1 6332   4.321   4.918   3.395
 1811SOL    HW2 6333   4.339   4.887   3.236
 1812SOL     OW 6334   5.077   0.124   5.556
 1812SOL    HW1 6335   5.039   0.216   5.548
 1812SOL    HW2 6336   5.003   0.058   5.567
 1813SOL     OW 6337   4.211   4.897   1.308
 1813SOL    HW1 6338   4.281   4.936   1.368
 1813SOL    HW2 6339   4.226   4.928   1.214
 1814SOL     OW 6340   6.337   0.595   0.618
 1814SOL    HW1 6341   6.263   0.566   0.679
 1814SOL    HW2 6342   6.415   0.626   0.673
 1815SOL     OW 6343   6.050   1.134   2.261
 1815SOL    HW1 6344   6.024   1.059   2.321
 1815SOL    HW2 6345   5.979   1.147   2.191
 1816SOL     OW 6346   1.810   4.528   0.549
 1816SOL    HW1 6347   1.735   4.573   0.499
 1816SOL    HW2 6348   1.888   4.591   0.554
 1817SOL     OW 6349   3.821   6.889   3.194
 1817SOL    HW1 6350   3.760   6.861   3.269
 1817SOL    HW2 6351   3.829   6.989   3.194
 1818SOL     OW 6352   2.553   5.796   1.286
 1818SOL    HW1 6353   2.463   5.756   1.270
 1818SOL    HW2 6354   2.556   5.837   1.377
 1819SOL     OW 6355   1.408   6.054   1.849
 1819SOL    HW1 6356   1.395   6.024   1.755
 1819SOL    HW2 6357   1.333   6.019   1.905
 1820SOL     OW 6358   3.248   0.240   2.089
 1820SOL    HW1 6359   3.191   0.160   2.068
 1820SOL    HW2 6360   3.227   0.273   2.181
 1821SOL     OW 6361   2.392   0.894   1.863
 1821SOL    HW1 6362   2.332   0.960   1.818
 1821SOL    HW2 6363   2.379   0.900   1.962
 1822SOL     OW 6364   1.129   2.898   1.322
 1822SOL    HW1 6365   1.106   2.988   1.356
 1822SOL    HW2 6366   1.063   2.871   1.251
 1823SOL     OW 6367   3.373   5.799   3.140
 1823SOL    HW1 6368   3.383   5.758   3.050
 1823SOL    HW2 6369   3.302   5.869   3.138
 1824SOL     OW 6370   3.688   3.482   0.316
 1824SOL    HW1 6371   3.776   3.524   0.335
 1824SOL    HW2 6372   3.668   3.489   0.218
 1825SOL     OW 6373   1.835   1.998   4.526
 1825SOL    HW1 6374   1.914   2.057   4.541
 1825SOL    HW2 6375   1.790   2.024   4.440
 1826SOL     OW 6376   3.560   1.574   1.460
 1826SOL    HW1 6377   3.608   1.493   1.492
 1826SOL    HW2 6378   3.616   1.622   1.392
 1827SOL     OW 6379   6.757   5.502   1.171
 1827SOL    HW1 6380   6.665   5.471   1.194
 1827SOL    HW2 6381   6.812   5.425   1.138
 1828SOL     OW 6382   2.040   2.427   0.143
 1828SOL    HW1 6383   2.030   2.377   0.230
 1828SOL    HW2 6384   1.965   2.493   0.134
 1829SOL     OW 6385   3.329   0.629   3.033
 1829SOL    HW1 6386   3.273   0.561   2.986
 1829SOL    HW2 6387   3.426   0.605   3.023
 1830SOL     OW 6388   5.575   6.189   4.128
 1830SOL    HW1 6389   5.540   6.101   4.160
 1830SOL    HW2 6390   5.670   6.178   4.099
 1831SOL     OW 6391   5.827   0.096   1.675
 1831SOL    HW1 6392   5.852   0.001   1.692
 1831SOL    HW2 6393   5.761   0.127   1.743
 1832SOL     OW 6394   4.358   2.084   1.345
 1832SOL    HW1 6395   4.420   2.148   1.390
 1832SOL    HW2 6396   4.306   2.132   1.274
 1833SOL     OW 6397   5.372   0.877   0.864
 1833SOL    HW1 6398   5.366   0.917   0.772
 1833SOL    HW2 6399   5.380   0.950   0.931
 1834SOL     OW 6400   2.036   3.720   0.845
 1834SOL    HW1 6401   1.977   3.787   0.890
 1834SOL    HW2 6402   2.128   3.758   0.835
 1835SOL     OW 6403   0.546   4.413   1.899
 1835SOL    HW1 6404   0.528   4.346   1.971
 1835SOL    HW2 6405   0.517   4.504   1.931
 1836SOL     OW 6406   5.174   2.102   1.373
 1836SOL    HW1 6407   5.104   2.082   1.442
 1836SOL    HW2 6408   5.130   2.110   1.284
 1837SOL     OW 6409   1.081   0.353   4.654
 1837SOL    HW1 6410   1.092   0.307   4.566
 1837SOL    HW2 6411   1.008   0.308   4.706
 1838SOL     OW 6412   6.512   1.074   5.793
 1838SOL    HW1 6413   6.586   1.141   5.801
 1838SOL    HW2 6414   6.523   1.022   5.709
 1839SOL     OW 6415   0.280   1.709   5.096
 1839SOL    HW1 6416   0.281   1.770   5.175
 1839SOL    HW2 6417   0.360   1.727   5.039
 1840SOL     OW 6418   3.809   0.252   1.504
 1840SOL    HW1 6419   3.868   0.294   1.435
 1840SOL    HW2 6420   3.846   0.163   1.530
 1841SOL     OW 6421   2.237   1.420   3.751
 1841SOL    HW1 6422   2.253   1.334   3.703
 1841SOL    HW2 6423   2.213   1.402   3.846
 1842SOL     OW 6424   1.203   5.727   0.011
 1842SOL    HW1 6425   1.241   5.811   0.049
 1842SOL    HW2 6426   1.276   5.658   0.003
 1843SOL     OW 6427   6.106   1.443   3.963
 1843SOL    HW1 6428   6.130   1.521   3.904
 1843SOL    HW2 6429   6.127   1.358   3.916
 1844SOL     OW 6430   3.267   6.385   5.383
 1844SOL    HW1 6431   3.319   6.322   5.441
 1844SOL    HW2 6432   3.277   6.478   5.419
 1845SOL     OW 6433   3.275   6.543   4.850
 1845SOL    HW1 6434   3.230   6.619   4.897
 1845SOL    HW2 6435   3.348   6.578   4.792
 1846SOL     OW 6436   3.304   1.419   1.939
 1846SOL    HW1 6437   3.254   1.342   1.977
 1846SOL    HW2 6438   3.315   1.489   2.010
 1847SOL     OW 6439   1.436   0.837   6.582
 1847SOL    HW1 6440   1.345   0.832   6.540
 1847SOL    HW2 6441   1.460   0.933   6.597
 1848SOL     OW 6442   1.884   6.030   3.450
 1848SOL    HW1 6443   1.837   6.087   3.517
 1848SOL    HW2 6444   1.837   6.034   3.362
 1849SOL     OW 6445   4.035   2.686   1.718
 1849SOL    HW1 6446   4.109   2.692   1.650
 1849SOL    HW2 6447   4.007   2.590   1.727
 1850SOL     OW 6448   0.339   2.572   2.463
 1850SOL    HW1 6449   0.294   2.559   2.374
 1850SOL    HW2 6450   0.399   2.652   2.458
 1851SOL     OW 6451   0.456   3.417   6.635
 1851SOL    HW1 6452   0.522   3.408   6.710
 1851SOL    HW2 6453   0.391   3.491   6.656
 1852SOL     OW 6454   6.666   4.149   2.227
 1852SOL    HW1 6455   6.595   4.094   2.271
 1852SOL    HW2 6456   6.739   4.167   2.293
 1853SOL     OW 6457   0.513   2.481   3.325
 1853SOL    HW1 6458   0.453   2.445   3.396
 1853SOL    HW2 6459   0.587   2.534   3.367
 1854SOL     OW 6460   2.141   5.573   3.052
 1854SOL    HW1 6461   2.143   5.673   3.046
 1854SOL    HW2 6462   2.231   5.540   3.080
 1855SOL     OW 6463   5.277   3.566   5.688
 1855SOL    HW1 6464   5.247   3.475   5.720
 1855SOL    HW2 6465   5.299   3.561   5.591
 1856SOL     OW 6466   5.118   4.241   6.114
 1856SOL    HW1 6467   5.201   4.188   6.131
 1856SOL    HW2 6468   5.038   4.187   6.141
 1857SOL     OW 6469   4.124   2.062   6.379
 1857SOL    HW1 6470   4.141   2.161   6.381
 1857SOL    HW2 6471   4.113   2.028   6.472
 1858SOL     OW 6472   5.580   3.542   3.147
 1858SOL    HW1 6473   5.511   3.604   3.110
 1858SOL    HW2 6474   5.545   3.449   3.146
 1859SOL     OW 6475   4.707   1.821   4.210
 1859SOL    HW1 6476   4.644   1.892   4.181
 1859SOL    HW2 6477   4.663   1.732   4.205
 1860SOL     OW 6478   0.606   1.188   5.458
 1860SOL    HW1 6479   0.683   1.219   5.402
 1860SOL    HW2 6480   0.624   1.096   5.492
 1861SOL     OW 6481   6.746   6.706   2.202
 1861SOL    HW1 6482   6.724   6.608   2.201
 1861SOL    HW2 6483   6.661   6.759   2.201
 1862SOL     OW 6484   3.365   0.349   6.887
 1862SOL    HW1 6485   3.288   0.313   6.835
 1862SOL    HW2 6486   3.345   0.342   6.985
 1863SOL     OW 6487   0.386   2.680   3.178
 1863SOL    HW1 6488   0.433   2.606   3.225
 1863SOL    HW2 6489   0.322   2.724   3.241
 1864SOL     OW 6490   1.508   6.366   5.256
 1864SOL    HW1 6491   1.578   6.434   5.238
 1864SOL    HW2 6492   1.508   6.343   5.353
 1865SOL     OW 6493   3.989   6.835   0.303
 1865SOL    HW1 6494   4.008   6.742   0.271
 1865SOL    HW2 6495   4.059   6.862   0.370
 1866SOL     OW 6496   5.943   4.597   3.501
 1866SOL    HW1 6497   6.006   4.610   3.424
 1866SOL    HW2 6498   5.850   4.620   3.472
 1867SOL     OW 6499   0.652   4.167   0.200
 1867SOL    HW1 6500   0.704   4.101   0.145
 1867SOL    HW2 6501   0.583   4.119   0.255
 1868SOL     OW 6502   4.535   3.374   6.352
 1868SOL    HW1 6503   4.440   3.391   6.327
 1868SOL    HW2 6504   4.539   3.337   6.445
 1869SOL     OW 6505   6.976   3.328   4.854
 1869SOL    HW1 6506   0.008   3.387   4.797
 1869SOL    HW2 6507   6.909   3.283   4.795
 1870SOL     OW 6508   1.593   2.880   4.889
 1870SOL    HW1 6509   1.612   2.786   4.862
 1870SOL    HW2 6510   1.678   2.926   4.914
 1871SOL     OW 6511   0.489   0.957   6.657
 1871SOL    HW1 6512   0.569   1.001   6.698
 1871SOL    HW2 6513   0.406   0.996   6.696
 1872SOL     OW 6514   4.307   1.836   0.261
 1872SOL    HW1 6515   4.244   1.836   0.183
 1872SOL    HW2 6516   4.364   1.918   0.257
 1873SOL     OW 6517   6.055   1.246   5.799
 1873SOL    HW1 6518   6.117   1.170   5.777
 1873SOL    HW2 6519   6.063   1.269   5.896
 1874SOL     OW 6520   2.301   0.997   0.064
 1874SOL    HW1 6521   2.398   0.975   0.079
 1874SOL    HW2 6522   2.273   0.964   7.000
 1875SOL     OW 6523   0.053   0.641   0.851
 1875SOL    HW1 6524   0.065   0.732   0.811
 1875SOL    HW2 6525   7.004   0.644   0.917
 1876SOL     OW 6526   3.411   6.387   6.116
 1876SOL    HW1 6527   3.456   6.337   6.041
 1876SOL    HW2 6528   3.479   6.442   6.165
 1877SOL     OW 6529   0.264   1.479   3.212
 1877SOL    HW1 6530   0.363   1.489   3.202
 1877SOL    HW2 6531   0.239   1.487   3.309
 1878SOL     OW 6532   6.503   3.019   4.421
 1878SOL    HW1 6533   6.503   3.100   4.363
 1878SOL    HW2 6534   6.592   2.974   4.416
 1879SOL     OW 6535   1.923   5.516   3.549
 1879SOL    HW1 6536   1.901   5.612   3.568
 1879SOL    HW2 6537   1.842   5.470   3.511
 1880SOL     OW 6538   0.250   1.662   3.951
 1880SOL    HW1 6539   0.240   1.643   4.049
 1880SOL    HW2 6540   0.325   1.727   3.938
 1881SOL     OW 6541   0.952   2.467   2.905
 1881SOL    HW1 6542   0.871   2.468   2.962
 1881SOL    HW2 6543   0.929   2.502   2.814
 1882SOL     OW 6544   0.792   4.001   0.008
 1882SOL    HW1 6545   0.868   3.964   0.060
 1882SOL    HW2 6546   0.827   4.068   6.969
 1883SOL     OW 6547   1.258   3.060   3.738
 1883SOL    HW1 6548   1.317   2.980   3.741
 1883SOL    HW2 6549   1.298   3.133   3.793
 1884SOL     OW 6550   5.976   2.937   6.742
 1884SOL    HW1 6551   6.069   2.946   6.708
 1884SOL    HW2 6552   5.940   2.847   6.719
 1885SOL     OW 6553   0.147   2.249   6.556
 1885SOL    HW1 6554   0.165   2.187   6.632
 1885SOL    HW2 6555   0.125   2.340   6.591
 1886SOL     OW 6556   1.914   1.494   1.267
 1886SOL    HW1 6557   1.913   1.398   1.241
 1886SOL    HW2 6558   2.008   1.524   1.280
 1887SOL     OW 6559   1.002   5.860   6.301
 1887SOL    HW1 6560   0.961   5.951   6.304
 1887SOL    HW2 6561   0.947   5.797   6.355
 1888SOL     OW 6562   2.974   2.268   6.771
 1888SOL    HW1 6563   3.009   2.214   6.695
 1888SOL    HW2 6564   3.049   2.317   6.815
 1889SOL     OW 6565   5.466   2.655   6.532
 1889SOL    HW1 6566   5.503   2.592   6.464
 1889SOL    HW2 6567   5.398   2.606   6.589
 1890SOL     OW 6568   1.593   5.702   5.141
 1890SOL    HW1 6569   1.523   5.727   5.206
 1890SOL    HW2 6570   1.553   5.693   5.050
 1891SOL     OW 6571   5.490   2.314   3.418
 1891SOL    HW1 6572   5.392   2.332   3.422
 1891SOL    HW2 6573   5.506   2.216   3.430
 1892SOL     OW 6574   3.852   0.473   0.673
 1892SOL    HW1 6575   3.791   0.394   0.671
 1892SOL    HW2 6576   3.947   0.442   0.676
 1893SOL     OW 6577   3.154   2.706   6.361
 1893SOL    HW1 6578   3.201   2.618   6.357
 1893SOL    HW2 6579   3.063   2.697   6.321
 1894SOL     OW 6580   3.617   3.569   3.229
 1894SOL    HW1 6581   3.679   3.592   3.154
 1894SOL    HW2 6582   3.638   3.477   3.264
 1895SOL     OW 6583   5.946   0.793   2.478
 1895SOL    HW1 6584   5.936   0.767   2.382
 1895SOL    HW2 6585   6.004   0.874   2.484
 1896SOL     OW 6586   0.508   0.555   2.549
 1896SOL    HW1 6587   0.569   0.538   2.471
 1896SOL    HW2 6588   0.413   0.537   2.521
 1897SOL     OW 6589   1.178   4.961   2.231
 1897SOL    HW1 6590   1.081   4.968   2.207
 1897SOL    HW2 6591   1.192   5.000   2.322
 1898SOL     OW 6592   3.517   4.934   2.530
 1898SOL    HW1 6593   3.568   4.904   2.610
 1898SOL    HW2 6594   3.420   4.912   2.542
 1899SOL     OW 6595   0.986   1.884   2.664
 1899SOL    HW1 6596   1.021   1.924   2.580
 1899SOL    HW2 6597   0.948   1.956   2.722
 1900SOL     OW 6598   1.195   0.153   5.785
 1900SOL    HW1 6599   1.283   0.131   5.827
 1900SOL    HW2 6600   1.199   0.244   5.744
 1901SOL     OW 6601   1.901   1.357   1.586
 1901SOL    HW1 6602   1.854   1.374   1.672
 1901SOL    HW2 6603   1.849   1.400   1.511
 1902SOL     OW 6604   2.344   2.586   4.969
 1902SOL    HW1 6605   2.416   2.561   4.906
 1902SOL    HW2 6606   2.383   2.634   5.048
 1903SOL     OW 6607   6.097   2.893   3.462
 1903SOL    HW1 6608   6.109   2.991   3.476
 1903SOL    HW2 6609   6.059   2.851   3.545
 1904SOL     OW 6610   5.748   6.698   4.508
 1904SOL    HW1 6611   5.703   6.613   4.481
 1904SOL    HW2 6612   5.762   6.698   4.607
 1905SOL     OW 6613   1.965   0.997   4.058
 1905SOL    HW1 6614   1.916   1.082   4.076
 1905SOL    HW2 6615   2.053   1.017   4.016
 1906SOL     OW 6616   2.439   0.053   5.348
 1906SOL    HW1 6617   2.457   0.006   5.262
 1906SOL    HW2 6618   2.491   0.138   5.352
 1907SOL     OW 6619   3.229   6.624   3.378
 1907SOL    HW1 6620   3.143   6.673   3.367
 1907SOL    HW2 6621   3.289   6.644   3.301
 1908SOL     OW 6622   3.931   0.306   5.135
 1908SOL    HW1 6623   3.835   0.332   5.147
 1908SOL    HW2 6624   3.989   0.385   5.156
 1909SOL     OW 6625   0.856   4.145   2.524
 1909SOL    HW1 6626   0.820   4.231   2.561
 1909SOL    HW2 6627   0.854   4.075   2.595
 1910SOL     OW 6628   0.079   3.033   6.335
 1910SOL    HW1 6629   7.024   3.044   6.391
 1910SOL    HW2 6630   0.066   2.954   6.274
 1911SOL     OW 6631   5.484   3.723   5.148
 1911SOL    HW1 6632   5.386   3.722   5.168
 1911SOL    HW2 6633   5.498   3.717   5.049
 1912SOL     OW 6634   2.797   0.021   0.873
 1912SOL    HW1 6635   2.869   0.003   0.940
 1912SOL    HW2 6636   2.760   6.961   0.839
 1913SOL     OW 6637   1.162   5.897   5.282
 1913SOL    HW1 6638   1.065   5.917   5.269
 1913SOL    HW2 6639   1.179   5.873   5.377
 1914SOL     OW 6640   3.717   2.923   6.524
 1914SOL    HW1 6641   3.665   2.863   6.463
 1914SOL    HW2 6642   3.667   2.935   6.610
 1915SOL     OW 6643   3.548   2.157   5.150
 1915SOL    HW1 6644   3.472   2.147   5.086
 1915SOL    HW2 6645   3.552   2.076   5.209
 1916SOL     OW 6646   3.305   5.658   1.096
 1916SOL    HW1 6647   3.279   5.565   1.071
 1916SOL    HW2 6648   3.227   5.720   1.083
 1917SOL     OW 6649   2.983   3.394   4.927
 1917SOL    HW1 6650   2.987   3.313   4.985
 1917SOL    HW2 6651   3.075   3.430   4.914
 1918SOL     OW 6652   0.997   1.228   5.946
 1918SOL    HW1 6653   1.065   1.191   6.009
 1918SOL    HW2 6654   0.918   1.167   5.942
 1919SOL     OW 6655   2.522   0.605   1.582
 1919SOL    HW1 6656   2.595   0.544   1.550
 1919SOL    HW2 6657   2.552   0.651   1.665
 1920SOL     OW 6658   1.790   4.842   2.637
 1920SOL    HW1 6659   1.807   4.766   2.699
 1920SOL    HW2 6660   1.781   4.927   2.689
 1921SOL     OW 6661   0.965   4.871   0.163
 1921SOL    HW1 6662   0.884   4.899   0.112
 1921SOL    HW2 6663   1.046   4.910   0.120
 1922SOL     OW 6664   2.775   4.378   0.785
 1922SOL    HW1 6665   2.811   4.315   0.854
 1922SOL    HW2 6666   2.834   4.376   0.705
 1923SOL     OW 6667   3.027   0.772   5.732
 1923SOL    HW1 6668   3.112   0.773   5.680
 1923SOL    HW2 6669   2.980   0.860   5.722
 1924SOL     OW 6670   4.328   5.420   1.623
 1924SOL    HW1 6671   4.380   5.387   1.545
 1924SOL    HW2 6672   4.371   5.390   1.708
 1925SOL     OW 6673   1.413   4.356   0.322
 1925SOL    HW1 6674   1.430   4.271   0.274
 1925SOL    HW2 6675   1.421   4.341   0.421
 1926SOL     OW 6676   2.122   6.160   3.155
 1926SOL    HW1 6677   2.193   6.201   3.213
 1926SOL    HW2 6678   2.157   6.075   3.116
 1927SOL     OW 6679   3.290   4.099   6.154
 1927SOL    HW1 6680   3.232   4.028   6.113
 1927SOL    HW2 6681   3.267   4.188   6.115
 1928SOL     OW 6682   6.293   4.538   5.888
 1928SOL    HW1 6683   6.391   4.519   5.880
 1928SOL    HW2 6684   6.242   4.478   5.826
 1929SOL     OW 6685   1.095   5.299   1.149
 1929SOL    HW1 6686   1.145   5.371   1.197
 1929SOL    HW2 6687   1.157   5.249   1.089
 1930SOL     OW 6688   3.664   3.710   6.820
 1930SOL    HW1 6689   3.644   3.702   6.722
 1930SOL    HW2 6690   3.578   3.723   6.870
 1931SOL     OW 6691   0.503   3.235   2.647
 1931SOL    HW1 6692   0.427   3.178   2.618
 1931SOL    HW2 6693   0.559   3.186   2.714
 1932SOL     OW 6694   4.915   3.716   3.677
 1932SOL    HW1 6695   4.978   3.716   3.754
 1932SOL    HW2 6696   4.930   3.634   3.622
 1933SOL     OW 6697   2.129   4.267   0.791
 1933SOL    HW1 6698   2.087   4.354   0.765
 1933SOL    HW2 6699   2.208   4.283   0.849
 1934SOL     OW 6700   0.700   0.196   5.534
 1934SOL    HW1 6701   0.793   0.199   5.497
 1934SOL    HW2 6702   0.642   0.138   5.476
 1935SOL     OW 6703   4.460   6.111   3.877
 1935SOL    HW1 6704   4.374   6.092   3.830
 1935SOL    HW2 6705   4.446   6.107   3.976
 1936SOL     OW 6706   6.054   3.775   3.866
 1936SOL    HW1 6707   6.014   3.852   3.815
 1936SOL    HW2 6708   5.984   3.735   3.925
 1937SOL     OW 6709   3.855   0.132   1.219
 1937SOL    HW1 6710   3.780   0.081   1.262
 1937SOL    HW2 6711   3.821   0.220   1.185
 1938SOL     OW 6712   1.708   2.001   1.061
 1938SOL    HW1 6713   1.722   2.100   1.055
 1938SOL    HW2 6714   1.673   1.978   1.152
 1939SOL     OW 6715   6.830   0.251   4.921
 1939SOL    HW1 6716   6.735   0.247   4.892
 1939SOL    HW2 6717   6.852   0.343   4.954
 1940SOL     OW 6718   5.061   4.896   0.833
 1940SOL    HW1 6719   5.096   4.819   0.780
 1940SOL    HW2 6720   5.114   4.978   0.812
 1941SOL     OW 6721   0.243   3.972   3.624
 1941SOL    HW1 6722   0.283   4.043   3.567
 1941SOL    HW2 6723   0.267   3.882   3.587
 1942SOL     OW 6724   5.585   1.165   1.096
 1942SOL    HW1 6725   5.579   1.240   1.030
 1942SOL    HW2 6726   5.503   1.165   1.153
 1943SOL     OW 6727   2.960   6.214   3.031
 1943SOL    HW1 6728   3.017   6.146   3.078
 1943SOL    HW2 6729   2.875   6.226   3.081
 1944SOL     OW 6730   6.456   2.668   0.103
 1944SOL    HW1 6731   6.405   2.683   0.019
 1944SOL    HW2 6732   6.503   2.753   0.129
 1945SOL     OW 6733   3.863   5.797   1.073
 1945SOL    HW1 6734   3.855   5.771   1.170
 1945SOL    HW2 6735   3.957   5.781   1.043
 1946SOL     OW 6736   6.527   0.024   1.135
 1946SOL    HW1 6737   6.550   0.071   1.220
 1946SOL    HW2 6738   6.606   0.024   1.074
 1947SOL     OW 6739   4.888   6.347   5.047
 1947SOL    HW1 6740   4.943   6.409   4.990
 1947SOL    HW2 6741   4.882   6.383   5.140
 1948SOL     OW 6742   5.752   5.591   4.402
 1948SOL    HW1 6743   5.747   5.631   4.311
 1948SOL    HW2 6744   5.812   5.511   4.401
 1949SOL     OW 6745   3.248   4.609   6.290
 1949SOL    HW1 6746   3.174   4.640   6.349
 1949SOL    HW2 6747   3.267   4.512   6.307
 1950SOL     OW 6748   3.816   4.258   7.010
 1950SOL    HW1 6749   3.716   4.259   7.016
 1950SOL    HW2 6750   3.847   4.335   6.954
 1951SOL     OW 6751   5.993   3.050   7.018
 1951SOL    HW1 6752   5.984   2.993   6.936
 1951SOL    HW2 6753   6.072   3.110   7.008
 1952SOL     OW 6754   4.679   2.894   0.390
 1952SOL    HW1 6755   4.636   2.956   0.456
 1952SOL    HW2 6756   4.728   2.822   0.439
 1953SOL     OW 6757   6.764   1.600   5.939
 1953SOL    HW1 6758   6.686   1.657   5.912
 1953SOL    HW2 6759   6.848   1.653   5.929
 1954SOL     OW 6760   5.984   0.565   2.961
 1954SOL    HW1 6761   5.952   0.659   2.956
 1954SOL    HW2 6762   6.082   0.564   2.986
 1955SOL     OW 6763   0.912   1.481   2.793
 1955SOL    HW1 6764   0.905   1.433   2.881
 1955SOL    HW2 6765   0.837   1.546   2.785
 1956SOL     OW 6766   5.109   6.861   2.758
 1956SOL    HW1 6767   5.112   6.873   2.659
 1956SOL    HW2 6768   5.148   6.942   2.803
 1957SOL     OW 6769   5.713   4.640   4.046
 1957SOL    HW1 6770   5.807   4.647   4.081
 1957SOL    HW2 6771   5.667   4.563   4.090
 1958SOL     OW 6772   4.962   2.340   2.303
 1958SOL    HW1 6773   4.984   2.244   2.316
 1958SOL    HW2 6774   4.863   2.350   2.288
 1959SOL     OW 6775   1.215   0.791   4.940
 1959SOL    HW1 6776   1.143   0.835   4.888
 1959SOL    HW2 6777   1.188   0.697   4.961
 1960SOL     OW 6778   6.641   4.412   2.114
 1960SOL    HW1 6779   6.667   4.320   2.145
 1960SOL    HW2 6780   6.680   4.480   2.175
 1961SOL     OW 6781   6.170   4.160   3.829
 1961SOL    HW1 6782   6.162   4.253   3.791
 1961SOL    HW2 6783   6.126   4.158   3.919
 1962SOL     OW 6784   1.400   6.699   3.920
 1962SOL    HW1 6785   1.402   6.656   4.010
 1962SOL    HW2 6786   1.491   6.732   3.897
 1963SOL     OW 6787   0.815   2.231   1.106
 1963SOL    HW1 6788   0.856   2.156   1.054
 1963SOL    HW2 6789   0.801   2.309   1.045
 1964SOL     OW 6790   4.464   4.502   0.718
 1964SOL    HW1 6791   4.535   4.558   0.759
 1964SOL    HW2 6792   4.374   4.536   0.746
 1965SOL     OW 6793   1.604   3.161   4.659
 1965SOL    HW1 6794   1.577   3.152   4.755
 1965SOL    HW2 6795   1.608   3.258   4.635
 1966SOL     OW 6796   6.974   6.406   0.963
 1966SOL    HW1 6797   0.033   6.457   0.963
 1966SOL    HW2 6798   6.993   6.308   0.951
 1967SOL     OW 6799   5.597   2.274   5.856
 1967SOL    HW1 6800   5.502   2.299   5.874
 1967SOL    HW2 6801   5.612   2.268   5.758
 1968SOL     OW 6802   1.858   6.471   6.155
 1968SOL    HW1 6803   1.767   6.437   6.131
 1968SOL    HW2 6804   1.862   6.570   6.139
 1969SOL     OW 6805   0.440   1.475   1.343
 1969SOL    HW1 6806   0.447   1.472   1.442
 1969SOL    HW2 6807   0.351   1.438   1.315
 1970SOL     OW 6808   3.124   6.331   6.216
 1970SOL    HW1 6809   3.141   6.421   6.176
 1970SOL    HW2 6810   3.025   6.319   6.228
 1971SOL     OW 6811   0.344   0.459   5.358
 1971SOL    HW1 6812   0.396   0.427   5.278
 1971SOL    HW2 6813   0.271   0.394   5.379
 1972SOL     OW 6814   5.620   2.349   2.031
 1972SOL    HW1 6815   5.558   2.427   2.046
 1972SOL    HW2 6816   5.585   2.293   1.956
 1973SOL     OW 6817   3.142   2.975   6.955
 1973SOL    HW1 6818   3.117   2.892   7.005
 1973SOL    HW2 6819   3.093   2.977   6.867
 1974SOL     OW 6820   5.953   6.983   5.295
 1974SOL    HW1 6821   5.984   6.980   5.390
 1974SOL    HW2 6822   6.013   6.927   5.238
 1975SOL     OW 6823   2.155   1.343   3.998
 1975SOL    HW1 6824   2.155   1.373   4.093
 1975SOL    HW2 6825   2.150   1.243   3.994
 1976SOL     OW 6826   0.410   6.996   6.950
 1976SOL    HW1 6827   0.415   0.049   7.009
 1976SOL    HW2 6828   0.322   6.949   6.964
 1977SOL     OW 6829   1.101   3.047   5.161
 1977SOL    HW1 6830   1.159   3.086   5.232
 1977SOL    HW2 6831   1.098   3.109   5.082
 1978SOL     OW 6832   2.228   6.563   2.825
 1978SOL    HW1 6833   2.213   6.485   2.885
 1978SOL    HW2 6834   2.305   6.544   2.763
 1979SOL     OW 6835   5.875   3.840   6.217
 1979SOL    HW1 6836   5.889   3.742   6.207
 1979SOL    HW2 6837   5.905   3.869   6.308
 1980SOL     OW 6838   3.233   6.887   4.729
 1980SOL    HW1 6839   3.234   6.848   4.821
 1980SOL    HW2 6840   3.310   6.950   4.719
 1981SOL     OW 6841   6.945   2.499   2.433
 1981SOL    HW1 6842   6.859   2.464   2.396
 1981SOL    HW2 6843   6.927   2.583   2.485
 1982SOL     OW 6844   0.188   4.067   4.571
 1982SOL    HW1 6845   0.260   4.077   4.640
 1982SOL    HW2 6846   0.230   4.065   4.480
 1983SOL     OW 6847   1.238   1.161   2.761
 1983SOL    HW1 6848   1.177   1.162   2.682
 1983SOL    HW2 6849   1.256   1.067   2.788
 1984SOL     OW 6850   4.993   1.637   5.282
 1984SOL    HW1 6851   4.991   1.620   5.380
 1984SOL    HW2 6852   4.922   1.703   5.258
 1985SOL     OW 6853   1.674   6.145   2.244
 1985SOL    HW1 6854   1.705   6.090   2.323
 1985SOL    HW2 6855   1.753   6.170   2.188
 1986SOL     OW 6856   2.192   1.517   6.689
 1986SOL    HW1 6857   2.189   1.521   6.788
 1986SOL    HW2 6858   2.169   1.606   6.650
 1987SOL     OW 6859   1.998   2.425   2.378
 1987SOL    HW1 6860   1.932   2.470   2.438
 1987SOL    HW2 6861   2.003   2.327   2.400
 1988SOL     OW 6862   6.243   3.883   0.797
 1988SOL    HW1 6863   6.211   3.866   0.891
 1988SOL    HW2 6864   6.253   3.982   0.783
 1989SOL     OW 6865   2.086   5.289   5.245
 1989SOL    HW1 6866   2.065   5.385   5.225
 1989SOL    HW2 6867   2.165   5.260   5.191
 1990SOL     OW 6868   3.526   6.081   0.677
 1990SOL    HW1 6869   3.491   6.001   0.628
 1990SOL    HW2 6870   3.596   6.126   0.621
 1991SOL     OW 6871   3.253   5.451   6.881
 1991SOL    HW1 6872   3.331   5.393   6.856
 1991SOL    HW2 6873   3.287   5.538   6.917
 1992SOL     OW 6874   0.490   0.725   0.653
 1992SOL    HW1 6875   0.437   0.712   0.737
 1992SOL    HW2 6876   0.530   0.817   0.653
 1993SOL     OW 6877   3.443   2.477   5.374
 1993SOL    HW1 6878   3.520   2.538   5.357
 1993SOL    HW2 6879   3.386   2.472   5.292
 1994SOL     OW 6880   0.813   1.463   0.515
 1994SOL    HW1 6881   0.839   1.504   0.427
 1994SOL    HW2 6882   0.882   1.484   0.583
 1995SOL     OW 6883   5.156   2.501   3.793
 1995SOL    HW1 6884   5.074   2.443   3.797
 1995SOL    HW2 6885   5.186   2.510   3.698
 1996SOL     OW 6886   2.012   3.347   0.574
 1996SOL    HW1 6887   2.019   3.321   0.671
 1996SOL    HW2 6888   2.086   3.305   0.522
 1997SOL     OW 6889   3.234   1.429   4.580
 1997SOL    HW1 6890   3.274   1.519   4.562
 1997SOL    HW2 6891   3.305   1.359   4.577
 1998SOL     OW 6892   2.745   4.532   6.809
 1998SOL    HW1 6893   2.671   4.470   6.783
 1998SOL    HW2 6894   2.706   4.618   6.843
 1999SOL     OW 6895   2.306   6.117   6.681
 1999SOL    HW1 6896   2.247   6.195   6.700
 1999SOL    HW2 6897   2.260   6.054   6.620
 2000SOL     OW 6898   4.280   2.359   5.442
 2000SOL    HW1 6899   4.257   2.442   5.493
 2000SOL    HW2 6900   4.271   2.279   5.501
 2001SOL     OW 6901   3.115   0.407   1.391
 2001SOL    HW1 6902   3.087   0.467   1.466
 2001SOL    HW2 6903   3.151   0.462   1.316
 2002SOL     OW 6904   0.375   4.611   6.722
 2002SOL    HW1 6905   0.390   4.620   6.623
 2002SOL    HW2 6906   0.449   4.658   6.771
 2003SOL     OW 6907   5.898   5.668   2.572
 2003SOL    HW1 6908   5.831   5.655   2.645
 2003SOL    HW2 6909   5.977   5.610   2.588
 2004SOL     OW 6910   4.839   1.651   4.942
 2004SOL    HW1 6911   4.847   1.741   4.983
 2004SOL    HW2 6912   4.918   1.596   4.969
 2005SOL     OW 6913   0.195   5.129   0.163
 2005SOL    HW1 6914   0.167   5.218   0.202
 2005SOL    HW2 6915   0.159   5.056   0.221
 2006SOL     OW 6916   5.641   0.147   3.622
 2006SOL    HW1 6917   5.619   0.107   3.533
 2006SOL    HW2 6918   5.680   0.238   3.608
 2007SOL     OW 6919   4.582   4.763   1.142
 2007SOL    HW1 6920   4.513   4.705   1.099
 2007SOL    HW2 6921   4.673   4.733   1.115
 2008SOL     OW 6922   2.067   4.858   3.998
 2008SOL    HW1 6923   2.131   4.930   3.972
 2008SOL    HW2 6924   2.118   4.772   4.010
 2009SOL     OW 6925   5.151   0.789   2.241
 2009SOL    HW1 6926   5.083   0.794   2.168
 2009SOL    HW2 6927   5.227   0.851   2.220
 2010SOL     OW 6928   1.860   1.906   1.764
 2010SOL    HW1 6929   1.948   1.890   1.718
 2010SOL    HW2 6930   1.797   1.949   1.700
 2011SOL     OW 6931   6.583   6.420   5.140
 2011SOL    HW1 6932   6.532   6.401   5.056
 2011SOL    HW2 6933   6.651   6.491   5.123
 2012SOL     OW 6934   1.441   4.054   2.333
 2012SOL    HW1 6935   1.463   4.152   2.335
 2012SOL    HW2 6936   1.525   4.000   2.339
 2013SOL     OW 6937   6.326   2.536   3.146
 2013SOL    HW1 6938   6.288   2.600   3.213
 2013SOL    HW2 6939   6.314   2.442   3.178
 2014SOL     OW 6940   2.574   5.823   3.430
 2014SOL    HW1 6941   2.492   5.842   3.485
 2014SOL    HW2 6942   2.546   5.793   3.339
 2015SOL     OW 6943   2.160   0.576   0.009
 2015SOL    HW1 6944   2.151   0.529   0.096
 2015SOL    HW2 6945   2.091   0.647   0.001
 2016SOL     OW 6946   1.745   5.840   5.802
 2016SOL    HW1 6947   1.751   5.760   5.862
 2016SOL    HW2 6948   1.832   5.850   5.752
 2017SOL     OW 6949   3.534   6.962   4.410
 2017SOL    HW1 6950   3.578   6.932   4.495
 2017SOL    HW2 6951   3.569   0.024   4.383
 2018SOL     OW 6952   4.869   1.167   5.503
 2018SOL    HW1 6953   4.887   1.070   5.518
 2018SOL    HW2 6954   4.945   1.221   5.540
 2019SOL     OW 6955   5.207   2.820   6.446
 2019SOL    HW1 6956   5.146   2.768   6.506
 2019SOL    HW2 6957   5.302   2.798   6.466
 2020SOL     OW 6958   1.816   6.501   5.293
 2020SOL    HW1 6959   1.823   6.429   5.223
 2020SOL    HW2 6960   1.883   6.572   5.274
 2021SOL     OW 6961   0.468   6.131   4.830
 2021SOL    HW1 6962   0.547   6.129   4.891
 2021SOL    HW2 6963   0.499   6.148   4.737
 2022SOL     OW 6964   1.480   3.649   3.383
 2022SOL    HW1 6965   1.500   3.621   3.477
 2022SOL    HW2 6966   1.463   3.747   3.381
 2023SOL     OW 6967   6.693   0.706   6.663
 2023SOL    HW1 6968   6.711   0.628   6.603
 2023SOL    HW2 6969   6.597   0.733   6.654
 2024SOL     OW 6970   0.293   6.663   3.805
 2024SOL    HW1 6971   0.389   6.692   3.802
 2024SOL    HW2 6972   0.289   6.565   3.826
 2025SOL     OW 6973   2.975   1.390   3.299
 2025SOL    HW1 6974   2.887   1.351   3.274
 2025SOL    HW2 6975   3.046   1.319   3.293
 2026SOL     OW 6976   0.162   2.979   5.443
 2026SOL    HW1 6977   0.233   2.935   5.499
 2026SOL    HW2 6978   0.105   3.037   5.500
 2027SOL     OW 6979   1.295   0.012   0.494
 2027SOL    HW1 6980   1.304   0.111   0.486
 2027SOL    HW2 6981   1.201   7.015   0.519
 2028SOL     OW 6982   2.833   6.260   4.961
 2028SOL    HW1 6983   2.806   6.315   5.040
 2028SOL    HW2 6984   2.820   6.163   4.982
 2029SOL     OW 6985   6.876   1.020   0.269
 2029SOL    HW1 6986   6.902   1.040   0.364
 2029SOL    HW2 6987   6.886   0.922   0.252
 2030SOL     OW 6988   2.875   0.773   3.228
 2030SOL    HW1 6989   2.939   0.785   3.303
 2030SOL    HW2 6990   2.805   0.706   3.254
 2031SOL     OW 6991   6.644   5.864   1.362
 2031SOL    HW1 6992   6.550   5.897   1.353
 2031SOL    HW2 6993   6.686   5.903   1.444
 2032SOL     OW 6994   4.898   0.472   2.266
 2032SOL    HW1 6995   4.857   0.518   2.345
 2032SOL    HW2 6996   4.954   0.396   2.297
 2033SOL     OW 6997   3.559   3.476   5.641
 2033SOL    HW1 6998   3.548   3.378   5.625
 2033SOL    HW2 6999   3.492   3.526   5.588
 2034SOL     OW 7000   2.480   5.569   5.843
 2034SOL    HW1 7001   2.453   5.655   5.799
 2034SOL    HW2 7002   2.436   5.493   5.797
 2035SOL     OW 7003   6.608   6.197   3.875
 2035SOL    HW1 7004   6.568   6.188   3.966
 2035SOL    HW2 7005   6.577   6.281   3.832
 2036SOL     OW 7006   1.154   4.382   2.765
 2036SOL    HW1 7007   1.154   4.291   2.806
 2036SOL    HW2 7008   1.193   4.448   2.829
 2037SOL     OW 7009   6.520   3.218   5.499
 2037SOL    HW1 7010   6.611   3.190   5.466
 2037SOL    HW2 7011   6.484   3.147   5.560
 2038SOL     OW 7012   1.845   2.629   0.151
 2038SOL    HW1 7013   1.877   2.723   0.164
 2038SOL    HW2 7014   1.747   2.630   0.132
 2039SOL     OW 7015   0.148   5.407   4.018
 2039SOL    HW1 7016   0.198   5.417   3.931
 2039SOL    HW2 7017   0.050   5.414   4.001
 2040SOL     OW 7018   3.093   3.270   5.408
 2040SOL    HW1 7019   3.000   3.307   5.399
 2040SOL    HW2 7020   3.153   3.313   5.341
 2041SOL     OW 7021   0.978   6.265   6.072
 2041SOL    HW1 7022   0.931   6.239   5.988
 2041SOL    HW2 7023   0.971   6.363   6.086
 2042SOL     OW 7024   4.699   6.447   0.152
 2042SOL    HW1 7025   4.727   6.538   0.120
 2042SOL    HW2 7026   4.781   6.392   0.170
 2043SOL     OW 7027   6.226   3.942   3.619
 2043SOL    HW1 7028   6.214   4.001   3.540
 2043SOL    HW2 7029   6.281   3.989   3.689
 2044SOL     OW 7030   6.589   0.567   2.159
 2044SOL    HW1 7031   6.568   0.664   2.146
 2044SOL    HW2 7032   6.687   0.554   2.167
 2045SOL     OW 7033   1.213   5.208   4.046
 2045SOL    HW1 7034   1.163   5.158   3.976
 2045SOL    HW2 7035   1.178   5.183   4.136
 2046SOL     OW 7036   6.875   2.271   3.867
 2046SOL    HW1 7037   6.876   2.280   3.966
 2046SOL    HW2 7038   6.890   2.361   3.825
 2047SOL     OW 7039   0.087   2.847   6.899
 2047SOL    HW1 7040   0.020   2.921   6.891
 2047SOL    HW2 7041   0.173   2.877   6.856
 2048SOL     OW 7042   1.741   6.724   6.056
 2048SOL    HW1 7043   1.814   6.788   6.033
 2048SOL    HW2 7044   1.659   6.746   6.004
 2049SOL     OW 7045   6.108   1.774   4.927
 2049SOL    HW1 7046   6.130   1.803   5.020
 2049SOL    HW2 7047   6.118   1.674   4.920
 2050SOL     OW 7048   6.372   2.288   3.782
 2050SOL    HW1 7049   6.272   2.296   3.777
 2050SOL    HW2 7050   6.414   2.356   3.723
 2051SOL     OW 7051   0.815   5.973   6.896
 2051SOL    HW1 7052   0.742   5.905   6.901
 2051SOL    HW2 7053   0.776   6.063   6.875
 2052SOL     OW 7054   1.363   3.406   1.039
 2052SOL    HW1 7055   1.449   3.369   1.073
 2052SOL    HW2 7056   1.312   3.335   0.992
 2053SOL     OW 7057   6.410   6.188   4.066
 2053SOL    HW1 7058   6.360   6.116   4.019
 2053SOL    HW2 7059   6.360   6.274   4.059
 2054SOL     OW 7060   3.283   4.078   3.117
 2054SOL    HW1 7061   3.308   4.012   3.046
 2054SOL    HW2 7062   3.353   4.149   3.123
 2055SOL     OW 7063   5.853   3.931   4.423
 2055SOL    HW1 7064   5.822   3.991   4.349
 2055SOL    HW2 7065   5.830   3.836   4.402
 2056SOL     OW 7066   4.466   5.586   2.242
 2056SOL    HW1 7067   4.430   5.495   2.261
 2056SOL    HW2 7068   4.390   5.652   2.241
 2057SOL     OW 7069   5.097   4.503   6.212
 2057SOL    HW1 7070   5.119   4.406   6.207
 2057SOL    HW2 7071   5.117   4.537   6.304
 2058SOL     OW 7072   0.507   0.819   2.919
 2058SOL    HW1 7073   0.522   0.910   2.958
 2058SOL    HW2 7074   0.412   0.811   2.890
 2059SOL     OW 7075   1.882   5.989   6.810
 2059SOL    HW1 7076   1.944   6.053   6.854
 2059SOL    HW2 7077   1.789   6.005   6.843
 2060SOL     OW 7078   0.560   4.330   1.339
 2060SOL    HW1 7079   0.518   4.261   1.399
 2060SOL    HW2 7080   0.639   4.370   1.385
 2061SOL     OW 7081   1.280   1.835   2.482
 2061SOL    HW1 7082   1.190   1.845   2.439
 2061SOL    HW2 7083   1.268   1.830   2.581
 2062SOL     OW 7084   6.621   5.491   4.953
 2062SOL    HW1 7085   6.561   5.412   4.939
 2062SOL    HW2 7086   6.716   5.460   4.958
 2063SOL     OW 7087   1.377   6.526   5.755
 2063SOL    HW1 7088   1.335   6.509   5.844
 2063SOL    HW2 7089   1.477   6.521   5.764
 2064SOL     OW 7090   0.746   2.603   5.511
 2064SOL    HW1 7091   0.703   2.691   5.491
 2064SOL    HW2 7092   0.844   2.618   5.527
 2065SOL     OW 7093   5.868   2.328   5.710
 2065SOL    HW1 7094   5.787   2.335   5.652
 2065SOL    HW2 7095   5.923   2.250   5.680
 2066SOL     OW 7096   0.345   4.573   4.118
 2066SOL    HW1 7097   0.376   4.658   4.160
 2066SOL    HW2 7098   0.417   4.504   4.126
 2067SOL     OW 7099   6.733   5.791   1.101
 2067SOL    HW1 7100   6.703   5.814   1.194
 2067SOL    HW2 7101   6.743   5.692   1.092
 2068SOL     OW 7102   2.147   0.326   4.357
 2068SOL    HW1 7103   2.062   0.378   4.368
 2068SOL    HW2 7104   2.129   0.241   4.308
 2069SOL     OW 7105   6.494   2.463   3.596
 2069SOL    HW1 7106   6.473   2.556   3.626
 2069SOL    HW2 7107   6.584   2.461   3.552
 2070SOL     OW 7108   1.171   0.678   1.335
 2070SOL    HW1 7109   1.183   0.646   1.241
 2070SOL    HW2 7110   1.150   0.601   1.394
 2071SOL     OW 7111   5.934   0.425   5.795
 2071SOL    HW1 7112   5.847   0.416   5.844
 2071SOL    HW2 7113   6.008   0.441   5.860
 2072SOL     OW 7114   4.366   5.250   4.189
 2072SOL    HW1 7115   4.456   5.217   4.220
 2072SOL    HW2 7116   4.368   5.262   4.090
 2073SOL     OW 7117   4.441   6.640   5.069
 2073SOL    HW1 7118   4.470   6.632   5.164
 2073SOL    HW2 7119   4.475   6.561   5.018
 2074SOL     OW 7120   1.872   2.404   6.426
 2074SOL    HW1 7121   1.852   2.334   6.358
 2074SOL    HW2 7122   1.969   2.427   6.423
 2075SOL     OW 7123   6.958   2.689   3.328
 2075SOL    HW1 7124   6.976   2.637   3.245
 2075SOL    HW2 7125   6.879   2.749   3.313
 2076SOL     OW 7126   5.695   0.429   5.931
 2076SOL    HW1 7127   5.708   0.393   6.023
 2076SOL    HW2 7128   5.630   0.372   5.882
 2077SOL     OW 7129   5.864   1.913   3.268
 2077SOL    HW1 7130   5.866   1.916   3.168
 2077SOL    HW2 7131   5.770   1.897   3.299
 2078SOL     OW 7132   1.267   5.867   5.927
 2078SOL    HW1 7133   1.211   5.924   5.866
 2078SOL    HW2 7134   1.218   5.784   5.950
 2079SOL     OW 7135   6.024   1.865   2.847
 2079SOL    HW1 7136   6.121   1.892   2.848
 2079SOL    HW2 7137   5.975   1.915   2.918
 2080SOL     OW 7138   1.806   0.211   4.780
 2080SOL    HW1 7139   1.847   0.134   4.829
 2080SOL    HW2 7140   1.773   0.180   4.691
 2081SOL     OW 7141   0.606   6.131   4.576
 2081SOL    HW1 7142   0.608   6.228   4.551
 2081SOL    HW2 7143   0.690   6.087   4.546
 2082SOL     OW 7144   0.536   6.526   3.207
 2082SOL    HW1 7145   0.450   6.576   3.194
 2082SOL    HW2 7146   0.530   6.469   3.289
 2083SOL     OW 7147   0.504   4.948   5.724
 2083SOL    HW1 7148   0.592   4.906   5.706
 2083SOL    HW2 7149   0.502   5.040   5.684
 2084SOL     OW 7150   0.574   4.567   3.256
 2084SOL    HW1 7151   0.579   4.593   3.160
 2084SOL    HW2 7152   0.513   4.631   3.304
 2085SOL     OW 7153   4.908   1.036   0.118
 2085SOL    HW1 7154   4.873   1.040   0.212
 2085SOL    HW2 7155   4.991   0.980   0.116
 2086SOL     OW 7156   3.761   6.986   6.583
 2086SOL    HW1 7157   3.823   6.996   6.506
 2086SOL    HW2 7158   3.788   6.907   6.638
 2087SOL     OW 7159   5.101   1.203   1.336
 2087SOL    HW1 7160   5.074   1.138   1.265
 2087SOL    HW2 7161   5.040   1.283   1.332
 2088SOL     OW 7162   1.089   5.898   6.829
 2088SOL    HW1 7163   1.136   5.867   6.911
 2088SOL    HW2 7164   0.991   5.909   6.849
 2089SOL     OW 7165   4.875   2.966   5.987
 2089SOL    HW1 7166   4.848   2.956   6.083
 2089SOL    HW2 7167   4.794   2.974   5.930
 2090SOL     OW 7168   4.353   3.360   5.975
 2090SOL    HW1 7169   4.427   3.351   5.908
 2090SOL    HW2 7170   4.278   3.414   5.935
 2091SOL     OW 7171   7.006   5.204   0.573
 2091SOL    HW1 7172   7.011   5.117   0.525
 2091SOL    HW2 7173   0.040   5.202   0.653
 2092SOL     OW 7174   5.265   3.886   0.437
 2092SOL    HW1 7175   5.226   3.848   0.521
 2092SOL    HW2 7176   5.261   3.817   0.365
 2093SOL     OW 7177   2.674   1.765   1.041
 2093SOL    HW1 7178   2.711   1.674   1.059
 2093SOL    HW2 7179   2.746   1.833   1.048
 2094SOL     OW 7180   5.698   1.682   2.332
 2094SOL    HW1 7181   5.610   1.651   2.367
 2094SOL    HW2 7182   5.704   1.781   2.339
 2095SOL     OW 7183   6.784   6.930   4.987
 2095SOL    HW1 7184   6.881   6.952   4.975
 2095SOL    HW2 7185   6.739   6.929   4.898
 2096SOL     OW 7186   4.952   4.266   2.971
 2096SOL    HW1 7187   4.924   4.302   3.060
 2096SOL    HW2 7188   5.048   4.238   2.975
 2097SOL     OW 7189   2.944   3.098   6.163
 2097SOL    HW1 7190   2.905   3.170   6.220
 2097SOL    HW2 7191   3.021   3.134   6.110
 2098SOL     OW 7192   4.460   6.045   2.139
 2098SOL    HW1 7193   4.414   5.956   2.146
 2098SOL    HW2 7194   4.419   6.097   2.065
 2099SOL     OW 7195   3.272   1.895   6.415
 2099SOL    HW1 7196   3.199   1.928   6.355
 2099SOL    HW2 7197   3.350   1.959   6.411
 2100SOL     OW 7198   4.926   1.962   0.345
 2100SOL    HW1 7199   4.990   1.932   0.416
 2100SOL    HW2 7200   4.978   1.989   0.263
 2101SOL     OW 7201   0.467   6.572   1.179
 2101SOL    HW1 7202   0.552   6.587   1.128
 2101SOL    HW2 7203   0.429   6.483   1.156
 2102SOL     OW 7204   5.012   4.224   2.551
 2102SOL    HW1 7205   5.031   4.211   2.454
 2102SOL    HW2 7206   4.932   4.171   2.577
 2103SOL     OW 7207   3.607   4.104   6.807
 2103SOL    HW1 7208   3.650   4.109   6.716
 2103SOL    HW2 7209   3.669   4.058   6.870
 2104SOL     OW 7210   1.769   4.501   2.422
 2104SOL    HW1 7211   1.754   4.413   2.466
 2104SOL    HW2 7212   1.681   4.540   2.394
 2105SOL     OW 7213   4.851   4.528   6.918
 2105SOL    HW1 7214   4.836   4.587   6.839
 2105SOL    HW2 7215   4.893   4.442   6.888
 2106SOL     OW 7216   5.698   3.459   0.995
 2106SOL    HW1 7217   5.605   3.494   1.009
 2106SOL    HW2 7218   5.707   3.369   1.037
 2107SOL     OW 7219   6.695   2.124   5.486
 2107SOL    HW1 7220   6.761   2.057   5.450
 2107SOL    HW2 7221   6.698   2.207   5.429
 2108SOL     OW 7222   5.970   5.398   5.110
 2108SOL    HW1 7223   5.913   5.377   5.191
 2108SOL    HW2 7224   5.965   5.321   5.046
 2109SOL     OW 7225   4.393   5.718   2.476
 2109SOL    HW1 7226   4.439   5.648   2.531
 2109SOL    HW2 7227   4.448   5.801   2.476
 2110SOL     OW 7228   2.825   0.702   0.585
 2110SOL    HW1 7229   2.729   0.709   0.557
 2110SOL    HW2 7230   2.877   0.778   0.545
 2111SOL     OW 7231   1.922   3.347   0.236
 2111SOL    HW1 7232   1.919   3.446   0.252
 2111SOL    HW2 7233   1.884   3.300   0.316
 2112SOL     OW 7234   5.235   2.173   0.786
 2112SOL    HW1 7235   5.267   2.210   0.698
 2112SOL    HW2 7236   5.283   2.220   0.860
 2113SOL     OW 7237   2.569   1.066   4.687
 2113SOL    HW1 7238   2.651   1.110   4.651
 2113SOL    HW2 7239   2.488   1.109   4.647
 2114SOL     OW 7240   2.302   1.694   6.427
 2114SOL    HW1 7241   2.211   1.667   6.397
 2114SOL    HW2 7242   2.353   1.612   6.455
 2115SOL     OW 7243   0.643   4.385   2.325
 2115SOL    HW1 7244   0.620   4.377   2.422
 2115SOL    HW2 7245   0.701   4.465   2.311
 2116SOL     OW 7246   0.671   3.902   2.722
 2116SOL    HW1 7247   0.669   3.802   2.714
 2116SOL    HW2 7248   0.673   3.927   2.819
 2117SOL     OW 7249   6.381   4.730   1.444
 2117SOL    HW1 7250   6.460   4.674   1.468
 2117SOL    HW2 7251   6.389   4.762   1.350
 2118SOL     OW 7252   6.124   2.923   3.198
 2118SOL    HW1 7253   6.140   2.898   3.293
 2118SOL    HW2 7254   6.200   2.891   3.142
 2119SOL     OW 7255   1.375   0.268   1.443
 2119SOL    HW1 7256   1.312   0.258   1.365
 2119SOL    HW2 7257   1.420   0.181   1.460
 2120SOL     OW 7258   0.606   4.267   3.171
 2120SOL    HW1 7259   0.588   4.362   3.196
 2120SOL    HW2 7260   0.521   4.221   3.149
 2121SOL     OW 7261   1.544   3.161   5.612
 2121SOL    HW1 7262   1.587   3.162   5.702
 2121SOL    HW2 7263   1.575   3.240   5.559
 2122SOL     OW 7264   5.840   5.316   6.397
 2122SOL    HW1 7265   5.860   5.378   6.473
 2122SOL    HW2 7266   5.808   5.229   6.433
 2123SOL     OW 7267   6.501   5.607   2.099
 2123SOL    HW1 7268   6.474   5.655   2.016
 2123SOL    HW2 7269   6.453   5.647   2.177
 2124SOL     OW 7270   3.013   1.798   0.994
 2124SOL    HW1 7271   3.039   1.879   0.943
 2124SOL    HW2 7272   3.081   1.781   1.066
 2125SOL     OW 7273   1.964   6.418   2.185
 2125SOL    HW1 7274   1.931   6.400   2.277
 2125SOL    HW2 7275   2.038   6.485   2.189
 2126SOL     OW 7276   3.574   2.721   6.402
 2126SOL    HW1 7277   3.504   2.676   6.458
 2126SOL    HW2 7278   3.559   2.696   6.306
 2127SOL     OW 7279   1.268   1.959   6.007
 2127SOL    HW1 7280   1.327   1.968   5.927
 2127SOL    HW2 7281   1.318   1.988   6.089
 2128SOL     OW 7282   6.202   2.651   3.348
 2128SOL    HW1 7283   6.146   2.732   3.365
 2128SOL    HW2 7284   6.219   2.603   3.434
 2129SOL     OW 7285   4.980   3.509   5.193
 2129SOL    HW1 7286   4.952   3.482   5.285
 2129SOL    HW2 7287   4.900   3.516   5.134
 2130SOL     OW 7288   3.340   6.923   3.063
 2130SOL    HW1 7289   3.380   7.010   3.035
 2130SOL    HW2 7290   3.274   6.893   2.994
 2131SOL     OW 7291   4.691   1.856   0.851
 2131SOL    HW1 7292   4.761   1.825   0.786
 2131SOL    HW2 7293   4.600   1.831   0.817
 2132SOL     OW 7294   3.324   1.012   0.497
 2132SOL    HW1 7295   3.262   0.933   0.490
 2132SOL    HW2 7296   3.408   0.992   0.446
 2133SOL     OW 7297   3.499   2.515   1.436
 2133SOL    HW1 7298   3.406   2.477   1.438
 2133SOL    HW2 7299   3.513   2.564   1.350
 2134SOL     OW 7300   1.089   0.888   4.224
 2134SOL    HW1 7301   0.993   0.914   4.232
 2134SOL    HW2 7302   1.146   0.969   4.236
 2135SOL     OW 7303   1.051   2.076   4.221
 2135SOL    HW1 7304   1.039   2.121   4.133
 2135SOL    HW2 7305   0.997   2.125   4.291
 2136SOL     OW 7306   0.927   4.431   4.516
 2136SOL    HW1 7307   0.942   4.340   4.553
 2136SOL    HW2 7308   0.968   4.499   4.576
 2137SOL     OW 7309   6.910   5.956   4.189
 2137SOL    HW1 7310   6.943   5.880   4.133
 2137SOL    HW2 7311   6.965   6.037   4.170
 2138SOL     OW 7312   6.860   0.984   1.450
 2138SOL    HW1 7313   6.883   0.964   1.545
 2138SOL    HW2 7314   6.765   1.013   1.445
 2139SOL     OW 7315   3.638   0.803   2.848
 2139SOL    HW1 7316   3.617   0.848   2.935
 2139SOL    HW2 7317   3.668   0.709   2.865
 2140SOL     OW 7318   3.397   6.040   3.412
 2140SOL    HW1 7319   3.393   6.086   3.323
 2140SOL    HW2 7320   3.304   6.012   3.438
 2141SOL     OW 7321   6.232   4.838   0.965
 2141SOL    HW1 7322   6.327   4.812   0.983
 2141SOL    HW2 7323   6.195   4.781   0.892
 2142SOL     OW 7324   1.295   2.122   3.067
 2142SOL    HW1 7325   1.351   2.061   3.010
 2142SOL    HW2 7326   1.220   2.071   3.108
 2143SOL     OW 7327   2.999   4.463   1.439
 2143SOL    HW1 7328   2.941   4.533   1.396
 2143SOL    HW2 7329   2.978   4.374   1.399
 2144SOL     OW 7330   1.345   5.666   3.078
 2144SOL    HW1 7331   1.313   5.630   3.165
 2144SOL    HW2 7332   1.278   5.646   3.007
 2145SOL     OW 7333   3.526   6.128   4.244
 2145SOL    HW1 7334   3.516   6.196   4.317
 2145SOL    HW2 7335   3.464   6.149   4.169
 2146SOL     OW 7336   2.623   3.525   1.759
 2146SOL    HW1 7337   2.592   3.614   1.723
 2146SOL    HW2 7338   2.548   3.483   1.811
 2147SOL     OW 7339   0.547   1.236   6.446
 2147SOL    HW1 7340   0.603   1.179   6.385
 2147SOL    HW2 7341   0.585   1.328   6.449
 2148SOL     OW 7342   5.467   2.293   4.428
 2148SOL    HW1 7343   5.429   2.208   4.466
 2148SOL    HW2 7344   5.396   2.341   4.377
 2149SOL     OW 7345   3.679   1.466   1.172
 2149SOL    HW1 7346   3.732   1.547   1.147
 2149SOL    HW2 7347   3.717   1.425   1.255
 2150SOL     OW 7348   2.318   2.169   2.311
 2150SOL    HW1 7349   2.366   2.237   2.366
 2150SOL    HW2 7350   2.352   2.078   2.333
 2151SOL     OW 7351   1.871   1.238   4.095
 2151SOL    HW1 7352   1.772   1.243   4.084
 2151SOL    HW2 7353   1.899   1.296   4.172
 2152SOL     OW 7354   3.801   6.665   1.134
 2152SOL    HW1 7355   3.707   6.686   1.158
 2152SOL    HW2 7356   3.849   6.749   1.106
 2153SOL     OW 7357   3.866   0.138   3.135
 2153SOL    HW1 7358   3.918   0.223   3.127
 2153SOL    HW2 7359   3.806   0.128   3.055
 2154SOL     OW 7360   5.153   0.340   4.878
 2154SOL    HW1 7361   5.227   0.291   4.925
 2154SOL    HW2 7362   5.193   0.412   4.821
 2155SOL     OW 7363   1.988   5.514   0.149
 2155SOL    HW1 7364   1.955   5.433   0.196
 2155SOL    HW2 7365   1.990   5.498   0.051
 2156SOL     OW 7366   2.560   0.789   3.112
 2156SOL    HW1 7367   2.572   0.884   3.085
 2156SOL    HW2 7368   2.548   0.732   3.030
 2157SOL     OW 7369   5.593   0.600   3.216
 2157SOL    HW1 7370   5.674   0.656   3.196
 2157SOL    HW2 7371   5.520   0.658   3.251
 2158SOL     OW 7372   4.133   6.459   1.081
 2158SOL    HW1 7373   4.123   6.518   1.001
 2158SOL    HW2 7374   4.060   6.479   1.147
 2159SOL     OW 7375   2.471   6.191   5.482
 2159SOL    HW1 7376   2.508   6.258   5.546
 2159SOL    HW2 7377   2.477   6.226   5.389
 2160SOL     OW 7378   4.450   3.382   1.183
 2160SOL    HW1 7379   4.447   3.330   1.268
 2160SOL    HW2 7380   4.451   3.318   1.105
 2161SOL     OW 7381   5.250   4.043   3.663
 2161SOL    HW1 7382   5.219   4.030   3.569
 2161SOL    HW2 7383   5.350   4.054   3.664
 2162SOL     OW 7384   3.048   1.039   0.733
 2162SOL    HW1 7385   3.003   0.988   0.807
 2162SOL    HW2 7386   2.984   1.107   0.697
 2163SOL     OW 7387   6.970   4.566   6.422
 2163SOL    HW1 7388   7.014   4.586   6.510
 2163SOL    HW2 7389   6.872   4.583   6.429
 2164SOL     OW 7390   1.908   2.883   0.227
 2164SOL    HW1 7391   1.812   2.906   0.241
 2164SOL    HW2 7392   1.957   2.964   0.194
 2165SOL     OW 7393   1.257   1.829   2.752
 2165SOL    HW1 7394   1.160   1.855   2.752
 2165SOL    HW2 7395   1.273   1.760   2.822
 2166SOL     OW 7396   1.711   2.686   5.390
 2166SOL    HW1 7397   1.728   2.709   5.486
 2166SOL    HW2 7398   1.762   2.749   5.332
 2167SOL     OW 7399   1.649   0.842   3.714
 2167SOL    HW1 7400   1.664   0.914   3.781
 2167SOL    HW2 7401   1.654   0.880   3.622
 2168SOL     OW 7402   0.612   1.691   3.457
 2168SOL    HW1 7403   0.669   1.632   3.400
 2168SOL    HW2 7404   0.534   1.723   3.403
 2169SOL     OW 7405   5.367   2.262   5.557
 2169SOL    HW1 7406   5.362   2.163   5.546
 2169SOL    HW2 7407   5.279   2.303   5.531
 2170SOL     OW 7408   6.201   4.915   5.633
 2170SOL    HW1 7409   6.211   4.989   5.699
 2170SOL    HW2 7410   6.158   4.837   5.677
 2171SOL     OW 7411   6.882   3.573   2.253
 2171SOL    HW1 7412   6.828   3.644   2.299
 2171SOL    HW2 7413   6.883   3.591   2.155
 2172SOL     OW 7414   2.758   1.873   0.249
 2172SOL    HW1 7415   2.800   1.963   0.236
 2172SOL    HW2 7416   2.667   1.873   0.207
 2173SOL     OW 7417   4.202   0.140   5.457
 2173SOL    HW1 7418   4.237   0.056   5.498
 2173SOL    HW2 7419   4.271   0.179   5.395
 2174SOL     OW 7420   5.909   5.407   5.893
 2174SOL    HW1 7421   5.830   5.462   5.866
 2174SOL    HW2 7422   5.891   5.366   5.983
 2175SOL     OW 7423   3.099   1.974   3.871
 2175SOL    HW1 7424   3.021   2.030   3.844
 2175SOL    HW2 7425   3.071   1.878   3.873
 2176SOL     OW 7426   0.634   3.362   6.839
 2176SOL    HW1 7427   0.604   3.293   6.905
 2176SOL    HW2 7428   0.706   3.418   6.881
 2177SOL     OW 7429   6.765   1.049   3.612
 2177SOL    HW1 7430   6.773   0.956   3.575
 2177SOL    HW2 7431   6.857   1.083   3.634
 2178SOL     OW 7432   1.229   3.946   6.981
 2178SOL    HW1 7433   1.174   3.877   0.001
 2178SOL    HW2 7434   1.300   3.901   6.926
 2179SOL     OW 7435   1.415   5.754   4.922
 2179SOL    HW1 7436   1.460   5.787   4.839
 2179SOL    HW2 7437   1.321   5.789   4.926
 2180SOL     OW 7438   2.806   3.329   1.804
 2180SOL    HW1 7439   2.772   3.236   1.791
 2180SOL    HW2 7440   2.731   3.394   1.790
 2181SOL     OW 7441   5.368   4.300   5.870
 2181SOL    HW1 7442   5.330   4.317   5.961
 2181SOL    HW2 7443   5.351   4.205   5.844
 2182SOL     OW 7444   6.745   2.626   4.889
 2182SOL    HW1 7445   6.822   2.681   4.921
 2182SOL    HW2 7446   6.694   2.592   4.968
 2183SOL     OW 7447   3.431   3.391   6.376
 2183SOL    HW1 7448   3.530   3.380   6.372
 2183SOL    HW2 7449   3.397   3.425   6.289
 2184SOL     OW 7450   4.371   1.508   5.561
 2184SOL    HW1 7451   4.344   1.507   5.657
 2184SOL    HW2 7452   4.329   1.432   5.512
 2185SOL     OW 7453   1.444   2.140   0.888
 2185SOL    HW1 7454   1.444   2.149   0.988
 2185SOL    HW2 7455   1.476   2.048   0.863
 2186SOL     OW 7456   6.777   4.623   2.229
 2186SOL    HW1 7457   6.820   4.693   2.173
 2186SOL    HW2 7458   6.836   4.602   2.307
 2187SOL     OW 7459   0.146   1.783   2.150
 2187SOL    HW1 7460   0.130   1.877   2.179
 2187SOL    HW2 7461   0.235   1.752   2.185
 2188SOL     OW 7462   5.432   6.331   3.951
 2188SOL    HW1 7463   5.506   6.278   3.994
 2188SOL    HW2 7464   5.447   6.428   3.968
 2189SOL     OW 7465   1.671   6.716   6.956
 2189SOL    HW1 7466   1.629   6.711   6.866
 2189SOL    HW2 7467   1.750   6.655   6.960
 2190SOL     OW 7468   0.512   2.774   2.473
 2190SOL    HW1 7469   0.499   2.825   2.559
 2190SOL    HW2 7470   0.610   2.769   2.453
 2191SOL     OW 7471   2.953   1.527   6.419
 2191SOL    HW1 7472   2.940   1.466   6.340
 2191SOL    HW2 7473   3.031   1.495   6.473
 2192SOL     OW 7474   3.979   6.974   3.539
 2192SOL    HW1 7475   4.015   0.041   3.538
 2192SOL    HW2 7476   3.886   6.975   3.575
 2193SOL     OW 7477   0.261   5.994   6.292
 2193SOL    HW1 7478   0.289   5.922   6.229
 2193SOL    HW2 7479   0.339   6.055   6.309
 2194SOL     OW 7480   2.236   5.142   6.646
 2194SOL    HW1 7481   2.276   5.190   6.725
 2194SOL    HW2 7482   2.191   5.209   6.587
 2195SOL     OW 7483   6.981   6.877   3.915
 2195SOL    HW1 7484   0.007   6.834   3.989
 2195SOL    HW2 7485   6.887   6.843   3.917
 2196SOL     OW 7486   3.628   0.030   5.232
 2196SOL    HW1 7487   3.631   0.128   5.215
 2196SOL    HW2 7488   3.696   7.011   5.173
 2197SOL     OW 7489   3.836   3.568   1.578
 2197SOL    HW1 7490   3.910   3.624   1.541
 2197SOL    HW2 7491   3.748   3.607   1.553
 2198SOL     OW 7492   6.553   1.512   6.803
 2198SOL    HW1 7493   6.636   1.563   6.781
 2198SOL    HW2 7494   6.508   1.552   6.883
 2199SOL     OW 7495   4.669   0.876   2.635
 2199SOL    HW1 7496   4.706   0.856   2.544
 2199SOL    HW2 7497   4.743   0.904   2.696
 2200SOL     OW 7498   4.034   0.210   4.643
 2200SOL    HW1 7499   3.968   0.139   4.618
 2200SOL    HW2 7500   4.046   0.210   4.743
 2201SOL     OW 7501   6.599   2.820   2.486
 2201SOL    HW1 7502   6.689   2.784   2.511
 2201SOL    HW2 7503   6.529   2.774   2.539
 2202SOL     OW 7504   3.374   4.988   3.289
 2202SOL    HW1 7505   3.343   4.906   3.241
 2202SOL    HW2 7506   3.462   4.970   3.333
 2203SOL     OW 7507   2.144   2.696   1.426
 2203SOL    HW1 7508   2.212   2.743   1.369
 2203SOL    HW2 7509   2.068   2.758   1.445
 2204SOL     OW 7510   3.504   1.349   6.607
 2204SOL    HW1 7511   3.441   1.410   6.656
 2204SOL    HW2 7512   3.598   1.373   6.630
 2205SOL     OW 7513   1.876   0.072   6.000
 2205SOL    HW1 7514   1.876   0.141   5.928
 2205SOL    HW2 7515   1.784   0.035   6.012
 2206SOL     OW 7516   2.629   3.971   5.546
 2206SOL    HW1 7517   2.613   3.941   5.452
 2206SOL    HW2 7518   2.589   4.062   5.560
 2207SOL     OW 7519   2.313   4.071   0.092
 2207SOL    HW1 7520   2.223   4.095   0.055
 2207SOL    HW2 7521   2.376   4.147   0.079
 2208SOL     OW 7522   1.606   5.410   2.396
 2208SOL    HW1 7523   1.669   5.487   2.388
 2208SOL    HW2 7524   1.596   5.366   2.307
 2209SOL     OW 7525   1.257   5.536   5.682
 2209SOL    HW1 7526   1.268   5.446   5.641
 2209SOL    HW2 7527   1.283   5.606   5.615
 2210SOL     OW 7528   6.884   4.534   3.748
 2210SOL    HW1 7529   6.870   4.545   3.650
 2210SOL    HW2 7530   6.807   4.573   3.798
 2211SOL     OW 7531   5.116   0.883   0.012
 2211SOL    HW1 7532   5.143   0.978   0.031
 2211SOL    HW2 7533   5.190   0.821   0.038
 2212SOL     OW 7534   1.843   6.532   6.984
 2212SOL    HW1 7535   1.938   6.531   6.951
 2212SOL    HW2 7536   1.802   6.442   6.969
 2213SOL     OW 7537   4.026   2.704   5.328
 2213SOL    HW1 7538   4.071   2.632   5.275
 2213SOL    HW2 7539   3.964   2.755   5.269
 2214SOL     OW 7540   4.472   2.536   5.647
 2214SOL    HW1 7541   4.385   2.582   5.630
 2214SOL    HW2 7542   4.491   2.535   5.745
 2215SOL     OW 7543   6.431   1.827   0.120
 2215SOL    HW1 7544   6.352   1.834   0.060
 2215SOL    HW2 7545   6.401   1.802   0.212
 2216SOL     OW 7546   1.704   0.724   6.110
 2216SOL    HW1 7547   1.725   0.809   6.063
 2216SOL    HW2 7548   1.624   0.681   6.068
 2217SOL     OW 7549   3.627   0.423   1.379
 2217SOL    HW1 7550   3.592   0.490   1.444
 2217SOL    HW2 7551   3.677   0.351   1.428
 2218SOL     OW 7552   0.906   6.737   0.490
 2218SOL    HW1 7553   0.941   6.828   0.515
 2218SOL    HW2 7554   0.880   6.737   0.394
 2219SOL     OW 7555   0.461   3.236   2.245
 2219SOL    HW1 7556   0.550   3.260   2.207
 2219SOL    HW2 7557   0.395   3.309   2.223
 2220SOL     OW 7558   0.528   1.299   4.753
 2220SOL    HW1 7559   0.592   1.280   4.827
 2220SOL    HW2 7560   0.558   1.252   4.670
 2221SOL     OW 7561   6.513   0.680   5.844
 2221SOL    HW1 7562   6.451   0.607   5.816
 2221SOL    HW2 7563   6.460   0.760   5.872
 2222SOL     OW 7564   3.641   0.601   0.936
 2222SOL    HW1 7565   3.689   0.654   1.006
 2222SOL    HW2 7566   3.707   0.575   0.865
 2223SOL     OW 7567   6.205   6.987   4.015
 2223SOL    HW1 7568   6.188   0.031   3.947
 2223SOL    HW2 7569   6.304   6.972   4.024
 2224SOL     OW 7570   2.001   4.589   2.029
 2224SOL    HW1 7571   2.049   4.543   1.955
 2224SOL    HW2 7572   2.042   4.679   2.045
 2225SOL     OW 7573   6.276   5.466   3.208
 2225SOL    HW1 7574   6.250   5.375   3.240
 2225SOL    HW2 7575   6.285   5.527   3.287
 2226SOL     OW 7576   4.336   4.241   0.483
 2226SOL    HW1 7577   4.239   4.233   0.505
 2226SOL    HW2 7578   4.387   4.268   0.564
 2227SOL     OW 7579   5.345   3.558   0.118
 2227SOL    HW1 7580   5.388   3.642   0.084
 2227SOL    HW2 7581   5.407   3.481   0.101
 2228SOL     OW 7582   2.946   5.411   1.048
 2228SOL    HW1 7583   2.933   5.505   1.078
 2228SOL    HW2 7584   2.981   5.356   1.124
 2229SOL     OW 7585   4.055   1.606   4.923
 2229SOL    HW1 7586   4.078   1.520   4.877
 2229SOL    HW2 7587   4.080   1.682   4.864
 2230SOL     OW 7588   6.959   5.503   5.802
 2230SOL    HW1 7589   6.866   5.488   5.834
 2230SOL    HW2 7590   7.003   5.415   5.784
 2231SOL     OW 7591   1.350   0.882   1.348
 2231SOL    HW1 7592   1.305   0.971   1.343
 2231SOL    HW2 7593   1.281   0.809   1.347
 2232SOL     OW 7594   1.617   2.176   3.970
 2232SOL    HW1 7595   1.614   2.096   4.030
 2232SOL    HW2 7596   1.622   2.146   3.875
 2233SOL     OW 7597   2.153   4.463   1.412
 2233SOL    HW1 7598   2.054   4.477   1.412
 2233SOL    HW2 7599   2.174   4.378   1.363
 2234SOL     OW 7600   4.897   2.211   1.989
 2234SOL    HW1 7601   4.873   2.114   1.995
 2234SOL    HW2 7602   4.838   2.264   2.051
 2235SOL     OW 7603   1.820   0.533   1.101
 2235SOL    HW1 7604   1.832   0.441   1.137
 2235SOL    HW2 7605   1.908   0.568   1.067
 2236SOL     OW 7606   0.836   4.153   6.682
 2236SOL    HW1 7607   0.896   4.212   6.737
 2236SOL    HW2 7608   0.852   4.170   6.585
 2237SOL     OW 7609   5.576   4.256   4.665
 2237SOL    HW1 7610   5.548   4.180   4.605
 2237SOL    HW2 7611   5.664   4.234   4.707
 2238SOL     OW 7612   5.498   5.409   1.830
 2238SOL    HW1 7613   5.576   5.409   1.893
 2238SOL    HW2 7614   5.423   5.461   1.870
 2239SOL     OW 7615   3.594   5.184   3.693
 2239SOL    HW1 7616   3.551   5.187   3.603
 2239SOL    HW2 7617   3.540   5.237   3.758
 2240SOL     OW 7618   5.518   5.834   3.860
 2240SOL    HW1 7619   5.587   5.882   3.807
 2240SOL    HW2 7620   5.486   5.754   3.809
 2241SOL     OW 7621   0.624   6.785   2.333
 2241SOL    HW1 7622   0.692   6.856   2.313
 2241SOL    HW2 7623   0.664   6.695   2.314
 2242SOL     OW 7624   4.840   2.430   2.611
 2242SOL    HW1 7625   4.764   2.485   2.575
 2242SOL    HW2 7626   4.922   2.487   2.617
 2243SOL     OW 7627   2.753   6.445   5.186
 2243SOL    HW1 7628   2.770   6.543   5.180
 2243SOL    HW2 7629   2.793   6.409   5.270
 2244SOL     OW 7630   3.206   0.428   2.906
 2244SOL    HW1 7631   3.159   0.356   2.957
 2244SOL    HW2 7632   3.246   0.389   2.822
 2245SOL     OW 7633   0.630   1.937   1.959
 2245SOL    HW1 7634   0.597   1.889   2.041
 2245SOL    HW2 7635   0.614   2.035   1.969
 2246SOL     OW 7636   1.315   1.281   5.012
 2246SOL    HW1 7637   1.285   1.191   5.044
 2246SOL    HW2 7638   1.251   1.315   4.943
 2247SOL     OW 7639   2.756   2.955   5.765
 2247SOL    HW1 7640   2.675   3.011   5.784
 2247SOL    HW2 7641   2.793   2.979   5.675
 2248SOL     OW 7642   3.960   4.044   6.446
 2248SOL    HW1 7643   4.002   4.077   6.531
 2248SOL    HW2 7644   4.008   3.962   6.415
 2249SOL     OW 7645   6.543   5.909   2.676
 2249SOL    HW1 7646   6.621   5.963   2.646
 2249SOL    HW2 7647   6.520   5.934   2.770
 2250SOL     OW 7648   5.037   3.660   0.790
 2250SOL    HW1 7649   4.978   3.607   0.729
 2250SOL    HW2 7650   4.980   3.720   0.847
 2251SOL     OW 7651   5.386   1.525   0.167
 2251SOL    HW1 7652   5.380   1.485   0.075
 2251SOL    HW2 7653   5.359   1.457   0.235
 2252SOL     OW 7654   6.671   2.147   3.211
 2252SOL    HW1 7655   6.712   2.171   3.298
 2252SOL    HW2 7656   6.696   2.215   3.142
 2253SOL     OW 7657   0.570   3.620   0.118
 2253SOL    HW1 7658   0.633   3.590   0.047
 2253SOL    HW2 7659   0.561   3.547   0.187
 2254SOL     OW 7660   2.340   3.273   5.794
 2254SOL    HW1 7661   2.289   3.359   5.789
 2254SOL    HW2 7662   2.303   3.208   5.727
 2255SOL     OW 7663   4.925   2.476   0.433
 2255SOL    HW1 7664   4.969   2.389   0.454
 2255SOL    HW2 7665   4.982   2.528   0.370
 2256SOL     OW 7666   4.071   6.550   1.789
 2256SOL    HW1 7667   3.992   6.489   1.801
 2256SOL    HW2 7668   4.044   6.644   1.808
 2257SOL     OW 7669   0.139   2.715   3.852
 2257SOL    HW1 7670   0.220   2.731   3.909
 2257SOL    HW2 7671   0.099   2.803   3.826
 2258SOL     OW 7672   1.022   5.411   5.391
 2258SOL    HW1 7673   1.038   5.351   5.312
 2258SOL    HW2 7674   1.075   5.378   5.469
 2259SOL     OW 7675   4.679   3.983   6.673
 2259SOL    HW1 7676   4.635   4.059   6.626
 2259SOL    HW2 7677   4.711   4.012   6.763
 2260SOL     OW 7678   5.765   4.572   3.000
 2260SOL    HW1 7679   5.680   4.526   2.975
 2260SOL    HW2 7680   5.838   4.505   3.010
 2261SOL     OW 7681   6.352   6.693   1.293
 2261SOL    HW1 7682   6.403   6.696   1.207
 2261SOL    HW2 7683   6.395   6.753   1.360
 2262SOL     OW 7684   5.569   2.551   2.573
 2262SOL    HW1 7685   5.593   2.466   2.526
 2262SOL    HW2 7686   5.472   2.571   2.559
 2263SOL     OW 7687   2.716   6.092   6.048
 2263SOL    HW1 7688   2.750   6.129   5.961
 2263SOL    HW2 7689   2.735   6.157   6.122
 2264SOL     OW 7690   3.401   3.399   1.403
 2264SOL    HW1 7691   3.486   3.376   1.450
 2264SOL    HW2 7692   3.349   3.316   1.383
 2265SOL     OW 7693   0.441   0.429   3.914
 2265SOL    HW1 7694   0.412   0.506   3.971
 2265SOL    HW2 7695   0.476   0.463   3.827
 2266SOL     OW 7696   5.929   1.645   1.193
 2266SOL    HW1 7697   5.855   1.584   1.220
 2266SOL    HW2 7698   5.894   1.717   1.134
 2267SOL     OW 7699   5.028   2.358   4.992
 2267SOL    HW1 7700   5.098   2.422   4.959
 2267SOL    HW2 7701   4.980   2.398   5.069
 2268SOL     OW 7702   6.141   3.742   6.419
 2268SOL    HW1 7703   6.194   3.778   6.343
 2268SOL    HW2 7704   6.203   3.708   6.490
 2269SOL     OW 7705   5.766   5.854   4.660
 2269SOL    HW1 7706   5.772   5.898   4.570
 2269SOL    HW2 7707   5.729   5.761   4.649
 2270SOL     OW 7708   3.293   2.835   6.666
 2270SOL    HW1 7709   3.267   2.771   6.738
 2270SOL    HW2 7710   3.225   2.908   6.660
 2271SOL     OW 7711   6.151   3.873   0.403
 2271SOL    HW1 7712   6.229   3.841   0.457
 2271SOL    HW2 7713   6.068   3.829   0.435
 2272SOL     OW 7714   5.749   2.148   5.322
 2272SOL    HW1 7715   5.667   2.094   5.343
 2272SOL    HW2 7716   5.819   2.087   5.284
 2273SOL     OW 7717   1.416   1.137   1.963
 2273SOL    HW1 7718   1.391   1.054   1.914
 2273SOL    HW2 7719   1.505   1.169   1.931
 2274SOL     OW 7720   1.651   2.434   6.087
 2274SOL    HW1 7721   1.664   2.508   6.152
 2274SOL    HW2 7722   1.579   2.373   6.118
 2275SOL     OW 7723   5.646   0.411   4.636
 2275SOL    HW1 7724   5.681   0.337   4.579
 2275SOL    HW2 7725   5.618   0.374   4.725
 2276SOL     OW 7726   3.200   4.777   1.146
 2276SOL    HW1 7727   3.261   4.794   1.069
 2276SOL    HW2 7728   3.118   4.729   1.113
 2277SOL     OW 7729   3.642   4.013   4.410
 2277SOL    HW1 7730   3.738   3.994   4.391
 2277SOL    HW2 7731   3.635   4.071   4.491
 2278SOL     OW 7732   5.784   6.184   4.488
 2278SOL    HW1 7733   5.723   6.110   4.461
 2278SOL    HW2 7734   5.782   6.256   4.418
 2279SOL     OW 7735   5.103   5.685   4.629
 2279SOL    HW1 7736   5.054   5.651   4.548
 2279SOL    HW2 7737   5.039   5.731   4.690
 2280SOL     OW 7738   6.893   6.332   4.964
 2280SOL    HW1 7739   6.823   6.307   5.032
 2280SOL    HW2 7740   6.962   6.260   4.959
 2281SOL     OW 7741   3.218   1.106   1.984
 2281SOL    HW1 7742   3.139   1.091   1.924
 2281SOL    HW2 7743   3.241   1.021   2.031
 2282SOL     OW 7744   5.349   0.109   5.098
 2282SOL    HW1 7745   5.326   0.071   5.008
 2282SOL    HW2 7746   5.415   0.183   5.088
 2283SOL     OW 7747   6.688   4.407   1.237
 2283SOL    HW1 7748   6.591   4.429   1.233
 2283SOL    HW2 7749   6.738   4.461   1.170
 2284SOL     OW 7750   2.229   1.976   0.418
 2284SOL    HW1 7751   2.217   1.949   0.322
 2284SOL    HW2 7752   2.171   1.919   0.476
 2285SOL     OW 7753   1.428   3.131   0.222
 2285SOL    HW1 7754   1.397   3.210   0.169
 2285SOL    HW2 7755   1.349   3.088   0.267
 2286SOL     OW 7756   0.068   0.026   4.373
 2286SOL    HW1 7757   0.165   0.052   4.370
 2286SOL    HW2 7758   0.012   0.107   4.390
 2287SOL     OW 7759   2.288   2.771   1.919
 2287SOL    HW1 7760   2.328   2.689   1.959
 2287SOL    HW2 7761   2.311   2.776   1.822
 2288SOL     OW 7762   6.738   4.581   4.703
 2288SOL    HW1 7763   6.660   4.552   4.649
 2288SOL    HW2 7764   6.728   4.546   4.797
 2289SOL     OW 7765   6.223   4.371   2.586
 2289SOL    HW1 7766   6.193   4.290   2.636
 2289SOL    HW2 7767   6.145   4.414   2.542
 2290SOL     OW 7768   1.951   3.875   2.050
 2290SOL    HW1 7769   2.010   3.795   2.052
 2290SOL    HW2 7770   1.999   3.952   2.007
 2291SOL     OW 7771   2.244   2.265   0.371
 2291SOL    HW1 7772   2.267   2.264   0.274
 2291SOL    HW2 7773   2.234   2.171   0.405
 2292SOL     OW 7774   5.261   2.357   2.808
 2292SOL    HW1 7775   5.207   2.336   2.889
 2292SOL    HW2 7776   5.324   2.433   2.828
 2293SOL     OW 7777   6.749   0.040   0.963
 2293SOL    HW1 7778   6.813   0.117   0.961
 2293SOL    HW2 7779   6.792   6.986   0.922
 2294SOL     OW 7780   3.009   1.252   5.808
 2294SOL    HW1 7781   2.971   1.253   5.716
 2294SOL    HW2 7782   2.956   1.190   5.866
 2295SOL     OW 7783   0.699   1.289   2.856
 2295SOL    HW1 7784   0.786   1.255   2.820
 2295SOL    HW2 7785   0.698   1.389   2.851
 2296SOL     OW 7786   3.392   5.556   2.281
 2296SOL    HW1 7787   3.461   5.485   2.265
 2296SOL    HW2 7788   3.337   5.568   2.198
 2297SOL     OW 7789   4.882   4.621   5.998
 2297SOL    HW1 7790   4.792   4.577   5.993
 2297SOL    HW2 7791   4.941   4.566   6.057
 2298SOL     OW 7792   3.740   3.385   2.963
 2298SOL    HW1 7793   3.728   3.348   3.055
 2298SOL    HW2 7794   3.677   3.461   2.949
 2299SOL     OW 7795   4.786   4.536   5.413
 2299SOL    HW1 7796   4.688   4.525   5.428
 2299SOL    HW2 7797   4.836   4.463   5.461
 2300SOL     OW 7798   2.642   6.398   3.419
 2300SOL    HW1 7799   2.546   6.398   3.445
 2300SOL    HW2 7800   2.688   6.477   3.459
 2301SOL     OW 7801   3.851   2.945   3.476
 2301SOL    HW1 7802   3.928   2.889   3.446
 2301SOL    HW2 7803   3.861   2.965   3.573
 2302SOL     OW 7804   3.756   0.387   1.111
 2302SOL    HW1 7805   3.838   0.444   1.108
 2302SOL    HW2 7806   3.700   0.412   1.190
 2303SOL     OW 7807   2.656   3.309   1.030
 2303SOL    HW1 7808   2.747   3.316   1.070
 2303SOL    HW2 7809   2.654   3.357   0.942
 2304SOL     OW 7810   5.626   5.959   4.387
 2304SOL    HW1 7811   5.535   5.969   4.427
 2304SOL    HW2 7812   5.617   5.938   4.290
 2305SOL     OW 7813   2.359   0.282   2.934
 2305SOL    HW1 7814   2.401   0.364   2.972
 2305SOL    HW2 7815   2.430   0.220   2.900
 2306SOL     OW 7816   2.319   5.116   1.626
 2306SOL    HW1 7817   2.353   5.071   1.709
 2306SOL    HW2 7818   2.282   5.206   1.650
 2307SOL     OW 7819   0.417   3.186   5.382
 2307SOL    HW1 7820   0.438   3.098   5.340
 2307SOL    HW2 7821   0.343   3.231   5.332
 2308SOL     OW 7822   2.985   4.579   1.151
 2308SOL    HW1 7823   2.958   4.627   1.068
 2308SOL    HW2 7824   3.021   4.489   1.128
 2309SOL     OW 7825   2.133   0.854   5.299
 2309SOL    HW1 7826   2.146   0.922   5.226
 2309SOL    HW2 7827   2.130   0.901   5.387
 2310SOL     OW 7828   6.040   5.514   1.790
 2310SOL    HW1 7829   6.053   5.453   1.868
 2310SOL    HW2 7830   5.948   5.503   1.753
 2311SOL     OW 7831   2.104   6.641   1.006
 2311SOL    HW1 7832   2.141   6.628   1.098
 2311SOL    HW2 7833   2.129   6.562   0.949
 2312SOL     OW 7834   4.785   5.556   3.481
 2312SOL    HW1 7835   4.876   5.548   3.520
 2312SOL    HW2 7836   4.749   5.465   3.461
 2313SOL     OW 7837   4.868   5.800   2.783
 2313SOL    HW1 7838   4.951   5.842   2.748
 2313SOL    HW2 7839   4.789   5.856   2.759
 2314SOL     OW 7840   5.009   6.152   2.998
 2314SOL    HW1 7841   4.960   6.186   3.079
 2314SOL    HW2 7842   4.992   6.213   2.921
 2315SOL     OW 7843   5.173   3.039   6.295
 2315SOL    HW1 7844   5.127   3.120   6.332
 2315SOL    HW2 7845   5.165   2.963   6.359
 2316SOL     OW 7846   4.274   1.942   3.988
 2316SOL    HW1 7847   4.317   1.881   4.054
 2316SOL    HW2 7848   4.178   1.917   3.976
 2317SOL     OW 7849   0.253   5.888   2.844
 2317SOL    HW1 7850   0.223   5.983   2.840
 2317SOL    HW2 7851   0.195   5.831   2.785
 2318SOL     OW 7852   0.630   2.697   3.442
 2318SOL    HW1 7853   0.593   2.654   3.525
 2318SOL    HW2 7854   0.637   2.796   3.456
 2319SOL     OW 7855   1.506   5.134   3.971
 2319SOL    HW1 7856   1.435   5.064   3.972
 2319SOL    HW2 7857   1.479   5.209   3.912
 2320SOL     OW 7858   0.902   2.328   3.526
 2320SOL    HW1 7859   0.903   2.295   3.620
 2320SOL    HW2 7860   0.812   2.313   3.486
 2321SOL     OW 7861   3.505   0.735   5.473
 2321SOL    HW1 7862   3.506   0.773   5.381
 2321SOL    HW2 7863   3.576   0.779   5.529
 2322SOL     OW 7864   2.319   2.032   5.022
 2322SOL    HW1 7865   2.258   2.096   4.975
 2322SOL    HW2 7866   2.352   1.963   4.957
 2323SOL     OW 7867   3.155   4.917   2.134
 2323SOL    HW1 7868   3.224   4.885   2.070
 2323SOL    HW2 7869   3.071   4.864   2.122
 2324SOL     OW 7870   0.304   6.352   2.679
 2324SOL    HW1 7871   0.266   6.349   2.771
 2324SOL    HW2 7872   0.386   6.296   2.674
 2325SOL     OW 7873   0.353   4.508   1.307
 2325SOL    HW1 7874   0.428   4.452   1.341
 2325SOL    HW2 7875   0.350   4.595   1.356
 2326SOL     OW 7876   3.539   4.341   5.895
 2326SOL    HW1 7877   3.449   4.315   5.931
 2326SOL    HW2 7878   3.545   4.441   5.890
 2327SOL     OW 7879   6.108   2.941   4.882
 2327SOL    HW1 7880   6.144   2.893   4.802
 2327SOL    HW2 7881   6.008   2.939   4.879
 2328SOL     OW 7882   4.371   1.874   3.470
 2328SOL    HW1 7883   4.380   1.775   3.466
 2328SOL    HW2 7884   4.453   1.913   3.514
 2329SOL     OW 7885   1.835   5.171   4.783
 2329SOL    HW1 7886   1.760   5.194   4.721
 2329SOL    HW2 7887   1.842   5.241   4.854
 2330SOL     OW 7888   6.842   4.167   2.435
 2330SOL    HW1 7889   6.914   4.100   2.416
 2330SOL    HW2 7890   6.866   4.254   2.393
 2331SOL     OW 7891   6.494   4.648   6.753
 2331SOL    HW1 7892   6.518   4.671   6.659
 2331SOL    HW2 7893   6.540   4.563   6.780
 2332SOL     OW 7894   3.850   1.867   5.190
 2332SOL    HW1 7895   3.894   1.892   5.276
 2332SOL    HW2 7896   3.884   1.926   5.116
 2333SOL     OW 7897   6.547   4.870   2.953
 2333SOL    HW1 7898   6.510   4.782   2.982
 2333SOL    HW2 7899   6.580   4.921   3.033
 2334SOL     OW 7900   2.703   0.491   0.344
 2334SOL    HW1 7901   2.777   0.547   0.306
 2334SOL    HW2 7902   2.619   0.545   0.347
 2335SOL     OW 7903   5.798   0.795   3.174
 2335SOL    HW1 7904   5.761   0.841   3.094
 2335SOL    HW2 7905   5.897   0.813   3.180
 2336SOL     OW 7906   4.401   1.936   5.428
 2336SOL    HW1 7907   4.430   1.953   5.522
 2336SOL    HW2 7908   4.301   1.939   5.423
 2337SOL     OW 7909   4.609   1.172   3.631
 2337SOL    HW1 7910   4.514   1.156   3.655
 2337SOL    HW2 7911   4.663   1.090   3.650
 2338SOL     OW 7912   0.986   0.252   0.174
 2338SOL    HW1 7913   0.925   0.177   0.147
 2338SOL    HW2 7914   0.952   0.338   0.136
 2339SOL     OW 7915   3.839   3.676   5.086
 2339SOL    HW1 7916   3.893   3.716   5.012
 2339SOL    HW2 7917   3.818   3.581   5.065
 2340SOL     OW 7918   5.155   6.318   5.913
 2340SOL    HW1 7919   5.254   6.334   5.918
 2340SOL    HW2 7920   5.128   6.309   5.817
 2341SOL     OW 7921   4.702   3.210   0.780
 2341SOL    HW1 7922   4.719   3.169   0.870
 2341SOL    HW2 7923   4.781   3.194   0.720
 2342SOL     OW 7924   0.915   6.123   5.844
 2342SOL    HW1 7925   0.907   6.175   5.759
 2342SOL    HW2 7926   0.866   6.036   5.836
 2343SOL     OW 7927   1.880   6.689   1.315
 2343SOL    HW1 7928   1.860   6.746   1.235
 2343SOL    HW2 7929   1.917   6.746   1.388
 2344SOL     OW 7930   1.350   1.332   1.118
 2344SOL    HW1 7931   1.318   1.282   1.198
 2344SOL    HW2 7932   1.326   1.429   1.126
 2345SOL     OW 7933   2.092   6.162   5.239
 2345SOL    HW1 7934   2.171   6.113   5.278
 2345SOL    HW2 7935   2.086   6.253   5.280
 2346SOL     OW 7936   4.845   3.133   4.740
 2346SOL    HW1 7937   4.848   3.164   4.835
 2346SOL    HW2 7938   4.780   3.058   4.732
 2347SOL     OW 7939   2.190   4.200   1.641
 2347SOL    HW1 7940   2.278   4.241   1.665
 2347SOL    HW2 7941   2.118   4.269   1.650
 2348SOL     OW 7942   3.155   5.855   3.452
 2348SOL    HW1 7943   3.087   5.928   3.451
 2348SOL    HW2 7944   3.168   5.819   3.360
 2349SOL     OW 7945   0.651   6.053   0.085
 2349SOL    HW1 7946   0.713   6.039   0.007
 2349SOL    HW2 7947   0.559   6.070   0.051
 2350SOL     OW 7948   4.292   6.930   6.051
 2350SOL    HW1 7949   4.370   6.974   6.007
 2350SOL    HW2 7950   4.322   6.848   6.098
 2351SOL     OW 7951   3.180   5.293   3.185
 2351SOL    HW1 7952   3.277   5.305   3.205
 2351SOL    HW2 7953   3.129   5.281   3.270
 2352SOL     OW 7954   0.472   4.757   2.488
 2352SOL    HW1 7955   0.569   4.742   2.506
 2352SOL    HW2 7956   0.418   4.701   2.551
 2353SOL     OW 7957   2.662   4.854   4.469
 2353SOL    HW1 7958   2.674   4.914   4.548
 2353SOL    HW2 7959   2.611   4.772   4.496
 2354SOL     OW 7960   3.527   2.290   6.377
 2354SOL    HW1 7961   3.617   2.303   6.336
 2354SOL    HW2 7962   3.511   2.192   6.392
 2355SOL     OW 7963   0.525   5.325   0.363
 2355SOL    HW1 7964   0.509   5.420   0.389
 2355SOL    HW2 7965   0.453   5.267   0.401
 2356SOL     OW 7966   2.218   4.032   1.131
 2356SOL    HW1 7967   2.269   3.965   1.185
 2356SOL    HW2 7968   2.201   4.114   1.186
 2357SOL     OW 7969   3.742   5.045   4.112
 2357SOL    HW1 7970   3.772   5.139   4.096
 2357SOL    HW2 7971   3.722   5.001   4.025
 2358SOL     OW 7972   2.766   5.691   4.746
 2358SOL    HW1 7973   2.832   5.619   4.763
 2358SOL    HW2 7974   2.674   5.653   4.746
 2359SOL     OW 7975   1.947   1.105   5.983
 2359SOL    HW1 7976   1.979   1.153   5.901
 2359SOL    HW2 7977   1.955   1.166   6.062
 2360SOL     OW 7978   4.847   5.821   5.382
 2360SOL    HW1 7979   4.828   5.776   5.470
 2360SOL    HW2 7980   4.916   5.769   5.333
 2361SOL     OW 7981   2.610   0.289   4.393
 2361SOL    HW1 7982   2.651   0.256   4.308
 2361SOL    HW2 7983   2.646   0.379   4.415
 2362SOL     OW 7984   4.459   6.752   4.824
 2362SOL    HW1 7985   4.457   6.849   4.800
 2362SOL    HW2 7986   4.460   6.742   4.923
 2363SOL     OW 7987   4.885   2.298   5.480
 2363SOL    HW1 7988   4.848   2.280   5.389
 2363SOL    HW2 7989   4.855   2.227   5.543
 2364SOL     OW 7990   6.043   1.917   2.331
 2364SOL    HW1 7991   6.087   1.952   2.248
 2364SOL    HW2 7992   6.032   1.818   2.323
 2365SOL     OW 7993   5.452   3.808   5.625
 2365SOL    HW1 7994   5.470   3.846   5.535
 2365SOL    HW2 7995   5.428   3.711   5.616
 2366SOL     OW 7996   1.175   3.998   5.592
 2366SOL    HW1 7997   1.243   4.067   5.617
 2366SOL    HW2 7998   1.210   3.907   5.617
 2367SOL     OW 7999   1.702   3.913   6.617
 2367SOL    HW1 8000   1.683   3.948   6.525
 2367SOL    HW2 8001   1.754   3.981   6.668
 2368SOL     OW 8002   5.114   1.150   4.667
 2368SOL    HW1 8003   5.035   1.119   4.719
 2368SOL    HW2 8004   5.089   1.159   4.571
 2369SOL     OW 8005   2.366   2.342   4.089
 2369SOL    HW1 8006   2.390   2.247   4.112
 2369SOL    HW2 8007   2.429   2.377   4.020
 2370SOL     OW 8008   4.304   3.904   6.583
 2370SOL    HW1 8009   4.363   3.939   6.656
 2370SOL    HW2 8010   4.360   3.854   6.517
 2371SOL     OW 8011   1.692   5.571   2.016
 2371SOL    HW1 8012   1.652   5.482   2.041
 2371SOL    HW2 8013   1.675   5.637   2.089
 2372SOL     OW 8014   0.403   1.893   0.190
 2372SOL    HW1 8015   0.423   1.815   0.250
 2372SOL    HW2 8016   0.488   1.931   0.154
 2373SOL     OW 8017   6.235   1.189   6.688
 2373SOL    HW1 8018   6.157   1.161   6.743
 2373SOL    HW2 8019   6.252   1.287   6.702
 2374SOL     OW 8020   6.151   5.348   3.454
 2374SOL    HW1 8021   6.251   5.340   3.455
 2374SOL    HW2 8022   6.115   5.321   3.543
 2375SOL     OW 8023   0.912   6.681   4.526
 2375SOL    HW1 8024   0.974   6.711   4.598
 2375SOL    HW2 8025   0.824   6.656   4.566
 2376SOL     OW 8026   5.854   2.572   3.297
 2376SOL    HW1 8027   5.900   2.580   3.386
 2376SOL    HW2 8028   5.890   2.642   3.235
 2377SOL     OW 8029   3.395   3.306   4.488
 2377SOL    HW1 8030   3.426   3.360   4.567
 2377SOL    HW2 8031   3.472   3.257   4.448
 2378SOL     OW 8032   5.360   1.927   0.077
 2378SOL    HW1 8033   5.425   1.867   0.029
 2378SOL    HW2 8034   5.270   1.884   0.080
 2379SOL     OW 8035   6.916   2.660   0.198
 2379SOL    HW1 8036   7.008   2.698   0.213
 2379SOL    HW2 8037   6.854   2.734   0.172
 2380SOL     OW 8038   6.892   0.856   5.451
 2380SOL    HW1 8039   6.855   0.813   5.533
 2380SOL    HW2 8040   6.935   0.787   5.393
 2381SOL     OW 8041   1.643   4.361   4.609
 2381SOL    HW1 8042   1.606   4.406   4.527
 2381SOL    HW2 8043   1.701   4.425   4.659
 2382SOL     OW 8044   2.015   5.393   2.576
 2382SOL    HW1 8045   2.033   5.398   2.478
 2382SOL    HW2 8046   2.010   5.485   2.614
 2383SOL     OW 8047   5.502   6.346   6.677
 2383SOL    HW1 8048   5.485   6.336   6.775
 2383SOL    HW2 8049   5.500   6.256   6.633
 2384SOL     OW 8050   1.038   1.736   1.694
 2384SOL    HW1 8051   1.022   1.647   1.652
 2384SOL    HW2 8052   1.135   1.748   1.713
 2385SOL     OW 8053   0.018   0.433   1.252
 2385SOL    HW1 8054   0.082   0.359   1.231
 2385SOL    HW2 8055   0.038   0.469   1.343
 2386SOL     OW 8056   3.112   5.178   4.636
 2386SOL    HW1 8057   3.080   5.193   4.729
 2386SOL    HW2 8058   3.197   5.228   4.621
 2387SOL     OW 8059   6.664   2.798   4.420
 2387SOL    HW1 8060   6.594   2.776   4.488
 2387SOL    HW2 8061   6.755   2.783   4.461
 2388SOL     OW 8062   1.590   1.816   5.682
 2388SOL    HW1 8063   1.630   1.801   5.772
 2388SOL    HW2 8064   1.507   1.872   5.691
 2389SOL     OW 8065   4.455   4.549   4.085
 2389SOL    HW1 8066   4.425   4.463   4.127
 2389SOL    HW2 8067   4.532   4.586   4.137
 2390SOL     OW 8068   3.879   4.043   4.760
 2390SOL    HW1 8069   3.936   4.034   4.678
 2390SOL    HW2 8070   3.895   3.966   4.821
 2391SOL     OW 8071   3.472   4.482   6.189
 2391SOL    HW1 8072   3.399   4.543   6.218
 2391SOL    HW2 8073   3.550   4.491   6.251
 2392SOL     OW 8074   2.961   4.886   6.243
 2392SOL    HW1 8075   3.018   4.957   6.284
 2392SOL    HW2 8076   2.903   4.927   6.173
 2393SOL     OW 8077   3.995   5.497   1.589
 2393SOL    HW1 8078   4.072   5.560   1.580
 2393SOL    HW2 8079   3.960   5.474   1.498
 2394SOL     OW 8080   1.302   3.907   4.113
 2394SOL    HW1 8081   1.278   3.812   4.091
 2394SOL    HW2 8082   1.397   3.910   4.146
 2395SOL     OW 8083   0.050   2.585   6.836
 2395SOL    HW1 8084   0.053   2.685   6.841
 2395SOL    HW2 8085   0.087   2.554   6.749
 2396SOL     OW 8086   6.074   6.438   0.804
 2396SOL    HW1 8087   6.066   6.408   0.709
 2396SOL    HW2 8088   6.002   6.504   0.824
 2397SOL     OW 8089   6.489   4.887   0.211
 2397SOL    HW1 8090   6.533   4.942   0.281
 2397SOL    HW2 8091   6.554   4.821   0.174
 2398SOL     OW 8092   2.523   5.042   4.802
 2398SOL    HW1 8093   2.466   4.996   4.734
 2398SOL    HW2 8094   2.495   5.015   4.894
 2399SOL     OW 8095   4.170   1.739   2.812
 2399SOL    HW1 8096   4.107   1.672   2.771
 2399SOL    HW2 8097   4.151   1.829   2.772
 2400SOL     OW 8098   2.928   3.748   0.646
 2400SOL    HW1 8099   2.839   3.787   0.621
 2400SOL    HW2 8100   2.915   3.681   0.720
 2401SOL     OW 8101   3.100   0.244   4.976
 2401SOL    HW1 8102   3.136   0.337   4.977
 2401SOL    HW2 8103   3.000   0.247   4.979
 2402SOL     OW 8104   0.120   2.243   4.126
 2402SOL    HW1 8105   0.022   2.228   4.109
 2402SOL    HW2 8106   0.156   2.307   4.059
 2403SOL     OW 8107   3.115   3.303   0.672
 2403SOL    HW1 8108   3.204   3.344   0.655
 2403SOL    HW2 8109   3.113   3.265   0.765
 2404SOL     OW 8110   5.338   1.529   1.796
 2404SOL    HW1 8111   5.238   1.541   1.792
 2404SOL    HW2 8112   5.380   1.614   1.827
 2405SOL     OW 8113   3.729   3.911   5.146
 2405SOL    HW1 8114   3.678   3.922   5.060
 2405SOL    HW2 8115   3.761   3.817   5.154
 2406SOL     OW 8116   2.296   0.890   2.985
 2406SOL    HW1 8117   2.321   0.962   2.920
 2406SOL    HW2 8118   2.312   0.922   3.078
 2407SOL     OW 8119   4.503   2.162   2.941
 2407SOL    HW1 8120   4.512   2.130   3.036
 2407SOL    HW2 8121   4.516   2.086   2.878
 2408SOL     OW 8122   3.453   5.137   3.031
 2408SOL    HW1 8123   3.402   5.067   3.080
 2408SOL    HW2 8124   3.435   5.129   2.933
 2409SOL     OW 8125   1.723   2.389   1.658
 2409SOL    HW1 8126   1.821   2.396   1.641
 2409SOL    HW2 8127   1.675   2.460   1.607
 2410SOL     OW 8128   6.603   3.473   5.446
 2410SOL    HW1 8129   6.599   3.515   5.536
 2410SOL    HW2 8130   6.541   3.395   5.443
 2411SOL     OW 8131   3.370   4.191   5.339
 2411SOL    HW1 8132   3.286   4.244   5.331
 2411SOL    HW2 8133   3.387   4.171   5.435
 2412SOL     OW 8134   2.677   3.836   0.239
 2412SOL    HW1 8135   2.643   3.793   0.322
 2412SOL    HW2 8136   2.679   3.935   0.252
 2413SOL     OW 8137   6.445   3.359   6.712
 2413SOL    HW1 8138   6.420   3.385   6.805
 2413SOL    HW2 8139   6.542   3.377   6.697
 2414SOL     OW 8140   5.579   3.533   2.754
 2414SOL    HW1 8141   5.656   3.568   2.809
 2414SOL    HW2 8142   5.546   3.448   2.794
 2415SOL     OW 8143   2.130   0.597   1.399
 2415SOL    HW1 8144   2.129   0.500   1.424
 2415SOL    HW2 8145   2.134   0.606   1.300
 2416SOL     OW 8146   1.931   1.480   4.842
 2416SOL    HW1 8147   1.979   1.567   4.832
 2416SOL    HW2 8148   1.974   1.426   4.914
 2417SOL     OW 8149   5.480   2.041   0.293
 2417SOL    HW1 8150   5.418   2.024   0.369
 2417SOL    HW2 8151   5.439   2.006   0.208
 2418SOL     OW 8152   3.470   3.689   4.975
 2418SOL    HW1 8153   3.399   3.719   5.038
 2418SOL    HW2 8154   3.464   3.742   4.890
 2419SOL     OW 8155   0.797   6.757   5.097
 2419SOL    HW1 8156   0.869   6.761   5.028
 2419SOL    HW2 8157   0.761   6.849   5.114
 2420SOL     OW 8158   3.951   0.030   2.342
 2420SOL    HW1 8159   3.978   0.007   2.435
 2420SOL    HW2 8160   3.868   7.006   2.318
 2421SOL     OW 8161   3.119   0.756   4.793
 2421SOL    HW1 8162   3.054   0.760   4.869
 2421SOL    HW2 8163   3.212   0.761   4.829
 2422SOL     OW 8164   5.147   0.735   0.770
 2422SOL    HW1 8165   5.226   0.745   0.830
 2422SOL    HW2 8166   5.111   0.642   0.777
 2423SOL     OW 8167   2.313   5.708   2.242
 2423SOL    HW1 8168   2.345   5.714   2.336
 2423SOL    HW2 8169   2.381   5.660   2.187
 2424SOL     OW 8170   5.398   6.136   6.539
 2424SOL    HW1 8171   5.466   6.065   6.558
 2424SOL    HW2 8172   5.306   6.100   6.554
 2425SOL     OW 8173   6.507   6.682   4.939
 2425SOL    HW1 8174   6.601   6.666   4.971
 2425SOL    HW2 8175   6.510   6.731   4.852
 2426SOL     OW 8176   0.897   5.822   4.870
 2426SOL    HW1 8177   0.976   5.813   4.810
 2426SOL    HW2 8178   0.926   5.857   4.959
 2427SOL     OW 8179   5.526   5.307   6.664
 2427SOL    HW1 8180   5.500   5.399   6.635
 2427SOL    HW2 8181   5.579   5.263   6.592
 2428SOL     OW 8182   0.934   0.499   4.098
 2428SOL    HW1 8183   0.896   0.589   4.077
 2428SOL    HW2 8184   1.014   0.510   4.158
 2429SOL     OW 8185   5.641   5.039   3.245
 2429SOL    HW1 8186   5.690   4.962   3.206
 2429SOL    HW2 8187   5.707   5.102   3.287
 2430SOL     OW 8188   5.435   2.834   0.666
 2430SOL    HW1 8189   5.371   2.860   0.594
 2430SOL    HW2 8190   5.461   2.738   0.655
 2431SOL     OW 8191   4.240   0.485   1.204
 2431SOL    HW1 8192   4.269   0.466   1.110
 2431SOL    HW2 8193   4.309   0.542   1.249
 2432SOL     OW 8194   4.174   6.535   2.930
 2432SOL    HW1 8195   4.153   6.554   2.834
 2432SOL    HW2 8196   4.134   6.606   2.988
 2433SOL     OW 8197   2.621   0.098   0.229
 2433SOL    HW1 8198   2.672   0.033   0.285
 2433SOL    HW2 8199   2.620   0.066   0.134
 2434SOL     OW 8200   4.699   1.392   3.493
 2434SOL    HW1 8201   4.766   1.366   3.424
 2434SOL    HW2 8202   4.653   1.311   3.528
 2435SOL     OW 8203   4.924   4.679   0.543
 2435SOL    HW1 8204   4.838   4.662   0.493
 2435SOL    HW2 8205   4.906   4.741   0.620
 2436SOL     OW 8206   1.741   0.034   1.055
 2436SOL    HW1 8207   1.739   7.002   0.975
 2436SOL    HW2 8208   1.705   7.011   1.134
 2437SOL     OW 8209   5.016   5.474   1.221
 2437SOL    HW1 8210   4.983   5.466   1.127
 2437SOL    HW2 8211   5.079   5.552   1.229
 2438SOL     OW 8212   4.391   0.816   4.779
 2438SOL    HW1 8213   4.440   0.872   4.713
 2438SOL    HW2 8214   4.345   0.875   4.846
 2439SOL     OW 8215   0.764   4.244   0.513
 2439SOL    HW1 8216   0.792   4.310   0.443
 2439SOL    HW2 8217   0.793   4.152   0.485
 2440SOL     OW 8218   3.891   6.677   5.188
 2440SOL    HW1 8219   3.875   6.772   5.160
 2440SOL    HW2 8220   3.987   6.654   5.174
 2441SOL     OW 8221   5.579   0.580   0.239
 2441SOL    HW1 8222   5.678   0.576   0.256
 2441SOL    HW2 8223   5.533   0.509   0.293
 2442SOL     OW 8224   5.913   5.387   2.915
 2442SOL    HW1 8225   5.999   5.429   2.889
 2442SOL    HW2 8226   5.838   5.430   2.865
 2443SOL     OW 8227   2.990   0.709   6.470
 2443SOL    HW1 8228   3.088   0.729   6.467
 2443SOL    HW2 8229   2.976   0.622   6.518
 2444SOL     OW 8230   3.548   4.259   0.019
 2444SOL    HW1 8231   3.533   4.188   6.976
 2444SOL    HW2 8232   3.472   4.323   0.019
 2445SOL     OW 8233   6.663   1.596   2.248
 2445SOL    HW1 8234   6.726   1.554   2.184
 2445SOL    HW2 8235   6.626   1.525   2.309
 2446SOL     OW 8236   0.746   2.948   4.701
 2446SOL    HW1 8237   0.646   2.936   4.702
 2446SOL    HW2 8238   0.780   2.929   4.608
 2447SOL     OW 8239   2.335   1.564   0.865
 2447SOL    HW1 8240   2.383   1.524   0.943
 2447SOL    HW2 8241   2.374   1.653   0.843
 2448SOL     OW 8242   6.663   1.080   4.329
 2448SOL    HW1 8243   6.615   1.007   4.282
 2448SOL    HW2 8244   6.694   1.148   4.262
 2449SOL     OW 8245   0.292   3.689   2.824
 2449SOL    HW1 8246   0.330   3.781   2.831
 2449SOL    HW2 8247   0.353   3.624   2.870
 2450SOL     OW 8248   3.169   5.457   5.779
 2450SOL    HW1 8249   3.085   5.408   5.804
 2450SOL    HW2 8250   3.153   5.510   5.696
 2451SOL     OW 8251   1.485   0.266   3.629
 2451SOL    HW1 8252   1.569   0.284   3.577
 2451SOL    HW2 8253   1.449   0.177   3.603
 2452SOL     OW 8254   3.209   2.070   3.454
 2452SOL    HW1 8255   3.183   2.084   3.358
 2452SOL    HW2 8256   3.288   2.010   3.458
 2453SOL     OW 8257   6.849   3.523   0.547
 2453SOL    HW1 8258   6.844   3.424   0.557
 2453SOL    HW2 8259   6.796   3.567   0.619
 2454SOL     OW 8260   3.613   0.612   6.232
 2454SOL    HW1 8261   3.695   0.658   6.267
 2454SOL    HW2 8262   3.551   0.679   6.192
 2455SOL     OW 8263   4.151   0.462   0.901
 2455SOL    HW1 8264   4.154   0.421   0.810
 2455SOL    HW2 8265   4.243   0.467   0.938
 2456SOL     OW 8266   6.207   2.494   0.187
 2456SOL    HW1 8267   6.280   2.562   0.179
 2456SOL    HW2 8268   6.145   2.520   0.261
 2457SOL     OW 8269   6.193   0.235   6.857
 2457SOL    HW1 8270   6.243   0.281   6.930
 2457SOL    HW2 8271   6.108   0.197   6.894
 2458SOL     OW 8272   1.863   6.060   4.021
 2458SOL    HW1 8273   1.766   6.066   4.046
 2458SOL    HW2 8274   1.871   6.059   3.922
 2459SOL     OW 8275   2.431   6.154   5.975
 2459SOL    HW1 8276   2.525   6.133   5.949
 2459SOL    HW2 8277   2.429   6.190   6.068
 2460SOL     OW 8278   1.504   1.550   1.412
 2460SOL    HW1 8279   1.433   1.509   1.353
 2460SOL    HW2 8280   1.567   1.602   1.355
 2461SOL     OW 8281   4.503   0.911   3.331
 2461SOL    HW1 8282   4.599   0.939   3.333
 2461SOL    HW2 8283   4.483   0.867   3.243
 2462SOL     OW 8284   1.464   5.226   6.625
 2462SOL    HW1 8285   1.449   5.320   6.593
 2462SOL    HW2 8286   1.558   5.216   6.656
 2463SOL     OW 8287   6.539   1.686   6.220
 2463SOL    HW1 8288   6.578   1.748   6.288
 2463SOL    HW2 8289   6.447   1.717   6.196
 2464SOL     OW 8290   2.274   4.134   2.520
 2464SOL    HW1 8291   2.274   4.132   2.620
 2464SOL    HW2 8292   2.301   4.045   2.485
 2465SOL     OW 8293   0.655   0.260   0.857
 2465SOL    HW1 8294   0.614   0.351   0.847
 2465SOL    HW2 8295   0.741   0.256   0.806
 2466SOL     OW 8296   2.365   1.580   2.943
 2466SOL    HW1 8297   2.388   1.662   2.891
 2466SOL    HW2 8298   2.416   1.580   3.029
 2467SOL     OW 8299   4.934   1.214   5.231
 2467SOL    HW1 8300   4.871   1.280   5.192
 2467SOL    HW2 8301   4.891   1.169   5.310
 2468SOL     OW 8302   4.344   6.526   1.777
 2468SOL    HW1 8303   4.385   6.610   1.813
 2468SOL    HW2 8304   4.245   6.531   1.786
 2469SOL     OW 8305   4.223   3.995   5.810
 2469SOL    HW1 8306   4.299   3.935   5.785
 2469SOL    HW2 8307   4.243   4.040   5.897
 2470SOL     OW 8308   4.326   4.346   6.350
 2470SOL    HW1 8309   4.255   4.409   6.381
 2470SOL    HW2 8310   4.322   4.339   6.250
 2471SOL     OW 8311   2.479   6.001   0.521
 2471SOL    HW1 8312   2.470   6.084   0.465
 2471SOL    HW2 8313   2.389   5.960   0.533
 2472SOL     OW 8314   4.994   2.526   4.134
 2472SOL    HW1 8315   4.895   2.513   4.133
 2472SOL    HW2 8316   5.021   2.567   4.221
 2473SOL     OW 8317   1.868   4.056   4.814
 2473SOL    HW1 8318   1.853   3.958   4.805
 2473SOL    HW2 8319   1.891   4.077   4.909
 2474SOL     OW 8320   0.353   5.707   0.746
 2474SOL    HW1 8321   0.451   5.717   0.727
 2474SOL    HW2 8322   0.307   5.793   0.724
 2475SOL     OW 8323   4.536   1.045   2.434
 2475SOL    HW1 8324   4.458   1.086   2.481
 2475SOL    HW2 8325   4.591   0.994   2.499
 2476SOL     OW 8326   6.886   1.352   3.119
 2476SOL    HW1 8327   6.887   1.259   3.083
 2476SOL    HW2 8328   6.844   1.413   3.053
 2477SOL     OW 8329   4.490   1.270   1.988
 2477SOL    HW1 8330   4.589   1.256   1.988
 2477SOL    HW2 8331   4.462   1.314   1.902
 2478SOL     OW 8332   6.519   1.194   1.877
 2478SOL    HW1 8333   6.536   1.282   1.833
 2478SOL    HW2 8334   6.549   1.120   1.816
 2479SOL     OW 8335   1.583   3.734   1.321
 2479SOL    HW1 8336   1.637   3.685   1.253
 2479SOL    HW2 8337   1.487   3.732   1.294
 2480SOL     OW 8338   4.847   4.291   0.952
 2480SOL    HW1 8339   4.890   4.341   0.877
 2480SOL    HW2 8340   4.764   4.339   0.981
 2481SOL     OW 8341   2.359   0.740   0.298
 2481SOL    HW1 8342   2.283   0.786   0.344
 2481SOL    HW2 8343   2.427   0.808   0.272
 2482SOL     OW 8344   4.782   3.549   6.084
 2482SOL    HW1 8345   4.735   3.483   6.143
 2482SOL    HW2 8346   4.808   3.505   5.999
 2483SOL     OW 8347   2.207   1.582   6.961
 2483SOL    HW1 8348   2.132   1.579   0.000
 2483SOL    HW2 8349   2.245   1.675   6.959
 2484SOL     OW 8350   3.643   0.690   0.113
 2484SOL    HW1 8351   3.596   0.709   0.200
 2484SOL    HW2 8352   3.699   0.769   0.088
 2485SOL     OW 8353   6.184   4.088   1.166
 2485SOL    HW1 8354   6.194   4.123   1.259
 2485SOL    HW2 8355   6.183   4.164   1.101
 2486SOL     OW 8356   1.911   4.840   4.226
 2486SOL    HW1 8357   1.975   4.837   4.150
 2486SOL    HW2 8358   1.822   4.874   4.193
 2487SOL     OW 8359   3.945   5.889   0.287
 2487SOL    HW1 8360   3.911   5.973   0.329
 2487SOL    HW2 8361   3.868   5.839   0.247
 2488SOL     OW 8362   2.171   4.463   2.583
 2488SOL    HW1 8363   2.109   4.447   2.660
 2488SOL    HW2 8364   2.261   4.490   2.618
 2489SOL     OW 8365   1.294   5.708   2.641
 2489SOL    HW1 8366   1.332   5.641   2.577
 2489SOL    HW2 8367   1.201   5.732   2.613
 2490SOL     OW 8368   6.551   4.992   1.624
 2490SOL    HW1 8369   6.614   4.943   1.564
 2490SOL    HW2 8370   6.462   5.000   1.578
 2491SOL     OW 8371   3.027   5.443   0.779
 2491SOL    HW1 8372   2.977   5.527   0.757
 2491SOL    HW2 8373   3.002   5.413   0.871
 2492SOL     OW 8374   4.187   2.191   1.116
 2492SOL    HW1 8375   4.141   2.157   1.198
 2492SOL    HW2 8376   4.125   2.249   1.064
 2493SOL     OW 8377   5.987   0.974   1.915
 2493SOL    HW1 8378   5.951   0.933   1.832
 2493SOL    HW2 8379   6.043   0.907   1.964
 2494SOL     OW 8380   5.692   3.538   1.961
 2494SOL    HW1 8381   5.703   3.448   2.003
 2494SOL    HW2 8382   5.628   3.532   1.884
 2495SOL     OW 8383   5.277   0.270   4.383
 2495SOL    HW1 8384   5.252   0.196   4.320
 2495SOL    HW2 8385   5.309   0.349   4.331
 2496SOL     OW 8386   0.692   3.668   5.886
 2496SOL    HW1 8387   0.598   3.683   5.916
 2496SOL    HW2 8388   0.739   3.609   5.952
 2497SOL     OW 8389   0.616   0.525   0.835
 2497SOL    HW1 8390   0.536   0.583   0.850
 2497SOL    HW2 8391   0.655   0.545   0.745
 2498SOL     OW 8392   3.053   1.103   4.789
 2498SOL    HW1 8393   2.971   1.131   4.739
 2498SOL    HW2 8394   3.093   1.023   4.745
 2499SOL     OW 8395   5.506   2.044   3.485
 2499SOL    HW1 8396   5.479   1.997   3.401
 2499SOL    HW2 8397   5.513   1.978   3.560
 2500SOL     OW 8398   4.440   2.924   6.982
 2500SOL    HW1 8399   4.470   2.835   6.948
 2500SOL    HW2 8400   4.353   2.913   0.004
 2501SOL     OW 8401   5.863   5.231   6.917
 2501SOL    HW1 8402   5.911   5.219   6.830
 2501SOL    HW2 8403   5.864   5.146   6.969
 2502SOL     OW 8404   1.845   5.562   3.210
 2502SOL    HW1 8405   1.901   5.641   3.236
 2502SOL    HW2 8406   1.894   5.507   3.143
 2503SOL     OW 8407   3.440   5.654   4.487
 2503SOL    HW1 8408   3.509   5.621   4.551
 2503SOL    HW2 8409   3.483   5.675   4.399
 2504SOL     OW 8410   3.478   5.082   4.846
 2504SOL    HW1 8411   3.470   5.042   4.755
 2504SOL    HW2 8412   3.495   5.181   4.837
 2505SOL     OW 8413   1.223   6.188   3.830
 2505SOL    HW1 8414   1.146   6.244   3.798
 2505SOL    HW2 8415   1.299   6.248   3.855
 2506SOL     OW 8416   6.629   3.693   5.306
 2506SOL    HW1 8417   6.661   3.758   5.375
 2506SOL    HW2 8418   6.593   3.612   5.352
 2507SOL     OW 8419   1.124   4.639   0.981
 2507SOL    HW1 8420   1.146   4.545   0.954
 2507SOL    HW2 8421   1.174   4.703   0.923
 2508SOL     OW 8422   2.377   1.541   2.282
 2508SOL    HW1 8423   2.335   1.490   2.357
 2508SOL    HW2 8424   2.347   1.636   2.285
 2509SOL     OW 8425   6.848   2.467   2.039
 2509SOL    HW1 8426   6.757   2.465   2.079
 2509SOL    HW2 8427   6.898   2.546   2.074
 2510SOL     OW 8428   3.318   4.465   1.347
 2510SOL    HW1 8429   3.235   4.418   1.317
 2510SOL    HW2 8430   3.374   4.403   1.401
 2511SOL     OW 8431   2.737   1.514   3.787
 2511SOL    HW1 8432   2.777   1.452   3.854
 2511SOL    HW2 8433   2.719   1.463   3.702
 2512SOL     OW 8434   4.780   4.381   5.158
 2512SOL    HW1 8435   4.777   4.448   5.232
 2512SOL    HW2 8436   4.875   4.364   5.133
 2513SOL     OW 8437   1.163   4.053   4.284
 2513SOL    HW1 8438   1.195   3.987   4.216
 2513SOL    HW2 8439   1.063   4.050   4.289
 2514SOL     OW 8440   6.357   3.648   4.051
 2514SOL    HW1 8441   6.327   3.664   3.957
 2514SOL    HW2 8442   6.277   3.629   4.108
 2515SOL     OW 8443   1.464   6.329   0.619
 2515SOL    HW1 8444   1.377   6.348   0.664
 2515SOL    HW2 8445   1.519   6.269   0.677
 2516SOL     OW 8446   6.311   0.846   2.999
 2516SOL    HW1 8447   6.306   0.879   3.093
 2516SOL    HW2 8448   6.227   0.870   2.951
 2517SOL     OW 8449   0.600   5.370   5.879
 2517SOL    HW1 8450   0.503   5.388   5.895
 2517SOL    HW2 8451   0.640   5.326   5.959
 2518SOL     OW 8452   1.094   4.168   6.890
 2518SOL    HW1 8453   1.060   4.205   6.976
 2518SOL    HW2 8454   1.156   4.092   6.909
 2519SOL     OW 8455   5.394   7.007   3.809
 2519SOL    HW1 8456   5.393   0.078   3.830
 2519SOL    HW2 8457   5.364   6.993   3.715
 2520SOL     OW 8458   2.242   2.399   6.717
 2520SOL    HW1 8459   2.169   2.450   6.762
 2520SOL    HW2 8460   2.212   2.305   6.702
 2521SOL     OW 8461   1.097   0.081   4.968
 2521SOL    HW1 8462   1.043   7.026   4.990
 2521SOL    HW2 8463   1.181   0.053   4.921
 2522SOL     OW 8464   0.417   3.350   5.794
 2522SOL    HW1 8465   0.470   3.420   5.841
 2522SOL    HW2 8466   0.479   3.280   5.758
 2523SOL     OW 8467   0.260   3.000   1.799
 2523SOL    HW1 8468   0.218   2.925   1.851
 2523SOL    HW2 8469   0.246   3.086   1.848
 2524SOL     OW 8470   0.609   5.919   5.574
 2524SOL    HW1 8471   0.644   5.898   5.665
 2524SOL    HW2 8472   0.511   5.901   5.571
 2525SOL     OW 8473   0.894   2.547   4.484
 2525SOL    HW1 8474   0.806   2.504   4.504
 2525SOL    HW2 8475   0.911   2.621   4.549
 2526SOL     OW 8476   1.224   4.629   5.326
 2526SOL    HW1 8477   1.270   4.549   5.366
 2526SOL    HW2 8478   1.279   4.711   5.343
 2527SOL     OW 8479   5.375   5.879   4.824
 2527SOL    HW1 8480   5.379   5.812   4.749
 2527SOL    HW2 8481   5.338   5.835   4.906
 2528SOL     OW 8482   5.381   4.653   1.242
 2528SOL    HW1 8483   5.474   4.685   1.262
 2528SOL    HW2 8484   5.315   4.710   1.292
 2529SOL     OW 8485   6.495   6.856   6.425
 2529SOL    HW1 8486   6.581   6.901   6.401
 2529SOL    HW2 8487   6.498   6.760   6.396
 2530SOL     OW 8488   2.122   0.006   4.820
 2530SOL    HW1 8489   2.102   0.099   4.789
 2530SOL    HW2 8490   2.051   7.002   4.883
 2531SOL     OW 8491   4.902   5.901   4.269
 2531SOL    HW1 8492   4.888   5.804   4.247
 2531SOL    HW2 8493   4.816   5.950   4.258
 2532SOL     OW 8494   0.461   6.399   0.205
 2532SOL    HW1 8495   0.544   6.375   0.154
 2532SOL    HW2 8496   0.387   6.418   0.141
 2533SOL     OW 8497   2.880   0.153   3.109
 2533SOL    HW1 8498   2.831   0.187   3.190
 2533SOL    HW2 8499   2.977   0.144   3.130
 2534SOL     OW 8500   3.319   0.928   2.928
 2534SOL    HW1 8501   3.366   0.847   2.963
 2534SOL    HW2 8502   3.233   0.942   2.977
 2535SOL     OW 8503   3.397   2.786   5.800
 2535SOL    HW1 8504   3.348   2.719   5.857
 2535SOL    HW2 8505   3.453   2.738   5.733
 2536SOL     OW 8506   7.014   1.696   4.436
 2536SOL    HW1 8507   6.969   1.783   4.417
 2536SOL    HW2 8508   6.946   1.622   4.436
 2537SOL     OW 8509   4.655   7.007   6.242
 2537SOL    HW1 8510   4.604   0.067   6.232
 2537SOL    HW2 8511   4.642   6.971   6.335
 2538SOL     OW 8512   1.324   5.003   4.682
 2538SOL    HW1 8513   1.292   5.069   4.614
 2538SOL    HW2 8514   1.283   4.913   4.664
 2539SOL     OW 8515   4.991   0.978   5.828
 2539SOL    HW1 8516   4.895   0.956   5.843
 2539SOL    HW2 8517   5.002   1.016   5.736
 2540SOL     OW 8518   3.841   1.198   2.554
 2540SOL    HW1 8519   3.828   1.144   2.471
 2540SOL    HW2 8520   3.901   1.275   2.534
 2541SOL     OW 8521   1.819   6.910   5.434
 2541SOL    HW1 8522   1.788   6.862   5.352
 2541SOL    HW2 8523   1.821   6.846   5.511
 2542SOL     OW 8524   4.451   1.125   6.158
 2542SOL    HW1 8525   4.471   1.042   6.105
 2542SOL    HW2 8526   4.516   1.197   6.133
 2543SOL     OW 8527   1.682   1.885   2.900
 2543SOL    HW1 8528   1.642   1.814   2.843
 2543SOL    HW2 8529   1.778   1.863   2.919
 2544SOL     OW 8530   0.406   5.639   1.196
 2544SOL    HW1 8531   0.368   5.686   1.275
 2544SOL    HW2 8532   0.481   5.580   1.226
 2545SOL     OW 8533   1.852   0.959   1.693
 2545SOL    HW1 8534   1.790   0.917   1.760
 2545SOL    HW2 8535   1.813   0.950   1.601
 2546SOL     OW 8536   0.266   1.858   1.756
 2546SOL    HW1 8537   0.218   1.864   1.843
 2546SOL    HW2 8538   0.306   1.947   1.733
 2547SOL     OW 8539   5.992   3.516   0.134
 2547SOL    HW1 8540   6.009   3.493   0.230
 2547SOL    HW2 8541   5.896   3.543   0.123
 2548SOL     OW 8542   2.656   6.588   5.881
 2548SOL    HW1 8543   2.560   6.614   5.871
 2548SOL    HW2 8544   2.709   6.627   5.806
 2549SOL     OW 8545   1.709   0.574   1.345
 2549SOL    HW1 8546   1.749   0.566   1.253
 2549SOL    HW2 8547   1.664   0.662   1.355
 2550SOL     OW 8548   6.769   0.659   6.036
 2550SOL    HW1 8549   6.809   0.721   5.968
 2550SOL    HW2 8550   6.670   0.660   6.029
 2551SOL     OW 8551   3.472   5.393   0.198
 2551SOL    HW1 8552   3.486   5.467   0.263
 2551SOL    HW2 8553   3.471   5.305   0.247
 2552SOL     OW 8554   1.838   5.568   6.295
 2552SOL    HW1 8555   1.924   5.620   6.297
 2552SOL    HW2 8556   1.854   5.481   6.248
 2553SOL     OW 8557   3.886   3.208   0.032
 2553SOL    HW1 8558   3.796   3.191   7.017
 2553SOL    HW2 8559   3.884   3.178   0.128
 2554SOL     OW 8560   1.638   6.460   6.696
 2554SOL    HW1 8561   1.648   6.437   6.599
 2554SOL    HW2 8562   1.687   6.392   6.751
 2555SOL     OW 8563   6.211   6.605   6.760
 2555SOL    HW1 8564   6.164   6.518   6.774
 2555SOL    HW2 8565   6.310   6.590   6.762
 2556SOL     OW 8566   4.647   5.127   0.306
 2556SOL    HW1 8567   4.571   5.087   0.255
 2556SOL    HW2 8568   4.653   5.084   0.396
 2557SOL     OW 8569   2.870   2.597   6.538
 2557SOL    HW1 8570   2.958   2.574   6.581
 2557SOL    HW2 8571   2.886   2.629   6.445
 2558SOL     OW 8572   4.162   3.073   5.640
 2558SOL    HW1 8573   4.109   3.158   5.640
 2558SOL    HW2 8574   4.182   3.048   5.545
 2559SOL     OW 8575   6.523   3.434   4.421
 2559SOL    HW1 8576   6.449   3.367   4.422
 2559SOL    HW2 8577   6.486   3.526   4.436
 2560SOL     OW 8578   5.912   3.329   4.247
 2560SOL    HW1 8579   5.869   3.346   4.336
 2560SOL    HW2 8580   5.874   3.393   4.180
 2561SOL     OW 8581   2.678   6.985   4.202
 2561SOL    HW1 8582   2.623   6.941   4.274
 2561SOL    HW2 8583   2.771   6.999   4.235
 2562SOL     OW 8584   1.753   5.785   2.629
 2562SOL    HW1 8585   1.772   5.705   2.572
 2562SOL    HW2 8586   1.755   5.868   2.572
 2563SOL     OW 8587   3.767   2.251   6.748
 2563SOL    HW1 8588   3.841   2.317   6.732
 2563SOL    HW2 8589   3.696   2.294   6.804
 2564SOL     OW 8590   1.400   6.683   6.188
 2564SOL    HW1 8591   1.391   6.772   6.142
 2564SOL    HW2 8592   1.315   6.663   6.237
 2565SOL     OW 8593   6.847   0.836   0.702
 2565SOL    HW1 8594   6.849   0.772   0.626
 2565SOL    HW2 8595   6.786   0.802   0.774
 2566SOL     OW 8596   1.608   6.959   1.258
 2566SOL    HW1 8597   1.588   6.987   1.352
 2566SOL    HW2 8598   1.532   6.906   1.222
 2567SOL     OW 8599   1.020   1.144   1.778
 2567SOL    HW1 8600   1.056   1.231   1.745
 2567SOL    HW2 8601   0.959   1.104   1.709
 2568SOL     OW 8602   3.374   6.527   0.083
 2568SOL    HW1 8603   3.430   6.462   0.031
 2568SOL    HW2 8604   3.355   6.608   0.026
 2569SOL     OW 8605   2.600   1.112   1.715
 2569SOL    HW1 8606   2.528   1.058   1.759
 2569SOL    HW2 8607   2.579   1.209   1.723
 2570SOL     OW 8608   5.563   1.089   6.703
 2570SOL    HW1 8609   5.506   1.105   6.623
 2570SOL    HW2 8610   5.606   0.999   6.695
 2571SOL     OW 8611   2.064   4.198   5.533
 2571SOL    HW1 8612   2.122   4.226   5.610
 2571SOL    HW2 8613   2.112   4.216   5.448
 2572SOL     OW 8614   2.078   5.747   0.302
 2572SOL    HW1 8615   2.080   5.816   0.229
 2572SOL    HW2 8616   2.044   5.660   0.265
 2573SOL     OW 8617   6.309   1.884   1.748
 2573SOL    HW1 8618   6.275   1.862   1.840
 2573SOL    HW2 8619   6.233   1.916   1.691
 2574SOL     OW 8620   6.277   3.339   0.159
 2574SOL    HW1 8621   6.243   3.430   0.184
 2574SOL    HW2 8622   6.220   3.301   0.086
 2575SOL     OW 8623   4.596   5.185   6.988
 2575SOL    HW1 8624   4.556   5.221   0.046
 2575SOL    HW2 8625   4.583   5.086   6.984
 2576SOL     OW 8626   3.765   6.785   4.535
 2576SOL    HW1 8627   3.710   6.729   4.473
 2576SOL    HW2 8628   3.830   6.726   4.583
 2577SOL     OW 8629   3.685   6.651   1.870
 2577SOL    HW1 8630   3.690   6.750   1.878
 2577SOL    HW2 8631   3.720   6.622   1.781
 2578SOL     OW 8632   4.845   2.067   4.139
 2578SOL    HW1 8633   4.928   2.093   4.189
 2578SOL    HW2 8634   4.835   1.968   4.139
 2579SOL     OW 8635   1.565   6.420   2.818
 2579SOL    HW1 8636   1.483   6.422   2.762
 2579SOL    HW2 8637   1.560   6.344   2.882
 2580SOL     OW 8638   2.799   3.330   6.644
 2580SOL    HW1 8639   2.709   3.289   6.630
 2580SOL    HW2 8640   2.818   3.336   6.742
 2581SOL     OW 8641   0.203   4.164   0.970
 2581SOL    HW1 8642   0.267   4.236   0.942
 2581SOL    HW2 8643   0.210   4.087   0.907
 2582SOL     OW 8644   0.830   4.141   2.013
 2582SOL    HW1 8645   0.795   4.059   1.969
 2582SOL    HW2 8646   0.797   4.145   2.108
 2583SOL     OW 8647   0.640   1.436   1.151
 2583SOL    HW1 8648   0.712   1.379   1.191
 2583SOL    HW2 8649   0.584   1.475   1.223
 2584SOL     OW 8650   4.375   5.536   0.217
 2584SOL    HW1 8651   4.304   5.479   0.257
 2584SOL    HW2 8652   4.384   5.515   0.120
 2585SOL     OW 8653   4.969   2.595   0.848
 2585SOL    HW1 8654   4.949   2.692   0.831
 2585SOL    HW2 8655   4.900   2.538   0.803
 2586SOL     OW 8656   3.401   1.419   3.580
 2586SOL    HW1 8657   3.491   1.379   3.597
 2586SOL    HW2 8658   3.366   1.387   3.492
 2587SOL     OW 8659   0.922   0.827   3.339
 2587SOL    HW1 8660   0.860   0.753   3.365
 2587SOL    HW2 8661   0.920   0.898   3.409
 2588SOL     OW 8662   4.433   0.492   6.278
 2588SOL    HW1 8663   4.463   0.531   6.191
 2588SOL    HW2 8664   4.438   0.561   6.349
 2589SOL     OW 8665   6.864   6.161   6.632
 2589SOL    HW1 8666   6.876   6.098   6.709
 2589SOL    HW2 8667   6.887   6.115   6.547
 2590SOL     OW 8668   3.417   6.227   1.177
 2590SOL    HW1 8669   3.486   6.298   1.166
 2590SOL    HW2 8670   3.455   6.138   1.151
 2591SOL     OW 8671   6.626   5.656   2.563
 2591SOL    HW1 8672   6.557   5.722   2.590
 2591SOL    HW2 8673   6.623   5.577   2.624
 2592SOL     OW 8674   3.697   6.432   1.078
 2592SOL    HW1 8675   3.712   6.370   1.155
 2592SOL    HW2 8676   3.742   6.519   1.096
 2593SOL     OW 8677   2.869   5.660   0.773
 2593SOL    HW1 8678   2.776   5.625   0.765
 2593SOL    HW2 8679   2.869   5.745   0.826
 2594SOL     OW 8680   0.685   5.272   6.118
 2594SOL    HW1 8681   0.713   5.323   6.199
 2594SOL    HW2 8682   0.659   5.179   6.144
 2595SOL     OW 8683   6.745   1.709   3.858
 2595SOL    HW1 8684   6.792   1.793   3.883
 2595SOL    HW2 8685   6.674   1.729   3.790
 2596SOL     OW 8686   4.119   1.877   1.785
 2596SOL    HW1 8687   4.135   1.917   1.695
 2596SOL    HW2 8688   4.021   1.871   1.802
 2597SOL     OW 8689   1.748   4.202   5.764
 2597SOL    HW1 8690   1.729   4.300   5.771
 2597SOL    HW2 8691   1.746   4.173   5.668
 2598SOL     OW 8692   6.114   1.150   3.831
 2598SOL    HW1 8693   6.175   1.160   3.752
 2598SOL    HW2 8694   6.091   1.054   3.843
 2599SOL     OW 8695   2.041   0.081   1.038
 2599SOL    HW1 8696   1.978   0.029   0.981
 2599SOL    HW2 8697   2.094   0.144   0.981
 2600SOL     OW 8698   4.852   3.138   4.263
 2600SOL    HW1 8699   4.833   3.041   4.249
 2600SOL    HW2 8700   4.844   3.160   4.360
 2601SOL     OW 8701   1.943   2.121   0.825
 2601SOL    HW1 8702   1.870   2.156   0.884
 2601SOL    HW2 8703   1.903   2.093   0.737
 2602SOL     OW 8704   0.547   3.984   4.218
 2602SOL    HW1 8705   0.499   3.932   4.149
 2602SOL    HW2 8706   0.639   3.946   4.232
 2603SOL     OW 8707   2.610   1.284   2.466
 2603SOL    HW1 8708   2.567   1.350   2.527
 2603SOL    HW2 8709   2.545   1.209   2.447
 2604SOL     OW 8710   4.974   1.347   3.054
 2604SOL    HW1 8711   5.023   1.427   3.020
 2604SOL    HW2 8712   5.015   1.264   3.017
 2605SOL     OW 8713   2.070   4.196   2.992
 2605SOL    HW1 8714   2.122   4.156   3.068
 2605SOL    HW2 8715   1.993   4.249   3.029
 2606SOL     OW 8716   6.308   4.389   1.867
 2606SOL    HW1 8717   6.243   4.383   1.791
 2606SOL    HW2 8718   6.288   4.470   1.922
 2607SOL     OW 8719   1.090   0.888   0.629
 2607SOL    HW1 8720   1.158   0.957   0.652
 2607SOL    HW2 8721   1.137   0.803   0.602
 2608SOL     OW 8722   4.770   4.764   1.447
 2608SOL    HW1 8723   4.684   4.765   1.395
 2608SOL    HW2 8724   4.751   4.774   1.544
 2609SOL     OW 8725   6.448   1.929   1.179
 2609SOL    HW1 8726   6.459   1.848   1.121
 2609SOL    HW2 8727   6.369   1.981   1.149
 2610SOL     OW 8728   0.741   4.665   4.794
 2610SOL    HW1 8729   0.677   4.589   4.803
 2610SOL    HW2 8730   0.720   4.717   4.711
 2611SOL     OW 8731   4.559   6.509   1.130
 2611SOL    HW1 8732   4.478   6.451   1.137
 2611SOL    HW2 8733   4.625   6.484   1.200
 2612SOL     OW 8734   6.977   0.055   6.157
 2612SOL    HW1 8735   0.015   7.016   6.196
 2612SOL    HW2 8736   6.945   0.022   6.068
 2613SOL     OW 8737   2.504   6.195   6.502
 2613SOL    HW1 8738   2.448   6.146   6.569
 2613SOL    HW2 8739   2.480   6.164   6.410
 2614SOL     OW 8740   6.959   1.029   6.080
 2614SOL    HW1 8741   6.982   0.978   6.162
 2614SOL    HW2 8742   6.980   1.126   6.094
 2615SOL     OW 8743   0.106   2.333   3.387
 2615SOL    HW1 8744   0.174   2.368   3.323
 2615SOL    HW2 8745   0.058   2.409   3.430
 2616SOL     OW 8746   3.096   3.640   5.090
 2616SOL    HW1 8747   3.152   3.713   5.130
 2616SOL    HW2 8748   3.137   3.551   5.110
 2617SOL     OW 8749   3.581   6.395   0.610
 2617SOL    HW1 8750   3.599   6.408   0.513
 2617SOL    HW2 8751   3.521   6.468   0.643
 2618SOL     OW 8752   0.101   0.489   4.429
 2618SOL    HW1 8753   0.047   0.570   4.406
 2618SOL    HW2 8754   0.100   0.425   4.352
 2619SOL     OW 8755   4.107   1.861   3.398
 2619SOL    HW1 8756   4.066   1.950   3.378
 2619SOL    HW2 8757   4.203   1.874   3.422
 2620SOL     OW 8758   0.074   0.350   3.207
 2620SOL    HW1 8759   0.004   0.338   3.277
 2620SOL    HW2 8760   0.125   0.434   3.225
 2621SOL     OW 8761   1.525   5.893   3.014
 2621SOL    HW1 8762   1.463   5.818   3.039
 2621SOL    HW2 8763   1.606   5.891   3.073
 2622SOL     OW 8764   1.762   3.335   5.321
 2622SOL    HW1 8765   1.806   3.250   5.349
 2622SOL    HW2 8766   1.776   3.350   5.223
 2623SOL     OW 8767   1.777   1.070   5.327
 2623SOL    HW1 8768   1.719   1.145   5.295
 2623SOL    HW2 8769   1.738   1.030   5.410
 2624SOL     OW 8770   6.798   1.444   5.707
 2624SOL    HW1 8771   6.779   1.483   5.617
 2624SOL    HW2 8772   6.766   1.507   5.778
 2625SOL     OW 8773   1.867   2.980   5.244
 2625SOL    HW1 8774   1.949   3.032   5.217
 2625SOL    HW2 8775   1.872   2.888   5.205
 2626SOL     OW 8776   0.721   0.457   5.630
 2626SOL    HW1 8777   0.701   0.367   5.593
 2626SOL    HW2 8778   0.717   0.526   5.558
 2627SOL     OW 8779   1.515   1.018   5.800
 2627SOL    HW1 8780   1.432   1.045   5.752
 2627SOL    HW2 8781   1.491   0.965   5.882
 2628SOL     OW 8782   1.591   4.847   5.503
 2628SOL    HW1 8783   1.638   4.898   5.431
 2628SOL    HW2 8784   1.589   4.750   5.478
 2629SOL     OW 8785   3.323   3.152   1.297
 2629SOL    HW1 8786   3.402   3.092   1.282
 2629SOL    HW2 8787   3.241   3.097   1.311
 2630SOL     OW 8788   3.157   1.998   2.671
 2630SOL    HW1 8789   3.075   1.989   2.616
 2630SOL    HW2 8790   3.187   2.093   2.672
 2631SOL     OW 8791   5.268   1.099   5.566
 2631SOL    HW1 8792   5.340   1.046   5.609
 2631SOL    HW2 8793   5.254   1.066   5.472
 2632SOL     OW 8794   4.601   2.720   6.542
 2632SOL    HW1 8795   4.660   2.747   6.618
 2632SOL    HW2 8796   4.622   2.626   6.515
 2633SOL     OW 8797   0.234   1.782   4.586
 2633SOL    HW1 8798   0.207   1.860   4.643
 2633SOL    HW2 8799   0.162   1.765   4.518
 2634SOL     OW 8800   0.439   4.750   3.387
 2634SOL    HW1 8801   0.494   4.822   3.430
 2634SOL    HW2 8802   0.360   4.729   3.444
 2635SOL     OW 8803   6.720   5.549   5.528
 2635SOL    HW1 8804   6.712   5.642   5.494
 2635SOL    HW2 8805   6.639   5.496   5.502
 2636SOL     OW 8806   4.368   0.845   5.226
 2636SOL    HW1 8807   4.285   0.854   5.170
 2636SOL    HW2 8808   4.397   0.749   5.228
 2637SOL     OW 8809   5.053   1.781   3.480
 2637SOL    HW1 8810   5.114   1.742   3.549
 2637SOL    HW2 8811   4.958   1.760   3.503
 2638SOL     OW 8812   0.018   0.074   3.776
 2638SOL    HW1 8813   7.020   7.012   3.815
 2638SOL    HW2 8814   6.966   0.111   3.725
 2639SOL     OW 8815   0.217   5.938   0.673
 2639SOL    HW1 8816   0.127   5.937   0.715
 2639SOL    HW2 8817   0.271   6.013   0.713
 2640SOL     OW 8818   0.466   6.313   5.560
 2640SOL    HW1 8819   0.465   6.253   5.640
 2640SOL    HW2 8820   0.557   6.350   5.547
 2641SOL     OW 8821   5.520   3.175   2.808
 2641SOL    HW1 8822   5.422   3.186   2.824
 2641SOL    HW2 8823   5.535   3.115   2.730
 2642SOL     OW 8824   4.855   6.538   3.823
 2642SOL    HW1 8825   4.948   6.502   3.815
 2642SOL    HW2 8826   4.799   6.473   3.875
 2643SOL     OW 8827   0.310   3.735   3.467
 2643SOL    HW1 8828   0.257   3.663   3.512
 2643SOL    HW2 8829   0.288   3.736   3.369
 2644SOL     OW 8830   5.619   6.574   5.890
 2644SOL    HW1 8831   5.621   6.477   5.866
 2644SOL    HW2 8832   5.690   6.622   5.839
 2645SOL     OW 8833   4.425   5.731   4.426
 2645SOL    HW1 8834   4.430   5.824   4.390
 2645SOL    HW2 8835   4.416   5.734   4.526
 2646SOL     OW 8836   6.265   0.911   6.442
 2646SOL    HW1 8837   6.173   0.942   6.418
 2646SOL    HW2 8838   6.304   0.860   6.365
 2647SOL     OW 8839   6.460   0.072   2.251
 2647SOL    HW1 8840   6.503   7.009   2.243
 2647SOL    HW2 8841   6.387   0.080   2.183
 2648SOL     OW 8842   0.510   0.353   4.350
 2648SOL    HW1 8843   0.481   0.422   4.417
 2648SOL    HW2 8844   0.575   0.394   4.286
 2649SOL     OW 8845   5.658   2.876   6.987
 2649SOL    HW1 8846   5.701   2.786   6.993
 2649SOL    HW2 8847   5.697   2.927   6.911
 2650SOL     OW 8848   1.339   4.504   4.101
 2650SOL    HW1 8849   1.240   4.522   4.105
 2650SOL    HW2 8850   1.353   4.408   4.078
 2651SOL     OW 8851   1.186   1.291   0.728
 2651SOL    HW1 8852   1.130   1.298   0.811
 2651SOL    HW2 8853   1.238   1.205   0.730
 2652SOL     OW 8854   3.953   3.542   4.842
 2652SOL    HW1 8855   3.860   3.508   4.828
 2652SOL    HW2 8856   3.998   3.488   4.914
 2653SOL     OW 8857   5.021   6.578   4.979
 2653SOL    HW1 8858   4.959   6.653   5.000
 2653SOL    HW2 8859   5.114   6.614   4.969
 2654SOL     OW 8860   4.439   6.100   2.403
 2654SOL    HW1 8861   4.437   6.093   2.303
 2654SOL    HW2 8862   4.468   6.192   2.429
 2655SOL     OW 8863   4.666   6.030   4.272
 2655SOL    HW1 8864   4.591   6.059   4.332
 2655SOL    HW2 8865   4.630   5.972   4.200
 2656SOL     OW 8866   3.721   5.184   4.986
 2656SOL    HW1 8867   3.774   5.113   4.939
 2656SOL    HW2 8868   3.758   5.196   5.078
 2657SOL     OW 8869   0.979   3.886   6.439
 2657SOL    HW1 8870   0.998   3.822   6.364
 2657SOL    HW2 8871   0.920   3.960   6.406
 2658SOL     OW 8872   5.116   4.253   1.083
 2658SOL    HW1 8873   5.152   4.346   1.088
 2658SOL    HW2 8874   5.023   4.255   1.047
 2659SOL     OW 8875   5.278   2.897   4.391
 2659SOL    HW1 8876   5.366   2.897   4.438
 2659SOL    HW2 8877   5.205   2.882   4.457
 2660SOL     OW 8878   1.926   0.314   1.706
 2660SOL    HW1 8879   2.014   0.284   1.743
 2660SOL    HW2 8880   1.934   0.407   1.672
 2661SOL     OW 8881   2.537   0.189   1.011
 2661SOL    HW1 8882   2.527   0.257   0.939
 2661SOL    HW2 8883   2.561   0.101   0.970
 2662SOL     OW 8884   5.255   6.637   4.622
 2662SOL    HW1 8885   5.301   6.599   4.702
 2662SOL    HW2 8886   5.172   6.685   4.652
 2663SOL     OW 8887   2.686   3.936   6.701
 2663SOL    HW1 8888   2.711   4.016   6.757
 2663SOL    HW2 8889   2.663   3.860   6.761
 2664SOL     OW 8890   4.267   3.808   5.423
 2664SOL    HW1 8891   4.325   3.748   5.367
 2664SOL    HW2 8892   4.305   3.814   5.515
 2665SOL     OW 8893   2.696   2.865   5.342
 2665SOL    HW1 8894   2.704   2.771   5.307
 2665SOL    HW2 8895   2.623   2.912   5.292
 2666SOL     OW 8896   5.664   5.100   1.248
 2666SOL    HW1 8897   5.721   5.058   1.177
 2666SOL    HW2 8898   5.571   5.063   1.243
 2667SOL     OW 8899   0.082   5.835   4.351
 2667SOL    HW1 8900   0.008   5.870   4.293
 2667SOL    HW2 8901   0.067   5.737   4.368
 2668SOL     OW 8902   0.131   3.260   5.043
 2668SOL    HW1 8903   0.197   3.219   4.981
 2668SOL    HW2 8904   0.047   3.282   4.992
 2669SOL     OW 8905   2.768   4.357   5.333
 2669SOL    HW1 8906   2.820   4.426   5.283
 2669SOL    HW2 8907   2.694   4.322   5.276
 2670SOL     OW 8908   5.806   3.199   6.132
 2670SOL    HW1 8909   5.723   3.250   6.108
 2670SOL    HW2 8910   5.784   3.132   6.203
 2671SOL     OW 8911   4.408   5.460   6.088
 2671SOL    HW1 8912   4.425   5.527   6.160
 2671SOL    HW2 8913   4.433   5.369   6.120
 2672SOL     OW 8914   1.670   5.164   0.530
 2672SOL    HW1 8915   1.766   5.188   0.538
 2672SOL    HW2 8916   1.623   5.187   0.616
 2673SOL     OW 8917   5.722   0.957   2.530
 2673SOL    HW1 8918   5.694   0.996   2.442
 2673SOL    HW2 8919   5.793   0.887   2.514
 2674SOL     OW 8920   1.294   4.312   3.717
 2674SOL    HW1 8921   1.361   4.251   3.761
 2674SOL    HW2 8922   1.330   4.405   3.715
 2675SOL     OW 8923   6.181   5.103   3.811
 2675SOL    HW1 8924   6.106   5.038   3.799
 2675SOL    HW2 8925   6.224   5.087   3.900
 2676SOL     OW 8926   3.471   2.422   0.899
 2676SOL    HW1 8927   3.540   2.383   0.839
 2676SOL    HW2 8928   3.446   2.514   0.867
 2677SOL     OW 8929   2.625   3.795   0.541
 2677SOL    HW1 8930   2.535   3.838   0.535
 2677SOL    HW2 8931   2.614   3.697   0.561
 2678SOL     OW 8932   0.272   2.785   1.488
 2678SOL    HW1 8933   0.277   2.885   1.486
 2678SOL    HW2 8934   0.328   2.750   1.564
 2679SOL     OW 8935   2.675   4.020   1.320
 2679SOL    HW1 8936   2.682   4.116   1.348
 2679SOL    HW2 8937   2.693   4.012   1.222
 2680SOL     OW 8938   1.193   1.723   6.990
 2680SOL    HW1 8939   1.201   1.699   6.893
 2680SOL    HW2 8940   1.116   1.674   0.004
 2681SOL     OW 8941   1.145   2.793   4.235
 2681SOL    HW1 8942   1.063   2.738   4.227
 2681SOL    HW2 8943   1.149   2.834   4.326
 2682SOL     OW 8944   4.874   4.007   2.892
 2682SOL    HW1 8945   4.880   3.944   2.970
 2682SOL    HW2 8946   4.883   4.101   2.925
 2683SOL     OW 8947   2.759   5.204   1.380
 2683SOL    HW1 8948   2.764   5.161   1.290
 2683SOL    HW2 8949   2.689   5.159   1.435
 2684SOL     OW 8950   4.293   5.291   1.864
 2684SOL    HW1 8951   4.330   5.324   1.951
 2684SOL    HW2 8952   4.363   5.239   1.815
 2685SOL     OW 8953   5.672   6.522   6.587
 2685SOL    HW1 8954   5.743   6.524   6.658
 2685SOL    HW2 8955   5.595   6.466   6.619
 2686SOL     OW 8956   2.096   2.018   5.831
 2686SOL    HW1 8957   2.109   2.061   5.920
 2686SOL    HW2 8958   2.184   1.997   5.790
 2687SOL     OW 8959   5.017   4.719   1.291
 2687SOL    HW1 8960   5.059   4.632   1.316
 2687SOL    HW2 8961   4.927   4.726   1.333
 2688SOL     OW 8962   3.623   3.908   0.154
 2688SOL    HW1 8963   3.624   3.813   0.184
 2688SOL    HW2 8964   3.542   3.954   0.190
 2689SOL     OW 8965   1.426   3.955   3.423
 2689SOL    HW1 8966   1.401   4.033   3.366
 2689SOL    HW2 8967   1.525   3.955   3.439
 2690SOL     OW 8968   3.843   3.009   4.383
 2690SOL    HW1 8969   3.899   2.927   4.391
 2690SOL    HW2 8970   3.768   2.992   4.319
 2691SOL     OW 8971   1.987   5.571   2.820
 2691SOL    HW1 8972   1.901   5.602   2.861
 2691SOL    HW2 8973   2.059   5.575   2.889
 2692SOL     OW 8974   3.241   5.405   2.903
 2692SOL    HW1 8975   3.165   5.360   2.857
 2692SOL    HW2 8976   3.231   5.394   3.002
 2693SOL     OW 8977   2.106   5.346   3.435
 2693SOL    HW1 8978   2.055   5.263   3.410
 2693SOL    HW2 8979   2.043   5.412   3.476
 2694SOL     OW 8980   3.698   5.921   2.992
 2694SOL    HW1 8981   3.711   5.822   2.979
 2694SOL    HW2 8982   3.608   5.947   2.958
 2695SOL     OW 8983   5.717   0.280   2.058
 2695SOL    HW1 8984   5.768   0.323   2.132
 2695SOL    HW2 8985   5.740   0.183   2.052
 2696SOL     OW 8986   3.845   3.234   5.823
 2696SOL    HW1 8987   3.914   3.300   5.853
 2696SOL    HW2 8988   3.870   3.142   5.855
 2697SOL     OW 8989   3.545   1.202   2.770
 2697SOL    HW1 8990   3.477   1.246   2.828
 2697SOL    HW2 8991   3.628   1.186   2.822
 2698SOL     OW 8992   1.818   6.067   0.221
 2698SOL    HW1 8993   1.885   6.100   0.155
 2698SOL    HW2 8994   1.822   5.968   0.227
 2699SOL     OW 8995   2.287   6.326   0.475
 2699SOL    HW1 8996   2.265   6.416   0.512
 2699SOL    HW2 8997   2.227   6.306   0.397
 2700SOL     OW 8998   2.313   3.550   6.930
 2700SOL    HW1 8999   2.398   3.574   6.884
 2700SOL    HW2 9000   2.324   3.562   0.002
 2701SOL     OW 9001   5.558   1.387   5.691
 2701SOL    HW1 9002   5.499   1.388   5.772
 2701SOL    HW2 9003   5.592   1.295   5.676
 2702SOL     OW 9004   0.206   2.747   3.356
 2702SOL    HW1 9005   0.217   2.773   3.452
 2702SOL    HW2 9006   0.110   2.728   3.337
 2703SOL     OW 9007   1.084   6.883   1.352
 2703SOL    HW1 9008   1.086   6.943   1.433
 2703SOL    HW2 9009   1.045   6.795   1.378
 2704SOL     OW 9010   0.073   5.594   1.547
 2704SOL    HW1 9011   0.063   5.634   1.638
 2704SOL    HW2 9012   7.010   5.589   1.503
 2705SOL     OW 9013   6.896   5.432   4.954
 2705SOL    HW1 9014   6.983   5.478   4.973
 2705SOL    HW2 9015   6.905   5.334   4.973
 2706SOL     OW 9016   6.759   5.511   2.043
 2706SOL    HW1 9017   6.677   5.553   2.082
 2706SOL    HW2 9018   6.834   5.517   2.109
 2707SOL     OW 9019   3.923   6.949   4.153
 2707SOL    HW1 9020   3.903   0.000   4.212
 2707SOL    HW2 9021   3.897   6.972   4.059
 2708SOL     OW 9022   0.620   2.559   0.126
 2708SOL    HW1 9023   0.542   2.622   0.124
 2708SOL    HW2 9024   0.632   2.525   0.219
 2709SOL     OW 9025   5.350   0.174   0.194
 2709SOL    HW1 9026   5.292   0.176   0.113
 2709SOL    HW2 9027   5.297   0.140   0.272
 2710SOL     OW 9028   0.557   3.791   3.599
 2710SOL    HW1 9029   0.621   3.804   3.523
 2710SOL    HW2 9030   0.473   3.750   3.564
 2711SOL     OW 9031   2.524   0.515   3.686
 2711SOL    HW1 9032   2.591   0.574   3.731
 2711SOL    HW2 9033   2.528   0.423   3.725
 2712SOL     OW 9034   3.094   4.343   1.051
 2712SOL    HW1 9035   3.146   4.278   1.107
 2712SOL    HW2 9036   3.005   4.302   1.027
 2713SOL     OW 9037   2.533   2.607   4.756
 2713SOL    HW1 9038   2.593   2.674   4.714
 2713SOL    HW2 9039   2.470   2.570   4.688
 2714SOL     OW 9040   3.560   2.586   0.100
 2714SOL    HW1 9041   3.543   2.524   0.177
 2714SOL    HW2 9042   3.476   2.599   0.048
 2715SOL     OW 9043   5.080   1.678   1.020
 2715SOL    HW1 9044   4.983   1.665   0.999
 2715SOL    HW2 9045   5.094   1.666   1.119
 2716SOL     OW 9046   5.241   3.817   2.345
 2716SOL    HW1 9047   5.160   3.801   2.289
 2716SOL    HW2 9048   5.229   3.777   2.435
 2717SOL     OW 9049   0.934   6.372   2.731
 2717SOL    HW1 9050   1.021   6.338   2.766
 2717SOL    HW2 9051   0.859   6.320   2.772
 2718SOL     OW 9052   1.313   1.807   5.061
 2718SOL    HW1 9053   1.395   1.848   5.021
 2718SOL    HW2 9054   1.332   1.711   5.082
 2719SOL     OW 9055   0.239   5.140   1.639
 2719SOL    HW1 9056   0.142   5.117   1.629
 2719SOL    HW2 9057   0.251   5.239   1.634
 2720SOL     OW 9058   1.968   5.585   2.126
 2720SOL    HW1 9059   1.898   5.572   2.057
 2720SOL    HW2 9060   2.037   5.649   2.092
 2721SOL     OW 9061   2.885   0.168   3.404
 2721SOL    HW1 9062   2.804   0.227   3.401
 2721SOL    HW2 9063   2.955   0.211   3.460
 2722SOL     OW 9064   6.743   5.239   0.650
 2722SOL    HW1 9065   6.715   5.306   0.582
 2722SOL    HW2 9066   6.842   5.222   0.640
 2723SOL     OW 9067   0.638   0.564   6.403
 2723SOL    HW1 9068   0.573   0.493   6.430
 2723SOL    HW2 9069   0.731   0.530   6.419
 2724SOL     OW 9070   2.034   6.812   0.125
 2724SOL    HW1 9071   2.011   6.905   0.151
 2724SOL    HW2 9072   2.024   6.800   0.027
 2725SOL     OW 9073   5.174   4.354   4.428
 2725SOL    HW1 9074   5.170   4.394   4.519
 2725SOL    HW2 9075   5.088   4.370   4.380
 2726SOL     OW 9076   0.500   2.614   0.706
 2726SOL    HW1 9077   0.417   2.575   0.667
 2726SOL    HW2 9078   0.535   2.552   0.778
 2727SOL     OW 9079   0.081   5.063   2.975
 2727SOL    HW1 9080   0.117   5.155   2.991
 2727SOL    HW2 9081   7.018   5.054   3.018
 2728SOL     OW 9082   4.793   6.548   5.810
 2728SOL    HW1 9083   4.713   6.607   5.796
 2728SOL    HW2 9084   4.874   6.593   5.772
 2729SOL     OW 9085   0.042   6.329   0.615
 2729SOL    HW1 9086   6.982   6.379   0.624
 2729SOL    HW2 9087   0.059   6.277   0.699
 2730SOL     OW 9088   1.866   5.791   1.359
 2730SOL    HW1 9089   1.807   5.766   1.435
 2730SOL    HW2 9090   1.958   5.754   1.374
 2731SOL     OW 9091   3.556   4.163   3.075
 2731SOL    HW1 9092   3.552   4.126   3.168
 2731SOL    HW2 9093   3.604   4.251   3.077
 2732SOL     OW 9094   5.503   2.221   1.797
 2732SOL    HW1 9095   5.505   2.121   1.802
 2732SOL    HW2 9096   5.408   2.252   1.787
 2733SOL     OW 9097   6.648   1.522   4.496
 2733SOL    HW1 9098   6.684   1.532   4.403
 2733SOL    HW2 9099   6.678   1.600   4.551
 2734SOL     OW 9100   3.105   5.860   1.003
 2734SOL    HW1 9101   3.015   5.851   0.960
 2734SOL    HW2 9102   3.107   5.942   1.060
 2735SOL     OW 9103   1.396   3.553   1.692
 2735SOL    HW1 9104   1.480   3.534   1.640
 2735SOL    HW2 9105   1.410   3.636   1.747
 2736SOL     OW 9106   5.944   6.584   4.681
 2736SOL    HW1 9107   6.011   6.655   4.701
 2736SOL    HW2 9108   5.936   6.523   4.760
 2737SOL     OW 9109   3.203   3.235   5.835
 2737SOL    HW1 9110   3.127   3.287   5.874
 2737SOL    HW2 9111   3.169   3.173   5.764
 2738SOL     OW 9112   5.195   6.576   1.747
 2738SOL    HW1 9113   5.114   6.533   1.706
 2738SOL    HW2 9114   5.176   6.673   1.764
 2739SOL     OW 9115   0.814   4.376   1.448
 2739SOL    HW1 9116   0.839   4.402   1.542
 2739SOL    HW2 9117   0.867   4.296   1.421
 2740SOL     OW 9118   0.358   3.867   2.432
 2740SOL    HW1 9119   0.265   3.864   2.468
 2740SOL    HW2 9120   0.355   3.872   2.332
 2741SOL     OW 9121   6.122   0.672   4.720
 2741SOL    HW1 9122   6.128   0.751   4.658
 2741SOL    HW2 9123   6.052   0.689   4.789
 2742SOL     OW 9124   2.205   5.417   0.380
 2742SOL    HW1 9125   2.139   5.400   0.308
 2742SOL    HW2 9126   2.255   5.502   0.359
 2743SOL     OW 9127   6.328   4.760   2.448
 2743SOL    HW1 9128   6.251   4.719   2.401
 2743SOL    HW2 9129   6.307   4.855   2.470
 2744SOL     OW 9130   4.836   2.173   6.701
 2744SOL    HW1 9131   4.854   2.268   6.727
 2744SOL    HW2 9132   4.808   2.169   6.605
 2745SOL     OW 9133   6.861   0.414   5.553
 2745SOL    HW1 9134   6.816   0.462   5.629
 2745SOL    HW2 9135   6.956   0.446   5.546
 2746SOL     OW 9136   2.763   1.315   4.241
 2746SOL    HW1 9137   2.666   1.339   4.247
 2746SOL    HW2 9138   2.774   1.216   4.255
 2747SOL     OW 9139   5.936   3.547   6.473
 2747SOL    HW1 9140   5.921   3.555   6.571
 2747SOL    HW2 9141   6.000   3.617   6.443
 2748SOL     OW 9142   4.696   1.313   1.630
 2748SOL    HW1 9143   4.774   1.370   1.607
 2748SOL    HW2 9144   4.620   1.333   1.569
 2749SOL     OW 9145   0.083   4.618   2.212
 2749SOL    HW1 9146   0.166   4.583   2.257
 2749SOL    HW2 9147   0.105   4.705   2.167
 2750SOL     OW 9148   0.590   5.193   1.121
 2750SOL    HW1 9149   0.685   5.220   1.138
 2750SOL    HW2 9150   0.540   5.189   1.207
 2751SOL     OW 9151   0.732   5.001   1.362
 2751SOL    HW1 9152   0.747   4.944   1.443
 2751SOL    HW2 9153   0.642   5.044   1.368
 2752SOL     OW 9154   4.051   5.515   5.496
 2752SOL    HW1 9155   3.972   5.483   5.444
 2752SOL    HW2 9156   4.042   5.613   5.514
 2753SOL     OW 9157   0.243   6.329   5.834
 2753SOL    HW1 9158   0.263   6.233   5.819
 2753SOL    HW2 9159   0.227   6.374   5.746
 2754SOL     OW 9160   0.382   0.273   2.124
 2754SOL    HW1 9161   0.313   0.345   2.115
 2754SOL    HW2 9162   0.464   0.311   2.167
 2755SOL     OW 9163   2.215   6.843   2.818
 2755SOL    HW1 9164   2.314   6.859   2.820
 2755SOL    HW2 9165   2.197   6.747   2.839
 2756SOL     OW 9166   5.877   4.643   6.503
 2756SOL    HW1 9167   5.890   4.547   6.531
 2756SOL    HW2 9168   5.804   4.684   6.557
 2757SOL     OW 9169   2.939   0.123   6.970
 2757SOL    HW1 9170   2.880   0.150   0.020
 2757SOL    HW2 9171   2.893   0.054   6.915
 2758SOL     OW 9172   3.931   6.132   3.964
 2758SOL    HW1 9173   3.954   6.078   3.884
 2758SOL    HW2 9174   3.909   6.226   3.936
 2759SOL     OW 9175   5.897   6.633   5.355
 2759SOL    HW1 9176   5.870   6.538   5.362
 2759SOL    HW2 9177   5.942   6.649   5.267
 2760SOL     OW 9178   0.919   5.768   2.011
 2760SOL    HW1 9179   0.944   5.743   1.918
 2760SOL    HW2 9180   0.942   5.694   2.074
 2761SOL     OW 9181   1.965   5.106   5.439
 2761SOL    HW1 9182   2.056   5.072   5.462
 2761SOL    HW2 9183   1.974   5.187   5.381
 2762SOL     OW 9184   1.459   0.822   4.845
 2762SOL    HW1 9185   1.368   0.812   4.885
 2762SOL    HW2 9186   1.517   0.875   4.907
 2763SOL     OW 9187   4.538   2.049   3.583
 2763SOL    HW1 9188   4.572   2.139   3.556
 2763SOL    HW2 9189   4.469   2.059   3.655
 2764SOL     OW 9190   6.085   0.955   1.478
 2764SOL    HW1 9191   6.169   0.984   1.523
 2764SOL    HW2 9192   6.013   0.941   1.546
 2765SOL     OW 9193   6.269   6.721   0.607
 2765SOL    HW1 9194   6.294   6.705   0.702
 2765SOL    HW2 9195   6.195   6.788   0.603
 2766SOL     OW 9196   4.999   2.991   0.581
 2766SOL    HW1 9197   4.947   2.913   0.616
 2766SOL    HW2 9198   5.096   2.979   0.602
 2767SOL     OW 9199   6.443   5.625   6.686
 2767SOL    HW1 9200   6.479   5.644   6.777
 2767SOL    HW2 9201   6.427   5.527   6.676
 2768SOL     OW 9202   4.500   0.658   1.146
 2768SOL    HW1 9203   4.546   0.746   1.133
 2768SOL    HW2 9204   4.531   0.616   1.231
 2769SOL     OW 9205   2.143   4.843   4.813
 2769SOL    HW1 9206   2.220   4.865   4.753
 2769SOL    HW2 9207   2.115   4.925   4.862
 2770SOL     OW 9208   4.088   6.079   6.303
 2770SOL    HW1 9209   4.066   6.052   6.397
 2770SOL    HW2 9210   4.096   5.998   6.246
 2771SOL     OW 9211   6.214   0.829   3.657
 2771SOL    HW1 9212   6.308   0.858   3.678
 2771SOL    HW2 9213   6.205   0.732   3.676
 2772SOL     OW 9214   3.749   1.993   1.083
 2772SOL    HW1 9215   3.680   1.944   1.137
 2772SOL    HW2 9216   3.770   2.080   1.127
 2773SOL     OW 9217   6.243   2.168   5.287
 2773SOL    HW1 9218   6.243   2.182   5.386
 2773SOL    HW2 9219   6.257   2.256   5.242
 2774SOL     OW 9220   5.811   2.452   2.907
 2774SOL    HW1 9221   5.882   2.521   2.896
 2774SOL    HW2 9222   5.722   2.497   2.917
 2775SOL     OW 9223   6.432   4.863   5.819
 2775SOL    HW1 9224   6.333   4.855   5.806
 2775SOL    HW2 9225   6.480   4.819   5.743
 2776SOL     OW 9226   4.650   4.871   5.925
 2776SOL    HW1 9227   4.635   4.788   5.871
 2776SOL    HW2 9228   4.632   4.951   5.869
 2777SOL     OW 9229   2.779   1.653   1.365
 2777SOL    HW1 9230   2.836   1.702   1.430
 2777SOL    HW2 9231   2.744   1.569   1.407
 2778SOL     OW 9232   1.659   0.184   5.386
 2778SOL    HW1 9233   1.749   0.200   5.425
 2778SOL    HW2 9234   1.607   0.123   5.446
 2779SOL     OW 9235   5.129   6.825   1.762
 2779SOL    HW1 9236   5.153   6.922   1.752
 2779SOL    HW2 9237   5.034   6.818   1.794
 2780SOL     OW 9238   0.032   6.673   0.089
 2780SOL    HW1 9239   0.104   6.604   0.078
 2780SOL    HW2 9240   6.975   6.630   0.122
 2781SOL     OW 9241   5.390   6.937   1.813
 2781SOL    HW1 9242   5.319   6.945   1.744
 2781SOL    HW2 9243   5.445   7.020   1.814
 2782SOL     OW 9244   5.112   2.182   5.872
 2782SOL    HW1 9245   5.167   2.218   5.947
 2782SOL    HW2 9246   5.056   2.256   5.834
 2783SOL     OW 9247   5.255   4.317   3.032
 2783SOL    HW1 9248   5.258   4.229   2.985
 2783SOL    HW2 9249   5.240   4.302   3.130
 2784SOL     OW 9250   3.206   1.488   2.410
 2784SOL    HW1 9251   3.278   1.419   2.403
 2784SOL    HW2 9252   3.225   1.548   2.488
 2785SOL     OW 9253   4.908   2.868   0.853
 2785SOL    HW1 9254   4.974   2.942   0.864
 2785SOL    HW2 9255   4.820   2.905   0.823
 2786SOL     OW 9256   5.113   6.880   2.496
 2786SOL    HW1 9257   5.157   6.911   2.411
 2786SOL    HW2 9258   5.024   6.840   2.474
 2787SOL     OW 9259   5.164   0.751   6.148
 2787SOL    HW1 9260   5.070   0.765   6.116
 2787SOL    HW2 9261   5.218   0.833   6.129
 2788SOL     OW 9262   2.077   5.281   5.853
 2788SOL    HW1 9263   2.171   5.301   5.879
 2788SOL    HW2 9264   2.043   5.353   5.793
 2789SOL     OW 9265   1.714   2.450   3.495
 2789SOL    HW1 9266   1.675   2.537   3.526
 2789SOL    HW2 9267   1.697   2.379   3.563
 2790SOL     OW 9268   3.702   5.906   2.445
 2790SOL    HW1 9269   3.713   5.901   2.346
 2790SOL    HW2 9270   3.669   5.997   2.471
 2791SOL     OW 9271   0.146   3.009   3.162
 2791SOL    HW1 9272   0.104   2.918   3.162
 2791SOL    HW2 9273   0.079   3.076   3.195
 2792SOL     OW 9274   1.687   6.755   3.916
 2792SOL    HW1 9275   1.756   6.791   3.853
 2792SOL    HW2 9276   1.732   6.708   3.992
 2793SOL     OW 9277   5.975   4.116   1.606
 2793SOL    HW1 9278   5.947   4.025   1.576
 2793SOL    HW2 9279   5.949   4.129   1.702
 2794SOL     OW 9280   0.168   2.531   6.614
 2794SOL    HW1 9281   0.263   2.499   6.614
 2794SOL    HW2 9282   0.149   2.579   6.528
 2795SOL     OW 9283   0.821   2.797   0.656
 2795SOL    HW1 9284   0.860   2.823   0.744
 2795SOL    HW2 9285   0.723   2.818   0.655
 2796SOL     OW 9286   0.237   6.207   3.535
 2796SOL    HW1 9287   0.283   6.281   3.487
 2796SOL    HW2 9288   0.241   6.224   3.634
 2797SOL     OW 9289   4.610   5.307   5.190
 2797SOL    HW1 9290   4.641   5.213   5.196
 2797SOL    HW2 9291   4.537   5.314   5.122
 2798SOL     OW 9292   0.481   5.118   2.065
 2798SOL    HW1 9293   0.476   5.108   2.165
 2798SOL    HW2 9294   0.389   5.110   2.027
 2799SOL     OW 9295   6.057   5.451   6.272
 2799SOL    HW1 9296   6.003   5.535   6.271
 2799SOL    HW2 9297   6.007   5.379   6.319
 2800SOL     OW 9298   4.784   6.703   6.835
 2800SOL    HW1 9299   4.795   6.603   6.842
 2800SOL    HW2 9300   4.697   6.723   6.791
 2801SOL     OW 9301   6.939   6.158   5.877
 2801SOL    HW1 9302   6.866   6.133   5.814
 2801SOL    HW2 9303   6.989   6.076   5.904
 2802SOL     OW 9304   5.472   6.937   5.261
 2802SOL    HW1 9305   5.429   7.010   5.209
 2802SOL    HW2 9306   5.475   6.962   5.358
 2803SOL     OW 9307   4.411   5.895   6.209
 2803SOL    HW1 9308   4.401   5.803   6.247
 2803SOL    HW2 9309   4.508   5.921   6.210
 2804SOL     OW 9310   0.299   4.449   5.554
 2804SOL    HW1 9311   0.379   4.467   5.496
 2804SOL    HW2 9312   0.328   4.405   5.639
 2805SOL     OW 9313   6.085   3.456   2.084
 2805SOL    HW1 9314   6.098   3.553   2.102
 2805SOL    HW2 9315   6.168   3.418   2.043
 2806SOL     OW 9316   0.359   3.861   6.005
 2806SOL    HW1 9317   0.435   3.906   5.959
 2806SOL    HW2 9318   0.288   3.929   6.025
 2807SOL     OW 9319   3.706   6.518   3.883
 2807SOL    HW1 9320   3.768   6.577   3.934
 2807SOL    HW2 9321   3.754   6.436   3.852
 2808SOL     OW 9322   6.386   4.741   2.130
 2808SOL    HW1 9323   6.452   4.733   2.205
 2808SOL    HW2 9324   6.296   4.714   2.162
 2809SOL     OW 9325   5.682   2.787   1.176
 2809SOL    HW1 9326   5.747   2.732   1.125
 2809SOL    HW2 9327   5.593   2.741   1.178
 2810SOL     OW 9328   2.959   5.474   3.642
 2810SOL    HW1 9329   2.970   5.556   3.698
 2810SOL    HW2 9330   3.048   5.442   3.610
 2811SOL     OW 9331   1.007   1.820   3.618
 2811SOL    HW1 9332   1.039   1.748   3.679
 2811SOL    HW2 9333   1.072   1.896   3.619
 2812SOL     OW 9334   5.438   2.569   6.901
 2812SOL    HW1 9335   5.504   2.614   6.841
 2812SOL    HW2 9336   5.475   2.483   6.934
 2813SOL     OW 9337   0.433   0.448   6.596
 2813SOL    HW1 9338   0.365   0.493   6.655
 2813SOL    HW2 9339   0.498   0.398   6.654
 2814SOL     OW 9340   4.001   3.647   5.388
 2814SOL    HW1 9341   4.042   3.698   5.313
 2814SOL    HW2 9342   3.950   3.710   5.448
 2815SOL     OW 9343   6.485   6.619   6.289
 2815SOL    HW1 9344   6.534   6.654   6.210
 2815SOL    HW2 9345   6.504   6.521   6.299
 2816SOL     OW 9346   6.229   5.038   3.556
 2816SOL    HW1 9347   6.207   5.070   3.647
 2816SOL    HW2 9348   6.328   5.026   3.548
 2817SOL     OW 9349   3.102   6.803   1.755
 2817SOL    HW1 9350   3.098   6.741   1.833
 2817SOL    HW2 9351   3.080   6.752   1.671
 2818SOL     OW 9352   0.391   0.516   1.873
 2818SOL    HW1 9353   0.420   0.583   1.805
 2818SOL    HW2 9354   0.393   0.557   1.964
 2819SOL     OW 9355   1.526   0.681   2.051
 2819SOL    HW1 9356   1.534   0.668   2.150
 2819SOL    HW2 9357   1.507   0.593   2.008
 2820SOL     OW 9358   0.694   2.480   3.023
 2820SOL    HW1 9359   0.720   2.543   3.096
 2820SOL    HW2 9360   0.598   2.492   3.000
 2821SOL     OW 9361   3.887   4.301   6.253
 2821SOL    HW1 9362   3.810   4.244   6.224
 2821SOL    HW2 9363   3.952   4.245   6.304
 2822SOL     OW 9364   4.042   2.483   0.756
 2822SOL    HW1 9365   4.102   2.557   0.786
 2822SOL    HW2 9366   3.969   2.520   0.698
 2823SOL     OW 9367   4.783   0.759   0.961
 2823SOL    HW1 9368   4.826   0.847   0.980
 2823SOL    HW2 9369   4.744   0.761   0.869
 2824SOL     OW 9370   1.817   1.643   3.479
 2824SOL    HW1 9371   1.861   1.558   3.452
 2824SOL    HW2 9372   1.847   1.717   3.419
 2825SOL     OW 9373   5.244   6.745   6.643
 2825SOL    HW1 9374   5.207   6.667   6.693
 2825SOL    HW2 9375   5.246   6.723   6.545
 2826SOL     OW 9376   4.968   1.222   6.878
 2826SOL    HW1 9377   4.973   1.200   6.781
 2826SOL    HW2 9378   4.918   1.151   6.926
 2827SOL     OW 9379   1.004   1.716   6.543
 2827SOL    HW1 9380   0.907   1.737   6.550
 2827SOL    HW2 9381   1.017   1.636   6.484
 2828SOL     OW 9382   2.588   1.598   0.579
 2828SOL    HW1 9383   2.534   1.533   0.526
 2828SOL    HW2 9384   2.566   1.691   0.550
 2829SOL     OW 9385   2.979   3.578   4.544
 2829SOL    HW1 9386   2.959   3.481   4.560
 2829SOL    HW2 9387   2.971   3.628   4.630
 2830SOL     OW 9388   2.388   3.664   6.185
 2830SOL    HW1 9389   2.477   3.710   6.185
 2830SOL    HW2 9390   2.345   3.675   6.095
 2831SOL     OW 9391   0.796   4.446   3.620
 2831SOL    HW1 9392   0.706   4.468   3.581
 2831SOL    HW2 9393   0.840   4.530   3.651
 2832SOL     OW 9394   1.188   3.562   1.990
 2832SOL    HW1 9395   1.223   3.517   2.072
 2832SOL    HW2 9396   1.163   3.494   1.922
 2833SOL     OW 9397   2.641   2.120   2.484
 2833SOL    HW1 9398   2.741   2.115   2.477
 2833SOL    HW2 9399   2.610   2.211   2.458
 2834SOL     OW 9400   4.537   6.056   5.879
 2834SOL    HW1 9401   4.498   6.145   5.853
 2834SOL    HW2 9402   4.474   5.984   5.850
 2835SOL     OW 9403   0.605   6.202   1.593
 2835SOL    HW1 9404   0.511   6.235   1.599
 2835SOL    HW2 9405   0.637   6.209   1.499
 2836SOL     OW 9406   0.146   6.322   2.378
 2836SOL    HW1 9407   0.199   6.282   2.452
 2836SOL    HW2 9408   0.195   6.400   2.339
 2837SOL     OW 9409   4.693   4.933   2.342
 2837SOL    HW1 9410   4.684   4.834   2.340
 2837SOL    HW2 9411   4.680   4.969   2.249
 2838SOL     OW 9412   3.765   3.822   0.506
 2838SOL    HW1 9413   3.721   3.767   0.577
 2838SOL    HW2 9414   3.823   3.763   0.450
 2839SOL     OW 9415   6.889   2.082   3.002
 2839SOL    HW1 9416   6.847   1.994   2.983
 2839SOL    HW2 9417   6.933   2.080   3.092
 2840SOL     OW 9418   1.478   0.420   2.776
 2840SOL    HW1 9419   1.481   0.473   2.860
 2840SOL    HW2 9420   1.440   0.476   2.702
 2841SOL     OW 9421   0.119   1.745   6.213
 2841SOL    HW1 9422   0.217   1.763   6.212
 2841SOL    HW2 9423   0.103   1.649   6.234
 2842SOL     OW 9424   7.013   4.001   3.520
 2842SOL    HW1 9425   6.956   3.919   3.514
 2842SOL    HW2 9426   0.071   3.980   3.568
 2843SOL     OW 9427   2.079   2.056   3.031
 2843SOL    HW1 9428   2.036   2.128   3.085
 2843SOL    HW2 9429   2.166   2.091   2.994
 2844SOL     OW 9430   6.382   5.381   6.632
 2844SOL    HW1 9431   6.432   5.366   6.547
 2844SOL    HW2 9432   6.284   5.377   6.614
 2845SOL     OW 9433   5.638   3.229   1.928
 2845SOL    HW1 9434   5.545   3.234   1.964
 2845SOL    HW2 9435   5.697   3.180   1.992
 2846SOL     OW 9436   4.335   1.068   0.462
 2846SOL    HW1 9437   4.285   1.035   0.382
 2846SOL    HW2 9438   4.414   1.123   0.432
 2847SOL     OW 9439   5.264   4.110   3.398
 2847SOL    HW1 9440   5.209   4.192   3.379
 2847SOL    HW2 9441   5.361   4.133   3.390
 2848SOL     OW 9442   1.839   3.100   5.492
 2848SOL    HW1 9443   1.748   3.107   5.533
 2848SOL    HW2 9444   1.837   3.037   5.415
 2849SOL     OW 9445   4.553   0.277   0.491
 2849SOL    HW1 9446   4.648   0.251   0.509
 2849SOL    HW2 9447   4.510   0.210   0.431
 2850SOL     OW 9448   1.981   6.773   2.581
 2850SOL    HW1 9449   1.984   6.683   2.624
 2850SOL    HW2 9450   1.910   6.774   2.510
 2851SOL     OW 9451   5.743   1.916   5.818
 2851SOL    HW1 9452   5.750   1.946   5.723
 2851SOL    HW2 9453   5.834   1.901   5.855
 2852SOL     OW 9454   6.561   3.698   6.797
 2852SOL    HW1 9455   6.581   3.668   6.703
 2852SOL    HW2 9456   6.516   3.624   6.846
 2853SOL     OW 9457   2.081   1.300   6.562
 2853SOL    HW1 9458   2.154   1.247   6.521
 2853SOL    HW2 9459   2.119   1.380   6.608
 2854SOL     OW 9460   4.912   0.716   4.966
 2854SOL    HW1 9461   4.819   0.737   4.934
 2854SOL    HW2 9462   4.957   0.802   4.992
 2855SOL     OW 9463   2.131   2.151   6.071
 2855SOL    HW1 9464   2.153   2.176   6.166
 2855SOL    HW2 9465   2.154   2.227   6.011
 2856SOL     OW 9466   0.552   3.653   5.511
 2856SOL    HW1 9467   0.624   3.598   5.553
 2856SOL    HW2 9468   0.592   3.737   5.475
 2857SOL     OW 9469   2.214   3.041   1.936
 2857SOL    HW1 9470   2.246   2.948   1.954
 2857SOL    HW2 9471   2.216   3.093   2.021
 2858SOL     OW 9472   4.545   4.507   1.827
 2858SOL    HW1 9473   4.561   4.421   1.876
 2858SOL    HW2 9474   4.447   4.526   1.825
 2859SOL     OW 9475   5.297   0.621   6.728
 2859SOL    HW1 9476   5.304   0.716   6.759
 2859SOL    HW2 9477   5.371   0.602   6.663
 2860SOL     OW 9478   2.209   2.320   1.667
 2860SOL    HW1 9479   2.192   2.226   1.696
 2860SOL    HW2 9480   2.303   2.346   1.690
 2861SOL     OW 9481   3.561   5.181   5.687
 2861SOL    HW1 9482   3.631   5.201   5.618
 2861SOL    HW2 9483   3.548   5.082   5.693
 2862SOL     OW 9484   5.070   2.039   2.292
 2862SOL    HW1 9485   5.041   1.944   2.308
 2862SOL    HW2 9486   5.098   2.080   2.378
 2863SOL     OW 9487   4.401   1.539   6.968
 2863SOL    HW1 9488   4.494   1.533   6.932
 2863SOL    HW2 9489   4.338   1.563   6.894
 2864SOL     OW 9490   4.069   1.591   2.038
 2864SOL    HW1 9491   3.975   1.608   2.069
 2864SOL    HW2 9492   4.123   1.675   2.047
 2865SOL     OW 9493   3.988   6.486   5.806
 2865SOL    HW1 9494   3.936   6.404   5.831
 2865SOL    HW2 9495   3.926   6.558   5.777
 2866SOL     OW 9496   5.892   5.495   6.602
 2866SOL    HW1 9497   5.820   5.539   6.548
 2866SOL    HW2 9498   5.963   5.562   6.622
 2867SOL     OW 9499   6.927   6.311   3.587
 2867SOL    HW1 9500   6.941   6.218   3.619
 2867SOL    HW2 9501   6.909   6.371   3.666
 2868SOL     OW 9502   1.827   1.435   5.147
 2868SOL    HW1 9503   1.756   1.409   5.213
 2868SOL    HW2 9504   1.812   1.529   5.117
 2869SOL     OW 9505   6.749   0.967   3.271
 2869SOL    HW1 9506   6.827   0.933   3.323
 2869SOL    HW2 9507   6.691   1.023   3.330
 2870SOL     OW 9508   0.794   1.673   5.460
 2870SOL    HW1 9509   0.888   1.653   5.432
 2870SOL    HW2 9510   0.732   1.606   5.420
 2871SOL     OW 9511   0.319   1.309   6.618
 2871SOL    HW1 9512   0.400   1.301   6.560
 2871SOL    HW2 9513   0.237   1.289   6.564
 2872SOL     OW 9514   2.477   2.165   2.082
 2872SOL    HW1 9515   2.424   2.191   2.163
 2872SOL    HW2 9516   2.506   2.070   2.090
 2873SOL     OW 9517   6.759   5.574   3.153
 2873SOL    HW1 9518   6.839   5.632   3.135
 2873SOL    HW2 9519   6.722   5.596   3.244
 2874SOL     OW 9520   5.112   0.139   3.496
 2874SOL    HW1 9521   5.145   0.133   3.401
 2874SOL    HW2 9522   5.012   0.129   3.497
 2875SOL     OW 9523   5.232   0.527   1.574
 2875SOL    HW1 9524   5.191   0.489   1.490
 2875SOL    HW2 9525   5.191   0.483   1.654
 2876SOL     OW 9526   1.902   6.721   2.292
 2876SOL    HW1 9527   1.893   6.728   2.193
 2876SOL    HW2 9528   1.991   6.681   2.314
 2877SOL     OW 9529   2.324   1.920   5.702
 2877SOL    HW1 9530   2.391   1.870   5.648
 2877SOL    HW2 9531   2.258   1.964   5.641
 2878SOL     OW 9532   3.902   4.254   5.421
 2878SOL    HW1 9533   3.841   4.179   5.395
 2878SOL    HW2 9534   3.975   4.262   5.353
 2879SOL     OW 9535   5.016   5.027   0.240
 2879SOL    HW1 9536   4.930   5.030   0.190
 2879SOL    HW2 9537   5.082   4.973   0.188
 2880SOL     OW 9538   0.176   1.229   2.577
 2880SOL    HW1 9539   0.253   1.291   2.562
 2880SOL    HW2 9540   0.118   1.265   2.651
 2881SOL     OW 9541   4.117   5.523   6.492
 2881SOL    HW1 9542   4.068   5.605   6.462
 2881SOL    HW2 9543   4.052   5.456   6.528
 2882SOL     OW 9544   6.721   5.509   2.323
 2882SOL    HW1 9545   6.645   5.554   2.370
 2882SOL    HW2 9546   6.695   5.415   2.301
 2883SOL     OW 9547   6.193   0.228   3.461
 2883SOL    HW1 9548   6.217   0.325   3.455
 2883SOL    HW2 9549   6.198   0.187   3.369
 2884SOL     OW 9550   1.193   6.982   2.838
 2884SOL    HW1 9551   1.103   6.957   2.874
 2884SOL    HW2 9552   1.246   0.003   2.909
 2885SOL     OW 9553   1.606   3.919   3.723
 2885SOL    HW1 9554   1.658   3.935   3.638
 2885SOL    HW2 9555   1.668   3.885   3.794
 2886SOL     OW 9556   0.787   3.518   6.095
 2886SOL    HW1 9557   0.728   3.440   6.116
 2886SOL    HW2 9558   0.879   3.485   6.071
 2887SOL     OW 9559   0.848   0.918   5.735
 2887SOL    HW1 9560   0.767   0.942   5.682
 2887SOL    HW2 9561   0.860   0.984   5.809
 2888SOL     OW 9562   6.961   4.375   6.774
 2888SOL    HW1 9563   7.019   4.366   6.855
 2888SOL    HW2 9564   6.945   4.285   6.734
 2889SOL     OW 9565   3.032   6.398   2.446
 2889SOL    HW1 9566   2.944   6.414   2.401
 2889SOL    HW2 9567   3.067   6.308   2.421
 2890SOL     OW 9568   1.097   6.165   0.049
 2890SOL    HW1 9569   1.092   6.198   6.981
 2890SOL    HW2 9570   1.004   6.154   0.086
 2891SOL     OW 9571   1.259   4.722   3.507
 2891SOL    HW1 9572   1.312   4.805   3.523
 2891SOL    HW2 9573   1.289   4.681   3.420
 2892SOL     OW 9574   5.907   3.849   0.540
 2892SOL    HW1 9575   5.834   3.798   0.494
 2892SOL    HW2 9576   5.901   3.833   0.639
 2893SOL     OW 9577   6.891   5.395   4.006
 2893SOL    HW1 9578   6.892   5.418   4.103
 2893SOL    HW2 9579   6.798   5.405   3.970
 2894SOL     OW 9580   0.758   3.633   1.773
 2894SOL    HW1 9581   0.688   3.595   1.714
 2894SOL    HW2 9582   0.802   3.559   1.825
 2895SOL     OW 9583   4.984   2.393   5.753
 2895SOL    HW1 9584   5.064   2.393   5.693
 2895SOL    HW2 9585   4.966   2.486   5.785
 2896SOL     OW 9586   4.653   5.837   5.214
 2896SOL    HW1 9587   4.732   5.821   5.273
 2896SOL    HW2 9588   4.569   5.817   5.264
 2897SOL     OW 9589   3.686   4.880   3.154
 2897SOL    HW1 9590   3.630   4.908   3.232
 2897SOL    HW2 9591   3.779   4.859   3.184
 2898SOL     OW 9592   4.370   4.644   4.397
 2898SOL    HW1 9593   4.402   4.600   4.481
 2898SOL    HW2 9594   4.303   4.714   4.419
 2899SOL     OW 9595   0.660   2.030   0.162
 2899SOL    HW1 9596   0.696   2.000   0.250
 2899SOL    HW2 9597   0.677   2.128   0.151
 2900SOL     OW 9598   2.194   3.494   5.796
 2900SOL    HW1 9599   2.188   3.552   5.715
 2900SOL    HW2 9600   2.236   3.547   5.871
 2901SOL     OW 9601   2.786   5.034   3.169
 2901SOL    HW1 9602   2.807   4.936   3.165
 2901SOL    HW2 9603   2.749   5.056   3.259
 2902SOL     OW 9604   5.496   5.664   2.996
 2902SOL    HW1 9605   5.563   5.699   2.930
 2902SOL    HW2 9606   5.488   5.728   3.072
 2903SOL     OW 9607   3.322   6.992   0.696
 2903SOL    HW1 9608   3.401   6.932   0.707
 2903SOL    HW2 9609   3.239   6.937   0.683
 2904SOL     OW 9610   2.264   5.050   4.418
 2904SOL    HW1 9611   2.165   5.041   4.410
 2904SOL    HW2 9612   2.307   4.964   4.392
 2905SOL     OW 9613   1.358   2.163   4.560
 2905SOL    HW1 9614   1.305   2.248   4.551
 2905SOL    HW2 9615   1.334   2.118   4.645
 2906SOL     OW 9616   4.596   5.264   2.047
 2906SOL    HW1 9617   4.633   5.274   2.140
 2906SOL    HW2 9618   4.512   5.209   2.051
 2907SOL     OW 9619   1.099   0.947   3.163
 2907SOL    HW1 9620   1.047   0.969   3.080
 2907SOL    HW2 9621   1.035   0.923   3.237
 2908SOL     OW 9622   5.536   6.690   3.624
 2908SOL    HW1 9623   5.621   6.639   3.612
 2908SOL    HW2 9624   5.529   6.721   3.719
 2909SOL     OW 9625   1.404   5.592   3.759
 2909SOL    HW1 9626   1.451   5.506   3.738
 2909SOL    HW2 9627   1.354   5.582   3.845
 2910SOL     OW 9628   4.693   0.897   4.421
 2910SOL    HW1 9629   4.623   0.936   4.481
 2910SOL    HW2 9630   4.783   0.908   4.464
 2911SOL     OW 9631   0.956   5.733   3.581
 2911SOL    HW1 9632   0.919   5.766   3.494
 2911SOL    HW2 9633   1.030   5.668   3.562
 2912SOL     OW 9634   5.373   0.369   6.494
 2912SOL    HW1 9635   5.415   0.292   6.446
 2912SOL    HW2 9636   5.393   0.363   6.591
 2913SOL     OW 9637   3.092   5.093   1.918
 2913SOL    HW1 9638   3.035   5.023   1.876
 2913SOL    HW2 9639   3.078   5.093   2.017
 2914SOL     OW 9640   6.487   6.320   6.339
 2914SOL    HW1 9641   6.569   6.349   6.389
 2914SOL    HW2 9642   6.500   6.336   6.241
 2915SOL     OW 9643   4.096   1.729   3.668
 2915SOL    HW1 9644   4.085   1.629   3.663
 2915SOL    HW2 9645   4.137   1.761   3.583
 2916SOL     OW 9646   0.738   6.365   0.733
 2916SOL    HW1 9647   0.724   6.279   0.783
 2916SOL    HW2 9648   0.662   6.379   0.670
 2917SOL     OW 9649   2.498   1.011   3.435
 2917SOL    HW1 9650   2.471   1.029   3.341
 2917SOL    HW2 9651   2.598   1.011   3.442
 2918SOL     OW 9652   5.845   4.816   4.812
 2918SOL    HW1 9653   5.843   4.874   4.731
 2918SOL    HW2 9654   5.934   4.823   4.856
 2919SOL     OW 9655   5.508   0.841   2.659
 2919SOL    HW1 9656   5.600   0.853   2.622
 2919SOL    HW2 9657   5.442   0.838   2.585
 2920SOL     OW 9658   2.955   1.384   1.693
 2920SOL    HW1 9659   3.017   1.389   1.615
 2920SOL    HW2 9660   2.898   1.302   1.686
 2921SOL     OW 9661   0.912   0.112   4.739
 2921SOL    HW1 9662   0.868   0.027   4.709
 2921SOL    HW2 9663   0.976   0.091   4.813
 2922SOL     OW 9664   4.679   0.566   1.365
 2922SOL    HW1 9665   4.743   0.529   1.298
 2922SOL    HW2 9666   4.724   0.577   1.453
 2923SOL     OW 9667   6.239   4.956   2.618
 2923SOL    HW1 9668   6.333   4.955   2.654
 2923SOL    HW2 9669   6.189   5.033   2.658
 2924SOL     OW 9670   6.838   2.313   6.078
 2924SOL    HW1 9671   6.897   2.265   6.013
 2924SOL    HW2 9672   6.881   2.398   6.106
 2925SOL     OW 9673   4.710   1.088   2.143
 2925SOL    HW1 9674   4.703   1.050   2.235
 2925SOL    HW2 9675   4.710   1.014   2.075
 2926SOL     OW 9676   6.463   1.858   4.438
 2926SOL    HW1 9677   6.506   1.808   4.363
 2926SOL    HW2 9678   6.416   1.938   4.402
 2927SOL     OW 9679   1.525   4.178   1.037
 2927SOL    HW1 9680   1.569   4.251   1.088
 2927SOL    HW2 9681   1.592   4.106   1.017
 2928SOL     OW 9682   6.974   0.976   6.811
 2928SOL    HW1 9683   0.020   0.949   6.748
 2928SOL    HW2 9684   6.950   0.899   6.869
 2929SOL     OW 9685   1.028   2.369   6.984
 2929SOL    HW1 9686   1.093   2.313   6.933
 2929SOL    HW2 9687   1.040   2.465   6.957
 2930SOL     OW 9688   5.014   0.482   5.079
 2930SOL    HW1 9689   4.969   0.566   5.050
 2930SOL    HW2 9690   5.064   0.443   5.002
 2931SOL     OW 9691   5.533   4.548   6.908
 2931SOL    HW1 9692   5.605   4.508   6.965
 2931SOL    HW2 9693   5.536   4.507   6.817
 2932SOL     OW 9694   1.198   5.469   1.807
 2932SOL    HW1 9695   1.238   5.560   1.803
 2932SOL    HW2 9696   1.109   5.470   1.762
 2933SOL     OW 9697   0.245   5.287   2.984
 2933SOL    HW1 9698   0.279   5.379   2.963
 2933SOL    HW2 9699   0.307   5.219   2.947
 2934SOL     OW 9700   4.645   1.860   0.481
 2934SOL    HW1 9701   4.682   1.788   0.541
 2934SOL    HW2 9702   4.642   1.826   0.387
 2935SOL     OW 9703   6.728   2.855   0.079
 2935SOL    HW1 9704   6.703   2.898   0.166
 2935SOL    HW2 9705   6.819   2.885   0.052
 2936SOL     OW 9706   4.283   6.664   0.439
 2936SOL    HW1 9707   4.347   6.641   0.366
 2936SOL    HW2 9708   4.255   6.580   0.487
 2937SOL     OW 9709   4.859   4.606   1.050
 2937SOL    HW1 9710   4.950   4.576   1.024
 2937SOL    HW2 9711   4.848   4.598   1.149
 2938SOL     OW 9712   4.444   5.056   6.521
 2938SOL    HW1 9713   4.450   5.065   6.421
 2938SOL    HW2 9714   4.533   5.027   6.557
 2939SOL     OW 9715   2.014   0.611   2.725
 2939SOL    HW1 9716   2.088   0.562   2.772
 2939SOL    HW2 9717   1.926   0.571   2.750
 2940SOL     OW 9718   5.873   5.122   5.862
 2940SOL    HW1 9719   5.923   5.203   5.890
 2940SOL    HW2 9720   5.776   5.134   5.883
 2941SOL     OW 9721   2.071   1.990   4.227
 2941SOL    HW1 9722   2.122   2.053   4.285
 2941SOL    HW2 9723   1.975   2.019   4.223
 2942SOL     OW 9724   2.774   2.338   0.366
 2942SOL    HW1 9725   2.823   2.419   0.335
 2942SOL    HW2 9726   2.764   2.340   0.466
 2943SOL     OW 9727   4.854   4.461   3.553
 2943SOL    HW1 9728   4.896   4.506   3.474
 2943SOL    HW2 9729   4.757   4.484   3.557
 2944SOL     OW 9730   2.736   6.195   4.529
 2944SOL    HW1 9731   2.774   6.278   4.572
 2944SOL    HW2 9732   2.793   6.117   4.554
 2945SOL     OW 9733   2.955   3.760   3.678
 2945SOL    HW1 9734   2.986   3.847   3.640
 2945SOL    HW2 9735   3.012   3.686   3.644
 2946SOL     OW 9736   0.909   4.755   5.902
 2946SOL    HW1 9737   0.938   4.822   5.969
 2946SOL    HW2 9738   0.852   4.686   5.946
 2947SOL     OW 9739   0.724   3.438   0.932
 2947SOL    HW1 9740   0.710   3.536   0.920
 2947SOL    HW2 9741   0.645   3.388   0.897
 2948SOL     OW 9742   1.094   3.877   5.156
 2948SOL    HW1 9743   1.113   3.938   5.233
 2948SOL    HW2 9744   1.180   3.845   5.117
 2949SOL     OW 9745   2.571   5.781   0.751
 2949SOL    HW1 9746   2.588   5.875   0.723
 2949SOL    HW2 9747   2.543   5.727   0.671
 2950SOL     OW 9748   5.239   4.619   4.300
 2950SOL    HW1 9749   5.273   4.696   4.354
 2950SOL    HW2 9750   5.219   4.542   4.360
 2951SOL     OW 9751   5.519   1.397   0.959
 2951SOL    HW1 9752   5.461   1.478   0.954
 2951SOL    HW2 9753   5.588   1.400   0.887
 2952SOL     OW 9754   7.009   4.298   5.022
 2952SOL    HW1 9755   0.060   4.242   4.991
 2952SOL    HW2 9756   6.957   4.247   5.090
 2953SOL     OW 9757   4.961   3.150   2.392
 2953SOL    HW1 9758   4.954   3.072   2.330
 2953SOL    HW2 9759   5.055   3.183   2.392
 2954SOL     OW 9760   0.945   5.505   1.711
 2954SOL    HW1 9761   0.938   5.458   1.623
 2954SOL    HW2 9762   0.872   5.475   1.772
 2955SOL     OW 9763   0.775   3.804   2.220
 2955SOL    HW1 9764   0.689   3.754   2.224
 2955SOL    HW2 9765   0.822   3.782   2.134
 2956SOL     OW 9766   5.108   5.926   2.934
 2956SOL    HW1 9767   5.080   6.015   2.970
 2956SOL    HW2 9768   5.067   5.853   2.990
 2957SOL     OW 9769   6.060   3.565   2.486
 2957SOL    HW1 9770   6.094   3.610   2.568
 2957SOL    HW2 9771   5.960   3.575   2.481
 2958SOL     OW 9772   2.701   4.746   4.144
 2958SOL    HW1 9773   2.675   4.665   4.090
 2958SOL    HW2 9774   2.642   4.751   4.225
 2959SOL     OW 9775   5.076   3.891   0.169
 2959SOL    HW1 9776   5.084   3.982   0.211
 2959SOL    HW2 9777   5.034   3.900   0.079
 2960SOL     OW 9778   3.321   1.176   0.254
 2960SOL    HW1 9779   3.255   1.250   0.243
 2960SOL    HW2 9780   3.314   1.139   0.347
 2961SOL     OW 9781   5.269   3.302   2.818
 2961SOL    HW1 9782   5.250   3.399   2.806
 2961SOL    HW2 9783   5.217   3.250   2.750
 2962SOL     OW 9784   4.935   7.007   3.091
 2962SOL    HW1 9785   4.889   6.978   3.007
 2962SOL    HW2 9786   4.952   6.928   3.150
 2963SOL     OW 9787   2.275   1.277   6.268
 2963SOL    HW1 9788   2.303   1.278   6.172
 2963SOL    HW2 9789   2.177   1.256   6.274
 2964SOL     OW 9790   0.561   0.540   3.709
 2964SOL    HW1 9791   0.521   0.625   3.674
 2964SOL    HW2 9792   0.632   0.561   3.775
 2965SOL     OW 9793   0.037   1.390   4.296
 2965SOL    HW1 9794   6.978   1.347   4.267
 2965SOL    HW2 9795   0.052   1.372   4.393
 2966SOL     OW 9796   4.866   5.899   3.549
 2966SOL    HW1 9797   4.835   5.823   3.606
 2966SOL    HW2 9798   4.881   5.866   3.456
 2967SOL     OW 9799   0.091   0.861   4.955
 2967SOL    HW1 9800   0.101   0.763   4.972
 2967SOL    HW2 9801   0.169   0.893   4.902
 2968SOL     OW 9802   0.937   2.860   6.806
 2968SOL    HW1 9803   0.928   2.916   6.889
 2968SOL    HW2 9804   1.006   2.901   6.746
 2969SOL     OW 9805   5.070   1.539   4.232
 2969SOL    HW1 9806   4.991   1.484   4.258
 2969SOL    HW2 9807   5.138   1.481   4.187
 2970SOL     OW 9808   1.873   4.085   5.979
 2970SOL    HW1 9809   1.831   4.137   5.905
 2970SOL    HW2 9810   1.802   4.040   6.033
 2971SOL     OW 9811   4.985   4.356   0.718
 2971SOL    HW1 9812   5.073   4.401   0.732
 2971SOL    HW2 9813   4.993   4.259   0.738
 2972SOL     OW 9814   6.440   4.553   6.450
 2972SOL    HW1 9815   6.481   4.550   6.359
 2972SOL    HW2 9816   6.356   4.608   6.447
 2973SOL     OW 9817   5.506   6.379   2.527
 2973SOL    HW1 9818   5.525   6.298   2.582
 2973SOL    HW2 9819   5.580   6.392   2.461
 2974SOL     OW 9820   0.975   4.686   3.589
 2974SOL    HW1 9821   1.067   4.715   3.566
 2974SOL    HW2 9822   0.943   4.738   3.669
 2975SOL     OW 9823   5.627   3.474   4.223
 2975SOL    HW1 9824   5.692   3.425   4.282
 2975SOL    HW2 9825   5.545   3.419   4.211
 2976SOL     OW 9826   4.440   1.709   2.886
 2976SOL    HW1 9827   4.468   1.697   2.981
 2976SOL    HW2 9828   4.340   1.722   2.883
 2977SOL     OW 9829   2.620   6.560   2.347
 2977SOL    HW1 9830   2.641   6.474   2.392
 2977SOL    HW2 9831   2.639   6.553   2.249
 2978SOL     OW 9832   5.068   4.337   0.447
 2978SOL    HW1 9833   5.033   4.326   0.540
 2978SOL    HW2 9834   5.092   4.432   0.431
 2979SOL     OW 9835   3.657   0.773   4.302
 2979SOL    HW1 9836   3.570   0.734   4.272
 2979SOL    HW2 9837   3.732   0.714   4.273
 2980SOL     OW 9838   1.368   6.042   4.832
 2980SOL    HW1 9839   1.284   6.018   4.784
 2980SOL    HW2 9840   1.345   6.076   4.924
 2981SOL     OW 9841   2.628   1.234   5.664
 2981SOL    HW1 9842   2.685   1.298   5.714
 2981SOL    HW2 9843   2.563   1.191   5.726
 2982SOL     OW 9844   3.328   4.928   2.839
 2982SOL    HW1 9845   3.321   4.927   2.739
 2982SOL    HW2 9846   3.424   4.919   2.865
 2983SOL     OW 9847   0.473   1.311   2.673
 2983SOL    HW1 9848   0.539   1.367   2.623
 2983SOL    HW2 9849   0.514   1.281   2.759
 2984SOL     OW 9850   5.350   5.084   0.856
 2984SOL    HW1 9851   5.434   5.135   0.878
 2984SOL    HW2 9852   5.311   5.120   0.771
 2985SOL     OW 9853   1.717   2.866   5.652
 2985SOL    HW1 9854   1.624   2.895   5.629
 2985SOL    HW2 9855   1.735   2.883   5.749
 2986SOL     OW 9856   3.609   4.176   3.611
 2986SOL    HW1 9857   3.702   4.161   3.644
 2986SOL    HW2 9858   3.544   4.163   3.686
 2987SOL     OW 9859   0.241   1.581   4.199
 2987SOL    HW1 9860   0.244   1.663   4.256
 2987SOL    HW2 9861   0.162   1.525   4.225
 2988SOL     OW 9862   1.521   5.445   2.834
 2988SOL    HW1 9863   1.586   5.517   2.861
 2988SOL    HW2 9864   1.497   5.457   2.738
 2989SOL     OW 9865   5.836   6.124   5.978
 2989SOL    HW1 9866   5.840   6.077   5.890
 2989SOL    HW2 9867   5.926   6.125   6.020
 2990SOL     OW 9868   3.483   1.755   4.926
 2990SOL    HW1 9869   3.468   1.798   5.015
 2990SOL    HW2 9870   3.533   1.669   4.938
 2991SOL     OW 9871   6.672   4.049   5.046
 2991SOL    HW1 9872   6.690   3.951   5.042
 2991SOL    HW2 9873   6.607   4.068   5.120
 2992SOL     OW 9874   2.488   6.189   4.750
 2992SOL    HW1 9875   2.563   6.249   4.720
 2992SOL    HW2 9876   2.412   6.198   4.686
 2993SOL     OW 9877   0.434   4.999   1.722
 2993SOL    HW1 9878   0.357   5.051   1.685
 2993SOL    HW2 9879   0.401   4.932   1.788
 2994SOL     OW 9880   4.184   6.044   0.124
 2994SOL    HW1 9881   4.198   6.138   0.155
 2994SOL    HW2 9882   4.093   6.036   0.082
 2995SOL     OW 9883   2.879   1.796   5.825
 2995SOL    HW1 9884   2.848   1.891   5.830
 2995SOL    HW2 9885   2.833   1.742   5.896
 2996SOL     OW 9886   1.604   1.403   3.803
 2996SOL    HW1 9887   1.624   1.438   3.711
 2996SOL    HW2 9888   1.539   1.465   3.848
 2997SOL     OW 9889   6.236   0.138   3.182
 2997SOL    HW1 9890   6.257   0.048   3.144
 2997SOL    HW2 9891   6.202   0.198   3.109
 2998SOL     OW 9892   4.511   6.971   3.739
 2998SOL    HW1 9893   4.493   6.890   3.683
 2998SOL    HW2 9894   4.572   6.946   3.814
 2999SOL     OW 9895   2.364   5.157   5.094
 2999SOL    HW1 9896   2.415   5.236   5.128
 2999SOL    HW2 9897   2.409   5.073   5.127
 3000SOL     OW 9898   3.059   3.841   6.339
 3000SOL    HW1 9899   3.057   3.920   6.279
 3000SOL    HW2 9900   3.127   3.855   6.411
 3001SOL     OW 9901   6.124   0.474   5.983
 3001SOL    HW1 9902   6.171   0.537   6.044
 3001SOL    HW2 9903   6.131   0.381   6.019
 3002SOL     OW 9904   3.346   1.419   6.911
 3002SOL    HW1 9905   3.324   1.472   6.829
 3002SOL    HW2 9906   3.316   1.470   6.992
 3003SOL     OW 9907   1.732   6.879   0.311
 3003SOL    HW1 9908   1.817   6.914   0.273
 3003SOL    HW2 9909   1.715   6.787   0.275
 3004SOL     OW 9910   0.848   4.606   3.336
 3004SOL    HW1 9911   0.878   4.623   3.430
 3004SOL    HW2 9912   0.748   4.600   3.333
 3005SOL     OW 9913   2.216   2.053   0.813
 3005SOL    HW1 9914   2.266   2.020   0.893
 3005SOL    HW2 9915   2.121   2.071   0.838
 3006SOL     OW 9916   5.526   1.735   5.310
 3006SOL    HW1 9917   5.503   1.671   5.237
 3006SOL    HW2 9918   5.540   1.685   5.395
 3007SOL     OW 9919   5.519   4.260   1.071
 3007SOL    HW1 9920   5.558   4.301   1.154
 3007SOL    HW2 9921   5.489   4.167   1.091
 3008SOL     OW 9922   3.643   2.228   6.092
 3008SOL    HW1 9923   3.689   2.244   6.005
 3008SOL    HW2 9924   3.642   2.130   6.112
 3009SOL     OW 9925   0.141   1.413   2.840
 3009SOL    HW1 9926   0.232   1.455   2.842
 3009SOL    HW2 9927   0.126   1.363   2.925
 3010SOL     OW 9928   3.669   5.955   3.310
 3010SOL    HW1 9929   3.647   5.935   3.215
 3010SOL    HW2 9930   3.588   5.992   3.356
 3011SOL     OW 9931   5.654   1.086   2.307
 3011SOL    HW1 9932   5.653   1.077   2.208
 3011SOL    HW2 9933   5.678   1.180   2.332
 3012SOL     OW 9934   1.938   3.754   6.162
 3012SOL    HW1 9935   1.946   3.663   6.120
 3012SOL    HW2 9936   1.947   3.746   6.261
 3013SOL     OW 9937   5.802   5.681   4.143
 3013SOL    HW1 9938   5.758   5.764   4.109
 3013SOL    HW2 9939   5.849   5.635   4.068
 3014SOL     OW 9940   4.352   2.342   4.685
 3014SOL    HW1 9941   4.394   2.413   4.741
 3014SOL    HW2 9942   4.417   2.267   4.672
 3015SOL     OW 9943   3.130   2.004   0.415
 3015SOL    HW1 9944   3.227   1.985   0.432
 3015SOL    HW2 9945   3.075   1.929   0.450
 3016SOL     OW 9946   2.041   6.576   3.830
 3016SOL    HW1 9947   2.101   6.545   3.904
 3016SOL    HW2 9948   1.955   6.524   3.833
 3017SOL     OW 9949   6.577   4.815   2.354
 3017SOL    HW1 9950   6.640   4.738   2.344
 3017SOL    HW2 9951   6.495   4.784   2.403
 3018SOL     OW 9952   3.081   6.689   5.956
 3018SOL    HW1 9953   3.064   6.768   5.897
 3018SOL    HW2 9954   3.174   6.694   5.992
 3019SOL     OW 9955   1.138   6.997   0.202
 3019SOL    HW1 9956   1.194   0.040   0.247
 3019SOL    HW2 9957   1.186   6.909   0.205
 3020SOL     OW 9958   3.744   2.821   1.675
 3020SOL    HW1 9959   3.671   2.754   1.687
 3020SOL    HW2 9960   3.832   2.779   1.701
 3021SOL     OW 9961   2.857   0.125   6.151
 3021SOL    HW1 9962   2.852   0.094   6.056
 3021SOL    HW2 9963   2.896   0.217   6.154
 3022SOL     OW 9964   3.351   5.370   4.604
 3022SOL    HW1 9965   3.399   5.341   4.522
 3022SOL    HW2 9966   3.414   5.373   4.681
 3023SOL     OW 9967   3.559   6.627   2.965
 3023SOL    HW1 9968   3.571   6.529   2.981
 3023SOL    HW2 9969   3.509   6.641   2.879
 3024SOL     OW 9970   4.705   0.112   4.908
 3024SOL    HW1 9971   4.680   0.208   4.908
 3024SOL    HW2 9972   4.804   0.103   4.895
 3025SOL     OW 9973   3.047   6.858   0.710
 3025SOL    HW1 9974   3.018   6.795   0.638
 3025SOL    HW2 9975   3.028   6.952   0.681
 3026SOL     OW 9976   1.346   0.573   6.770
 3026SOL    HW1 9977   1.390   0.636   6.706
 3026SOL    HW2 9978   1.397   0.572   6.856
 3027SOL     OW 9979   4.114   0.609   3.013
 3027SOL    HW1 9980   4.187   0.546   2.985
 3027SOL    HW2 9981   4.136   0.701   2.984
 3028SOL     OW 9982   1.064   3.855   6.044
 3028SOL    HW1 9983   1.087   3.827   6.137
 3028SOL    HW2 9984   0.980   3.809   6.014
 3029SOL     OW 9985   7.020   2.652   5.180
 3029SOL    HW1 9986   7.016   2.601   5.266
 3029SOL    HW2 9987   0.012   2.748   5.200
 3030SOL     OW 9988   0.110   3.460   0.443
 3030SOL    HW1 9989   0.081   3.365   0.432
 3030SOL    HW2 9990   0.036   3.513   0.484
 3031SOL     OW 9991   0.560   3.977   0.695
 3031SOL    HW1 9992   0.505   3.898   0.720
 3031SOL    HW2 9993   0.643   3.978   0.751
 3032SOL     OW 9994   2.920   6.519   0.662
 3032SOL    HW1 9995   2.960   6.429   0.680
 3032SOL    HW2 9996   2.951   6.584   0.730
 3033SOL     OW 9997   6.025   1.977   1.338
 3033SOL    HW1 9998   6.038   1.937   1.247
 3033SOL    HW2 9999   6.084   2.056   1.349
 3034SOL     OW10000   2.110   5.689   2.581
 3034SOL    HW110001   2.196   5.640   2.572
 3034SOL    HW210002   2.062   5.659   2.663
 3035SOL     OW10003   0.268   3.090   6.552
 3035SOL    HW110004   0.217   3.105   6.467
 3035SOL    HW210005   0.361   3.125   6.543
 3036SOL     OW10006   2.041   1.619   6.417
 3036SOL    HW110007   1.991   1.670   6.486
 3036SOL    HW210008   2.014   1.651   6.326
 3037SOL     OW10009   6.275   5.919   5.332
 3037SOL    HW110010   6.316   5.998   5.287
 3037SOL    HW210011   6.311   5.912   5.425
 3038SOL     OW10012   5.478   5.978   5.941
 3038SOL    HW110013   5.440   5.955   6.031
 3038SOL    HW210014   5.533   6.061   5.948
 3039SOL     OW10015   6.722   2.957   0.333
 3039SOL    HW110016   6.747   2.876   0.386
 3039SOL    HW210017   6.630   2.986   0.359
 3040SOL     OW10018   3.942   3.951   6.076
 3040SOL    HW110019   3.964   3.940   5.979
 3040SOL    HW210020   3.997   4.026   6.114
 3041SOL     OW10021   1.874   3.024   4.353
 3041SOL    HW110022   1.861   3.116   4.391
 3041SOL    HW210023   1.796   2.967   4.377
 3042SOL     OW10024   5.095   5.980   1.870
 3042SOL    HW110025   5.173   6.004   1.811
 3042SOL    HW210026   5.122   5.908   1.934
 3043SOL     OW10027   2.274   4.271   1.929
 3043SOL    HW110028   2.307   4.315   2.013
 3043SOL    HW210029   2.350   4.251   1.869
 3044SOL     OW10030   3.892   4.577   5.652
 3044SOL    HW110031   3.860   4.545   5.563
 3044SOL    HW210032   3.836   4.654   5.682
 3045SOL     OW10033   4.612   0.508   3.115
 3045SOL    HW110034   4.592   0.536   3.209
 3045SOL    HW210035   4.670   0.426   3.116
 3046SOL     OW10036   1.971   0.694   6.197
 3046SOL    HW110037   1.874   0.681   6.180
 3046SOL    HW210038   2.004   0.623   6.260
 3047SOL     OW10039   6.021   0.257   2.049
 3047SOL    HW110040   5.974   0.168   2.054
 3047SOL    HW210041   5.968   0.318   1.991
 3048SOL     OW10042   3.915   2.453   1.736
 3048SOL    HW110043   3.832   2.459   1.791
 3048SOL    HW210044   3.946   2.358   1.731
 3049SOL     OW10045   1.970   6.533   2.761
 3049SOL    HW110046   1.938   6.465   2.827
 3049SOL    HW210047   2.064   6.560   2.785
 3050SOL     OW10048   3.005   1.291   1.986
 3050SOL    HW110049   3.081   1.226   1.994
 3050SOL    HW210050   3.001   1.326   1.892
 3051SOL     OW10051   1.833   4.862   6.835
 3051SOL    HW110052   1.760   4.807   6.797
 3051SOL    HW210053   1.899   4.803   6.882
 3052SOL     OW10054   5.290   6.072   1.671
 3052SOL    HW110055   5.211   6.064   1.610
 3052SOL    HW210056   5.340   6.156   1.648
 3053SOL     OW10057   6.862   2.293   0.294
 3053SOL    HW110058   6.834   2.360   0.225
 3053SOL    HW210059   6.834   2.325   0.385
 3054SOL     OW10060   6.768   2.258   1.021
 3054SOL    HW110061   6.810   2.317   1.090
 3054SOL    HW210062   6.771   2.163   1.052
 3055SOL     OW10063   5.243   0.583   4.799
 3055SOL    HW110064   5.218   0.678   4.782
 3055SOL    HW210065   5.279   0.542   4.715
 3056SOL     OW10066   6.577   6.987   5.204
 3056SOL    HW110067   6.638   6.969   5.127
 3056SOL    HW210068   6.510   0.030   5.179
 3057SOL     OW10069   4.489   6.295   2.765
 3057SOL    HW110070   4.557   6.232   2.803
 3057SOL    HW210071   4.398   6.265   2.794
 3058SOL     OW10072   6.738   4.813   1.533
 3058SOL    HW110073   6.707   4.721   1.557
 3058SOL    HW210074   6.821   4.806   1.476
 3059SOL     OW10075   2.701   2.149   4.429
 3059SOL    HW110076   2.777   2.099   4.388
 3059SOL    HW210077   2.736   2.221   4.488
 3060SOL     OW10078   1.107   5.166   0.190
 3060SOL    HW110079   1.174   5.092   0.197
 3060SOL    HW210080   1.149   5.244   0.144
 3061SOL     OW10081   0.070   6.935   5.148
 3061SOL    HW110082   0.024   6.846   5.138
 3061SOL    HW210083   0.039   6.996   5.075
 3062SOL     OW10084   2.241   0.579   0.640
 3062SOL    HW110085   2.155   0.536   0.614
 3062SOL    HW210086   2.223   0.667   0.685
 3063SOL     OW10087   2.491   4.759   1.834
 3063SOL    HW110088   2.586   4.733   1.816
 3063SOL    HW210089   2.430   4.712   1.770
 3064SOL     OW10090   5.297   4.062   1.959
 3064SOL    HW110091   5.205   4.023   1.950
 3064SOL    HW210092   5.337   4.074   1.868
 3065SOL     OW10093   1.972   1.325   0.587
 3065SOL    HW110094   2.048   1.385   0.563
 3065SOL    HW210095   1.939   1.278   0.505
 3066SOL     OW10096   4.570   5.633   0.996
 3066SOL    HW110097   4.568   5.711   1.058
 3066SOL    HW210098   4.636   5.649   0.923
 3067SOL     OW10099   3.412   1.743   5.391
 3067SOL    HW110100   3.456   1.660   5.426
 3067SOL    HW210101   3.325   1.758   5.440
 3068SOL     OW10102   6.437   0.226   0.577
 3068SOL    HW110103   6.456   0.209   0.674
 3068SOL    HW210104   6.501   0.294   0.542
 3069SOL     OW10105   7.027   5.925   1.881
 3069SOL    HW110106   6.931   5.941   1.856
 3069SOL    HW210107   0.060   5.965   1.811
 3070SOL     OW10108   2.750   1.162   0.103
 3070SOL    HW110109   2.814   1.152   0.026
 3070SOL    HW210110   2.763   1.251   0.146
 3071SOL     OW10111   6.388   5.596   3.470
 3071SOL    HW110112   6.418   5.501   3.470
 3071SOL    HW210113   6.449   5.651   3.528
 3072SOL     OW10114   2.263   5.803   6.753
 3072SOL    HW110115   2.305   5.723   6.796
 3072SOL    HW210116   2.258   5.788   6.654
 3073SOL     OW10117   5.856   2.896   4.453
 3073SOL    HW110118   5.910   2.922   4.373
 3073SOL    HW210119   5.898   2.817   4.497
 3074SOL     OW10120   5.569   3.894   0.438
 3074SOL    HW110121   5.471   3.897   0.421
 3074SOL    HW210122   5.593   3.808   0.483
 3075SOL     OW10123   2.935   5.922   1.690
 3075SOL    HW110124   2.842   5.927   1.727
 3075SOL    HW210125   3.000   5.951   1.760
 3076SOL     OW10126   6.590   0.482   4.292
 3076SOL    HW110127   6.665   0.433   4.247
 3076SOL    HW210128   6.628   0.543   4.362
 3077SOL     OW10129   5.432   5.387   1.525
 3077SOL    HW110130   5.350   5.436   1.556
 3077SOL    HW210131   5.461   5.322   1.595
 3078SOL     OW10132   6.958   2.691   2.809
 3078SOL    HW110133   6.972   2.644   2.896
 3078SOL    HW210134   6.973   2.789   2.822
 3079SOL     OW10135   2.468   2.493   2.952
 3079SOL    HW110136   2.381   2.447   2.968
 3079SOL    HW210137   2.452   2.577   2.900
 3080SOL     OW10138   5.069   4.547   2.333
 3080SOL    HW110139   5.009   4.577   2.407
 3080SOL    HW210140   5.162   4.578   2.351
 3081SOL     OW10141   0.718   3.075   5.289
 3081SOL    HW110142   0.663   3.017   5.348
 3081SOL    HW210143   0.805   3.029   5.268
 3082SOL     OW10144   2.615   6.288   3.971
 3082SOL    HW110145   2.645   6.342   3.893
 3082SOL    HW210146   2.572   6.204   3.939
 3083SOL     OW10147   3.026   6.054   4.216
 3083SOL    HW110148   2.946   6.114   4.209
 3083SOL    HW210149   3.009   5.984   4.285
 3084SOL     OW10150   6.598   3.911   4.369
 3084SOL    HW110151   6.593   3.954   4.279
 3084SOL    HW210152   6.540   3.829   4.371
 3085SOL     OW10153   6.009   4.570   0.259
 3085SOL    HW110154   6.080   4.638   0.242
 3085SOL    HW210155   5.927   4.616   0.293
 3086SOL     OW10156   4.803   1.694   1.048
 3086SOL    HW110157   4.740   1.618   1.063
 3086SOL    HW210158   4.760   1.761   0.987
 3087SOL     OW10159   1.115   5.260   3.705
 3087SOL    HW110160   1.038   5.307   3.748
 3087SOL    HW210161   1.081   5.203   3.630
 3088SOL     OW10162   1.912   4.759   4.646
 3088SOL    HW110163   1.915   4.811   4.560
 3088SOL    HW210164   1.988   4.788   4.705
 3089SOL     OW10165   2.022   3.323   5.886
 3089SOL    HW110166   2.075   3.401   5.852
 3089SOL    HW210167   2.015   3.253   5.814
 3090SOL     OW10168   2.515   2.326   1.728
 3090SOL    HW110169   2.530   2.234   1.692
 3090SOL    HW210170   2.537   2.326   1.826
 3091SOL     OW10171   1.534   0.038   1.514
 3091SOL    HW110172   1.599   0.002   1.581
 3091SOL    HW210173   1.442   0.035   1.553
 3092SOL     OW10174   4.769   1.127   0.684
 3092SOL    HW110175   4.800   1.117   0.779
 3092SOL    HW210176   4.749   1.223   0.666
 3093SOL     OW10177   5.232   6.829   6.085
 3093SOL    HW110178   5.216   6.792   6.177
 3093SOL    HW210179   5.270   6.757   6.027
 3094SOL     OW10180   1.960   0.165   4.202
 3094SOL    HW110181   1.930   0.135   4.111
 3094SOL    HW210182   1.915   0.251   4.225
 3095SOL     OW10183   2.846   5.207   5.625
 3095SOL    HW110184   2.873   5.120   5.667
 3095SOL    HW210185   2.805   5.189   5.535
 3096SOL     OW10186   1.461   5.690   5.473
 3096SOL    HW110187   1.425   5.769   5.423
 3096SOL    HW210188   1.530   5.721   5.539
 3097SOL     OW10189   5.785   2.339   0.560
 3097SOL    HW110190   5.715   2.409   0.578
 3097SOL    HW210191   5.853   2.375   0.495
 3098SOL     OW10192   2.328   2.740   1.638
 3098SOL    HW110193   2.360   2.653   1.674
 3098SOL    HW210194   2.285   2.725   1.549
 3099SOL     OW10195   1.422   0.001   3.544
 3099SOL    HW110196   1.509   6.989   3.575
 3099SOL    HW210197   1.364   6.954   3.510
 3100SOL     OW10198   6.911   5.614   3.711
 3100SOL    HW110199   6.885   5.650   3.801
 3100SOL    HW210200   7.009   5.629   3.697
 3101SOL     OW10201   5.663   6.367   0.011
 3101SOL    HW110202   5.655   6.282   0.063
 3101SOL    HW210203   5.600   6.435   0.049
 3102SOL     OW10204   6.460   5.109   2.383
 3102SOL    HW110205   6.515   5.030   2.408
 3102SOL    HW210206   6.449   5.112   2.283
 3103SOL     OW10207   4.379   0.804   2.189
 3103SOL    HW110208   4.346   0.830   2.098
 3103SOL    HW210209   4.478   0.796   2.188
 3104SOL     OW10210   5.203   0.865   4.721
 3104SOL    HW110211   5.155   0.947   4.691
 3104SOL    HW210212   5.301   0.883   4.727
 3105SOL     OW10213   5.844   4.533   1.196
 3105SOL    HW110214   5.886   4.528   1.106
 3105SOL    HW210215   5.774   4.463   1.204
 3106SOL     OW10216   5.414   0.935   3.468
 3106SOL    HW110217   5.453   1.028   3.465
 3106SOL    HW210218   5.377   0.917   3.559
 3107SOL     OW10219   4.571   1.626   4.917
 3107SOL    HW110220   4.667   1.616   4.941
 3107SOL    HW210221   4.554   1.585   4.827
 3108SOL     OW10222   1.774   6.398   4.335
 3108SOL    HW110223   1.725   6.359   4.413
 3108SOL    HW210224   1.866   6.360   4.331
 3109SOL     OW10225   5.795   6.326   3.402
 3109SOL    HW110226   5.746   6.298   3.319
 3109SOL    HW210227   5.810   6.247   3.461
 3110SOL     OW10228   1.314   2.869   2.312
 3110SOL    HW110229   1.250   2.807   2.358
 3110SOL    HW210230   1.291   2.963   2.334
 3111SOL     OW10231   6.844   5.032   3.077
 3111SOL    HW110232   6.756   5.048   3.120
 3111SOL    HW210233   6.907   4.992   3.144
 3112SOL     OW10234   4.172   2.722   6.863
 3112SOL    HW110235   4.240   2.720   6.789
 3112SOL    HW210236   4.136   2.815   6.873
 3113SOL     OW10237   2.562   5.544   3.807
 3113SOL    HW110238   2.588   5.499   3.722
 3113SOL    HW210239   2.608   5.632   3.814
 3114SOL     OW10240   4.395   1.856   1.181
 3114SOL    HW110241   4.359   1.923   1.245
 3114SOL    HW210242   4.332   1.778   1.173
 3115SOL     OW10243   3.690   4.446   6.558
 3115SOL    HW110244   3.734   4.356   6.550
 3115SOL    HW210245   3.695   4.493   6.470
 3116SOL     OW10246   0.295   3.215   0.002
 3116SOL    HW110247   0.234   3.140   0.031
 3116SOL    HW210248   0.378   3.176   6.989
 3117SOL     OW10249   4.436   3.603   5.302
 3117SOL    HW110250   4.518   3.583   5.248
 3117SOL    HW210251   4.369   3.530   5.290
 3118SOL     OW10252   0.934   5.477   2.441
 3118SOL    HW110253   0.970   5.567   2.416
 3118SOL    HW210254   0.868   5.447   2.372
 3119SOL     OW10255   2.363   3.745   6.623
 3119SOL    HW110256   2.302   3.704   6.555
 3119SOL    HW210257   2.408   3.825   6.583
 3120SOL     OW10258   3.847   0.572   4.912
 3120SOL    HW110259   3.776   0.635   4.882
 3120SOL    HW210260   3.847   0.490   4.855
 3121SOL     OW10261   0.441   0.776   3.643
 3121SOL    HW110262   0.446   0.856   3.585
 3121SOL    HW210263   0.359   0.781   3.701
 3122SOL     OW10264   4.594   6.221   6.178
 3122SOL    HW110265   4.636   6.140   6.138
 3122SOL    HW210266   4.498   6.202   6.200
 3123SOL     OW10267   2.310   1.518   3.338
 3123SOL    HW110268   2.254   1.600   3.344
 3123SOL    HW210269   2.372   1.514   3.417
 3124SOL     OW10270   4.746   0.159   4.590
 3124SOL    HW110271   4.649   0.161   4.566
 3124SOL    HW210272   4.756   0.128   4.685
 3125SOL     OW10273   0.375   2.639   5.068
 3125SOL    HW110274   0.355   2.549   5.106
 3125SOL    HW210275   0.355   2.709   5.136
 3126SOL     OW10276   5.456   4.597   5.400
 3126SOL    HW110277   5.391   4.532   5.440
 3126SOL    HW210278   5.419   4.689   5.404
 3127SOL     OW10279   1.275   3.531   5.666
 3127SOL    HW110280   1.274   3.626   5.696
 3127SOL    HW210281   1.240   3.525   5.573
 3128SOL     OW10282   2.647   0.382   6.179
 3128SOL    HW110283   2.730   0.437   6.192
 3128SOL    HW210284   2.608   0.359   6.268
 3129SOL     OW10285   6.366   3.640   6.536
 3129SOL    HW110286   6.347   3.633   6.634
 3129SOL    HW210287   6.369   3.548   6.497
 3130SOL     OW10288   1.858   4.211   1.009
 3130SOL    HW110289   1.885   4.222   0.913
 3130SOL    HW210290   1.831   4.116   1.025
 3131SOL     OW10291   0.443   3.040   1.588
 3131SOL    HW110292   0.451   2.961   1.528
 3131SOL    HW210293   0.385   3.016   1.667
 3132SOL     OW10294   3.795   5.830   6.274
 3132SOL    HW110295   3.699   5.852   6.260
 3132SOL    HW210296   3.840   5.907   6.320
 3133SOL     OW10297   3.330   1.638   3.772
 3133SOL    HW110298   3.371   1.593   3.692
 3133SOL    HW210299   3.231   1.627   3.769
 3134SOL     OW10300   4.561   3.988   1.693
 3134SOL    HW110301   4.540   4.077   1.733
 3134SOL    HW210302   4.503   3.974   1.612
 3135SOL     OW10303   4.682   1.246   4.596
 3135SOL    HW110304   4.758   1.181   4.597
 3135SOL    HW210305   4.717   1.337   4.617
 3136SOL     OW10306   5.288   0.760   1.741
 3136SOL    HW110307   5.331   0.673   1.714
 3136SOL    HW210308   5.220   0.786   1.673
 3137SOL     OW10309   6.604   0.865   2.138
 3137SOL    HW110310   6.698   0.876   2.105
 3137SOL    HW210311   6.542   0.858   2.060
 3138SOL     OW10312   6.313   4.551   3.757
 3138SOL    HW110313   6.278   4.626   3.701
 3138SOL    HW210314   6.355   4.482   3.699
 3139SOL     OW10315   4.872   6.447   0.764
 3139SOL    HW110316   4.835   6.475   0.853
 3139SOL    HW210317   4.824   6.495   0.691
 3140SOL     OW10318   6.278   0.127   0.194
 3140SOL    HW110319   6.342   0.122   0.118
 3140SOL    HW210320   6.322   0.091   0.277
 3141SOL     OW10321   0.441   6.803   6.468
 3141SOL    HW110322   0.343   6.789   6.452
 3141SOL    HW210323   0.487   6.715   6.479
 3142SOL     OW10324   3.561   6.593   2.117
 3142SOL    HW110325   3.601   6.507   2.149
 3142SOL    HW210326   3.622   6.635   2.050
 3143SOL     OW10327   6.807   2.022   6.570
 3143SOL    HW110328   6.718   2.049   6.531
 3143SOL    HW210329   6.845   1.947   6.516
 3144SOL     OW10330   3.770   4.172   1.453
 3144SOL    HW110331   3.837   4.144   1.521
 3144SOL    HW210332   3.745   4.094   1.396
 3145SOL     OW10333   2.224   6.028   1.184
 3145SOL    HW110334   2.237   5.929   1.179
 3145SOL    HW210335   2.190   6.061   1.096
 3146SOL     OW10336   1.621   0.569   3.748
 3146SOL    HW110337   1.629   0.515   3.664
 3146SOL    HW210338   1.599   0.664   3.725
 3147SOL     OW10339   3.256   6.193   1.416
 3147SOL    HW110340   3.295   6.203   1.325
 3147SOL    HW210341   3.171   6.140   1.411
 3148SOL     OW10342   6.149   5.825   4.544
 3148SOL    HW110343   6.182   5.913   4.509
 3148SOL    HW210344   6.164   5.821   4.643
 3149SOL     OW10345   2.594   1.093   5.398
 3149SOL    HW110346   2.654   1.014   5.391
 3149SOL    HW210347   2.620   1.148   5.477
 3150SOL     OW10348   6.052   5.287   4.204
 3150SOL    HW110349   6.009   5.215   4.149
 3150SOL    HW210350   6.134   5.320   4.157
 3151SOL     OW10351   6.177   1.561   5.229
 3151SOL    HW110352   6.234   1.534   5.307
 3151SOL    HW210353   6.102   1.496   5.219
 3152SOL     OW10354   1.045   5.494   0.562
 3152SOL    HW110355   1.099   5.421   0.603
 3152SOL    HW210356   1.081   5.516   0.471
 3153SOL     OW10357   5.796   4.724   0.766
 3153SOL    HW110358   5.895   4.735   0.756
 3153SOL    HW210359   5.777   4.661   0.841
 3154SOL     OW10360   6.540   1.382   6.541
 3154SOL    HW110361   6.483   1.308   6.504
 3154SOL    HW210362   6.532   1.384   6.641
 3155SOL     OW10363   6.343   4.495   0.422
 3155SOL    HW110364   6.254   4.463   0.453
 3155SOL    HW210365   6.365   4.582   0.467
 3156SOL     OW10366   3.282   2.931   3.596
 3156SOL    HW110367   3.380   2.950   3.591
 3156SOL    HW210368   3.257   2.915   3.692
 3157SOL     OW10369   2.578   2.136   4.859
 3157SOL    HW110370   2.605   2.066   4.792
 3157SOL    HW210371   2.483   2.161   4.845
 3158SOL     OW10372   4.306   1.139   3.684
 3158SOL    HW110373   4.224   1.197   3.684
 3158SOL    HW210374   4.315   1.095   3.594
 3159SOL     OW10375   6.113   1.692   6.895
 3159SOL    HW110376   6.020   1.723   6.876
 3159SOL    HW210377   6.174   1.771   6.899
 3160SOL     OW10378   0.152   6.133   5.627
 3160SOL    HW110379   0.209   6.105   5.704
 3160SOL    HW210380   0.208   6.182   5.560
 3161SOL     OW10381   1.964   2.579   3.400
 3161SOL    HW110382   1.963   2.631   3.314
 3161SOL    HW210383   1.879   2.528   3.409
 3162SOL     OW10384   1.617   6.522   2.295
 3162SOL    HW110385   1.552   6.464   2.246
 3162SOL    HW210386   1.692   6.465   2.331
 3163SOL     OW10387   4.822   2.457   6.056
 3163SOL    HW110388   4.741   2.465   5.999
 3163SOL    HW210389   4.833   2.363   6.087
 3164SOL     OW10390   4.214   5.012   1.050
 3164SOL    HW110391   4.258   5.093   1.012
 3164SOL    HW210392   4.115   5.024   1.050
 3165SOL     OW10393   0.111   6.248   1.289
 3165SOL    HW110394   0.085   6.331   1.339
 3165SOL    HW210395   0.037   6.223   1.226
 3166SOL     OW10396   4.333   1.913   4.542
 3166SOL    HW110397   4.346   1.935   4.445
 3166SOL    HW210398   4.391   1.972   4.598
 3167SOL     OW10399   6.205   4.576   0.768
 3167SOL    HW110400   6.291   4.551   0.814
 3167SOL    HW210401   6.185   4.508   0.697
 3168SOL     OW10402   4.311   2.341   6.565
 3168SOL    HW110403   4.328   2.394   6.648
 3168SOL    HW210404   4.333   2.245   6.582
 3169SOL     OW10405   2.048   3.580   4.293
 3169SOL    HW110406   2.031   3.670   4.335
 3169SOL    HW210407   2.079   3.516   4.364
 3170SOL     OW10408   4.229   0.245   1.576
 3170SOL    HW110409   4.298   0.270   1.508
 3170SOL    HW210410   4.173   0.170   1.541
 3171SOL     OW10411   0.324   0.565   1.184
 3171SOL    HW110412   0.402   0.627   1.186
 3171SOL    HW210413   0.304   0.534   1.277
 3172SOL     OW10414   6.448   5.257   0.299
 3172SOL    HW110415   6.537   5.214   0.312
 3172SOL    HW210416   6.432   5.271   0.201
 3173SOL     OW10417   2.884   2.154   0.676
 3173SOL    HW110418   2.827   2.226   0.715
 3173SOL    HW210419   2.826   2.077   0.649
 3174SOL     OW10420   2.999   2.002   0.037
 3174SOL    HW110421   2.948   2.085   0.060
 3174SOL    HW210422   2.946   1.945   7.002
 3175SOL     OW10423   6.729   0.709   0.930
 3175SOL    HW110424   6.779   0.640   0.983
 3175SOL    HW210425   6.645   0.733   0.978
 3176SOL     OW10426   1.520   4.753   4.651
 3176SOL    HW110427   1.473   4.710   4.728
 3176SOL    HW210428   1.596   4.809   4.686
 3177SOL     OW10429   4.898   3.760   4.261
 3177SOL    HW110430   4.983   3.791   4.303
 3177SOL    HW210431   4.892   3.660   4.267
 3178SOL     OW10432   6.182   2.001   0.243
 3178SOL    HW110433   6.141   2.085   0.208
 3178SOL    HW210434   6.207   2.014   0.339
 3179SOL     OW10435   1.142   3.291   1.864
 3179SOL    HW110436   1.072   3.221   1.854
 3179SOL    HW210437   1.233   3.248   1.862
 3180SOL     OW10438   4.432   1.254   0.047
 3180SOL    HW110439   4.431   1.281   6.978
 3180SOL    HW210440   4.474   1.326   0.102
 3181SOL     OW10441   6.666   1.241   2.816
 3181SOL    HW110442   6.745   1.292   2.781
 3181SOL    HW210443   6.686   1.206   2.907
 3182SOL     OW10444   3.275   0.600   5.598
 3182SOL    HW110445   3.353   0.663   5.597
 3182SOL    HW210446   3.253   0.574   5.504
 3183SOL     OW10447   4.006   4.132   1.600
 3183SOL    HW110448   4.001   4.075   1.682
 3183SOL    HW210449   4.042   4.223   1.624
 3184SOL     OW10450   0.661   2.613   2.713
 3184SOL    HW110451   0.608   2.642   2.633
 3184SOL    HW210452   0.599   2.600   2.791
 3185SOL     OW10453   5.827   5.732   0.313
 3185SOL    HW110454   5.835   5.643   0.268
 3185SOL    HW210455   5.863   5.726   0.406
 3186SOL     OW10456   3.771   1.587   2.057
 3186SOL    HW110457   3.693   1.639   2.091
 3186SOL    HW210458   3.744   1.492   2.041
 3187SOL     OW10459   4.593   4.245   6.911
 3187SOL    HW110460   4.665   4.181   6.885
 3187SOL    HW210461   4.591   4.255   7.010
 3188SOL     OW10462   2.352   0.563   4.609
 3188SOL    HW110463   2.313   0.568   4.701
 3188SOL    HW210464   2.341   0.470   4.573
 3189SOL     OW10465   1.416   1.504   1.737
 3189SOL    HW110466   1.462   1.527   1.823
 3189SOL    HW210467   1.409   1.586   1.681
 3190SOL     OW10468   6.830   6.486   0.575
 3190SOL    HW110469   6.759   6.464   0.508
 3190SOL    HW210470   6.865   6.578   0.557
 3191SOL     OW10471   5.348   6.691   0.930
 3191SOL    HW110472   5.262   6.676   0.881
 3191SOL    HW210473   5.419   6.717   0.865
 3192SOL     OW10474   0.285   2.684   1.805
 3192SOL    HW110475   0.190   2.707   1.827
 3192SOL    HW210476   0.293   2.585   1.794
 3193SOL     OW10477   3.785   1.456   6.666
 3193SOL    HW110478   3.852   1.414   6.604
 3193SOL    HW210479   3.797   1.556   6.664
 3194SOL     OW10480   1.030   2.900   6.333
 3194SOL    HW110481   1.067   2.993   6.329
 3194SOL    HW210482   1.057   2.850   6.251
 3195SOL     OW10483   2.680   2.453   3.427
 3195SOL    HW110484   2.662   2.498   3.340
 3195SOL    HW210485   2.761   2.395   3.418
 3196SOL     OW10486   0.836   1.456   5.974
 3196SOL    HW110487   0.893   1.374   5.967
 3196SOL    HW210488   0.803   1.482   5.883
 3197SOL     OW10489   2.526   6.289   2.996
 3197SOL    HW110490   2.455   6.249   3.053
 3197SOL    HW210491   2.615   6.279   3.041
 3198SOL     OW10492   5.754   2.408   5.190
 3198SOL    HW110493   5.839   2.454   5.217
 3198SOL    HW210494   5.756   2.313   5.222
 3199SOL     OW10495   4.787   2.906   2.487
 3199SOL    HW110496   4.758   2.856   2.406
 3199SOL    HW210497   4.762   3.002   2.479
 3200SOL     OW10498   6.603   3.015   2.013
 3200SOL    HW110499   6.524   2.958   1.993
 3200SOL    HW210500   6.639   2.993   2.104
 3201SOL     OW10501   5.311   4.670   4.584
 3201SOL    HW110502   5.217   4.688   4.613
 3201SOL    HW210503   5.374   4.697   4.656
 3202SOL     OW10504   0.247   4.787   1.808
 3202SOL    HW110505   0.168   4.729   1.790
 3202SOL    HW210506   0.312   4.740   1.867
 3203SOL     OW10507   6.500   2.327   6.859
 3203SOL    HW110508   6.568   2.320   6.786
 3203SOL    HW210509   6.537   2.382   6.934
 3204SOL     OW10510   4.976   6.398   1.830
 3204SOL    HW110511   5.039   6.382   1.906
 3204SOL    HW210512   4.913   6.472   1.854
 3205SOL     OW10513   6.834   3.425   6.260
 3205SOL    HW110514   6.735   3.421   6.272
 3205SOL    HW210515   6.879   3.384   6.339
 3206SOL     OW10516   0.425   6.446   6.030
 3206SOL    HW110517   0.365   6.418   5.955
 3206SOL    HW210518   0.383   6.522   6.079
 3207SOL     OW10519   1.217   0.657   5.514
 3207SOL    HW110520   1.133   0.699   5.549
 3207SOL    HW210521   1.216   0.659   5.414
 3208SOL     OW10522   5.533   6.703   5.526
 3208SOL    HW110523   5.594   6.750   5.591
 3208SOL    HW210524   5.438   6.723   5.550
 3209SOL     OW10525   4.017   5.386   2.847
 3209SOL    HW110526   3.974   5.373   2.937
 3209SOL    HW210527   3.990   5.474   2.810
 3210SOL     OW10528   0.659   4.285   1.076
 3210SOL    HW110529   0.722   4.359   1.056
 3210SOL    HW210530   0.609   4.304   1.160
 3211SOL     OW10531   1.415   3.821   0.687
 3211SOL    HW110532   1.453   3.748   0.630
 3211SOL    HW210533   1.458   3.908   0.663
 3212SOL     OW10534   2.890   0.858   0.988
 3212SOL    HW110535   2.880   0.759   1.004
 3212SOL    HW210536   2.985   0.885   1.004
 3213SOL     OW10537   0.585   6.077   2.072
 3213SOL    HW110538   0.533   6.133   2.137
 3213SOL    HW210539   0.658   6.132   2.031
 3214SOL     OW10540   4.844   5.723   0.921
 3214SOL    HW110541   4.868   5.774   1.004
 3214SOL    HW210542   4.878   5.629   0.928
 3215SOL     OW10543   0.279   3.061   0.882
 3215SOL    HW110544   0.322   2.985   0.930
 3215SOL    HW210545   0.199   3.093   0.933
 3216SOL     OW10546   5.666   5.392   1.027
 3216SOL    HW110547   5.593   5.364   1.089
 3216SOL    HW210548   5.648   5.355   0.936
 3217SOL     OW10549   0.102   6.125   2.793
 3217SOL    HW110550   0.081   6.220   2.818
 3217SOL    HW210551   0.142   6.123   2.701
 3218SOL     OW10552   4.191   0.600   3.823
 3218SOL    HW110553   4.189   0.510   3.778
 3218SOL    HW210554   4.281   0.615   3.863
 3219SOL     OW10555   0.003   1.596   3.129
 3219SOL    HW110556   0.072   1.588   3.202
 3219SOL    HW210557   6.986   1.507   3.114
 3220SOL     OW10558   6.385   6.274   5.771
 3220SOL    HW110559   6.433   6.361   5.781
 3220SOL    HW210560   6.452   6.202   5.752
 3221SOL     OW10561   3.421   6.968   1.533
 3221SOL    HW110562   3.372   0.024   1.507
 3221SOL    HW210563   3.380   6.888   1.489
 3222SOL     OW10564   4.380   1.670   2.576
 3222SOL    HW110565   4.331   1.689   2.662
 3222SOL    HW210566   4.323   1.697   2.499
 3223SOL     OW10567   2.061   5.272   6.475
 3223SOL    HW110568   2.074   5.209   6.399
 3223SOL    HW210569   2.011   5.353   6.444
 3224SOL     OW10570   4.522   3.744   0.258
 3224SOL    HW110571   4.493   3.650   0.245
 3224SOL    HW210572   4.524   3.766   0.355
 3225SOL     OW10573   4.684   3.279   6.153
 3225SOL    HW110574   4.637   3.196   6.124
 3225SOL    HW210575   4.632   3.323   6.226
 3226SOL     OW10576   2.117   1.618   4.442
 3226SOL    HW110577   2.205   1.651   4.475
 3226SOL    HW210578   2.044   1.679   4.475
 3227SOL     OW10579   3.729   1.802   0.540
 3227SOL    HW110580   3.804   1.779   0.602
 3227SOL    HW210581   3.642   1.773   0.581
 3228SOL     OW10582   6.161   4.182   2.793
 3228SOL    HW110583   6.194   4.110   2.854
 3228SOL    HW210584   6.071   4.156   2.756
 3229SOL     OW10585   3.889   0.843   5.521
 3229SOL    HW110586   3.893   0.925   5.464
 3229SOL    HW210587   3.890   0.762   5.462
 3230SOL     OW10588   1.539   3.056   4.293
 3230SOL    HW110589   1.452   3.074   4.247
 3230SOL    HW210590   1.523   3.008   4.378
 3231SOL     OW10591   2.261   1.081   1.719
 3231SOL    HW110592   2.218   1.075   1.629
 3231SOL    HW210593   2.232   1.166   1.764
 3232SOL     OW10594   4.452   5.268   5.394
 3232SOL    HW110595   4.448   5.168   5.402
 3232SOL    HW210596   4.515   5.294   5.321
 3233SOL     OW10597   0.731   2.654   1.753
 3233SOL    HW110598   0.817   2.634   1.707
 3233SOL    HW210599   0.701   2.573   1.804
 3234SOL     OW10600   0.393   1.700   6.874
 3234SOL    HW110601   0.481   1.743   6.892
 3234SOL    HW210602   0.321   1.750   6.923
 3235SOL     OW10603   5.209   0.886   1.298
 3235SOL    HW110604   5.226   0.807   1.240
 3235SOL    HW210605   5.157   0.955   1.247
 3236SOL     OW10606   1.016   3.550   0.657
 3236SOL    HW110607   1.006   3.578   0.752
 3236SOL    HW210608   0.939   3.584   0.603
 3237SOL     OW10609   5.078   1.195   3.968
 3237SOL    HW110610   5.053   1.110   4.015
 3237SOL    HW210611   5.022   1.270   4.003
 3238SOL     OW10612   0.133   4.849   0.734
 3238SOL    HW110613   0.205   4.909   0.699
 3238SOL    HW210614   0.044   4.892   0.721
 3239SOL     OW10615   6.418   1.459   1.449
 3239SOL    HW110616   6.338   1.412   1.486
 3239SOL    HW210617   6.396   1.555   1.433
 3240SOL     OW10618   1.505   6.746   5.893
 3240SOL    HW110619   1.412   6.781   5.882
 3240SOL    HW210620   1.501   6.648   5.914
 3241SOL     OW10621   4.630   1.448   5.560
 3241SOL    HW110622   4.632   1.348   5.557
 3241SOL    HW210623   4.537   1.480   5.541
 3242SOL     OW10624   3.301   4.509   0.599
 3242SOL    HW110625   3.351   4.429   0.566
 3242SOL    HW210626   3.361   4.590   0.596
 3243SOL     OW10627   5.163   4.702   0.656
 3243SOL    HW110628   5.082   4.674   0.606
 3243SOL    HW210629   5.224   4.752   0.594
 3244SOL     OW10630   5.031   5.904   6.919
 3244SOL    HW110631   5.077   5.869   7.001
 3244SOL    HW210632   4.935   5.921   6.940
 3245SOL     OW10633   4.878   2.987   5.123
 3245SOL    HW110634   4.930   2.914   5.080
 3245SOL    HW210635   4.787   2.954   5.147
 3246SOL     OW10636   5.110   0.477   2.770
 3246SOL    HW110637   5.206   0.448   2.774
 3246SOL    HW210638   5.096   0.534   2.690
 3247SOL     OW10639   5.719   4.803   2.778
 3247SOL    HW110640   5.668   4.851   2.849
 3247SOL    HW210641   5.731   4.707   2.804
 3248SOL     OW10642   6.642   3.909   1.498
 3248SOL    HW110643   6.680   3.997   1.527
 3248SOL    HW210644   6.570   3.881   1.560
 3249SOL     OW10645   3.675   3.689   4.684
 3249SOL    HW110646   3.627   3.750   4.621
 3249SOL    HW210647   3.720   3.743   4.755
 3250SOL     OW10648   6.173   6.612   2.012
 3250SOL    HW110649   6.103   6.627   2.082
 3250SOL    HW210650   6.243   6.550   2.048
 3251SOL     OW10651   3.401   0.946   2.201
 3251SOL    HW110652   3.349   0.879   2.148
 3251SOL    HW210653   3.486   0.905   2.234
 3252SOL     OW10654   2.385   1.964   2.529
 3252SOL    HW110655   2.327   2.017   2.591
 3252SOL    HW210656   2.477   2.002   2.529
 3253SOL     OW10657   5.710   3.041   2.143
 3253SOL    HW110658   5.731   2.978   2.068
 3253SOL    HW210659   5.719   2.993   2.230
 3254SOL     OW10660   5.147   5.223   5.600
 3254SOL    HW110661   5.109   5.146   5.549
 3254SOL    HW210662   5.233   5.252   5.558
 3255SOL     OW10663   5.278   5.627   1.240
 3255SOL    HW110664   5.353   5.611   1.304
 3255SOL    HW210665   5.232   5.713   1.263
 3256SOL     OW10666   4.631   0.764   0.397
 3256SOL    HW110667   4.617   0.687   0.458
 3256SOL    HW210668   4.551   0.775   0.338
 3257SOL     OW10669   1.331   1.825   1.324
 3257SOL    HW110670   1.429   1.842   1.319
 3257SOL    HW210671   1.303   1.816   1.420
 3258SOL     OW10672   3.955   4.813   1.907
 3258SOL    HW110673   4.009   4.789   1.987
 3258SOL    HW210674   3.956   4.736   1.842
 3259SOL     OW10675   4.524   5.181   3.742
 3259SOL    HW110676   4.431   5.149   3.723
 3259SOL    HW210677   4.589   5.127   3.687
 3260SOL     OW10678   1.530   1.867   0.760
 3260SOL    HW110679   1.618   1.836   0.797
 3260SOL    HW210680   1.539   1.880   0.661
 3261SOL     OW10681   4.891   6.619   0.300
 3261SOL    HW110682   4.966   6.571   0.253
 3261SOL    HW210683   4.871   6.705   0.252
 3262SOL     OW10684   3.400   2.150   2.781
 3262SOL    HW110685   3.436   2.057   2.768
 3262SOL    HW210686   3.346   2.153   2.865
 3263SOL     OW10687   3.015   1.271   3.610
 3263SOL    HW110688   3.097   1.282   3.666
 3263SOL    HW210689   3.011   1.345   3.542
 3264SOL     OW10690   1.193   4.348   0.903
 3264SOL    HW110691   1.281   4.312   0.871
 3264SOL    HW210692   1.177   4.318   0.996
 3265SOL     OW10693   4.964   1.189   5.993
 3265SOL    HW110694   4.890   1.235   5.944
 3265SOL    HW210695   5.004   1.119   5.935
 3266SOL     OW10696   0.716   3.188   0.266
 3266SOL    HW110697   0.696   3.090   0.271
 3266SOL    HW210698   0.813   3.203   0.284
 3267SOL     OW10699   3.514   1.055   0.098
 3267SOL    HW110700   3.448   1.085   0.166
 3267SOL    HW210701   3.492   1.095   0.009
 3268SOL     OW10702   1.406   4.552   0.127
 3268SOL    HW110703   1.437   4.481   0.065
 3268SOL    HW210704   1.392   4.513   0.218
 3269SOL     OW10705   4.287   4.640   2.180
 3269SOL    HW110706   4.322   4.651   2.273
 3269SOL    HW210707   4.315   4.551   2.144
 3270SOL     OW10708   0.688   4.514   4.439
 3270SOL    HW110709   0.632   4.479   4.514
 3270SOL    HW210710   0.784   4.494   4.457
 3271SOL     OW10711   5.707   3.583   2.305
 3271SOL    HW110712   5.737   3.501   2.256
 3271SOL    HW210713   5.615   3.608   2.274
 3272SOL     OW10714   3.014   4.471   6.698
 3272SOL    HW110715   3.056   4.394   6.651
 3272SOL    HW210716   2.915   4.459   6.700
 3273SOL     OW10717   0.853   6.327   1.711
 3273SOL    HW110718   0.868   6.412   1.661
 3273SOL    HW210719   0.777   6.277   1.669
 3274SOL     OW10720   4.225   1.181   1.688
 3274SOL    HW110721   4.267   1.258   1.737
 3274SOL    HW210722   4.133   1.207   1.657
 3275SOL     OW10723   0.505   0.827   6.389
 3275SOL    HW110724   0.526   0.873   6.475
 3275SOL    HW210725   0.520   0.729   6.399
 3276SOL     OW10726   3.416   5.983   0.176
 3276SOL    HW110727   3.376   6.009   0.264
 3276SOL    HW210728   3.366   5.905   0.138
 3277SOL     OW10729   4.705   6.881   0.612
 3277SOL    HW110730   4.673   6.786   0.602
 3277SOL    HW210731   4.788   6.894   0.558
 3278SOL     OW10732   0.247   1.263   5.988
 3278SOL    HW110733   0.264   1.361   5.995
 3278SOL    HW210734   0.220   1.228   6.078
 3279SOL     OW10735   5.950   1.247   0.643
 3279SOL    HW110736   5.943   1.152   0.673
 3279SOL    HW210737   5.906   1.258   0.554
 3280SOL     OW10738   3.845   4.979   4.846
 3280SOL    HW110739   3.764   4.973   4.787
 3280SOL    HW210740   3.928   4.979   4.789
 3281SOL     OW10741   2.107   5.082   1.420
 3281SOL    HW110742   2.195   5.120   1.391
 3281SOL    HW210743   2.074   5.132   1.499
 3282SOL     OW10744   1.129   5.590   4.967
 3282SOL    HW110745   1.213   5.540   4.987
 3282SOL    HW210746   1.062   5.574   5.040
 3283SOL     OW10747   4.140   1.297   0.857
 3283SOL    HW110748   4.088   1.324   0.938
 3283SOL    HW210749   4.105   1.211   0.822
 3284SOL     OW10750   5.968   5.779   6.697
 3284SOL    HW110751   5.958   5.827   6.610
 3284SOL    HW210752   6.063   5.780   6.726
 3285SOL     OW10753   4.630   2.712   3.801
 3285SOL    HW110754   4.671   2.795   3.839
 3285SOL    HW210755   4.683   2.633   3.828
 3286SOL     OW10756   3.948   3.598   2.337
 3286SOL    HW110757   3.988   3.680   2.296
 3286SOL    HW210758   4.016   3.524   2.337
 3287SOL     OW10759   1.646   6.967   6.583
 3287SOL    HW110760   1.649   0.009   6.511
 3287SOL    HW210761   1.627   7.011   6.670
 3288SOL     OW10762   0.814   5.360   6.486
 3288SOL    HW110763   0.837   5.271   6.446
 3288SOL    HW210764   0.870   5.375   6.568
 3289SOL     OW10765   2.898   6.910   5.363
 3289SOL    HW110766   2.875   6.997   5.320
 3289SOL    HW210767   2.815   6.855   5.373
 3290SOL     OW10768   0.488   6.867   2.091
 3290SOL    HW110769   0.549   6.835   2.163
 3290SOL    HW210770   0.422   6.931   2.130
 3291SOL     OW10771   1.250   6.088   0.612
 3291SOL    HW110772   1.249   6.187   0.631
 3291SOL    HW210773   1.157   6.055   0.600
 3292SOL     OW10774   0.828   0.747   0.705
 3292SOL    HW110775   0.911   0.798   0.683
 3292SOL    HW210776   0.824   0.663   0.650
 3293SOL     OW10777   0.498   3.683   3.209
 3293SOL    HW110778   0.479   3.774   3.172
 3293SOL    HW210779   0.559   3.690   3.288
 3294SOL     OW10780   0.426   1.425   6.183
 3294SOL    HW110781   0.387   1.485   6.253
 3294SOL    HW210782   0.505   1.377   6.221
 3295SOL     OW10783   1.624   3.267   1.824
 3295SOL    HW110784   1.608   3.365   1.829
 3295SOL    HW210785   1.689   3.247   1.751
 3296SOL     OW10786   2.245   6.310   2.124
 3296SOL    HW110787   2.149   6.338   2.123
 3296SOL    HW210788   2.261   6.249   2.202
 3297SOL     OW10789   2.765   0.663   4.667
 3297SOL    HW110790   2.836   0.696   4.605
 3297SOL    HW210791   2.745   0.567   4.647
 3298SOL     OW10792   5.498   1.586   4.434
 3298SOL    HW110793   5.557   1.652   4.388
 3298SOL    HW210794   5.517   1.494   4.399
 3299SOL     OW10795   2.390   5.995   4.104
 3299SOL    HW110796   2.453   5.924   4.072
 3299SOL    HW210797   2.340   6.034   4.026
 3300SOL     OW10798   0.610   0.948   5.611
 3300SOL    HW110799   0.583   0.863   5.565
 3300SOL    HW210800   0.552   0.961   5.692
 3301SOL     OW10801   2.173   3.170   3.239
 3301SOL    HW110802   2.196   3.235   3.311
 3301SOL    HW210803   2.124   3.217   3.166
 3302SOL     OW10804   0.782   5.566   5.797
 3302SOL    HW110805   0.712   5.502   5.830
 3302SOL    HW210806   0.782   5.566   5.697
 3303SOL     OW10807   3.336   3.001   1.990
 3303SOL    HW110808   3.313   2.903   1.984
 3303SOL    HW210809   3.277   3.052   1.928
 3304SOL     OW10810   1.598   5.609   4.035
 3304SOL    HW110811   1.657   5.597   3.955
 3304SOL    HW210812   1.502   5.603   4.007
 3305SOL     OW10813   2.074   1.383   3.366
 3305SOL    HW110814   2.162   1.428   3.348
 3305SOL    HW210815   2.086   1.284   3.361
 3306SOL     OW10816   1.978   5.689   4.490
 3306SOL    HW110817   2.023   5.648   4.411
 3306SOL    HW210818   1.879   5.675   4.482
 3307SOL     OW10819   6.567   5.696   6.904
 3307SOL    HW110820   6.641   5.742   6.952
 3307SOL    HW210821   6.483   5.751   6.909
 3308SOL     OW10822   4.123   5.708   0.163
 3308SOL    HW110823   4.072   5.780   0.210
 3308SOL    HW210824   4.178   5.657   0.229
 3309SOL     OW10825   0.451   5.595   2.225
 3309SOL    HW110826   0.545   5.567   2.207
 3309SOL    HW210827   0.443   5.628   2.319
 3310SOL     OW10828   0.527   3.715   4.727
 3310SOL    HW110829   0.545   3.616   4.726
 3310SOL    HW210830   0.535   3.749   4.821
 3311SOL     OW10831   2.320   3.955   1.543
 3311SOL    HW110832   2.353   3.985   1.454
 3311SOL    HW210833   2.281   4.032   1.593
 3312SOL     OW10834   4.013   4.928   5.857
 3312SOL    HW110835   3.987   5.025   5.854
 3312SOL    HW210836   4.050   4.905   5.947
 3313SOL     OW10837   0.192   5.189   3.227
 3313SOL    HW110838   0.153   5.239   3.304
 3313SOL    HW210839   0.206   5.252   3.151
 3314SOL     OW10840   2.954   1.752   3.909
 3314SOL    HW110841   2.997   1.663   3.896
 3314SOL    HW210842   2.886   1.767   3.837
 3315SOL     OW10843   5.989   2.804   4.074
 3315SOL    HW110844   5.952   2.895   4.094
 3315SOL    HW210845   6.084   2.799   4.106
 3316SOL     OW10846   4.523   2.051   6.465
 3316SOL    HW110847   4.475   2.007   6.541
 3316SOL    HW210848   4.569   1.981   6.411
 3317SOL     OW10849   4.940   3.559   1.950
 3317SOL    HW110850   5.023   3.583   1.900
 3317SOL    HW210851   4.860   3.579   1.893
 3318SOL     OW10852   3.597   0.529   0.470
 3318SOL    HW110853   3.609   0.438   0.509
 3318SOL    HW210854   3.569   0.593   0.542
 3319SOL     OW10855   6.505   0.246   4.475
 3319SOL    HW110856   6.599   0.216   4.488
 3319SOL    HW210857   6.505   0.336   4.430
 3320SOL     OW10858   5.616   1.115   5.597
 3320SOL    HW110859   5.696   1.169   5.571
 3320SOL    HW210860   5.574   1.075   5.515
 3321SOL     OW10861   4.049   2.153   1.338
 3321SOL    HW110862   4.008   2.244   1.350
 3321SOL    HW210863   4.037   2.100   1.422
 3322SOL     OW10864   5.459   3.561   1.022
 3322SOL    HW110865   5.363   3.541   1.002
 3322SOL    HW210866   5.472   3.660   1.025
 3323SOL     OW10867   2.927   3.577   6.351
 3323SOL    HW110868   2.839   3.560   6.394
 3323SOL    HW210869   2.943   3.676   6.346
 3324SOL     OW10870   1.653   3.665   6.414
 3324SOL    HW110871   1.661   3.744   6.475
 3324SOL    HW210872   1.715   3.677   6.336
 3325SOL     OW10873   2.262   2.752   6.569
 3325SOL    HW110874   2.238   2.740   6.473
 3325SOL    HW210875   2.310   2.839   6.580
 3326SOL     OW10876   5.456   1.812   2.328
 3326SOL    HW110877   5.409   1.775   2.408
 3326SOL    HW210878   5.478   1.909   2.345
 3327SOL     OW10879   3.255   5.676   1.541
 3327SOL    HW110880   3.304   5.733   1.475
 3327SOL    HW210881   3.192   5.615   1.492
 3328SOL     OW10882   4.665   1.770   1.471
 3328SOL    HW110883   4.568   1.758   1.492
 3328SOL    HW210884   4.721   1.745   1.550
 3329SOL     OW10885   5.333   0.445   4.585
 3329SOL    HW110886   5.430   0.419   4.586
 3329SOL    HW210887   5.283   0.385   4.523
 3330SOL     OW10888   6.382   6.006   1.335
 3330SOL    HW110889   6.423   6.085   1.290
 3330SOL    HW210890   6.335   6.034   1.418
 3331SOL     OW10891   0.980   3.901   1.393
 3331SOL    HW110892   1.067   3.862   1.425
 3331SOL    HW210893   0.929   3.832   1.343
 3332SOL     OW10894   6.624   4.687   0.576
 3332SOL    HW110895   6.527   4.708   0.572
 3332SOL    HW210896   6.639   4.607   0.635
 3333SOL     OW10897   3.061   4.216   6.385
 3333SOL    HW110898   2.988   4.209   6.317
 3333SOL    HW210899   3.040   4.158   6.463
 3334SOL     OW10900   2.472   4.208   1.751
 3334SOL    HW110901   2.546   4.275   1.757
 3334SOL    HW210902   2.500   4.132   1.691
 3335SOL     OW10903   4.807   6.584   6.136
 3335SOL    HW110904   4.853   6.499   6.161
 3335SOL    HW210905   4.833   6.610   6.043
 3336SOL     OW10906   1.744   6.518   4.714
 3336SOL    HW110907   1.697   6.464   4.644
 3336SOL    HW210908   1.685   6.527   4.794
 3337SOL     OW10909   3.008   3.887   1.569
 3337SOL    HW110910   2.956   3.941   1.636
 3337SOL    HW210911   3.067   3.823   1.618
 3338SOL     OW10912   6.965   2.559   1.533
 3338SOL    HW110913   6.943   2.656   1.545
 3338SOL    HW210914   6.950   2.533   1.438
 3339SOL     OW10915   1.204   6.971   6.456
 3339SOL    HW110916   1.202   6.894   6.519
 3339SOL    HW210917   1.123   0.001   6.469
 3340SOL     OW10918   3.512   1.840   3.171
 3340SOL    HW110919   3.577   1.881   3.108
 3340SOL    HW210920   3.451   1.911   3.208
 3341SOL     OW10921   1.346   4.217   4.054
 3341SOL    HW110922   1.382   4.187   3.966
 3341SOL    HW210923   1.265   4.162   4.078
 3342SOL     OW10924   1.263   6.860   3.399
 3342SOL    HW110925   1.184   6.890   3.346
 3342SOL    HW210926   1.289   6.768   3.371
 3343SOL     OW10927   5.435   3.940   6.853
 3343SOL    HW110928   5.346   3.930   6.809
 3343SOL    HW210929   5.444   4.033   6.890
 3344SOL     OW10930   5.438   3.731   3.525
 3344SOL    HW110931   5.484   3.650   3.489
 3344SOL    HW210932   5.505   3.790   3.570
 3345SOL     OW10933   1.414   3.632   6.010
 3345SOL    HW110934   1.409   3.533   5.993
 3345SOL    HW210935   1.395   3.650   6.107
 3346SOL     OW10936   0.817   0.704   0.239
 3346SOL    HW110937   0.777   0.789   0.205
 3346SOL    HW210938   0.883   0.726   0.311
 3347SOL     OW10939   1.349   2.506   4.645
 3347SOL    HW110940   1.319   2.430   4.702
 3347SOL    HW210941   1.311   2.592   4.680
 3348SOL     OW10942   4.056   3.651   4.335
 3348SOL    HW110943   4.041   3.729   4.275
 3348SOL    HW210944   3.968   3.607   4.354
 3349SOL     OW10945   2.013   5.145   3.292
 3349SOL    HW110946   1.934   5.112   3.343
 3349SOL    HW210947   2.059   5.067   3.248
 3350SOL     OW10948   6.995   2.161   5.879
 3350SOL    HW110949   0.064   2.181   5.856
 3350SOL    HW210950   6.978   2.063   5.871
 3351SOL     OW10951   4.989   0.862   3.140
 3351SOL    HW110952   5.055   0.791   3.115
 3351SOL    HW210953   4.917   0.867   3.072
 3352SOL     OW10954   6.771   3.239   1.298
 3352SOL    HW110955   6.759   3.168   1.227
 3352SOL    HW210956   6.753   3.329   1.258
 3353SOL     OW10957   2.868   5.647   1.200
 3353SOL    HW110958   2.897   5.623   1.293
 3353SOL    HW210959   2.835   5.741   1.198
 3354SOL     OW10960   4.221   2.669   5.623
 3354SOL    HW110961   4.241   2.724   5.704
 3354SOL    HW210962   4.131   2.626   5.633
 3355SOL     OW10963   1.586   1.584   6.311
 3355SOL    HW110964   1.679   1.613   6.335
 3355SOL    HW210965   1.574   1.589   6.212
 3356SOL     OW10966   0.789   5.777   6.085
 3356SOL    HW110967   0.705   5.772   6.138
 3356SOL    HW210968   0.831   5.867   6.095
 3357SOL     OW10969   2.277   3.511   1.581
 3357SOL    HW110970   2.200   3.459   1.543
 3357SOL    HW210971   2.292   3.484   1.677
 3358SOL     OW10972   4.615   1.540   1.930
 3358SOL    HW110973   4.539   1.504   1.875
 3358SOL    HW210974   4.678   1.466   1.953
 3359SOL     OW10975   0.613   6.142   3.068
 3359SOL    HW110976   0.521   6.138   3.028
 3359SOL    HW210977   0.677   6.180   3.001
 3360SOL     OW10978   1.604   0.805   0.008
 3360SOL    HW110979   1.652   0.816   6.948
 3360SOL    HW210980   1.560   0.892   0.033
 3361SOL     OW10981   6.673   5.237   4.390
 3361SOL    HW110982   6.666   5.318   4.449
 3361SOL    HW210983   6.766   5.201   4.393
 3362SOL     OW10984   3.326   1.286   2.888
 3362SOL    HW110985   3.317   1.362   2.953
 3362SOL    HW210986   3.235   1.254   2.861
 3363SOL     OW10987   0.072   1.498   2.218
 3363SOL    HW110988   0.109   1.586   2.188
 3363SOL    HW210989   0.028   1.453   2.140
 3364SOL     OW10990   1.306   4.721   3.942
 3364SOL    HW110991   1.244   4.791   3.976
 3364SOL    HW210992   1.335   4.662   4.017
 3365SOL     OW10993   0.323   2.497   4.657
 3365SOL    HW110994   0.241   2.460   4.701
 3365SOL    HW210995   0.338   2.450   4.569
 3366SOL     OW10996   5.372   5.283   4.610
 3366SOL    HW110997   5.338   5.192   4.632
 3366SOL    HW210998   5.460   5.274   4.563
 3367SOL     OW10999   3.797   2.901   2.491
 3367SOL    HW111000   3.703   2.914   2.459
 3367SOL    HW211001   3.796   2.879   2.589
 3368SOL     OW11002   0.846   5.788   6.532
 3368SOL    HW111003   0.762   5.826   6.571
 3368SOL    HW211004   0.913   5.773   6.606
 3369SOL     OW11005   3.534   1.980   0.480
 3369SOL    HW111006   3.617   1.927   0.493
 3369SOL    HW211007   3.481   1.941   0.405
 3370SOL     OW11008   6.807   6.370   1.447
 3370SOL    HW111009   6.854   6.383   1.534
 3370SOL    HW211010   6.768   6.457   1.417
 3371SOL     OW11011   2.034   3.100   1.522
 3371SOL    HW111012   2.133   3.082   1.524
 3371SOL    HW211013   1.985   3.014   1.506
 3372SOL     OW11014   6.898   2.124   6.820
 3372SOL    HW111015   6.865   2.095   6.730
 3372SOL    HW211016   6.900   2.224   6.824
 3373SOL     OW11017   0.580   1.566   3.697
 3373SOL    HW111018   0.602   1.619   3.615
 3373SOL    HW211019   0.482   1.544   3.698
 3374SOL     OW11020   1.352   6.575   4.505
 3374SOL    HW111021   1.265   6.565   4.455
 3374SOL    HW211022   1.334   6.571   4.603
 3375SOL     OW11023   0.026   4.724   0.004
 3375SOL    HW111024   0.122   4.746   7.011
 3375SOL    HW211025   7.003   4.807   0.026
 3376SOL     OW11026   4.111   3.382   4.457
 3376SOL    HW111027   4.157   3.404   4.543
 3376SOL    HW211028   4.118   3.460   4.395
 3377SOL     OW11029   6.461   5.587   5.855
 3377SOL    HW111030   6.373   5.635   5.853
 3377SOL    HW211031   6.520   5.625   5.784
 3378SOL     OW11032   1.347   6.890   0.843
 3378SOL    HW111033   1.395   6.975   0.821
 3378SOL    HW211034   1.362   6.824   0.769
 3379SOL     OW11035   1.197   2.031   5.204
 3379SOL    HW111036   1.251   1.949   5.186
 3379SOL    HW211037   1.153   2.062   5.120
 3380SOL     OW11038   5.464   6.550   4.495
 3380SOL    HW111039   5.480   6.543   4.397
 3380SOL    HW211040   5.376   6.595   4.511
 3381SOL     OW11041   0.794   3.052   1.539
 3381SOL    HW111042   0.832   3.097   1.458
 3381SOL    HW211043   0.733   2.978   1.511
 3382SOL     OW11044   0.693   2.884   6.990
 3382SOL    HW111045   0.781   2.853   7.025
 3382SOL    HW211046   0.660   2.820   6.921
 3383SOL     OW11047   3.903   5.743   1.338
 3383SOL    HW111048   3.817   5.777   1.377
 3383SOL    HW211049   3.921   5.650   1.371
 3384SOL     OW11050   2.270   3.303   0.780
 3384SOL    HW111051   2.324   3.362   0.839
 3384SOL    HW211052   2.330   3.261   0.712
 3385SOL     OW11053   6.738   3.275   4.651
 3385SOL    HW111054   6.775   3.310   4.565
 3385SOL    HW211055   6.677   3.198   4.632
 3386SOL     OW11056   5.372   4.193   0.301
 3386SOL    HW111057   5.332   4.102   0.298
 3386SOL    HW211058   5.310   4.255   0.349
 3387SOL     OW11059   3.849   0.663   3.045
 3387SOL    HW111060   3.842   0.758   3.076
 3387SOL    HW211061   3.945   0.640   3.030
 3388SOL     OW11062   5.108   3.103   2.692
 3388SOL    HW111063   5.045   3.127   2.765
 3388SOL    HW211064   5.082   3.014   2.653
 3389SOL     OW11065   6.419   5.927   5.882
 3389SOL    HW111066   6.397   5.834   5.914
 3389SOL    HW211067   6.343   5.988   5.902
 3390SOL     OW11068   5.621   6.870   6.539
 3390SOL    HW111069   5.540   6.913   6.498
 3390SOL    HW211070   5.618   6.772   6.523
 3391SOL     OW11071   4.804   2.174   4.435
 3391SOL    HW111072   4.712   2.156   4.400
 3391SOL    HW211073   4.805   2.263   4.482
 3392SOL     OW11074   2.999   0.061   3.870
 3392SOL    HW111075   2.957   7.001   3.842
 3392SOL    HW211076   2.931   0.117   3.918
 3393SOL     OW11077   6.408   5.818   1.032
 3393SOL    HW111078   6.496   5.833   0.988
 3393SOL    HW211079   6.361   5.905   1.044
 3394SOL     OW11080   5.218   3.525   0.945
 3394SOL    HW111081   5.142   3.555   0.888
 3394SOL    HW211082   5.185   3.462   1.014
 3395SOL     OW11083   5.501   3.099   3.790
 3395SOL    HW111084   5.487   3.001   3.807
 3395SOL    HW211085   5.481   3.118   3.694
 3396SOL     OW11086   5.345   1.191   3.816
 3396SOL    HW111087   5.362   1.098   3.784
 3396SOL    HW211088   5.263   1.193   3.872
 3397SOL     OW11089   3.202   5.726   6.470
 3397SOL    HW111090   3.128   5.708   6.406
 3397SOL    HW211091   3.165   5.772   6.551
 3398SOL     OW11092   0.722   0.670   4.533
 3398SOL    HW111093   0.807   0.653   4.584
 3398SOL    HW211094   0.657   0.717   4.593
 3399SOL     OW11095   5.391   5.270   3.670
 3399SOL    HW111096   5.363   5.174   3.666
 3399SOL    HW211097   5.470   5.284   3.610
 3400SOL     OW11098   5.307   2.912   6.778
 3400SOL    HW111099   5.292   2.854   6.697
 3400SOL    HW211100   5.328   3.005   6.748
 3401SOL     OW11101   7.017   3.671   6.344
 3401SOL    HW111102   6.947   3.599   6.339
 3401SOL    HW211103   7.006   3.723   6.428
 3402SOL     OW11104   4.513   5.417   6.545
 3402SOL    HW111105   4.523   5.360   6.464
 3402SOL    HW211106   4.576   5.385   6.616
 3403SOL     OW11107   3.768   5.533   6.253
 3403SOL    HW111108   3.741   5.624   6.284
 3403SOL    HW211109   3.707   5.503   6.179
 3404SOL     OW11110   5.433   2.384   0.897
 3404SOL    HW111111   5.485   2.364   0.980
 3404SOL    HW211112   5.487   2.357   0.817
 3405SOL     OW11113   6.230   3.875   6.201
 3405SOL    HW111114   6.176   3.943   6.251
 3405SOL    HW211115   6.223   3.893   6.103
 3406SOL     OW11116   0.966   3.741   2.025
 3406SOL    HW111117   0.994   3.833   1.995
 3406SOL    HW211118   1.047   3.683   2.035
 3407SOL     OW11119   1.279   3.891   6.637
 3407SOL    HW111120   1.182   3.910   6.654
 3407SOL    HW211121   1.300   3.909   6.541
 3408SOL     OW11122   5.304   3.203   4.691
 3408SOL    HW111123   5.257   3.253   4.764
 3408SOL    HW211124   5.287   3.105   4.702
 3409SOL     OW11125   3.683   5.965   0.266
 3409SOL    HW111126   3.584   5.979   0.270
 3409SOL    HW211127   3.715   5.987   0.174
 3410SOL     OW11128   6.979   6.690   1.610
 3410SOL    HW111129   7.013   6.742   1.531
 3410SOL    HW211130   7.000   6.739   1.694
 3411SOL     OW11131   0.367   2.845   1.001
 3411SOL    HW111132   0.444   2.843   1.064
 3411SOL    HW211133   0.325   2.754   0.997
 3412SOL     OW11134   4.938   3.226   1.257
 3412SOL    HW111135   4.938   3.310   1.310
 3412SOL    HW211136   4.924   3.148   1.318
 3413SOL     OW11137   6.190   1.660   0.771
 3413SOL    HW111138   6.278   1.697   0.741
 3413SOL    HW211139   6.203   1.569   0.811
 3414SOL     OW11140   3.405   1.863   5.704
 3414SOL    HW111141   3.321   1.829   5.747
 3414SOL    HW211142   3.408   1.962   5.711
 3415SOL     OW11143   1.862   3.357   4.391
 3415SOL    HW111144   1.878   3.388   4.297
 3415SOL    HW211145   1.947   3.366   4.443
 3416SOL     OW11146   5.999   6.348   0.543
 3416SOL    HW111147   5.970   6.252   0.537
 3416SOL    HW211148   5.919   6.407   0.534
 3417SOL     OW11149   0.308   5.968   3.908
 3417SOL    HW111150   0.359   5.941   3.989
 3417SOL    HW211151   0.364   5.951   3.827
 3418SOL     OW11152   3.183   5.667   3.632
 3418SOL    HW111153   3.275   5.633   3.654
 3418SOL    HW211154   3.191   5.741   3.566
 3419SOL     OW11155   2.896   5.451   6.212
 3419SOL    HW111156   2.913   5.395   6.130
 3419SOL    HW211157   2.938   5.541   6.199
 3420SOL     OW11158   5.947   2.729   3.108
 3420SOL    HW111159   6.012   2.784   3.161
 3420SOL    HW211160   5.989   2.700   3.023
 3421SOL     OW11161   4.980   1.792   4.264
 3421SOL    HW111162   4.882   1.774   4.254
 3421SOL    HW211163   5.029   1.706   4.275
 3422SOL     OW11164   3.283   0.366   0.403
 3422SOL    HW111165   3.324   0.415   0.325
 3422SOL    HW211166   3.199   0.413   0.431
 3423SOL     OW11167   0.241   4.720   6.314
 3423SOL    HW111168   0.154   4.690   6.353
 3423SOL    HW211169   0.236   4.817   6.291
 3424SOL     OW11170   2.430   6.874   1.285
 3424SOL    HW111171   2.337   6.849   1.260
 3424SOL    HW211172   2.488   6.792   1.281
 3425SOL     OW11173   4.476   4.778   2.009
 3425SOL    HW111174   4.572   4.752   2.021
 3425SOL    HW211175   4.418   4.719   2.065
 3426SOL     OW11176   4.104   2.585   1.128
 3426SOL    HW111177   4.089   2.488   1.108
 3426SOL    HW211178   4.202   2.601   1.142
 3427SOL     OW11179   0.957   1.563   0.736
 3427SOL    HW111180   0.921   1.655   0.752
 3427SOL    HW211181   1.051   1.569   0.702
 3428SOL     OW11182   2.873   5.107   0.134
 3428SOL    HW111183   2.790   5.057   0.111
 3428SOL    HW211184   2.953   5.050   0.116
 3429SOL     OW11185   0.412   2.182   1.317
 3429SOL    HW111186   0.422   2.112   1.246
 3429SOL    HW211187   0.336   2.158   1.376
 3430SOL     OW11188   1.942   6.072   5.606
 3430SOL    HW111189   1.867   6.130   5.572
 3430SOL    HW211190   1.942   5.985   5.557
 3431SOL     OW11191   1.603   6.288   1.782
 3431SOL    HW111192   1.672   6.314   1.850
 3431SOL    HW211193   1.525   6.245   1.828
 3432SOL     OW11194   1.867   3.812   5.178
 3432SOL    HW111195   1.904   3.768   5.260
 3432SOL    HW211196   1.792   3.873   5.203
 3433SOL     OW11197   1.387   0.176   4.895
 3433SOL    HW111198   1.399   0.111   4.969
 3433SOL    HW211199   1.389   0.128   4.807
 3434SOL     OW11200   3.931   0.899   1.862
 3434SOL    HW111201   3.947   0.812   1.910
 3434SOL    HW211202   4.001   0.911   1.792
 3435SOL     OW11203   1.680   1.650   1.235
 3435SOL    HW111204   1.678   1.637   1.136
 3435SOL    HW211205   1.764   1.610   1.272
 3436SOL     OW11206   3.762   6.098   0.495
 3436SOL    HW111207   3.727   6.064   0.408
 3436SOL    HW211208   3.771   6.197   0.491
 3437SOL     OW11209   3.055   0.018   5.583
 3437SOL    HW111210   2.988   6.992   5.531
 3437SOL    HW211211   3.082   0.099   5.530
 3438SOL     OW11212   0.906   2.982   0.934
 3438SOL    HW111213   0.809   2.970   0.954
 3438SOL    HW211214   0.926   3.078   0.917
 3439SOL     OW11215   2.751   5.968   4.733
 3439SOL    HW111216   2.741   5.869   4.732
 3439SOL    HW211217   2.660   6.011   4.731
 3440SOL     OW11218   3.103   3.193   1.930
 3440SOL    HW111219   3.109   3.244   1.844
 3440SOL    HW211220   3.074   3.099   1.910
 3441SOL     OW11221   6.707   5.969   6.208
 3441SOL    HW111222   6.609   5.954   6.217
 3441SOL    HW211223   6.756   5.912   6.273
 3442SOL     OW11224   1.724   4.196   1.448
 3442SOL    HW111225   1.678   4.111   1.477
 3442SOL    HW211226   1.683   4.227   1.362
 3443SOL     OW11227   3.382   6.278   2.442
 3443SOL    HW111228   3.306   6.215   2.427
 3443SOL    HW211229   3.346   6.364   2.479
 3444SOL     OW11230   4.645   5.614   0.060
 3444SOL    HW111231   4.652   5.650   0.153
 3444SOL    HW211232   4.601   5.524   0.061
 3445SOL     OW11233   5.721   5.004   2.569
 3445SOL    HW111234   5.740   4.952   2.652
 3445SOL    HW211235   5.634   4.975   2.530
 3446SOL     OW11236   5.879   0.893   1.667
 3446SOL    HW111237   5.796   0.922   1.620
 3446SOL    HW211238   5.859   0.813   1.724
 3447SOL     OW11239   4.714   6.101   1.218
 3447SOL    HW111240   4.661   6.132   1.296
 3447SOL    HW211241   4.808   6.136   1.225
 3448SOL     OW11242   3.813   0.138   6.298
 3448SOL    HW111243   3.734   0.148   6.359
 3448SOL    HW211244   3.843   0.228   6.268
 3449SOL     OW11245   6.017   5.167   4.914
 3449SOL    HW111246   6.101   5.220   4.903
 3449SOL    HW211247   5.960   5.176   4.832
 3450SOL     OW11248   0.648   1.858   6.967
 3450SOL    HW111249   0.611   1.925   0.005
 3450SOL    HW211250   0.720   1.900   6.913
 3451SOL     OW11251   3.190   6.366   6.799
 3451SOL    HW111252   3.213   6.365   6.701
 3451SOL    HW211253   3.116   6.302   6.817
 3452SOL     OW11254   5.410   0.314   6.762
 3452SOL    HW111255   5.480   0.243   6.751
 3452SOL    HW211256   5.370   0.306   6.853
 3453SOL     OW11257   6.347   5.684   6.205
 3453SOL    HW111258   6.360   5.593   6.166
 3453SOL    HW211259   6.254   5.715   6.186
 3454SOL     OW11260   1.192   3.507   5.412
 3454SOL    HW111261   1.161   3.484   5.320
 3454SOL    HW211262   1.122   3.561   5.459
 3455SOL     OW11263   2.590   1.988   4.617
 3455SOL    HW111264   2.568   2.051   4.543
 3455SOL    HW211265   2.666   1.929   4.588
 3456SOL     OW11266   5.566   4.984   1.484
 3456SOL    HW111267   5.592   5.076   1.455
 3456SOL    HW211268   5.572   4.978   1.584
 3457SOL     OW11269   3.532   5.401   3.897
 3457SOL    HW111270   3.459   5.467   3.884
 3457SOL    HW211271   3.520   5.356   3.986
 3458SOL     OW11272   4.251   0.856   1.935
 3458SOL    HW111273   4.315   0.921   1.893
 3458SOL    HW211274   4.182   0.830   1.867
 3459SOL     OW11275   5.588   2.596   2.858
 3459SOL    HW111276   5.590   2.595   2.758
 3459SOL    HW211277   5.493   2.600   2.890
 3460SOL     OW11278   2.327   1.811   6.954
 3460SOL    HW111279   2.424   1.793   6.939
 3460SOL    HW211280   2.293   1.873   6.883
 3461SOL     OW11281   4.888   4.099   6.473
 3461SOL    HW111282   4.907   4.009   6.514
 3461SOL    HW211283   4.819   4.147   6.528
 3462SOL     OW11284   0.846   3.692   5.255
 3462SOL    HW111285   0.929   3.722   5.209
 3462SOL    HW211286   0.785   3.648   5.189
 3463SOL     OW11287   1.183   4.254   1.800
 3463SOL    HW111288   1.221   4.282   1.888
 3463SOL    HW211289   1.142   4.164   1.808
 3464SOL     OW11290   6.847   4.709   5.913
 3464SOL    HW111291   6.783   4.726   5.987
 3464SOL    HW211292   6.921   4.777   5.917
 3465SOL     OW11293   1.604   2.087   2.426
 3465SOL    HW111294   1.561   2.086   2.336
 3465SOL    HW211295   1.582   2.172   2.473
 3466SOL     OW11296   6.476   5.354   6.352
 3466SOL    HW111297   6.504   5.450   6.351
 3466SOL    HW211298   6.437   5.330   6.263
 3467SOL     OW11299   1.943   2.754   6.908
 3467SOL    HW111300   1.979   2.662   6.924
 3467SOL    HW211301   2.012   2.822   6.935
 3468SOL     OW11302   4.109   6.669   2.682
 3468SOL    HW111303   4.012   6.696   2.683
 3468SOL    HW211304   4.165   6.748   2.654
 3469SOL     OW11305   5.372   0.256   3.271
 3469SOL    HW111306   5.385   0.304   3.185
 3469SOL    HW211307   5.289   0.200   3.266
 3470SOL     OW11308   6.313   3.525   0.797
 3470SOL    HW111309   6.373   3.517   0.717
 3470SOL    HW211310   6.229   3.572   0.771
 3471SOL     OW11311   3.522   4.956   4.320
 3471SOL    HW111312   3.599   4.956   4.256
 3471SOL    HW211313   3.437   4.941   4.270
 3472SOL     OW11314   2.452   0.867   2.379
 3472SOL    HW111315   2.488   0.960   2.373
 3472SOL    HW211316   2.354   0.871   2.397
 3473SOL     OW11317   0.293   2.132   0.292
 3473SOL    HW111318   0.301   2.049   0.237
 3473SOL    HW211319   0.368   2.135   0.359
 3474SOL     OW11320   2.556   5.047   1.493
 3474SOL    HW111321   2.470   5.086   1.525
 3474SOL    HW211322   2.618   5.036   1.571
 3475SOL     OW11323   0.922   5.852   5.199
 3475SOL    HW111324   0.830   5.859   5.238
 3475SOL    HW211325   0.951   5.756   5.199
 3476SOL     OW11326   3.486   1.614   3.292
 3476SOL    HW111327   3.574   1.570   3.309
 3476SOL    HW211328   3.500   1.696   3.237
 3477SOL     OW11329   3.663   4.896   0.827
 3477SOL    HW111330   3.688   4.975   0.883
 3477SOL    HW211331   3.615   4.829   0.884
 3478SOL     OW11332   2.335   5.919   4.954
 3478SOL    HW111333   2.235   5.911   4.951
 3478SOL    HW211334   2.370   5.940   4.863
 3479SOL     OW11335   1.389   0.607   2.603
 3479SOL    HW111336   1.320   0.644   2.542
 3479SOL    HW211337   1.450   0.681   2.633
 3480SOL     OW11338   0.182   0.206   5.226
 3480SOL    HW111339   0.127   0.133   5.265
 3480SOL    HW211340   0.192   0.191   5.127
 3481SOL     OW11341   5.132   6.982   0.228
 3481SOL    HW111342   5.230   6.961   0.227
 3481SOL    HW211343   5.086   6.927   0.159
 3482SOL     OW11344   5.677   1.784   1.039
 3482SOL    HW111345   5.601   1.740   0.992
 3482SOL    HW211346   5.645   1.866   1.085
 3483SOL     OW11347   4.306   1.189   1.223
 3483SOL    HW111348   4.391   1.162   1.267
 3483SOL    HW211349   4.312   1.172   1.124
 3484SOL     OW11350   3.007   3.496   1.527
 3484SOL    HW111351   3.033   3.411   1.573
 3484SOL    HW211352   3.048   3.498   1.436
 3485SOL     OW11353   1.353   0.276   4.179
 3485SOL    HW111354   1.325   0.292   4.084
 3485SOL    HW211355   1.296   0.204   4.219
 3486SOL     OW11356   3.242   1.648   2.629
 3486SOL    HW111357   3.289   1.736   2.639
 3486SOL    HW211358   3.199   1.623   2.717
 3487SOL     OW11359   5.975   2.091   5.539
 3487SOL    HW111360   5.943   2.093   5.444
 3487SOL    HW211361   6.073   2.107   5.542
 3488SOL     OW11362   5.870   2.148   4.301
 3488SOL    HW111363   5.841   2.236   4.263
 3488SOL    HW211364   5.845   2.075   4.238
 3489SOL     OW11365   2.681   6.417   0.338
 3489SOL    HW111366   2.642   6.482   0.404
 3489SOL    HW211367   2.780   6.434   0.330
 3490SOL     OW11368   4.092   4.834   6.758
 3490SOL    HW111369   4.131   4.873   6.842
 3490SOL    HW211370   4.140   4.750   6.735
 3491SOL     OW11371   6.107   2.523   4.698
 3491SOL    HW111372   6.011   2.535   4.673
 3491SOL    HW211373   6.114   2.461   4.776
 3492SOL     OW11374   0.982   5.795   1.544
 3492SOL    HW111375   0.883   5.810   1.550
 3492SOL    HW211376   1.028   5.882   1.528
 3493SOL     OW11377   6.414   4.994   6.744
 3493SOL    HW111378   6.479   4.997   6.820
 3493SOL    HW211379   6.322   5.015   6.779
 3494SOL     OW11380   3.776   0.943   1.465
 3494SOL    HW111381   3.690   0.956   1.515
 3494SOL    HW211382   3.793   0.845   1.454
 3495SOL     OW11383   4.401   5.055   2.013
 3495SOL    HW111384   4.417   4.960   2.042
 3495SOL    HW211385   4.303   5.072   2.005
 3496SOL     OW11386   0.086   4.073   0.551
 3496SOL    HW111387   0.154   4.078   0.625
 3496SOL    HW211388   0.098   3.987   0.501
 3497SOL     OW11389   4.179   6.478   4.030
 3497SOL    HW111390   4.089   6.461   4.068
 3497SOL    HW211391   4.249   6.457   4.099
 3498SOL     OW11392   2.057   2.776   0.429
 3498SOL    HW111393   2.071   2.677   0.424
 3498SOL    HW211394   2.018   2.808   0.343
 3499SOL     OW11395   4.628   2.605   4.676
 3499SOL    HW111396   4.549   2.607   4.738
 3499SOL    HW211397   4.596   2.616   4.582
 3500SOL     OW11398   1.060   4.046   4.955
 3500SOL    HW111399   1.057   3.996   5.042
 3500SOL    HW211400   1.151   4.040   4.915
 3501SOL     OW11401   1.304   5.477   4.000
 3501SOL    HW111402   1.213   5.516   3.985
 3501SOL    HW211403   1.295   5.379   4.016
 3502SOL     OW11404   7.018   2.242   2.072
 3502SOL    HW111405   6.967   2.206   2.150
 3502SOL    HW211406   6.968   2.317   2.030
 3503SOL     OW11407   6.039   6.197   5.056
 3503SOL    HW111408   6.109   6.185   4.985
 3503SOL    HW211409   5.951   6.166   5.021
 3504SOL     OW11410   1.774   2.270   1.046
 3504SOL    HW111411   1.833   2.340   1.086
 3504SOL    HW211412   1.700   2.314   0.995
 3505SOL     OW11413   5.593   4.912   5.289
 3505SOL    HW111414   5.494   4.895   5.298
 3505SOL    HW211415   5.617   4.915   5.192
 3506SOL     OW11416   4.956   6.311   5.458
 3506SOL    HW111417   4.984   6.306   5.554
 3506SOL    HW211418   4.966   6.220   5.417
 3507SOL     OW11419   2.539   0.891   0.200
 3507SOL    HW111420   2.570   0.983   0.222
 3507SOL    HW211421   2.616   0.836   0.168
 3508SOL     OW11422   3.315   2.465   6.372
 3508SOL    HW111423   3.236   2.440   6.315
 3508SOL    HW211424   3.387   2.396   6.361
 3509SOL     OW11425   5.021   0.116   6.399
 3509SOL    HW111426   4.972   0.081   6.319
 3509SOL    HW211427   5.069   0.200   6.373
 3510SOL     OW11428   1.973   2.125   1.525
 3510SOL    HW111429   2.014   2.215   1.541
 3510SOL    HW211430   2.030   2.055   1.569
 3511SOL     OW11431   1.699   4.714   0.100
 3511SOL    HW111432   1.692   4.636   0.039
 3511SOL    HW211433   1.671   4.688   0.192
 3512SOL     OW11434   6.553   4.124   1.026
 3512SOL    HW111435   6.576   4.027   1.015
 3512SOL    HW211436   6.470   4.144   0.973
 3513SOL     OW11437   6.134   3.894   0.121
 3513SOL    HW111438   6.209   3.941   0.074
 3513SOL    HW211439   6.149   3.900   0.220
 3514SOL     OW11440   7.026   1.309   2.015
 3514SOL    HW111441   6.969   1.281   1.938
 3514SOL    HW211442   7.024   1.237   2.085
 3515SOL     OW11443   4.783   6.393   2.864
 3515SOL    HW111444   4.872   6.386   2.820
 3515SOL    HW211445   4.755   6.303   2.898
 3516SOL     OW11446   4.501   0.032   1.202
 3516SOL    HW111447   4.456   0.047   1.115
 3516SOL    HW211448   4.504   6.961   1.222
 3517SOL     OW11449   1.418   2.238   0.236
 3517SOL    HW111450   1.471   2.291   0.303
 3517SOL    HW211451   1.464   2.241   0.147
 3518SOL     OW11452   5.421   4.230   4.874
 3518SOL    HW111453   5.453   4.206   4.782
 3518SOL    HW211454   5.453   4.322   4.898
 3519SOL     OW11455   2.044   0.461   6.349
 3519SOL    HW111456   2.134   0.423   6.369
 3519SOL    HW211457   1.976   0.419   6.409
 3520SOL     OW11458   3.175   5.039   0.204
 3520SOL    HW111459   3.197   5.125   0.157
 3520SOL    HW211460   3.155   4.968   0.136
 3521SOL     OW11461   5.677   3.236   1.156
 3521SOL    HW111462   5.652   3.153   1.107
 3521SOL    HW211463   5.673   3.220   1.254
 3522SOL     OW11464   4.910   5.433   2.079
 3522SOL    HW111465   5.001   5.460   2.110
 3522SOL    HW211466   4.916   5.348   2.027
 3523SOL     OW11467   2.593   4.459   5.580
 3523SOL    HW111468   2.535   4.469   5.499
 3523SOL    HW211469   2.681   4.503   5.564
 3524SOL     OW11470   2.603   1.200   1.005
 3524SOL    HW111471   2.604   1.159   1.096
 3524SOL    HW211472   2.645   1.290   1.008
 3525SOL     OW11473   0.551   3.967   2.039
 3525SOL    HW111474   0.600   3.944   1.955
 3525SOL    HW211475   0.615   3.976   2.115
 3526SOL     OW11476   2.331   5.819   3.572
 3526SOL    HW111477   2.277   5.882   3.515
 3526SOL    HW211478   2.272   5.781   3.644
 3527SOL     OW11479   5.969   3.730   5.933
 3527SOL    HW111480   5.897   3.759   5.868
 3527SOL    HW211481   5.991   3.807   5.993
 3528SOL     OW11482   0.946   5.355   3.288
 3528SOL    HW111483   1.039   5.319   3.285
 3528SOL    HW211484   0.909   5.346   3.381
 3529SOL     OW11485   4.864   0.058   5.279
 3529SOL    HW111486   4.962   0.051   5.264
 3529SOL    HW211487   4.827   6.994   5.302
 3530SOL     OW11488   2.662   4.709   3.289
 3530SOL    HW111489   2.607   4.739   3.366
 3530SOL    HW211490   2.759   4.713   3.312
 3531SOL     OW11491   4.778   4.467   1.302
 3531SOL    HW111492   4.748   4.436   1.392
 3531SOL    HW211493   4.876   4.489   1.305
 3532SOL     OW11494   2.563   0.156   0.622
 3532SOL    HW111495   2.466   0.165   0.602
 3532SOL    HW211496   2.579   0.072   0.674
 3533SOL     OW11497   1.026   2.314   2.561
 3533SOL    HW111498   1.052   2.284   2.652
 3533SOL    HW211499   1.092   2.281   2.494
 3534SOL     OW11500   0.059   1.031   5.352
 3534SOL    HW111501   0.038   0.991   5.442
 3534SOL    HW211502   7.002   1.035   5.297
 3535SOL     OW11503   6.629   5.626   0.713
 3535SOL    HW111504   6.655   5.632   0.809
 3535SOL    HW211505   6.531   5.609   0.705
 3536SOL     OW11506   2.429   2.731   3.308
 3536SOL    HW111507   2.469   2.771   3.225
 3536SOL    HW211508   2.350   2.675   3.283
 3537SOL     OW11509   2.598   5.127   0.502
 3537SOL    HW111510   2.546   5.212   0.505
 3537SOL    HW211511   2.569   5.068   0.577
 3538SOL     OW11512   3.219   0.501   4.180
 3538SOL    HW111513   3.298   0.560   4.163
 3538SOL    HW211514   3.185   0.465   4.093
 3539SOL     OW11515   5.731   3.318   6.497
 3539SOL    HW111516   5.649   3.328   6.441
 3539SOL    HW211517   5.792   3.396   6.481
 3540SOL     OW11518   2.042   1.719   5.562
 3540SOL    HW111519   1.952   1.763   5.555
 3540SOL    HW211520   2.113   1.787   5.543
 3541SOL     OW11521   2.683   3.028   6.757
 3541SOL    HW111522   2.777   3.050   6.732
 3541SOL    HW211523   2.622   3.049   6.680
 3542SOL     OW11524   0.397   3.561   1.249
 3542SOL    HW111525   0.319   3.571   1.188
 3542SOL    HW211526   0.365   3.540   1.341
 3543SOL     OW11527   1.597   3.626   5.154
 3543SOL    HW111528   1.683   3.675   5.167
 3543SOL    HW211529   1.544   3.631   5.239
 3544SOL     OW11530   1.874   4.695   6.545
 3544SOL    HW111531   1.924   4.726   6.465
 3544SOL    HW211532   1.936   4.642   6.604
 3545SOL     OW11533   3.412   5.042   6.677
 3545SOL    HW111534   3.468   4.966   6.711
 3545SOL    HW211535   3.318   5.011   6.663
 3546SOL     OW11536   6.606   4.788   3.412
 3546SOL    HW111537   6.553   4.704   3.407
 3546SOL    HW211538   6.704   4.765   3.411
 3547SOL     OW11539   6.915   3.881   4.749
 3547SOL    HW111540   6.892   3.968   4.792
 3547SOL    HW211541   6.840   3.853   4.688
 3548SOL     OW11542   5.310   0.295   5.968
 3548SOL    HW111543   5.394   0.324   5.922
 3548SOL    HW211544   5.269   0.372   6.015
 3549SOL     OW11545   1.704   4.324   6.455
 3549SOL    HW111546   1.636   4.277   6.399
 3549SOL    HW211547   1.788   4.270   6.458
 3550SOL     OW11548   6.334   2.321   4.726
 3550SOL    HW111549   6.252   2.316   4.669
 3550SOL    HW211550   6.357   2.417   4.743
 3551SOL     OW11551   3.929   1.421   4.118
 3551SOL    HW111552   4.026   1.440   4.132
 3551SOL    HW211553   3.874   1.499   4.150
 3552SOL     OW11554   6.549   6.579   1.866
 3552SOL    HW111555   6.598   6.616   1.945
 3552SOL    HW211556   6.595   6.496   1.834
 3553SOL     OW11557   3.765   5.672   0.222
 3553SOL    HW111558   3.686   5.727   0.252
 3553SOL    HW211559   3.773   5.676   0.123
 3554SOL     OW11560   4.262   2.845   0.857
 3554SOL    HW111561   4.341   2.813   0.909
 3554SOL    HW211562   4.267   2.809   0.764
 3555SOL     OW11563   0.936   3.193   4.080
 3555SOL    HW111564   0.990   3.180   3.997
 3555SOL    HW211565   0.889   3.281   4.077
 3556SOL     OW11566   3.765   1.087   4.117
 3556SOL    HW111567   3.686   1.054   4.170
 3556SOL    HW211568   3.835   1.122   4.180
 3557SOL     OW11569   1.548   6.970   4.102
 3557SOL    HW111570   1.529   6.950   4.198
 3557SOL    HW211571   1.581   6.888   4.057
 3558SOL     OW11572   1.885   4.756   1.513
 3558SOL    HW111573   1.970   4.767   1.563
 3558SOL    HW211574   1.889   4.809   1.429
 3559SOL     OW11575   0.920   6.119   5.139
 3559SOL    HW111576   0.946   6.023   5.151
 3559SOL    HW211577   0.957   6.174   5.214
 3560SOL     OW11578   2.122   4.882   2.741
 3560SOL    HW111579   2.060   4.805   2.752
 3560SOL    HW211580   2.216   4.852   2.759
 3561SOL     OW11581   5.169   3.838   5.738
 3561SOL    HW111582   5.221   3.753   5.729
 3561SOL    HW211583   5.184   3.896   5.658
 3562SOL     OW11584   3.073   1.532   3.492
 3562SOL    HW111585   3.170   1.554   3.482
 3562SOL    HW211586   3.037   1.500   3.405
 3563SOL     OW11587   6.539   1.868   6.626
 3563SOL    HW111588   6.603   1.796   6.650
 3563SOL    HW211589   6.521   1.925   6.707
 3564SOL     OW11590   0.370   4.582   2.664
 3564SOL    HW111591   0.372   4.507   2.597
 3564SOL    HW211592   0.456   4.581   2.716
 3565SOL     OW11593   3.375   5.882   4.016
 3565SOL    HW111594   3.441   5.956   4.007
 3565SOL    HW211595   3.368   5.855   4.112
 3566SOL     OW11596   6.528   2.164   6.563
 3566SOL    HW111597   6.601   2.233   6.560
 3566SOL    HW211598   6.446   2.201   6.518
 3567SOL     OW11599   0.778   2.282   0.031
 3567SOL    HW111600   0.729   2.348   0.088
 3567SOL    HW211601   0.872   2.313   0.017
 3568SOL     OW11602   5.081   4.209   4.838
 3568SOL    HW111603   5.133   4.123   4.841
 3568SOL    HW211604   4.985   4.189   4.820
 3569SOL     OW11605   2.917   2.657   6.257
 3569SOL    HW111606   2.899   2.586   6.189
 3569SOL    HW211607   2.834   2.711   6.271
 3570SOL     OW11608   5.126   0.393   6.347
 3570SOL    HW111609   5.193   0.413   6.418
 3570SOL    HW211610   5.165   0.416   6.258
 3571SOL     OW11611   0.502   5.080   6.712
 3571SOL    HW111612   0.421   5.039   6.753
 3571SOL    HW211613   0.551   5.134   6.780
 3572SOL     OW11614   5.618   4.375   3.253
 3572SOL    HW111615   5.577   4.410   3.168
 3572SOL    HW211616   5.715   4.356   3.237
 3573SOL     OW11617   0.225   4.610   3.554
 3573SOL    HW111618   0.230   4.616   3.653
 3573SOL    HW211619   0.184   4.523   3.528
 3574SOL     OW11620   0.510   4.351   0.419
 3574SOL    HW111621   0.605   4.357   0.450
 3574SOL    HW211622   0.449   4.358   0.498
 3575SOL     OW11623   5.020   4.721   2.998
 3575SOL    HW111624   5.063   4.664   2.928
 3575SOL    HW211625   4.957   4.785   2.954
 3576SOL     OW11626   1.646   1.569   5.550
 3576SOL    HW111627   1.630   1.661   5.586
 3576SOL    HW211628   1.622   1.567   5.453
 3577SOL     OW11629   1.424   2.812   6.143
 3577SOL    HW111630   1.397   2.908   6.136
 3577SOL    HW211631   1.472   2.797   6.230
 3578SOL     OW11632   3.050   2.495   0.718
 3578SOL    HW111633   2.954   2.476   0.695
 3578SOL    HW211634   3.102   2.410   0.713
 3579SOL     OW11635   5.943   3.688   5.064
 3579SOL    HW111636   5.947   3.621   5.139
 3579SOL    HW211637   6.035   3.702   5.028
 3580SOL     OW11638   6.028   3.076   1.111
 3580SOL    HW111639   6.064   3.010   1.177
 3580SOL    HW211640   6.001   3.028   1.028
 3581SOL     OW11641   0.384   5.883   3.447
 3581SOL    HW111642   0.315   5.939   3.401
 3581SOL    HW211643   0.474   5.903   3.409
 3582SOL     OW11644   1.093   2.224   5.531
 3582SOL    HW111645   1.010   2.254   5.577
 3582SOL    HW211646   1.117   2.288   5.458
 3583SOL     OW11647   1.785   3.334   6.053
 3583SOL    HW111648   1.830   3.374   6.133
 3583SOL    HW211649   1.853   3.319   5.981
 3584SOL     OW11650   5.653   5.147   6.500
 3584SOL    HW111651   5.700   5.109   6.580
 3584SOL    HW211652   5.631   5.073   6.436
 3585SOL     OW11653   4.602   6.225   5.156
 3585SOL    HW111654   4.682   6.249   5.102
 3585SOL    HW211655   4.626   6.221   5.253
 3586SOL     OW11656   0.544   2.477   5.390
 3586SOL    HW111657   0.481   2.527   5.449
 3586SOL    HW211658   0.638   2.489   5.423
 3587SOL     OW11659   2.977   5.060   6.634
 3587SOL    HW111660   2.903   5.088   6.695
 3587SOL    HW211661   2.988   5.128   6.562
 3588SOL     OW11662   0.957   2.834   5.247
 3588SOL    HW111663   1.007   2.911   5.208
 3588SOL    HW211664   1.022   2.773   5.293
 3589SOL     OW11665   3.954   2.079   4.970
 3589SOL    HW111666   3.891   2.061   4.895
 3589SOL    HW211667   4.030   2.136   4.937
 3590SOL     OW11668   1.388   2.757   6.708
 3590SOL    HW111669   1.394   2.680   6.772
 3590SOL    HW211670   1.476   2.804   6.704
 3591SOL     OW11671   5.163   3.472   6.745
 3591SOL    HW111672   5.112   3.538   6.800
 3591SOL    HW211673   5.107   3.444   6.667
 3592SOL     OW11674   6.561   4.431   1.728
 3592SOL    HW111675   6.572   4.525   1.759
 3592SOL    HW211676   6.481   4.390   1.771
 3593SOL     OW11677   1.697   6.233   4.843
 3593SOL    HW111678   1.730   6.265   4.932
 3593SOL    HW211679   1.762   6.167   4.805
 3594SOL     OW11680   4.563   0.572   3.379
 3594SOL    HW111681   4.558   0.658   3.431
 3594SOL    HW211682   4.484   0.515   3.403
 3595SOL     OW11683   2.363   5.895   0.153
 3595SOL    HW111684   2.406   5.889   0.063
 3595SOL    HW211685   2.349   5.991   0.177
 3596SOL     OW11686   6.565   1.869   3.212
 3596SOL    HW111687   6.605   1.959   3.203
 3596SOL    HW211688   6.634   1.799   3.194
 3597SOL     OW11689   2.273   1.448   4.581
 3597SOL    HW111690   2.196   1.480   4.526
 3597SOL    HW211691   2.303   1.359   4.547
 3598SOL     OW11692   1.611   6.131   6.513
 3598SOL    HW111693   1.658   6.076   6.445
 3598SOL    HW211694   1.658   6.218   6.525
 3599SOL     OW11695   0.640   2.180   5.670
 3599SOL    HW111696   0.725   2.229   5.648
 3599SOL    HW211697   0.645   2.087   5.635
 3600SOL     OW11698   0.971   3.829   0.120
 3600SOL    HW111699   0.900   3.801   0.184
 3600SOL    HW211700   1.058   3.785   0.145
 3601SOL     OW11701   5.434   4.523   6.191
 3601SOL    HW111702   5.347   4.562   6.161
 3601SOL    HW211703   5.503   4.595   6.197
 3602SOL     OW11704   1.541   2.733   0.365
 3602SOL    HW111705   1.514   2.746   0.460
 3602SOL    HW211706   1.606   2.805   0.339
 3603SOL     OW11707   3.426   6.875   3.671
 3603SOL    HW111708   3.444   6.789   3.718
 3603SOL    HW211709   3.328   6.889   3.664
 3604SOL     OW11710   6.793   4.394   2.948
 3604SOL    HW111711   6.864   4.464   2.959
 3604SOL    HW211712   6.781   4.375   2.851
 3605SOL     OW11713   5.473   4.227   5.397
 3605SOL    HW111714   5.567   4.222   5.366
 3605SOL    HW211715   5.469   4.274   5.486
 3606SOL     OW11716   7.018   6.820   5.701
 3606SOL    HW111717   0.086   6.804   5.729
 3606SOL    HW211718   7.013   6.824   5.601
 3607SOL     OW11719   5.460   6.196   1.022
 3607SOL    HW111720   5.408   6.166   1.102
 3607SOL    HW211721   5.430   6.287   0.995
 3608SOL     OW11722   5.940   1.550   3.354
 3608SOL    HW111723   5.916   1.516   3.445
 3608SOL    HW211724   6.039   1.544   3.341
 3609SOL     OW11725   1.093   0.545   4.310
 3609SOL    HW111726   1.164   0.609   4.281
 3609SOL    HW211727   1.051   0.578   4.394
 3610SOL     OW11728   1.588   6.913   5.675
 3610SOL    HW111729   1.568   6.872   5.764
 3610SOL    HW211730   1.678   6.886   5.644
 3611SOL     OW11731   4.859   5.765   6.005
 3611SOL    HW111732   4.794   5.763   5.930
 3611SOL    HW211733   4.950   5.790   5.970
 3612SOL     OW11734   5.904   0.039   6.786
 3612SOL    HW111735   5.869   6.975   6.811
 3612SOL    HW211736   5.911   0.046   6.687
 3613SOL     OW11737   4.532   5.487   1.910
 3613SOL    HW111738   4.562   5.406   1.961
 3613SOL    HW211739   4.611   5.528   1.864
 3614SOL     OW11740   4.298   3.372   1.577
 3614SOL    HW111741   4.236   3.343   1.651
 3614SOL    HW211742   4.357   3.445   1.610
 3615SOL     OW11743   4.950   5.378   0.194
 3615SOL    HW111744   5.021   5.393   0.262
 3615SOL    HW211745   4.967   5.435   0.114
 3616SOL     OW11746   0.771   2.947   6.391
 3616SOL    HW111747   0.793   2.972   6.485
 3616SOL    HW211748   0.856   2.924   6.343
 3617SOL     OW11749   3.697   1.661   6.134
 3617SOL    HW111750   3.628   1.603   6.091
 3617SOL    HW211751   3.761   1.604   6.187
 3618SOL     OW11752   2.662   2.028   5.495
 3618SOL    HW111753   2.632   1.986   5.410
 3618SOL    HW211754   2.714   2.111   5.475
 3619SOL     OW11755   5.717   2.448   4.374
 3619SOL    HW111756   5.630   2.424   4.417
 3619SOL    HW211757   5.718   2.415   4.280
 3620SOL     OW11758   6.124   6.262   5.913
 3620SOL    HW111759   6.142   6.346   5.965
 3620SOL    HW211760   6.190   6.255   5.838
 3621SOL     OW11761   3.669   3.120   5.639
 3621SOL    HW111762   3.579   3.127   5.682
 3621SOL    HW211763   3.723   3.201   5.663
 3622SOL     OW11764   1.663   1.404   4.803
 3622SOL    HW111765   1.588   1.469   4.795
 3622SOL    HW211766   1.750   1.454   4.805
 3623SOL     OW11767   6.118   5.701   4.039
 3623SOL    HW111768   6.104   5.715   4.137
 3623SOL    HW211769   6.052   5.756   3.988
 3624SOL     OW11770   2.104   6.115   1.647
 3624SOL    HW111771   2.078   6.061   1.567
 3624SOL    HW211772   2.094   6.058   1.729
 3625SOL     OW11773   5.950   3.210   6.721
 3625SOL    HW111774   5.962   3.112   6.737
 3625SOL    HW211775   5.853   3.233   6.724
 3626SOL     OW11776   1.000   3.194   6.280
 3626SOL    HW111777   0.965   3.282   6.314
 3626SOL    HW211778   1.081   3.169   6.332
 3627SOL     OW11779   3.489   2.883   3.327
 3627SOL    HW111780   3.415   2.815   3.322
 3627SOL    HW211781   3.517   2.894   3.423
 3628SOL     OW11782   1.179   1.359   1.699
 3628SOL    HW111783   1.143   1.420   1.628
 3628SOL    HW211784   1.265   1.396   1.734
 3629SOL     OW11785   6.866   1.946   5.367
 3629SOL    HW111786   6.911   1.858   5.384
 3629SOL    HW211787   6.811   1.940   5.284
 3630SOL     OW11788   5.214   2.915   4.130
 3630SOL    HW111789   5.276   2.848   4.090
 3630SOL    HW211790   5.230   2.921   4.229
 3631SOL     OW11791   1.884   6.807   3.742
 3631SOL    HW111792   1.940   6.725   3.735
 3631SOL    HW211793   1.931   6.883   3.699
 3632SOL     OW11794   5.065   6.051   1.522
 3632SOL    HW111795   4.999   6.001   1.578
 3632SOL    HW211796   5.044   6.149   1.524
 3633SOL     OW11797   3.879   1.712   5.506
 3633SOL    HW111798   3.832   1.641   5.454
 3633SOL    HW211799   3.813   1.781   5.536
 3634SOL     OW11800   0.605   5.390   5.145
 3634SOL    HW111801   0.612   5.473   5.200
 3634SOL    HW211802   0.546   5.407   5.067
 3635SOL     OW11803   3.071   6.925   6.162
 3635SOL    HW111804   2.993   6.985   6.142
 3635SOL    HW211805   3.072   6.850   6.096
 3636SOL     OW11806   0.124   5.386   0.277
 3636SOL    HW111807   0.141   5.464   0.217
 3636SOL    HW211808   0.029   5.386   0.307
 3637SOL     OW11809   6.593   1.698   1.755
 3637SOL    HW111810   6.594   1.793   1.722
 3637SOL    HW211811   6.614   1.697   1.853
 3638SOL     OW11812   0.349   4.032   3.874
 3638SOL    HW111813   0.315   3.967   3.942
 3638SOL    HW211814   0.294   4.025   3.791
 3639SOL     OW11815   3.458   3.779   0.532
 3639SOL    HW111816   3.524   3.835   0.481
 3639SOL    HW211817   3.425   3.706   0.473
 3640SOL     OW11818   3.909   0.813   0.731
 3640SOL    HW111819   3.899   0.719   0.764
 3640SOL    HW211820   4.004   0.830   0.708
 3641SOL     OW11821   5.249   3.204   3.291
 3641SOL    HW111822   5.204   3.155   3.216
 3641SOL    HW211823   5.321   3.263   3.254
 3642SOL     OW11824   5.238   1.274   6.531
 3642SOL    HW111825   5.319   1.217   6.520
 3642SOL    HW211826   5.258   1.367   6.500
 3643SOL     OW11827   2.753   6.101   5.252
 3643SOL    HW111828   2.838   6.050   5.242
 3643SOL    HW211829   2.767   6.180   5.311
 3644SOL     OW11830   6.755   1.468   1.978
 3644SOL    HW111831   6.793   1.380   2.006
 3644SOL    HW211832   6.660   1.456   1.950
 3645SOL     OW11833   6.992   3.024   3.366
 3645SOL    HW111834   6.976   3.120   3.392
 3645SOL    HW211835   6.905   2.982   3.342
 3646SOL     OW11836   0.602   4.283   6.635
 3646SOL    HW111837   0.655   4.207   6.671
 3646SOL    HW211838   0.555   4.329   6.710
 3647SOL     OW11839   2.583   4.402   6.422
 3647SOL    HW111840   2.534   4.423   6.506
 3647SOL    HW211841   2.662   4.463   6.413
 3648SOL     OW11842   3.834   5.005   2.120
 3648SOL    HW111843   3.797   4.986   2.211
 3648SOL    HW211844   3.845   4.920   2.070
 3649SOL     OW11845   4.537   2.761   1.789
 3649SOL    HW111846   4.550   2.841   1.847
 3649SOL    HW211847   4.587   2.773   1.704
 3650SOL     OW11848   0.065   5.428   1.094
 3650SOL    HW111849   0.147   5.480   1.072
 3650SOL    HW211850   0.052   5.425   1.193
 3651SOL     OW11851   0.385   6.680   4.640
 3651SOL    HW111852   0.391   6.582   4.659
 3651SOL    HW211853   0.396   6.731   4.725
 3652SOL     OW11854   5.658   6.063   3.306
 3652SOL    HW111855   5.690   5.997   3.238
 3652SOL    HW211856   5.558   6.069   3.302
 3653SOL     OW11857   0.295   1.166   4.310
 3653SOL    HW111858   0.265   1.120   4.394
 3653SOL    HW211859   0.223   1.227   4.277
 3654SOL     OW11860   2.573   4.429   1.064
 3654SOL    HW111861   2.669   4.447   1.040
 3654SOL    HW211862   2.543   4.497   1.132
 3655SOL     OW11863   1.725   6.549   4.122
 3655SOL    HW111864   1.627   6.527   4.115
 3655SOL    HW211865   1.768   6.486   4.186
 3656SOL     OW11866   1.032   4.037   1.867
 3656SOL    HW111867   0.981   4.088   1.935
 3656SOL    HW211868   0.971   3.973   1.819
 3657SOL     OW11869   5.127   5.005   6.012
 3657SOL    HW111870   5.122   4.928   5.949
 3657SOL    HW211871   5.035   5.037   6.034
 3658SOL     OW11872   1.688   5.130   5.462
 3658SOL    HW111873   1.679   5.132   5.561
 3658SOL    HW211874   1.784   5.113   5.438
 3659SOL     OW11875   1.408   3.549   4.773
 3659SOL    HW111876   1.427   3.629   4.717
 3659SOL    HW211877   1.356   3.576   4.854
 3660SOL     OW11878   5.674   6.990   3.813
 3660SOL    HW111879   5.698   0.022   3.736
 3660SOL    HW211880   5.576   6.970   3.810
 3661SOL     OW11881   5.448   1.563   5.518
 3661SOL    HW111882   5.396   1.496   5.465
 3661SOL    HW211883   5.514   1.515   5.576
 3662SOL     OW11884   4.383   6.155   4.136
 3662SOL    HW111885   4.405   6.118   4.226
 3662SOL    HW211886   4.380   6.255   4.141
 3663SOL     OW11887   1.937   1.745   0.642
 3663SOL    HW111888   1.881   1.785   0.714
 3663SOL    HW211889   2.031   1.777   0.651
 3664SOL     OW11890   5.276   2.829   1.796
 3664SOL    HW111891   5.193   2.849   1.743
 3664SOL    HW211892   5.354   2.821   1.734
 3665SOL     OW11893   1.999   5.884   5.226
 3665SOL    HW111894   1.959   5.865   5.316
 3665SOL    HW211895   2.045   5.972   5.228
 3666SOL     OW11896   0.974   4.324   3.004
 3666SOL    HW111897   0.883   4.312   2.964
 3666SOL    HW211898   1.038   4.262   2.959
 3667SOL     OW11899   0.827   0.809   2.325
 3667SOL    HW111900   0.824   0.817   2.425
 3667SOL    HW211901   0.771   0.881   2.284
 3668SOL     OW11902   1.663   0.868   1.898
 3668SOL    HW111903   1.616   0.920   1.827
 3668SOL    HW211904   1.597   0.814   1.949
 3669SOL     OW11905   4.733   0.721   3.628
 3669SOL    HW111906   4.639   0.710   3.660
 3669SOL    HW211907   4.768   0.633   3.595
 3670SOL     OW11908   2.479   4.834   0.384
 3670SOL    HW111909   2.439   4.925   0.393
 3670SOL    HW211910   2.554   4.823   0.450
 3671SOL     OW11911   6.398   1.243   4.042
 3671SOL    HW111912   6.306   1.213   4.067
 3671SOL    HW211913   6.446   1.169   3.995
 3672SOL     OW11914   5.624   1.798   1.415
 3672SOL    HW111915   5.557   1.867   1.384
 3672SOL    HW211916   5.695   1.788   1.345
 3673SOL     OW11917   4.324   6.108   6.532
 3673SOL    HW111918   4.381   6.188   6.553
 3673SOL    HW211919   4.280   6.120   6.443
 3674SOL     OW11920   0.566   6.581   5.452
 3674SOL    HW111921   0.643   6.626   5.406
 3674SOL    HW211922   0.600   6.523   5.526
 3675SOL     OW11923   2.258   3.088   4.163
 3675SOL    HW111924   2.254   3.023   4.239
 3675SOL    HW211925   2.253   3.037   4.077
 3676SOL     OW11926   5.134   4.337   3.280
 3676SOL    HW111927   5.049   4.340   3.228
 3676SOL    HW211928   5.143   4.421   3.334
 3677SOL     OW11929   2.201   5.620   3.392
 3677SOL    HW111930   2.234   5.658   3.478
 3677SOL    HW211931   2.205   5.520   3.396
 3678SOL     OW11932   0.857   2.425   5.124
 3678SOL    HW111933   0.775   2.380   5.158
 3678SOL    HW211934   0.836   2.519   5.098
 3679SOL     OW11935   1.194   0.153   3.455
 3679SOL    HW111936   1.183   0.145   3.356
 3679SOL    HW211937   1.277   0.103   3.484
 3680SOL     OW11938   5.741   2.713   3.934
 3680SOL    HW111939   5.701   2.756   4.015
 3680SOL    HW211940   5.840   2.705   3.946
 3681SOL     OW11941   0.751   0.135   0.104
 3681SOL    HW111942   0.743   0.188   0.019
 3681SOL    HW211943   0.672   0.154   0.162
 3682SOL     OW11944   5.862   2.157   0.007
 3682SOL    HW111945   5.912   2.196   0.085
 3682SOL    HW211946   5.811   2.077   0.038
 3683SOL     OW11947   6.489   0.150   2.892
 3683SOL    HW111948   6.526   0.163   2.800
 3683SOL    HW211949   6.546   0.198   2.958
 3684SOL     OW11950   1.896   5.273   0.268
 3684SOL    HW111951   1.874   5.201   0.203
 3684SOL    HW211952   1.907   5.233   0.359
 3685SOL     OW11953   0.157   6.883   6.966
 3685SOL    HW111954   0.118   6.802   7.009
 3685SOL    HW211955   0.115   6.897   6.876
 3686SOL     OW11956   5.770   5.637   3.792
 3686SOL    HW111957   5.818   5.552   3.772
 3686SOL    HW211958   5.673   5.626   3.769
 3687SOL     OW11959   3.448   6.128   5.198
 3687SOL    HW111960   3.379   6.071   5.152
 3687SOL    HW211961   3.438   6.223   5.167
 3688SOL     OW11962   6.548   3.830   6.410
 3688SOL    HW111963   6.500   3.884   6.479
 3688SOL    HW211964   6.495   3.748   6.389
 3689SOL     OW11965   2.172   0.192   6.169
 3689SOL    HW111966   2.221   0.106   6.186
 3689SOL    HW211967   2.238   0.267   6.165
 3690SOL     OW11968   4.575   5.717   0.328
 3690SOL    HW111969   4.518   5.641   0.296
 3690SOL    HW211970   4.520   5.779   0.383
 3691SOL     OW11971   2.832   1.832   6.921
 3691SOL    HW111972   2.733   1.847   6.922
 3691SOL    HW211973   2.869   1.860   6.832
 3692SOL     OW11974   6.747   5.221   5.604
 3692SOL    HW111975   6.847   5.216   5.614
 3692SOL    HW211976   6.723   5.287   5.533
 3693SOL     OW11977   2.260   4.120   2.784
 3693SOL    HW111978   2.293   4.195   2.841
 3693SOL    HW211979   2.168   4.094   2.813
 3694SOL     OW11980   1.664   6.136   2.979
 3694SOL    HW111981   1.623   6.065   2.921
 3694SOL    HW211982   1.641   6.119   3.075
 3695SOL     OW11983   6.439   3.266   1.737
 3695SOL    HW111984   6.458   3.252   1.640
 3695SOL    HW211985   6.423   3.363   1.755
 3696SOL     OW11986   3.783   5.770   5.415
 3696SOL    HW111987   3.871   5.749   5.372
 3696SOL    HW211988   3.728   5.825   5.352
 3697SOL     OW11989   0.300   6.631   3.117
 3697SOL    HW111990   0.242   6.709   3.138
 3697SOL    HW211991   0.245   6.548   3.112
 3698SOL     OW11992   2.155   0.651   4.016
 3698SOL    HW111993   2.133   0.672   3.920
 3698SOL    HW211994   2.079   0.602   4.058
 3699SOL     OW11995   0.740   1.930   3.597
 3699SOL    HW111996   0.825   1.885   3.626
 3699SOL    HW211997   0.689   1.868   3.537
 3700SOL     OW11998   0.724   6.087   4.940
 3700SOL    HW111999   0.751   6.026   4.865
 3700SOL    HW212000   0.790   6.081   5.014
 3701SOL     OW12001   1.707   0.418   3.513
 3701SOL    HW112002   1.725   0.485   3.442
 3701SOL    HW212003   1.792   0.372   3.539
 3702SOL     OW12004   6.236   6.761   3.320
 3702SOL    HW112005   6.154   6.801   3.361
 3702SOL    HW212006   6.213   6.720   3.232
 3703SOL     OW12007   5.786   1.219   5.101
 3703SOL    HW112008   5.787   1.242   5.004
 3703SOL    HW212009   5.849   1.279   5.150
 3704SOL     OW12010   3.887   2.080   1.581
 3704SOL    HW112011   3.865   2.014   1.509
 3704SOL    HW212012   3.809   2.141   1.595
 3705SOL     OW12013   3.995   4.813   3.807
 3705SOL    HW112014   4.047   4.811   3.721
 3705SOL    HW212015   4.058   4.806   3.884
 3706SOL     OW12016   1.715   3.409   6.777
 3706SOL    HW112017   1.704   3.508   6.766
 3706SOL    HW212018   1.757   3.389   6.865
 3707SOL     OW12019   5.551   4.496   4.505
 3707SOL    HW112020   5.472   4.558   4.503
 3707SOL    HW212021   5.531   4.419   4.566
 3708SOL     OW12022   0.205   0.651   6.567
 3708SOL    HW112023   0.119   0.617   6.605
 3708SOL    HW212024   0.230   0.597   6.487
 3709SOL     OW12025   3.134   0.989   1.045
 3709SOL    HW112026   3.174   1.050   0.976
 3709SOL    HW212027   3.202   0.920   1.071
 3710SOL     OW12028   6.043   5.699   5.678
 3710SOL    HW112029   5.975   5.726   5.609
 3710SOL    HW212030   6.086   5.613   5.651
 3711SOL     OW12031   0.827   0.137   4.366
 3711SOL    HW112032   0.890   0.067   4.397
 3711SOL    HW212033   0.742   0.095   4.333
 3712SOL     OW12034   6.941   5.568   6.837
 3712SOL    HW112035   6.937   5.469   6.842
 3712SOL    HW212036   0.011   5.597   6.836
 3713SOL     OW12037   1.007   6.501   5.493
 3713SOL    HW112038   1.094   6.460   5.465
 3713SOL    HW212039   0.932   6.441   5.467
 3714SOL     OW12040   5.320   6.206   5.432
 3714SOL    HW112041   5.277   6.261   5.360
 3714SOL    HW212042   5.346   6.117   5.395
 3715SOL     OW12043   0.349   4.322   2.596
 3715SOL    HW112044   0.290   4.323   2.515
 3715SOL    HW212045   0.406   4.240   2.594
 3716SOL     OW12046   6.258   0.380   5.147
 3716SOL    HW112047   6.161   0.356   5.152
 3716SOL    HW212048   6.274   0.439   5.068
 3717SOL     OW12049   6.198   6.913   6.680
 3717SOL    HW112050   6.249   6.827   6.684
 3717SOL    HW212051   6.105   6.895   6.649
 3718SOL     OW12052   1.806   0.439   6.539
 3718SOL    HW112053   1.840   0.359   6.589
 3718SOL    HW212054   1.778   0.509   6.604
 3719SOL     OW12055   5.613   4.401   1.304
 3719SOL    HW112056   5.529   4.382   1.354
 3719SOL    HW212057   5.687   4.345   1.341
 3720SOL     OW12058   5.907   2.351   6.631
 3720SOL    HW112059   5.985   2.337   6.691
 3720SOL    HW212060   5.935   2.338   6.536
 3721SOL     OW12061   6.134   4.599   1.440
 3721SOL    HW112062   6.227   4.634   1.449
 3721SOL    HW212063   6.069   4.676   1.438
 3722SOL     OW12064   6.814   5.946   0.901
 3722SOL    HW112065   6.809   5.879   0.975
 3722SOL    HW212066   6.725   5.953   0.857
 3723SOL     OW12067   6.118   5.194   1.658
 3723SOL    HW112068   6.180   5.239   1.722
 3723SOL    HW212069   6.133   5.095   1.661
 3724SOL     OW12070   1.923   4.587   4.407
 3724SOL    HW112071   1.904   4.656   4.337
 3724SOL    HW212072   1.914   4.628   4.498
 3725SOL     OW12073   5.707   5.484   0.465
 3725SOL    HW112074   5.706   5.574   0.510
 3725SOL    HW212075   5.751   5.492   0.376
 3726SOL     OW12076   5.434   3.595   0.625
 3726SOL    HW112077   5.354   3.647   0.652
 3726SOL    HW212078   5.428   3.572   0.528
 3727SOL     OW12079   0.160   2.084   4.855
 3727SOL    HW112080   0.233   2.094   4.924
 3727SOL    HW212081   0.123   1.991   4.859
 3728SOL     OW12082   1.876   3.575   6.579
 3728SOL    HW112083   1.781   3.587   6.609
 3728SOL    HW212084   1.921   3.508   6.638
 3729SOL     OW12085   0.699   2.620   3.891
 3729SOL    HW112086   0.648   2.596   3.808
 3729SOL    HW212087   0.644   2.599   3.971
 3730SOL     OW12088   2.265   4.863   6.032
 3730SOL    HW112089   2.172   4.828   6.047
 3730SOL    HW212090   2.268   4.915   5.947
 3731SOL     OW12091   6.804   1.833   0.619
 3731SOL    HW112092   6.760   1.881   0.695
 3731SOL    HW212093   6.805   1.735   0.638
 3732SOL     OW12094   3.123   1.287   0.600
 3732SOL    HW112095   3.133   1.189   0.617
 3732SOL    HW212096   3.049   1.324   0.656
 3733SOL     OW12097   1.751   3.768   2.477
 3733SOL    HW112098   1.773   3.731   2.387
 3733SOL    HW212099   1.695   3.702   2.527
 3734SOL     OW12100   4.995   1.057   2.318
 3734SOL    HW112101   5.020   1.154   2.312
 3734SOL    HW212102   5.076   1.001   2.306
 3735SOL     OW12103   1.963   0.911   3.663
 3735SOL    HW112104   2.047   0.946   3.623
 3735SOL    HW212105   1.937   0.826   3.618
 3736SOL     OW12106   0.297   2.371   0.985
 3736SOL    HW112107   0.360   2.296   1.005
 3736SOL    HW212108   0.334   2.427   0.911
 3737SOL     OW12109   4.863   0.641   3.383
 3737SOL    HW112110   4.783   0.640   3.323
 3737SOL    HW212111   4.842   0.693   3.466
 3738SOL     OW12112   0.101   0.135   2.356
 3738SOL    HW112113   0.097   0.056   2.416
 3738SOL    HW212114   0.096   0.219   2.410
 3739SOL     OW12115   2.557   4.500   1.544
 3739SOL    HW112116   2.501   4.552   1.608
 3739SOL    HW212117   2.610   4.430   1.593
 3740SOL     OW12118   5.424   0.962   0.583
 3740SOL    HW112119   5.460   1.054   0.596
 3740SOL    HW212120   5.455   0.926   0.496
 3741SOL     OW12121   5.314   2.782   0.409
 3741SOL    HW112122   5.215   2.769   0.406
 3741SOL    HW212123   5.358   2.723   0.341
 3742SOL     OW12124   2.841   1.579   0.063
 3742SOL    HW112125   2.783   1.526   0.000
 3742SOL    HW212126   2.854   1.671   0.026
 3743SOL     OW12127   5.674   3.505   0.689
 3743SOL    HW112128   5.679   3.490   0.788
 3743SOL    HW212129   5.578   3.508   0.661
 3744SOL     OW12130   1.427   5.924   2.399
 3744SOL    HW112131   1.349   5.914   2.337
 3744SOL    HW212132   1.461   5.833   2.425
 3745SOL     OW12133   4.076   4.894   1.606
 3745SOL    HW112134   4.035   4.807   1.580
 3745SOL    HW212135   4.111   4.940   1.525
 3746SOL     OW12136   5.167   0.675   3.059
 3746SOL    HW112137   5.241   0.690   3.124
 3746SOL    HW212138   5.202   0.682   2.966
 3747SOL     OW12139   2.550   6.553   5.032
 3747SOL    HW112140   2.620   6.505   5.084
 3747SOL    HW212141   2.490   6.486   4.988
 3748SOL     OW12142   5.347   1.280   1.215
 3748SOL    HW112143   5.258   1.262   1.258
 3748SOL    HW212144   5.351   1.377   1.188
 3749SOL     OW12145   1.453   5.716   3.439
 3749SOL    HW112146   1.397   5.658   3.380
 3749SOL    HW212147   1.397   5.751   3.514
 3750SOL     OW12148   0.876   4.250   0.885
 3750SOL    HW112149   0.926   4.256   0.799
 3750SOL    HW212150   0.854   4.342   0.918
 3751SOL     OW12151   0.101   3.611   1.686
 3751SOL    HW112152   0.070   3.521   1.716
 3751SOL    HW212153   0.148   3.657   1.760
 3752SOL     OW12154   5.017   0.345   0.330
 3752SOL    HW112155   4.988   0.436   0.361
 3752SOL    HW212156   5.072   0.354   0.247
 3753SOL     OW12157   6.154   6.761   4.692
 3753SOL    HW112158   6.163   6.859   4.710
 3753SOL    HW212159   6.169   6.743   4.595
 3754SOL     OW12160   2.322   1.013   1.362
 3754SOL    HW112161   2.343   0.916   1.371
 3754SOL    HW212162   2.230   1.031   1.398
 3755SOL     OW12163   4.932   4.376   4.277
 3755SOL    HW112164   4.852   4.435   4.283
 3755SOL    HW212165   4.905   4.285   4.244
 3756SOL     OW12166   3.152   5.028   6.359
 3756SOL    HW112167   3.148   5.116   6.406
 3756SOL    HW212168   3.231   5.026   6.298
 3757SOL     OW12169   5.500   5.719   0.374
 3757SOL    HW112170   5.538   5.658   0.304
 3757SOL    HW212171   5.557   5.716   0.455
 3758SOL     OW12172   2.808   1.451   4.955
 3758SOL    HW112173   2.792   1.355   4.931
 3758SOL    HW212174   2.732   1.507   4.920
 3759SOL     OW12175   4.016   0.124   6.530
 3759SOL    HW112176   3.973   0.135   6.441
 3759SOL    HW212177   4.047   0.029   6.541
 3760SOL     OW12178   1.476   1.625   4.810
 3760SOL    HW112179   1.392   1.611   4.862
 3760SOL    HW212180   1.453   1.632   4.712
 3761SOL     OW12181   0.812   1.489   5.092
 3761SOL    HW112182   0.888   1.450   5.143
 3761SOL    HW212183   0.744   1.525   5.157
 3762SOL     OW12184   1.328   4.894   1.135
 3762SOL    HW112185   1.257   4.946   1.183
 3762SOL    HW212186   1.332   4.925   1.040
 3763SOL     OW12187   0.125   3.703   0.657
 3763SOL    HW112188   0.054   3.695   0.727
 3763SOL    HW212189   0.190   3.629   0.666
 3764SOL     OW12190   1.708   0.118   2.543
 3764SOL    HW112191   1.717   0.038   2.483
 3764SOL    HW212192   1.611   0.132   2.564
 3765SOL     OW12193   5.440   1.697   0.919
 3765SOL    HW112194   5.413   1.672   1.013
 3765SOL    HW212195   5.368   1.669   0.856
 3766SOL     OW12196   2.351   1.864   4.202
 3766SOL    HW112197   2.287   1.883   4.127
 3766SOL    HW212198   2.412   1.942   4.214
 3767SOL     OW12199   2.206   4.767   6.867
 3767SOL    HW112200   2.272   4.817   6.811
 3767SOL    HW212201   2.249   4.738   6.952
 3768SOL     OW12202   0.799   6.594   4.131
 3768SOL    HW112203   0.786   6.576   4.033
 3768SOL    HW212204   0.718   6.564   4.181
 3769SOL     OW12205   6.037   5.765   4.309
 3769SOL    HW112206   6.101   5.779   4.385
 3769SOL    HW212207   5.954   5.721   4.342
 3770SOL     OW12208   1.261   0.948   6.305
 3770SOL    HW112209   1.305   0.858   6.309
 3770SOL    HW212210   1.208   0.963   6.389
 3771SOL     OW12211   5.036   2.866   0.315
 3771SOL    HW112212   5.017   2.919   0.398
 3771SOL    HW212213   5.000   2.915   0.235
 3772SOL     OW12214   0.465   0.971   0.391
 3772SOL    HW112215   0.372   0.990   0.422
 3772SOL    HW212216   0.523   0.949   0.469
 3773SOL     OW12217   6.057   3.742   5.384
 3773SOL    HW112218   6.120   3.700   5.319
 3773SOL    HW212219   6.053   3.686   5.467
 3774SOL     OW12220   6.272   5.725   1.260
 3774SOL    HW112221   6.313   5.776   1.184
 3774SOL    HW212222   6.317   5.751   1.345
 3775SOL     OW12223   4.568   4.970   2.691
 3775SOL    HW112224   4.575   4.870   2.694
 3775SOL    HW212225   4.656   5.008   2.662
 3776SOL     OW12226   4.137   1.593   6.777
 3776SOL    HW112227   4.147   1.595   6.678
 3776SOL    HW212228   4.055   1.645   6.802
 3777SOL     OW12229   3.417   5.498   3.591
 3777SOL    HW112230   3.372   5.410   3.606
 3777SOL    HW212231   3.411   5.524   3.495
 3778SOL     OW12232   3.081   5.242   2.567
 3778SOL    HW112233   3.149   5.314   2.554
 3778SOL    HW212234   3.104   5.164   2.509
 3779SOL     OW12235   0.805   4.955   0.476
 3779SOL    HW112236   0.898   4.918   0.469
 3779SOL    HW212237   0.756   4.937   0.391
 3780SOL     OW12238   5.688   5.007   4.589
 3780SOL    HW112239   5.607   5.010   4.648
 3780SOL    HW212240   5.695   4.916   4.546
 3781SOL     OW12241   0.552   6.471   4.226
 3781SOL    HW112242   0.503   6.402   4.281
 3781SOL    HW212243   0.489   6.512   4.160
 3782SOL     OW12244   2.401   0.020   3.152
 3782SOL    HW112245   2.473   6.985   3.119
 3782SOL    HW212246   2.385   0.092   3.085
 3783SOL     OW12247   5.918   5.290   4.466
 3783SOL    HW112248   5.921   5.265   4.369
 3783SOL    HW212249   5.960   5.380   4.478
 3784SOL     OW12250   4.823   2.297   3.088
 3784SOL    HW112251   4.731   2.259   3.081
 3784SOL    HW212252   4.830   2.376   3.026
 3785SOL     OW12253   1.924   3.718   5.631
 3785SOL    HW112254   1.965   3.807   5.653
 3785SOL    HW212255   1.996   3.651   5.616
 3786SOL     OW12256   2.482   5.051   3.329
 3786SOL    HW112257   2.425   5.133   3.323
 3786SOL    HW212258   2.573   5.075   3.361
 3787SOL     OW12259   6.224   1.538   3.000
 3787SOL    HW112260   6.160   1.461   2.995
 3787SOL    HW212261   6.247   1.557   3.095
 3788SOL     OW12262   0.010   4.702   4.837
 3788SOL    HW112263   0.097   4.658   4.861
 3788SOL    HW212264   6.961   4.645   4.868
 3789SOL     OW12265   0.382   2.765   4.371
 3789SOL    HW112266   0.344   2.855   4.348
 3789SOL    HW212267   0.316   2.694   4.347
 3790SOL     OW12268   1.347   4.416   5.794
 3790SOL    HW112269   1.277   4.387   5.860
 3790SOL    HW212270   1.433   4.435   5.843
 3791SOL     OW12271   4.719   0.968   6.239
 3791SOL    HW112272   4.819   0.965   6.236
 3791SOL    HW212273   4.690   1.006   6.327
 3792SOL     OW12274   1.085   2.124   3.956
 3792SOL    HW112275   1.104   2.026   3.953
 3792SOL    HW212276   1.166   2.174   3.924
 3793SOL     OW12277   4.891   6.107   1.985
 3793SOL    HW112278   4.963   6.055   1.937
 3793SOL    HW212279   4.917   6.203   1.988
 3794SOL     OW12280   2.077   2.705   1.000
 3794SOL    HW112281   2.160   2.722   0.946
 3794SOL    HW212282   2.001   2.685   0.939
 3795SOL     OW12283   4.581   6.056   0.965
 3795SOL    HW112284   4.635   6.103   0.894
 3795SOL    HW212285   4.625   6.069   1.054
 3796SOL     OW12286   3.274   2.125   2.210
 3796SOL    HW112287   3.194   2.179   2.237
 3796SOL    HW212288   3.243   2.041   2.166
 3797SOL     OW12289   0.692   3.354   2.155
 3797SOL    HW112290   0.699   3.413   2.235
 3797SOL    HW212291   0.712   3.406   2.073
 3798SOL     OW12292   2.752   5.176   3.389
 3798SOL    HW112293   2.770   5.263   3.342
 3798SOL    HW212294   2.832   5.150   3.442
 3799SOL     OW12295   6.068   2.242   3.725
 3799SOL    HW112296   6.042   2.339   3.725
 3799SOL    HW212297   6.065   2.206   3.632
 3800SOL     OW12298   5.525   2.563   3.870
 3800SOL    HW112299   5.620   2.584   3.893
 3800SOL    HW212300   5.519   2.544   3.772
 3801SOL     OW12301   5.870   6.540   1.730
 3801SOL    HW112302   5.897   6.624   1.683
 3801SOL    HW212303   5.770   6.534   1.734
 3802SOL     OW12304   1.350   2.202   1.604
 3802SOL    HW112305   1.418   2.128   1.611
 3802SOL    HW212306   1.388   2.277   1.550
 3803SOL     OW12307   4.112   3.263   2.351
 3803SOL    HW112308   4.161   3.280   2.265
 3803SOL    HW212309   4.048   3.187   2.339
 3804SOL     OW12310   4.564   1.081   4.017
 3804SOL    HW112311   4.626   1.116   4.088
 3804SOL    HW212312   4.618   1.046   3.941
 3805SOL     OW12313   1.850   2.758   1.218
 3805SOL    HW112314   1.788   2.684   1.193
 3805SOL    HW212315   1.927   2.761   1.154
 3806SOL     OW12316   3.922   3.622   5.973
 3806SOL    HW112317   3.840   3.593   6.023
 3806SOL    HW212318   3.912   3.718   5.948
 3807SOL     OW12319   1.682   5.677   2.882
 3807SOL    HW112320   1.654   5.741   2.953
 3807SOL    HW212321   1.695   5.725   2.796
 3808SOL     OW12322   4.515   1.016   0.688
 3808SOL    HW112323   4.449   1.024   0.613
 3808SOL    HW212324   4.604   1.049   0.658
 3809SOL     OW12325   5.647   2.653   1.732
 3809SOL    HW112326   5.747   2.653   1.730
 3809SOL    HW212327   5.612   2.701   1.652
 3810SOL     OW12328   4.551   2.567   3.585
 3810SOL    HW112329   4.581   2.620   3.664
 3810SOL    HW212330   4.471   2.512   3.611
 3811SOL     OW12331   0.802   5.394   4.886
 3811SOL    HW112332   0.815   5.308   4.935
 3811SOL    HW212333   0.823   5.471   4.946
 3812SOL     OW12334   4.607   5.031   5.477
 3812SOL    HW112335   4.640   5.109   5.530
 3812SOL    HW212336   4.655   4.948   5.508
 3813SOL     OW12337   4.018   3.181   0.427
 3813SOL    HW112338   3.979   3.243   0.495
 3813SOL    HW212339   3.946   3.127   0.385
 3814SOL     OW12340   6.902   6.726   6.258
 3814SOL    HW112341   6.810   6.735   6.220
 3814SOL    HW212342   6.902   6.655   6.329
 3815SOL     OW12343   3.838   2.090   0.727
 3815SOL    HW112344   3.800   2.076   0.636
 3815SOL    HW212345   3.833   2.188   0.750
 3816SOL     OW12346   1.303   5.905   6.381
 3816SOL    HW112347   1.211   5.905   6.342
 3816SOL    HW212348   1.315   5.985   6.439
 3817SOL     OW12349   4.894   3.283   2.775
 3817SOL    HW112350   4.906   3.320   2.683
 3817SOL    HW212351   4.910   3.355   2.842
 3818SOL     OW12352   6.428   0.759   6.657
 3818SOL    HW112353   6.351   0.771   6.594
 3818SOL    HW212354   6.427   0.833   6.725
 3819SOL     OW12355   4.897   5.321   1.774
 3819SOL    HW112356   4.967   5.341   1.843
 3819SOL    HW212357   4.941   5.290   1.690
 3820SOL     OW12358   5.318   6.994   3.542
 3820SOL    HW112359   5.226   0.005   3.547
 3820SOL    HW212360   5.338   6.966   3.448
 3821SOL     OW12361   2.521   1.818   1.770
 3821SOL    HW112362   2.441   1.827   1.828
 3821SOL    HW212363   2.604   1.829   1.825
 3822SOL     OW12364   2.271   0.795   1.119
 3822SOL    HW112365   2.332   0.835   1.051
 3822SOL    HW212366   2.323   0.777   1.203
 3823SOL     OW12367   3.418   3.524   6.110
 3823SOL    HW112368   3.325   3.490   6.127
 3823SOL    HW212369   3.419   3.624   6.114
 3824SOL     OW12370   0.287   3.317   0.263
 3824SOL    HW112371   0.205   3.373   0.276
 3824SOL    HW212372   0.291   3.286   0.168
 3825SOL     OW12373   0.225   5.483   0.691
 3825SOL    HW112374   0.136   5.528   0.679
 3825SOL    HW212375   0.298   5.551   0.681
 3826SOL     OW12376   1.151   3.550   6.598
 3826SOL    HW112377   1.090   3.620   6.636
 3826SOL    HW212378   1.229   3.594   6.554
 3827SOL     OW12379   1.517   1.252   1.640
 3827SOL    HW112380   1.600   1.305   1.619
 3827SOL    HW212381   1.443   1.315   1.664
 3828SOL     OW12382   3.570   3.618   2.943
 3828SOL    HW112383   3.569   3.716   2.960
 3828SOL    HW212384   3.512   3.597   2.863
 3829SOL     OW12385   1.357   5.278   2.956
 3829SOL    HW112386   1.360   5.201   2.893
 3829SOL    HW212387   1.419   5.350   2.924
 3830SOL     OW12388   0.797   1.013   5.282
 3830SOL    HW112389   0.837   1.097   5.319
 3830SOL    HW212390   0.864   0.964   5.227
 3831SOL     OW12391   4.694   2.348   2.244
 3831SOL    HW112392   4.639   2.357   2.328
 3831SOL    HW212393   4.639   2.303   2.174
 3832SOL     OW12394   6.068   0.942   2.858
 3832SOL    HW112395   5.978   0.984   2.872
 3832SOL    HW212396   6.076   0.911   2.763
 3833SOL     OW12397   0.159   6.522   6.354
 3833SOL    HW112398   0.208   6.578   6.287
 3833SOL    HW212399   0.127   6.438   6.311
 3834SOL     OW12400   4.187   4.517   1.241
 3834SOL    HW112401   4.125   4.465   1.299
 3834SOL    HW212402   4.182   4.614   1.265
 3835SOL     OW12403   3.625   5.516   4.628
 3835SOL    HW112404   3.618   5.426   4.671
 3835SOL    HW212405   3.714   5.556   4.647
 3836SOL     OW12406   1.409   4.083   6.106
 3836SOL    HW112407   1.443   4.154   6.167
 3836SOL    HW212408   1.318   4.109   6.072
 3837SOL     OW12409   4.457   4.807   6.283
 3837SOL    HW112410   4.427   4.769   6.370
 3837SOL    HW212411   4.429   4.903   6.277
 3838SOL     OW12412   0.831   3.638   4.241
 3838SOL    HW112413   0.883   3.572   4.295
 3838SOL    HW212414   0.891   3.713   4.213
 3839SOL     OW12415   5.311   0.934   3.725
 3839SOL    HW112416   5.301   0.923   3.824
 3839SOL    HW212417   5.225   0.967   3.686
 3840SOL     OW12418   2.668   0.948   6.127
 3840SOL    HW112419   2.715   0.930   6.214
 3840SOL    HW212420   2.578   0.988   6.146
 3841SOL     OW12421   6.745   3.111   4.248
 3841SOL    HW112422   6.760   3.123   4.150
 3841SOL    HW212423   6.763   3.198   4.295
 3842SOL     OW12424   2.057   3.038   1.013
 3842SOL    HW112425   2.134   2.975   1.014
 3842SOL    HW212426   2.083   3.122   1.061
 3843SOL     OW12427   5.747   4.799   2.243
 3843SOL    HW112428   5.726   4.801   2.145
 3843SOL    HW212429   5.730   4.707   2.279
 3844SOL     OW12430   0.787   3.091   6.150
 3844SOL    HW112431   0.869   3.142   6.177
 3844SOL    HW212432   0.754   3.038   6.228
 3845SOL     OW12433   2.816   3.439   5.455
 3845SOL    HW112434   2.824   3.430   5.356
 3845SOL    HW212435   2.739   3.498   5.478
 3846SOL     OW12436   0.543   5.507   4.004
 3846SOL    HW112437   0.462   5.546   3.959
 3846SOL    HW212438   0.600   5.464   3.935
 3847SOL     OW12439   5.354   1.303   4.611
 3847SOL    HW112440   5.434   1.351   4.647
 3847SOL    HW212441   5.289   1.288   4.686
 3848SOL     OW12442   4.729   5.446   2.859
 3848SOL    HW112443   4.750   5.465   2.955
 3848SOL    HW212444   4.683   5.525   2.819
 3849SOL     OW12445   1.751   0.947   5.942
 3849SOL    HW112446   1.664   0.976   5.903
 3849SOL    HW212447   1.814   1.025   5.943
 3850SOL     OW12448   2.248   3.664   1.184
 3850SOL    HW112449   2.302   3.720   1.122
 3850SOL    HW212450   2.289   3.573   1.192
 3851SOL     OW12451   0.864   4.777   2.012
 3851SOL    HW112452   0.860   4.870   2.048
 3851SOL    HW212453   0.945   4.767   1.954
 3852SOL     OW12454   4.491   6.345   3.713
 3852SOL    HW112455   4.451   6.264   3.756
 3852SOL    HW212456   4.583   6.360   3.749
 3853SOL     OW12457   1.027   4.529   3.159
 3853SOL    HW112458   0.964   4.547   3.236
 3853SOL    HW212459   0.996   4.448   3.109
 3854SOL     OW12460   1.789   3.179   2.648
 3854SOL    HW112461   1.851   3.171   2.569
 3854SOL    HW212462   1.733   3.097   2.656
 3855SOL     OW12463   5.216   6.290   6.235
 3855SOL    HW112464   5.231   6.316   6.330
 3855SOL    HW212465   5.297   6.313   6.181
 3856SOL     OW12466   0.482   1.049   6.044
 3856SOL    HW112467   0.440   1.000   5.967
 3856SOL    HW212468   0.424   1.125   6.071
 3857SOL     OW12469   0.220   6.262   6.832
 3857SOL    HW112470   0.145   6.325   6.811
 3857SOL    HW212471   0.206   6.175   6.784
 3858SOL     OW12472   1.733   0.551   5.400
 3858SOL    HW112473   1.637   0.566   5.423
 3858SOL    HW212474   1.760   0.615   5.328
 3859SOL     OW12475   5.929   1.263   2.639
 3859SOL    HW112476   5.887   1.263   2.548
 3859SOL    HW212477   5.964   1.354   2.659
 3860SOL     OW12478   3.138   0.574   5.367
 3860SOL    HW112479   3.042   0.599   5.369
 3860SOL    HW212480   3.166   0.555   5.272
 3861SOL     OW12481   4.750   4.750   3.493
 3861SOL    HW112482   4.656   4.715   3.499
 3861SOL    HW212483   4.775   4.763   3.397
 3862SOL     OW12484   1.220   0.408   5.254
 3862SOL    HW112485   1.169   0.493   5.258
 3862SOL    HW212486   1.317   0.427   5.266
 3863SOL     OW12487   4.776   2.678   6.909
 3863SOL    HW112488   4.801   2.748   6.843
 3863SOL    HW212489   4.814   2.700   6.998
 3864SOL     OW12490   2.513   0.326   5.342
 3864SOL    HW112491   2.605   0.365   5.341
 3864SOL    HW212492   2.466   0.349   5.258
 3865SOL     OW12493   3.620   0.163   0.131
 3865SOL    HW112494   3.680   0.103   0.184
 3865SOL    HW212495   3.664   0.253   0.123
 3866SOL     OW12496   3.857   1.030   1.074
 3866SOL    HW112497   3.929   1.041   1.142
 3866SOL    HW212498   3.770   1.014   1.121
 3867SOL     OW12499   1.303   4.194   3.276
 3867SOL    HW112500   1.350   4.196   3.188
 3867SOL    HW212501   1.224   4.132   3.271
 3868SOL     OW12502   3.247   6.771   0.266
 3868SOL    HW112503   3.294   6.859   0.277
 3868SOL    HW212504   3.249   6.721   0.352
 3869SOL     OW12505   5.814   4.428   5.130
 3869SOL    HW112506   5.773   4.508   5.087
 3869SOL    HW212507   5.876   4.384   5.066
 3870SOL     OW12508   4.929   5.558   6.606
 3870SOL    HW112509   4.918   5.496   6.684
 3870SOL    HW212510   4.903   5.650   6.633
 3871SOL     OW12511   3.609   0.330   2.780
 3871SOL    HW112512   3.566   0.399   2.722
 3871SOL    HW212513   3.641   0.254   2.723
 3872SOL     OW12514   3.708   2.990   3.253
 3872SOL    HW112515   3.624   2.943   3.278
 3872SOL    HW212516   3.771   2.989   3.331
 3873SOL     OW12517   6.066   2.870   2.009
 3873SOL    HW112518   5.971   2.853   1.983
 3873SOL    HW212519   6.068   2.938   2.082
 3874SOL     OW12520   4.044   5.764   6.933
 3874SOL    HW112521   4.082   5.754   7.025
 3874SOL    HW212522   4.028   5.674   6.893
 3875SOL     OW12523   1.687   2.947   1.652
 3875SOL    HW112524   1.587   2.942   1.650
 3875SOL    HW212525   1.717   3.032   1.610
 3876SOL     OW12526   4.509   4.796   0.420
 3876SOL    HW112527   4.483   4.815   0.325
 3876SOL    HW212528   4.523   4.698   0.432
 3877SOL     OW12529   6.768   2.744   0.500
 3877SOL    HW112530   6.842   2.685   0.533
 3877SOL    HW212531   6.719   2.782   0.579
 3878SOL     OW12532   3.358   6.745   4.484
 3878SOL    HW112533   3.411   6.800   4.420
 3878SOL    HW212534   3.328   6.802   4.560
 3879SOL     OW12535   5.017   6.324   1.540
 3879SOL    HW112536   4.998   6.349   1.636
 3879SOL    HW212537   5.003   6.404   1.482
 3880SOL     OW12538   6.173   4.736   3.611
 3880SOL    HW112539   6.079   4.708   3.592
 3880SOL    HW212540   6.189   4.826   3.570
 3881SOL     OW12541   1.120   4.339   1.151
 3881SOL    HW112542   1.079   4.269   1.209
 3881SOL    HW212543   1.056   4.414   1.138
 3882SOL     OW12544   0.859   2.034   5.409
 3882SOL    HW112545   0.884   1.964   5.476
 3882SOL    HW212546   0.918   2.114   5.420
 3883SOL     OW12547   4.115   0.952   3.804
 3883SOL    HW112548   4.186   0.978   3.870
 3883SOL    HW212549   4.045   1.023   3.801
 3884SOL     OW12550   0.458   5.133   3.356
 3884SOL    HW112551   0.519   5.204   3.321
 3884SOL    HW212552   0.382   5.120   3.293
 3885SOL     OW12553   6.257   0.548   2.712
 3885SOL    HW112554   6.334   0.533   2.774
 3885SOL    HW212555   6.282   0.617   2.644
 3886SOL     OW12556   6.512   5.800   4.634
 3886SOL    HW112557   6.450   5.730   4.598
 3886SOL    HW212558   6.565   5.761   4.710
 3887SOL     OW12559   0.283   0.872   6.237
 3887SOL    HW112560   0.295   0.836   6.144
 3887SOL    HW212561   0.365   0.854   6.291
 3888SOL     OW12562   0.067   0.336   6.190
 3888SOL    HW112563   0.054   0.247   6.147
 3888SOL    HW212564   0.029   0.334   6.282
 3889SOL     OW12565   6.652   3.624   5.710
 3889SOL    HW112566   6.558   3.635   5.676
 3889SOL    HW212567   6.650   3.613   5.809
 3890SOL     OW12568   5.733   5.570   2.760
 3890SOL    HW112569   5.685   5.510   2.696
 3890SOL    HW212570   5.681   5.654   2.772
 3891SOL     OW12571   5.564   4.458   4.209
 3891SOL    HW112572   5.559   4.448   4.308
 3891SOL    HW212573   5.483   4.419   4.167
 3892SOL     OW12574   0.303   2.430   1.271
 3892SOL    HW112575   0.351   2.344   1.254
 3892SOL    HW212576   0.279   2.437   1.368
 3893SOL     OW12577   3.509   5.359   0.857
 3893SOL    HW112578   3.439   5.417   0.817
 3893SOL    HW212579   3.566   5.320   0.785
 3894SOL     OW12580   2.613   2.121   1.184
 3894SOL    HW112581   2.551   2.199   1.175
 3894SOL    HW212582   2.561   2.040   1.211
 3895SOL     OW12583   1.733   0.453   4.868
 3895SOL    HW112584   1.761   0.433   4.962
 3895SOL    HW212585   1.748   0.373   4.810
 3896SOL     OW12586   0.585   1.760   6.473
 3896SOL    HW112587   0.612   1.784   6.379
 3896SOL    HW212588   0.497   1.802   6.494
 3897SOL     OW12589   3.613   6.338   2.247
 3897SOL    HW112590   3.544   6.313   2.316
 3897SOL    HW212591   3.703   6.307   2.277
 3898SOL     OW12592   3.595   3.230   4.114
 3898SOL    HW112593   3.521   3.289   4.080
 3898SOL    HW212594   3.587   3.221   4.213
 3899SOL     OW12595   4.985   0.631   4.417
 3899SOL    HW112596   4.901   0.607   4.369
 3899SOL    HW212597   4.969   0.627   4.516
 3900SOL     OW12598   4.992   2.698   3.859
 3900SOL    HW112599   5.047   2.619   3.831
 3900SOL    HW212600   4.986   2.701   3.959
 3901SOL     OW12601   3.064   6.325   5.189
 3901SOL    HW112602   3.049   6.402   5.128
 3901SOL    HW212603   3.127   6.352   5.262
 3902SOL     OW12604   6.155   3.734   1.737
 3902SOL    HW112605   6.167   3.823   1.693
 3902SOL    HW212606   6.062   3.727   1.774
 3903SOL     OW12607   4.904   4.731   0.069
 3903SOL    HW112608   4.884   4.673   7.016
 3903SOL    HW212609   4.895   4.827   0.044
 3904SOL     OW12610   2.224   6.652   5.666
 3904SOL    HW112611   2.204   6.554   5.670
 3904SOL    HW212612   2.294   6.674   5.734
 3905SOL     OW12613   5.736   7.000   5.662
 3905SOL    HW112614   5.782   6.945   5.593
 3905SOL    HW212615   5.803   0.029   5.711
 3906SOL     OW12616   2.686   5.540   5.308
 3906SOL    HW112617   2.659   5.626   5.351
 3906SOL    HW212618   2.732   5.482   5.375
 3907SOL     OW12619   6.771   6.610   5.327
 3907SOL    HW112620   6.682   6.656   5.338
 3907SOL    HW212621   6.785   6.547   5.403
 3908SOL     OW12622   1.725   1.079   6.821
 3908SOL    HW112623   1.812   1.079   6.773
 3908SOL    HW212624   1.733   1.132   6.905
 3909SOL     OW12625   0.194   5.095   6.153
 3909SOL    HW112626   0.267   5.067   6.089
 3909SOL    HW212627   0.115   5.035   6.141
 3910SOL     OW12628   3.523   4.281   1.792
 3910SOL    HW112629   3.573   4.287   1.877
 3910SOL    HW212630   3.490   4.187   1.779
 3911SOL     OW12631   4.411   1.590   0.227
 3911SOL    HW112632   4.387   1.684   0.248
 3911SOL    HW212633   4.401   1.575   0.128
 3912SOL     OW12634   3.817   1.489   6.319
 3912SOL    HW112635   3.746   1.418   6.329
 3912SOL    HW212636   3.896   1.464   6.374
 3913SOL     OW12637   2.924   6.060   6.638
 3913SOL    HW112638   2.839   6.098   6.602
 3913SOL    HW212639   3.002   6.101   6.590
 3914SOL     OW12640   5.049   1.024   1.077
 3914SOL    HW112641   5.121   1.065   1.022
 3914SOL    HW212642   4.961   1.037   1.031
 3915SOL     OW12643   4.269   6.072   0.959
 3915SOL    HW112644   4.333   6.148   0.946
 3915SOL    HW212645   4.290   6.026   1.046
 3916SOL     OW12646   1.842   6.401   2.466
 3916SOL    HW112647   1.805   6.477   2.518
 3916SOL    HW212648   1.889   6.337   2.527
 3917SOL     OW12649   1.260   4.960   0.293
 3917SOL    HW112650   1.351   4.928   0.269
 3917SOL    HW212651   1.267   5.037   0.357
 3918SOL     OW12652   4.284   6.346   2.213
 3918SOL    HW112653   4.214   6.337   2.143
 3918SOL    HW212654   4.307   6.442   2.225
 3919SOL     OW12655   3.414   6.958   6.754
 3919SOL    HW112656   3.381   6.981   6.663
 3919SOL    HW212657   3.340   6.971   6.821
 3920SOL     OW12658   2.657   2.001   6.716
 3920SOL    HW112659   2.756   2.005   6.726
 3920SOL    HW212660   2.630   2.042   6.629
 3921SOL     OW12661   0.541   3.379   0.303
 3921SOL    HW112662   0.455   3.335   0.278
 3921SOL    HW212663   0.613   3.310   0.308
 3922SOL     OW12664   4.668   4.986   0.534
 3922SOL    HW112665   4.606   4.916   0.499
 3922SOL    HW212666   4.639   5.014   0.626
 3923SOL     OW12667   6.256   1.905   6.943
 3923SOL    HW112668   6.330   1.956   6.898
 3923SOL    HW212669   6.211   1.964   7.010
 3924SOL     OW12670   0.459   4.877   3.146
 3924SOL    HW112671   0.472   4.838   3.237
 3924SOL    HW212672   0.369   4.850   3.111
 3925SOL     OW12673   4.293   3.989   0.751
 3925SOL    HW112674   4.313   3.942   0.837
 3925SOL    HW212675   4.333   4.080   0.752
 3926SOL     OW12676   6.930   6.480   4.084
 3926SOL    HW112677   6.997   6.554   4.084
 3926SOL    HW212678   6.870   6.490   4.163
 3927SOL     OW12679   0.207   2.997   4.404
 3927SOL    HW112680   0.110   2.975   4.415
 3927SOL    HW212681   0.234   3.065   4.473
 3928SOL     OW12682   3.877   5.553   4.678
 3928SOL    HW112683   3.899   5.518   4.770
 3928SOL    HW212684   3.917   5.492   4.609
 3929SOL     OW12685   0.317   1.985   6.947
 3929SOL    HW112686   0.309   2.063   7.009
 3929SOL    HW212687   0.243   1.988   6.880
 3930SOL     OW12688   1.407   1.989   3.443
 3930SOL    HW112689   1.472   1.919   3.416
 3930SOL    HW212690   1.396   2.055   3.368
 3931SOL     OW12691   2.103   1.776   2.095
 3931SOL    HW112692   2.166   1.789   2.172
 3931SOL    HW212693   2.058   1.863   2.074
 3932SOL     OW12694   1.861   4.233   3.570
 3932SOL    HW112695   1.951   4.257   3.606
 3932SOL    HW212696   1.790   4.280   3.622
 3933SOL     OW12697   1.873   0.047   0.047
 3933SOL    HW112698   1.866   0.135   7.026
 3933SOL    HW212699   1.788   7.022   0.035
 3934SOL     OW12700   0.284   0.904   2.094
 3934SOL    HW112701   0.377   0.869   2.100
 3934SOL    HW212702   0.279   0.995   2.135
 3935SOL     OW12703   1.734   0.789   5.172
 3935SOL    HW112704   1.777   0.860   5.227
 3935SOL    HW212705   1.669   0.831   5.109
 3936SOL     OW12706   6.933   6.362   5.287
 3936SOL    HW112707   6.879   6.444   5.270
 3936SOL    HW212708   6.872   6.282   5.288
 3937SOL     OW12709   0.325   6.771   2.877
 3937SOL    HW112710   0.373   6.697   2.831
 3937SOL    HW212711   0.271   6.734   2.953
 3938SOL     OW12712   5.958   2.793   3.684
 3938SOL    HW112713   6.010   2.710   3.664
 3938SOL    HW212714   5.862   2.779   3.659
 3939SOL     OW12715   3.016   2.039   3.199
 3939SOL    HW112716   2.918   2.023   3.206
 3939SOL    HW212717   3.034   2.114   3.135
 3940SOL     OW12718   3.675   4.865   2.293
 3940SOL    HW112719   3.635   4.839   2.205
 3940SOL    HW212720   3.602   4.878   2.360
 3941SOL     OW12721   6.284   0.581   4.954
 3941SOL    HW112722   6.204   0.616   4.905
 3941SOL    HW212723   6.353   0.552   4.889
 3942SOL     OW12724   0.854   6.579   5.719
 3942SOL    HW112725   0.918   6.591   5.644
 3942SOL    HW212726   0.835   6.667   5.763
 3943SOL     OW12727   0.850   3.454   2.453
 3943SOL    HW112728   0.763   3.488   2.490
 3943SOL    HW212729   0.839   3.359   2.424
 3944SOL     OW12730   5.833   3.807   5.588
 3944SOL    HW112731   5.790   3.779   5.674
 3944SOL    HW212732   5.779   3.771   5.512
 3945SOL     OW12733   0.932   2.571   2.634
 3945SOL    HW112734   0.841   2.576   2.676
 3945SOL    HW212735   0.934   2.494   2.569
 3946SOL     OW12736   6.464   4.001   6.216
 3946SOL    HW112737   6.513   3.949   6.287
 3946SOL    HW212738   6.367   3.976   6.218
 3947SOL     OW12739   5.553   5.622   1.311
 3947SOL    HW112740   5.565   5.681   1.391
 3947SOL    HW212741   5.605   5.538   1.324
 3948SOL     OW12742   0.276   5.038   0.599
 3948SOL    HW112743   0.292   5.119   0.542
 3948SOL    HW212744   0.362   5.010   0.642
 3949SOL     OW12745   6.148   6.667   3.064
 3949SOL    HW112746   6.202   6.667   2.980
 3949SOL    HW212747   6.101   6.579   3.073
 3950SOL     OW12748   3.264   4.115   1.233
 3950SOL    HW112749   3.308   4.081   1.316
 3950SOL    HW212750   3.330   4.113   1.157
 3951SOL     OW12751   0.216   0.478   6.942
 3951SOL    HW112752   0.121   0.468   6.911
 3951SOL    HW212753   0.259   0.552   6.891
 3952SOL     OW12754   6.026   3.298   4.904
 3952SOL    HW112755   6.094   3.307   4.832
 3952SOL    HW212756   6.066   3.325   4.991
 3953SOL     OW12757   3.466   4.785   0.240
 3953SOL    HW112758   3.517   4.738   0.313
 3953SOL    HW212759   3.393   4.840   0.281
 3954SOL     OW12760   5.813   5.565   5.529
 3954SOL    HW112761   5.884   5.505   5.567
 3954SOL    HW212762   5.785   5.531   5.440
 3955SOL     OW12763   4.535   6.753   6.767
 3955SOL    HW112764   4.471   6.703   6.826
 3955SOL    HW212765   4.494   6.840   6.740
 3956SOL     OW12766   1.485   1.821   4.433
 3956SOL    HW112767   1.575   1.795   4.399
 3956SOL    HW212768   1.437   1.875   4.364
 3957SOL     OW12769   4.261   6.767   3.667
 3957SOL    HW112770   4.262   6.775   3.767
 3957SOL    HW212771   4.327   6.698   3.638
 3958SOL     OW12772   5.711   0.306   6.164
 3958SOL    HW112773   5.784   0.352   6.215
 3958SOL    HW212774   5.727   0.207   6.166
 3959SOL     OW12775   3.453   6.649   0.694
 3959SOL    HW112776   3.513   6.727   0.673
 3959SOL    HW212777   3.475   6.614   0.785
 3960SOL     OW12778   5.932   1.863   6.006
 3960SOL    HW112779   5.907   1.920   6.084
 3960SOL    HW212780   5.979   1.780   6.038
 3961SOL     OW12781   5.318   2.877   2.577
 3961SOL    HW112782   5.348   2.837   2.491
 3961SOL    HW212783   5.219   2.875   2.583
 3962SOL     OW12784   1.568   5.874   6.649
 3962SOL    HW112785   1.468   5.868   6.652
 3962SOL    HW212786   1.594   5.966   6.621
 3963SOL     OW12787   4.911   5.087   3.781
 3963SOL    HW112788   4.823   5.078   3.735
 3963SOL    HW212789   4.912   5.029   3.862
 3964SOL     OW12790   4.188   4.843   5.004
 3964SOL    HW112791   4.201   4.901   4.923
 3964SOL    HW212792   4.238   4.758   4.993
 3965SOL     OW12793   4.046   3.740   6.607
 3965SOL    HW112794   4.130   3.754   6.660
 3965SOL    HW212795   4.059   3.777   6.515
 3966SOL     OW12796   6.771   5.107   6.921
 3966SOL    HW112797   6.757   5.019   6.876
 3966SOL    HW212798   6.683   5.143   6.952
 3967SOL     OW12799   1.281   4.810   2.600
 3967SOL    HW112800   1.214   4.738   2.579
 3967SOL    HW212801   1.372   4.781   2.571
 3968SOL     OW12802   6.634   0.565   0.713
 3968SOL    HW112803   6.713   0.504   0.721
 3968SOL    HW212804   6.637   0.633   0.786
 3969SOL     OW12805   0.392   3.904   3.096
 3969SOL    HW112806   0.374   3.997   3.129
 3969SOL    HW212807   0.398   3.904   2.996
 3970SOL     OW12808   4.486   5.374   3.935
 3970SOL    HW112809   4.441   5.447   3.883
 3970SOL    HW212810   4.508   5.298   3.873
 3971SOL     OW12811   2.140   4.676   2.456
 3971SOL    HW112812   2.148   4.592   2.510
 3971SOL    HW212813   2.054   4.722   2.478
 3972SOL     OW12814   1.966   5.262   1.619
 3972SOL    HW112815   1.923   5.250   1.708
 3972SOL    HW212816   2.043   5.325   1.627
 3973SOL     OW12817   2.496   4.193   5.574
 3973SOL    HW112818   2.533   4.283   5.601
 3973SOL    HW212819   2.410   4.177   5.623
 3974SOL     OW12820   2.140   0.973   5.582
 3974SOL    HW112821   2.196   0.936   5.655
 3974SOL    HW212822   2.043   0.958   5.602
 3975SOL     OW12823   5.964   0.188   6.338
 3975SOL    HW112824   5.961   0.246   6.419
 3975SOL    HW212825   5.955   0.092   6.366
 3976SOL     OW12826   2.213   4.612   1.012
 3976SOL    HW112827   2.138   4.545   1.006
 3976SOL    HW212828   2.192   4.679   1.083
 3977SOL     OW12829   2.835   4.543   5.529
 3977SOL    HW112830   2.914   4.582   5.576
 3977SOL    HW212831   2.855   4.449   5.503
 3978SOL     OW12832   5.629   0.651   4.350
 3978SOL    HW112833   5.560   0.693   4.409
 3978SOL    HW212834   5.713   0.636   4.402
 3979SOL     OW12835   2.367   6.328   1.169
 3979SOL    HW112836   2.409   6.271   1.240
 3979SOL    HW212837   2.361   6.276   1.084
 3980SOL     OW12838   7.007   4.364   6.220
 3980SOL    HW112839   6.957   4.414   6.290
 3980SOL    HW212840   7.024   4.270   6.252
 3981SOL     OW12841   1.721   1.826   6.609
 3981SOL    HW112842   1.631   1.834   6.653
 3981SOL    HW212843   1.715   1.762   6.532
 3982SOL     OW12844   2.331   0.498   4.174
 3982SOL    HW112845   2.260   0.550   4.126
 3982SOL    HW212846   2.289   0.437   4.240
 3983SOL     OW12847   3.979   5.751   4.417
 3983SOL    HW112848   3.985   5.727   4.514
 3983SOL    HW212849   3.884   5.767   4.393
 3984SOL     OW12850   2.063   0.238   2.644
 3984SOL    HW112851   2.073   0.308   2.574
 3984SOL    HW212852   2.048   0.149   2.601
 3985SOL     OW12853   2.606   4.776   6.880
 3985SOL    HW112854   2.533   4.737   6.825
 3985SOL    HW212855   2.568   4.820   6.961
 3986SOL     OW12856   6.759   1.698   3.159
 3986SOL    HW112857   6.793   1.735   3.073
 3986SOL    HW212858   6.823   1.629   3.193
 3987SOL     OW12859   1.796   5.971   4.788
 3987SOL    HW112860   1.711   5.952   4.739
 3987SOL    HW212861   1.783   5.956   4.886
 3988SOL     OW12862   3.967   2.826   5.603
 3988SOL    HW112863   4.016   2.907   5.571
 3988SOL    HW212864   4.005   2.744   5.560
 3989SOL     OW12865   6.325   1.361   0.269
 3989SOL    HW112866   6.369   1.436   0.219
 3989SOL    HW212867   6.306   1.390   0.362
 3990SOL     OW12868   6.004   1.669   4.115
 3990SOL    HW112869   5.951   1.627   4.041
 3990SOL    HW212870   6.094   1.627   4.119
 3991SOL     OW12871   5.789   1.621   2.081
 3991SOL    HW112872   5.807   1.522   2.087
 3991SOL    HW212873   5.770   1.657   2.172
 3992SOL     OW12874   3.810   2.255   6.458
 3992SOL    HW112875   3.891   2.314   6.461
 3992SOL    HW212876   3.788   2.224   6.550
 3993SOL     OW12877   1.101   1.997   3.289
 3993SOL    HW112878   1.100   1.999   3.389
 3993SOL    HW212879   1.028   2.054   3.254
 3994SOL     OW12880   1.625   2.908   5.959
 3994SOL    HW112881   1.565   2.853   6.017
 3994SOL    HW212882   1.700   2.945   6.015
 3995SOL     OW12883   2.298   4.225   4.509
 3995SOL    HW112884   2.271   4.182   4.595
 3995SOL    HW212885   2.226   4.287   4.479
 3996SOL     OW12886   1.221   0.777   4.606
 3996SOL    HW112887   1.284   0.731   4.669
 3996SOL    HW212888   1.250   0.871   4.592
 3997SOL     OW12889   4.821   2.767   2.949
 3997SOL    HW112890   4.766   2.753   3.031
 3997SOL    HW212891   4.855   2.861   2.948
 3998SOL     OW12892   4.884   1.502   2.416
 3998SOL    HW112893   4.918   1.470   2.505
 3998SOL    HW212894   4.809   1.443   2.386
 3999SOL     OW12895   5.313   3.485   3.404
 3999SOL    HW112896   5.366   3.417   3.455
 3999SOL    HW212897   5.314   3.572   3.452
 4000SOL     OW12898   3.667   5.646   2.912
 4000SOL    HW112899   3.568   5.634   2.902
 4000SOL    HW212900   3.702   5.578   2.977
 4001SOL     OW12901   1.404   2.724   4.270
 4001SOL    HW112902   1.440   2.677   4.350
 4001SOL    HW212903   1.304   2.731   4.278
 4002SOL     OW12904   2.496   3.058   0.276
 4002SOL    HW112905   2.426   3.007   0.227
 4002SOL    HW212906   2.469   3.154   0.283
 4003SOL     OW12907   2.762   6.897   5.811
 4003SOL    HW112908   2.805   6.978   5.852
 4003SOL    HW212909   2.671   6.921   5.777
 4004SOL     OW12910   6.161   2.551   3.861
 4004SOL    HW112911   6.252   2.551   3.902
 4004SOL    HW212912   6.091   2.563   3.931
 4005SOL     OW12913   5.085   5.218   1.228
 4005SOL    HW112914   5.063   5.315   1.221
 4005SOL    HW212915   5.185   5.207   1.229
 4006SOL     OW12916   4.261   4.568   1.824
 4006SOL    HW112917   4.219   4.656   1.845
 4006SOL    HW212918   4.208   4.522   1.753
 4007SOL     OW12919   0.684   3.256   1.696
 4007SOL    HW112920   0.724   3.182   1.642
 4007SOL    HW212921   0.619   3.306   1.639
 4008SOL     OW12922   3.482   1.832   4.554
 4008SOL    HW112923   3.475   1.744   4.508
 4008SOL    HW212924   3.406   1.891   4.526
 4009SOL     OW12925   4.809   2.708   0.576
 4009SOL    HW112926   4.749   2.680   0.651
 4009SOL    HW212927   4.870   2.631   0.553
 4010SOL     OW12928   1.956   3.756   1.291
 4010SOL    HW112929   1.938   3.828   1.359
 4010SOL    HW212930   2.049   3.722   1.303
 4011SOL     OW12931   1.044   0.062   1.900
 4011SOL    HW112932   1.026   0.049   1.998
 4011SOL    HW212933   1.001   7.015   1.848
 4012SOL     OW12934   4.385   4.554   1.046
 4012SOL    HW112935   4.317   4.517   1.109
 4012SOL    HW212936   4.340   4.611   0.978
 4013SOL     OW12937   2.877   0.365   0.988
 4013SOL    HW112938   2.835   0.276   0.976
 4013SOL    HW212939   2.849   0.404   1.076
 4014SOL     OW12940   4.036   5.662   3.684
 4014SOL    HW112941   3.957   5.634   3.630
 4014SOL    HW212942   4.071   5.583   3.736
 4015SOL     OW12943   3.884   5.585   5.795
 4015SOL    HW112944   3.975   5.544   5.796
 4015SOL    HW212945   3.869   5.634   5.881
 4016SOL     OW12946   1.018   5.439   6.658
 4016SOL    HW112947   1.057   5.469   6.571
 4016SOL    HW212948   1.081   5.374   6.702
 4017SOL     OW12949   0.024   6.849   0.275
 4017SOL    HW112950   0.037   6.773   0.212
 4017SOL    HW212951   6.997   6.921   0.230
 4018SOL     OW12952   5.736   6.197   1.894
 4018SOL    HW112953   5.637   6.214   1.892
 4018SOL    HW212954   5.770   6.206   1.987
 4019SOL     OW12955   5.843   3.379   2.208
 4019SOL    HW112956   5.826   3.281   2.193
 4019SOL    HW212957   5.939   3.399   2.188
 4020SOL     OW12958   6.300   2.508   5.993
 4020SOL    HW112959   6.361   2.576   6.033
 4020SOL    HW212960   6.306   2.422   6.044
 4021SOL     OW12961   3.276   3.837   5.854
 4021SOL    HW112962   3.211   3.785   5.799
 4021SOL    HW212963   3.368   3.804   5.836
 4022SOL     OW12964   4.148   0.163   6.811
 4022SOL    HW112965   4.055   0.127   6.803
 4022SOL    HW212966   4.194   0.121   6.890
 4023SOL     OW12967   6.847   0.700   4.144
 4023SOL    HW112968   6.876   0.652   4.062
 4023SOL    HW212969   6.769   0.758   4.123
 4024SOL     OW12970   2.694   5.128   4.343
 4024SOL    HW112971   2.659   5.062   4.409
 4024SOL    HW212972   2.788   5.154   4.368
 4025SOL     OW12973   0.071   6.132   4.987
 4025SOL    HW112974   0.078   6.123   5.087
 4025SOL    HW212975   0.091   6.045   4.944
 4026SOL     OW12976   6.775   6.945   3.284
 4026SOL    HW112977   6.729   6.904   3.364
 4026SOL    HW212978   6.857   6.994   3.314
 4027SOL     OW12979   2.817   2.987   1.140
 4027SOL    HW112980   2.843   2.893   1.119
 4027SOL    HW212981   2.894   3.034   1.183
 4028SOL     OW12982   2.648   2.294   2.848
 4028SOL    HW112983   2.595   2.375   2.823
 4028SOL    HW212984   2.605   2.248   2.926
 4029SOL     OW12985   2.840   4.643   6.164
 4029SOL    HW112986   2.762   4.607   6.214
 4029SOL    HW212987   2.871   4.728   6.206
 4030SOL     OW12988   0.910   1.918   0.330
 4030SOL    HW112989   0.934   2.013   0.311
 4030SOL    HW212990   0.842   1.914   0.403
 4031SOL     OW12991   4.917   6.802   3.260
 4031SOL    HW112992   4.849   6.740   3.220
 4031SOL    HW212993   5.009   6.768   3.242
 4032SOL     OW12994   6.389   0.293   2.378
 4032SOL    HW112995   6.423   0.208   2.337
 4032SOL    HW212996   6.443   0.315   2.459
 4033SOL     OW12997   2.847   3.567   2.125
 4033SOL    HW112998   2.871   3.645   2.068
 4033SOL    HW212999   2.768   3.519   2.086
 4034SOL     OW13000   0.069   1.307   4.997
 4034SOL    HW113001   0.071   1.402   4.967
 4034SOL    HW213002   7.018   1.260   4.955
 4035SOL     OW13003   0.078   2.522   0.810
 4035SOL    HW113004   0.027   2.588   0.865
 4035SOL    HW213005   0.019   2.445   0.789
 4036SOL     OW13006   5.256   6.550   2.431
 4036SOL    HW113007   5.162   6.538   2.461
 4036SOL    HW213008   5.319   6.525   2.504
 4037SOL     OW13009   2.114   1.218   0.923
 4037SOL    HW113010   2.083   1.310   0.898
 4037SOL    HW213011   2.128   1.164   0.840
 4038SOL     OW13012   4.320   4.229   1.640
 4038SOL    HW113013   4.345   4.158   1.575
 4038SOL    HW213014   4.370   4.215   1.725
 4039SOL     OW13015   4.633   4.452   1.566
 4039SOL    HW113016   4.615   4.484   1.659
 4039SOL    HW213017   4.600   4.358   1.556
 4040SOL     OW13018   3.498   0.382   5.931
 4040SOL    HW113019   3.573   0.421   5.878
 4040SOL    HW213020   3.453   0.454   5.984
 4041SOL     OW13021   2.370   5.162   1.287
 4041SOL    HW113022   2.452   5.124   1.329
 4041SOL    HW213023   2.353   5.115   1.200
 4042SOL     OW13024   6.055   5.436   2.620
 4042SOL    HW113025   6.142   5.422   2.668
 4042SOL    HW213026   6.009   5.348   2.610
 4043SOL     OW13027   5.042   2.461   4.669
 4043SOL    HW113028   4.953   2.419   4.650
 4043SOL    HW213029   5.113   2.391   4.664
 4044SOL     OW13030   4.561   0.433   3.700
 4044SOL    HW113031   4.508   0.517   3.696
 4044SOL    HW213032   4.500   0.354   3.702
 4045SOL     OW13033   2.803   4.968   6.050
 4045SOL    HW113034   2.843   4.902   5.986
 4045SOL    HW213035   2.769   5.047   5.999
 4046SOL     OW13036   0.788   1.335   3.628
 4046SOL    HW113037   0.695   1.302   3.645
 4046SOL    HW213038   0.785   1.418   3.573
 4047SOL     OW13039   1.905   2.235   0.337
 4047SOL    HW113040   1.898   2.178   0.419
 4047SOL    HW213041   1.878   2.182   0.257
 4048SOL     OW13042   5.233   2.360   2.234
 4048SOL    HW113043   5.245   2.344   2.136
 4048SOL    HW213044   5.144   2.325   2.263
 4049SOL     OW13045   6.232   5.928   6.730
 4049SOL    HW113046   6.177   6.012   6.734
 4049SOL    HW213047   6.264   5.914   6.636
 4050SOL     OW13048   1.578   6.614   0.609
 4050SOL    HW113049   1.539   6.530   0.570
 4050SOL    HW213050   1.508   6.685   0.613
 4051SOL     OW13051   3.514   2.849   7.019
 4051SOL    HW113052   3.420   2.832   6.989
 4051SOL    HW213053   3.546   2.773   0.048
 4052SOL     OW13054   0.233   0.775   2.333
 4052SOL    HW113055   0.243   0.787   2.234
 4052SOL    HW213056   0.195   0.858   2.373
 4053SOL     OW13057   2.717   5.307   4.088
 4053SOL    HW113058   2.697   5.229   4.148
 4053SOL    HW213059   2.716   5.391   4.143
 4054SOL     OW13060   0.123   3.235   1.893
 4054SOL    HW113061   0.071   3.270   1.815
 4054SOL    HW213062   0.202   3.293   1.910
 4055SOL     OW13063   4.032   3.481   6.332
 4055SOL    HW113064   3.977   3.492   6.249
 4055SOL    HW213065   3.976   3.500   6.412
 4056SOL     OW13066   4.021   3.614   0.803
 4056SOL    HW113067   4.045   3.711   0.814
 4056SOL    HW213068   4.099   3.558   0.832
 4057SOL     OW13069   5.392   2.240   1.493
 4057SOL    HW113070   5.312   2.186   1.470
 4057SOL    HW213071   5.364   2.330   1.527
 4058SOL     OW13072   1.938   0.437   3.931
 4058SOL    HW113073   1.856   0.384   3.950
 4058SOL    HW213074   1.914   0.533   3.920
 4059SOL     OW13075   0.908   2.838   3.612
 4059SOL    HW113076   0.846   2.826   3.690
 4059SOL    HW213077   0.908   2.754   3.557
 4060SOL     OW13078   4.710   5.500   4.786
 4060SOL    HW113079   4.805   5.487   4.814
 4060SOL    HW213080   4.663   5.559   4.851
 4061SOL     OW13081   3.311   5.093   1.743
 4061SOL    HW113082   3.243   5.071   1.812
 4061SOL    HW213083   3.340   5.189   1.754
 4062SOL     OW13084   2.958   1.542   3.085
 4062SOL    HW113085   2.910   1.629   3.090
 4062SOL    HW213086   2.945   1.492   3.170
 4063SOL     OW13087   5.982   6.735   5.081
 4063SOL    HW113088   6.057   6.699   5.026
 4063SOL    HW213089   5.941   6.813   5.033
 4064SOL     OW13090   2.032   6.400   3.482
 4064SOL    HW113091   2.079   6.480   3.521
 4064SOL    HW213092   2.009   6.419   3.386
 4065SOL     OW13093   0.405   6.391   0.764
 4065SOL    HW113094   0.335   6.456   0.794
 4065SOL    HW213095   0.443   6.420   0.677
 4066SOL     OW13096   5.031   5.224   2.727
 4066SOL    HW113097   5.009   5.128   2.714
 4066SOL    HW213098   4.977   5.280   2.664
 4067SOL     OW13099   5.745   3.014   2.868
 4067SOL    HW113100   5.667   3.075   2.856
 4067SOL    HW213101   5.714   2.927   2.906
 4068SOL     OW13102   3.507   0.416   4.500
 4068SOL    HW113103   3.445   0.493   4.484
 4068SOL    HW213104   3.563   0.401   4.419
 4069SOL     OW13105   4.069   4.688   6.100
 4069SOL    HW113106   4.020   4.712   6.184
 4069SOL    HW213107   4.063   4.590   6.085
 4070SOL     OW13108   0.446   3.606   1.923
 4070SOL    HW113109   0.353   3.643   1.920
 4070SOL    HW213110   0.496   3.635   1.842
 4071SOL     OW13111   1.421   0.974   5.323
 4071SOL    HW113112   1.450   0.917   5.400
 4071SOL    HW213113   1.500   0.995   5.265
 4072SOL     OW13114   1.030   6.039   4.133
 4072SOL    HW113115   1.010   6.135   4.114
 4072SOL    HW213116   1.033   5.988   4.047
 4073SOL     OW13117   2.629   5.589   6.058
 4073SOL    HW113118   2.570   5.597   5.977
 4073SOL    HW213119   2.650   5.680   6.092
 4074SOL     OW13120   0.891   2.808   2.144
 4074SOL    HW113121   0.948   2.725   2.143
 4074SOL    HW213122   0.948   2.887   2.164
 4075SOL     OW13123   3.645   2.069   2.568
 4075SOL    HW113124   3.677   2.015   2.646
 4075SOL    HW213125   3.594   2.148   2.601
 4076SOL     OW13126   2.401   3.724   5.626
 4076SOL    HW113127   2.313   3.701   5.582
 4076SOL    HW213128   2.476   3.700   5.565
 4077SOL     OW13129   3.587   6.801   0.305
 4077SOL    HW113130   3.511   6.859   0.334
 4077SOL    HW213131   3.553   6.727   0.247
 4078SOL     OW13132   6.346   5.318   2.152
 4078SOL    HW113133   6.403   5.389   2.113
 4078SOL    HW213134   6.283   5.359   2.219
 4079SOL     OW13135   0.284   1.995   3.340
 4079SOL    HW113136   0.197   1.986   3.292
 4079SOL    HW213137   0.271   1.970   3.436
 4080SOL     OW13138   2.493   3.500   0.567
 4080SOL    HW113139   2.553   3.498   0.487
 4080SOL    HW213140   2.404   3.536   0.541
 4081SOL     OW13141   1.454   2.030   3.703
 4081SOL    HW113142   1.430   2.040   3.606
 4081SOL    HW213143   1.494   1.939   3.717
 4082SOL     OW13144   1.712   2.528   1.152
 4082SOL    HW113145   1.614   2.530   1.168
 4082SOL    HW213146   1.757   2.478   1.225
 4083SOL     OW13147   5.944   4.446   2.448
 4083SOL    HW113148   5.947   4.350   2.476
 4083SOL    HW213149   5.851   4.481   2.460
 4084SOL     OW13150   4.583   2.129   3.210
 4084SOL    HW113151   4.636   2.049   3.237
 4084SOL    HW213152   4.620   2.210   3.255
 4085SOL     OW13153   2.412   5.697   0.966
 4085SOL    HW113154   2.372   5.609   0.941
 4085SOL    HW213155   2.475   5.727   0.894
 4086SOL     OW13156   0.001   4.791   1.217
 4086SOL    HW113157   0.076   4.810   1.154
 4086SOL    HW213158   6.974   4.874   1.232
 4087SOL     OW13159   1.911   1.484   2.889
 4087SOL    HW113160   1.957   1.459   2.974
 4087SOL    HW213161   1.852   1.564   2.906
 4088SOL     OW13162   6.368   0.989   6.820
 4088SOL    HW113163   6.317   1.060   6.772
 4088SOL    HW213164   6.451   1.029   6.859
 4089SOL     OW13165   6.232   4.686   4.345
 4089SOL    HW113166   6.293   4.724   4.275
 4089SOL    HW213167   6.280   4.684   4.433
 4090SOL     OW13168   1.912   5.818   5.488
 4090SOL    HW113169   1.982   5.764   5.535
 4090SOL    HW213170   1.849   5.756   5.440
 4091SOL     OW13171   0.351   6.092   0.037
 4091SOL    HW113172   0.325   6.132   6.976
 4091SOL    HW213173   0.287   6.123   0.108
 4092SOL     OW13174   5.704   2.723   3.660
 4092SOL    HW113175   5.634   2.656   3.637
 4092SOL    HW213176   5.719   2.723   3.759
 4093SOL     OW13177   5.384   6.586   1.550
 4093SOL    HW113178   5.390   6.486   1.553
 4093SOL    HW213179   5.318   6.617   1.619
 4094SOL     OW13180   1.244   4.647   6.181
 4094SOL    HW113181   1.232   4.666   6.279
 4094SOL    HW213182   1.209   4.724   6.128
 4095SOL     OW13183   0.122   3.828   0.410
 4095SOL    HW113184   0.045   3.777   0.374
 4095SOL    HW213185   0.157   3.783   0.493
 4096SOL     OW13186   4.032   0.413   6.649
 4096SOL    HW113187   4.051   0.365   6.734
 4096SOL    HW213188   3.999   0.347   6.581
 4097SOL     OW13189   4.881   4.585   4.821
 4097SOL    HW113190   4.814   4.511   4.821
 4097SOL    HW213191   4.970   4.550   4.792
 4098SOL     OW13192   1.104   2.191   1.466
 4098SOL    HW113193   1.193   2.216   1.504
 4098SOL    HW213194   1.045   2.272   1.461
 4099SOL     OW13195   3.874   5.377   0.871
 4099SOL    HW113196   3.812   5.446   0.908
 4099SOL    HW213197   3.951   5.422   0.826
 4100SOL     OW13198   0.539   7.022   4.518
 4100SOL    HW113199   0.443   7.023   4.546
 4100SOL    HW213200   0.545   6.997   4.421
 4101SOL     OW13201   0.426   0.919   0.119
 4101SOL    HW113202   0.331   0.929   0.090
 4101SOL    HW213203   0.434   0.945   0.215
 4102SOL     OW13204   1.369   0.905   1.006
 4102SOL    HW113205   1.387   1.001   1.029
 4102SOL    HW213206   1.395   0.847   1.083
 4103SOL     OW13207   0.549   6.713   1.473
 4103SOL    HW113208   0.529   6.664   1.388
 4103SOL    HW213209   0.485   6.685   1.543
 4104SOL     OW13210   0.191   4.518   3.145
 4104SOL    HW113211   0.280   4.476   3.126
 4104SOL    HW213212   0.196   4.616   3.127
 4105SOL     OW13213   6.132   0.288   2.981
 4105SOL    HW113214   6.176   0.370   2.944
 4105SOL    HW213215   6.085   0.239   2.907
 4106SOL     OW13216   6.940   3.284   3.462
 4106SOL    HW113217   0.006   3.320   3.459
 4106SOL    HW213218   6.893   3.317   3.544
 4107SOL     OW13219   1.079   5.816   0.414
 4107SOL    HW113220   1.122   5.728   0.398
 4107SOL    HW213221   1.052   5.823   0.510
 4108SOL     OW13222   6.497   5.018   4.299
 4108SOL    HW113223   6.546   5.092   4.346
 4108SOL    HW213224   6.548   4.933   4.308
 4109SOL     OW13225   6.579   0.202   4.846
 4109SOL    HW113226   6.556   0.168   4.938
 4109SOL    HW213227   6.498   0.195   4.787
 4110SOL     OW13228   4.117   3.808   6.314
 4110SOL    HW113229   4.215   3.806   6.333
 4110SOL    HW213230   4.102   3.825   6.217
 4111SOL     OW13231   5.905   4.788   6.277
 4111SOL    HW113232   5.945   4.723   6.211
 4111SOL    HW213233   5.904   4.747   6.368
 4112SOL     OW13234   4.749   6.017   4.546
 4112SOL    HW113235   4.835   6.065   4.526
 4112SOL    HW213236   4.708   5.984   4.461
 4113SOL     OW13237   5.395   5.379   4.964
 4113SOL    HW113238   5.391   5.454   5.029
 4113SOL    HW213239   5.303   5.361   4.927
 4114SOL     OW13240   4.340   2.091   3.771
 4114SOL    HW113241   4.306   2.019   3.833
 4114SOL    HW213242   4.307   2.180   3.802
 4115SOL     OW13243   3.252   4.871   2.547
 4115SOL    HW113244   3.210   4.781   2.547
 4115SOL    HW213245   3.214   4.926   2.473
 4116SOL     OW13246   4.061   1.590   3.065
 4116SOL    HW113247   4.129   1.654   3.028
 4116SOL    HW213248   3.969   1.620   3.038
 4117SOL     OW13249   0.946   3.355   2.685
 4117SOL    HW113250   0.920   3.374   2.590
 4117SOL    HW213251   0.967   3.440   2.732
 4118SOL     OW13252   5.287   6.621   0.208
 4118SOL    HW113253   5.328   6.531   0.221
 4118SOL    HW213254   5.206   6.613   0.150
 4119SOL     OW13255   2.849   1.355   3.984
 4119SOL    HW113256   2.920   1.284   3.976
 4119SOL    HW213257   2.812   1.354   4.077
 4120SOL     OW13258   3.385   1.049   5.599
 4120SOL    HW113259   3.303   1.027   5.546
 4120SOL    HW213260   3.459   1.074   5.536
 4121SOL     OW13261   6.826   0.243   3.900
 4121SOL    HW113262   6.825   0.278   3.994
 4121SOL    HW213263   6.916   0.204   3.880
 4122SOL     OW13264   1.570   6.724   4.503
 4122SOL    HW113265   1.543   6.813   4.540
 4122SOL    HW213266   1.496   6.658   4.518
 4123SOL     OW13267   4.189   4.620   5.376
 4123SOL    HW113268   4.193   4.647   5.473
 4123SOL    HW213269   4.112   4.557   5.362
 4124SOL     OW13270   6.470   6.192   0.386
 4124SOL    HW113271   6.533   6.254   0.340
 4124SOL    HW213272   6.412   6.244   0.449
 4125SOL     OW13273   4.203   2.153   2.737
 4125SOL    HW113274   4.135   2.130   2.667
 4125SOL    HW213275   4.291   2.112   2.713
 4126SOL     OW13276   1.810   3.416   3.236
 4126SOL    HW113277   1.799   3.317   3.249
 4126SOL    HW213278   1.805   3.462   3.325
 4127SOL     OW13279   5.930   3.494   5.255
 4127SOL    HW113280   6.025   3.460   5.258
 4127SOL    HW213281   5.868   3.418   5.272
 4128SOL     OW13282   0.949   3.190   1.366
 4128SOL    HW113283   1.021   3.259   1.373
 4128SOL    HW213284   0.897   3.204   1.281
 4129SOL     OW13285   3.321   0.961   6.815
 4129SOL    HW113286   3.268   0.876   6.814
 4129SOL    HW213287   3.414   0.942   6.845
 4130SOL     OW13288   6.341   2.514   0.738
 4130SOL    HW113289   6.309   2.592   0.685
 4130SOL    HW213290   6.422   2.474   0.692
 4131SOL     OW13291   0.223   1.225   3.075
 4131SOL    HW113292   0.218   1.298   3.144
 4131SOL    HW213293   0.262   1.143   3.117
 4132SOL     OW13294   4.966   4.240   3.660
 4132SOL    HW113295   4.940   4.151   3.622
 4132SOL    HW213296   4.905   4.310   3.623
 4133SOL     OW13297   3.352   5.898   1.410
 4133SOL    HW113298   3.297   5.976   1.442
 4133SOL    HW213299   3.368   5.908   1.312
 4134SOL     OW13300   1.936   3.911   1.060
 4134SOL    HW113301   2.019   3.965   1.048
 4134SOL    HW213302   1.951   3.844   1.133
 4135SOL     OW13303   0.657   2.513   2.188
 4135SOL    HW113304   0.636   2.449   2.261
 4135SOL    HW213305   0.572   2.554   2.154
 4136SOL     OW13306   1.427   3.342   2.972
 4136SOL    HW113307   1.447   3.383   3.061
 4136SOL    HW213308   1.411   3.244   2.983
 4137SOL     OW13309   1.621   3.313   1.154
 4137SOL    HW113310   1.587   3.349   1.241
 4137SOL    HW213311   1.721   3.318   1.153
 4138SOL     OW13312   4.138   5.650   2.466
 4138SOL    HW113313   4.081   5.730   2.483
 4138SOL    HW213314   4.234   5.678   2.469
 4139SOL     OW13315   1.649   1.289   5.282
 4139SOL    HW113316   1.568   1.323   5.330
 4139SOL    HW213317   1.632   1.288   5.184
 4140SOL     OW13318   3.541   0.868   5.216
 4140SOL    HW113319   3.634   0.875   5.178
 4140SOL    HW213320   3.520   0.951   5.267
 4141SOL     OW13321   4.953   6.198   1.248
 4141SOL    HW113322   4.991   6.170   1.336
 4141SOL    HW213323   5.009   6.270   1.209
 4142SOL     OW13324   6.533   4.878   0.991
 4142SOL    HW113325   6.621   4.832   0.999
 4142SOL    HW213326   6.546   4.969   0.950
 4143SOL     OW13327   5.498   2.584   1.421
 4143SOL    HW113328   5.449   2.579   1.334
 4143SOL    HW213329   5.567   2.511   1.424
 4144SOL     OW13330   5.192   1.690   0.302
 4144SOL    HW113331   5.236   1.764   0.353
 4144SOL    HW213332   5.262   1.639   0.252
 4145SOL     OW13333   0.324   6.649   1.631
 4145SOL    HW113334   0.254   6.632   1.702
 4145SOL    HW213335   0.294   6.724   1.572
 4146SOL     OW13336   6.645   0.281   3.443
 4146SOL    HW113337   6.588   0.212   3.400
 4146SOL    HW213338   6.700   0.239   3.515
 4147SOL     OW13339   4.300   4.916   5.993
 4147SOL    HW113340   4.351   4.830   5.993
 4147SOL    HW213341   4.311   4.962   5.905
 4148SOL     OW13342   2.353   0.298   4.514
 4148SOL    HW113343   2.270   0.298   4.458
 4148SOL    HW213344   2.433   0.292   4.454
 4149SOL     OW13345   0.157   4.530   1.097
 4149SOL    HW113346   0.205   4.501   1.180
 4149SOL    HW213347   0.174   4.628   1.081
 4150SOL     OW13348   1.120   0.919   5.890
 4150SOL    HW113349   1.135   0.820   5.891
 4150SOL    HW213350   1.067   0.946   5.971
 4151SOL     OW13351   3.204   6.282   5.806
 4151SOL    HW113352   3.190   6.255   5.901
 4151SOL    HW213353   3.124   6.333   5.774
 4152SOL     OW13354   4.141   5.872   1.837
 4152SOL    HW113355   4.116   5.809   1.763
 4152SOL    HW213356   4.166   5.961   1.797
 4153SOL     OW13357   5.682   5.375   1.351
 4153SOL    HW113358   5.681   5.293   1.294
 4153SOL    HW213359   5.688   5.348   1.448
 4154SOL     OW13360   0.027   5.038   4.184
 4154SOL    HW113361   0.010   5.086   4.270
 4154SOL    HW213362   0.118   5.061   4.150
 4155SOL     OW13363   0.116   0.747   1.159
 4155SOL    HW113364   0.165   0.667   1.126
 4155SOL    HW213365   0.180   0.822   1.174
 4156SOL     OW13366   5.930   5.775   4.895
 4156SOL    HW113367   5.908   5.843   4.965
 4156SOL    HW213368   5.894   5.804   4.807
 4157SOL     OW13369   5.372   5.705   4.590
 4157SOL    HW113370   5.274   5.693   4.603
 4157SOL    HW213371   5.388   5.760   4.507
 4158SOL     OW13372   0.973   3.084   1.814
 4158SOL    HW113373   0.977   3.059   1.717
 4158SOL    HW213374   0.890   3.047   1.855
 4159SOL     OW13375   1.720   2.953   3.224
 4159SOL    HW113376   1.762   3.040   3.248
 4159SOL    HW213377   1.621   2.959   3.238
 4160SOL     OW13378   5.329   0.722   0.083
 4160SOL    HW113379   5.377   0.809   0.092
 4160SOL    HW213380   5.384   0.649   0.124
 4161SOL     OW13381   1.043   2.069   0.717
 4161SOL    HW113382   1.108   2.145   0.713
 4161SOL    HW213383   1.012   2.057   0.811
 4162SOL     OW13384   6.476   5.813   0.535
 4162SOL    HW113385   6.532   5.751   0.481
 4162SOL    HW213386   6.524   5.900   0.547
 4163SOL     OW13387   5.228   0.338   3.667
 4163SOL    HW113388   5.194   0.254   3.624
 4163SOL    HW213389   5.314   0.319   3.714
 4164SOL     OW13390   1.848   6.774   5.693
 4164SOL    HW113391   1.933   6.786   5.745
 4164SOL    HW213392   1.820   6.678   5.697
 4165SOL     OW13393   4.465   0.545   5.971
 4165SOL    HW113394   4.535   0.512   5.907
 4165SOL    HW213395   4.496   0.632   6.010
 4166SOL     OW13396   5.655   1.454   0.369
 4166SOL    HW113397   5.728   1.522   0.360
 4166SOL    HW213398   5.643   1.406   0.282
 4167SOL     OW13399   2.472   4.603   6.720
 4167SOL    HW113400   2.407   4.556   6.778
 4167SOL    HW213401   2.425   4.643   6.641
 4168SOL     OW13402   0.367   4.403   0.925
 4168SOL    HW113403   0.340   4.496   0.948
 4168SOL    HW213404   0.440   4.405   0.857
 4169SOL     OW13405   5.630   5.255   4.483
 4169SOL    HW113406   5.645   5.163   4.516
 4169SOL    HW213407   5.700   5.316   4.520
 4170SOL     OW13408   4.573   3.229   6.581
 4170SOL    HW113409   4.506   3.177   6.528
 4170SOL    HW213410   4.558   3.214   6.678
 4171SOL     OW13411   6.323   5.788   0.744
 4171SOL    HW113412   6.269   5.873   0.742
 4171SOL    HW213413   6.366   5.774   0.655
 4172SOL     OW13414   1.800   1.780   6.355
 4172SOL    HW113415   1.796   1.796   6.257
 4172SOL    HW213416   1.840   1.860   6.401
 4173SOL     OW13417   5.198   3.619   4.889
 4173SOL    HW113418   5.212   3.647   4.984
 4173SOL    HW213419   5.281   3.575   4.854
 4174SOL     OW13420   4.418   1.215   2.778
 4174SOL    HW113421   4.445   1.311   2.776
 4174SOL    HW213422   4.363   1.194   2.697
 4175SOL     OW13423   1.968   5.232   4.500
 4175SOL    HW113424   2.025   5.229   4.582
 4175SOL    HW213425   2.018   5.276   4.426
 4176SOL     OW13426   3.669   6.304   1.963
 4176SOL    HW113427   3.575   6.333   1.947
 4176SOL    HW213428   3.697   6.331   2.055
 4177SOL     OW13429   5.997   5.399   5.638
 4177SOL    HW113430   5.993   5.310   5.592
 4177SOL    HW213431   5.981   5.386   5.736
 4178SOL     OW13432   3.929   6.478   4.182
 4178SOL    HW113433   3.873   6.396   4.170
 4178SOL    HW213434   3.875   6.559   4.161
 4179SOL     OW13435   5.472   3.306   3.140
 4179SOL    HW113436   5.519   3.229   3.183
 4179SOL    HW213437   5.455   3.286   3.044
 4180SOL     OW13438   4.182   3.884   0.529
 4180SOL    HW113439   4.215   3.932   0.610
 4180SOL    HW213440   4.198   3.939   0.448
 4181SOL     OW13441   3.775   0.935   0.014
 4181SOL    HW113442   3.839   0.972   6.974
 4181SOL    HW213443   3.738   1.010   0.069
 4182SOL     OW13444   0.698   6.408   3.457
 4182SOL    HW113445   0.691   6.317   3.498
 4182SOL    HW213446   0.791   6.422   3.423
 4183SOL     OW13447   2.810   1.381   0.262
 4183SOL    HW113448   2.826   1.461   0.205
 4183SOL    HW213449   2.820   1.405   0.358
 4184SOL     OW13450   3.904   6.700   2.321
 4184SOL    HW113451   3.959   6.634   2.371
 4184SOL    HW213452   3.883   6.664   2.230
 4185SOL     OW13453   0.974   4.838   3.157
 4185SOL    HW113454   1.070   4.813   3.171
 4185SOL    HW213455   0.916   4.761   3.184
 4186SOL     OW13456   2.920   4.741   0.279
 4186SOL    HW113457   3.003   4.685   0.276
 4186SOL    HW213458   2.842   4.687   0.246
 4187SOL     OW13459   3.725   3.540   5.429
 4187SOL    HW113460   3.812   3.569   5.389
 4187SOL    HW213461   3.736   3.524   5.527
 4188SOL     OW13462   5.588   0.759   5.055
 4188SOL    HW113463   5.632   0.770   5.144
 4188SOL    HW213464   5.657   0.766   4.983
 4189SOL     OW13465   3.576   4.923   5.309
 4189SOL    HW113466   3.643   4.850   5.323
 4189SOL    HW213467   3.536   4.914   5.218
 4190SOL     OW13468   0.933   0.262   0.736
 4190SOL    HW113469   0.961   0.242   0.642
 4190SOL    HW213470   0.985   0.204   0.799
 4191SOL     OW13471   5.073   4.524   3.709
 4191SOL    HW113472   4.997   4.480   3.661
 4191SOL    HW213473   5.072   4.622   3.691
 4192SOL     OW13474   0.518   1.153   4.019
 4192SOL    HW113475   0.577   1.229   3.991
 4192SOL    HW213476   0.445   1.141   3.951
 4193SOL     OW13477   6.904   1.341   1.408
 4193SOL    HW113478   6.990   1.381   1.438
 4193SOL    HW213479   6.828   1.390   1.449
 4194SOL     OW13480   6.105   0.133   4.408
 4194SOL    HW113481   6.019   0.094   4.375
 4194SOL    HW213482   6.146   0.070   4.475
 4195SOL     OW13483   3.803   6.692   1.404
 4195SOL    HW113484   3.816   6.791   1.403
 4195SOL    HW213485   3.787   6.660   1.310
 4196SOL     OW13486   6.282   2.070   2.310
 4196SOL    HW113487   6.192   2.113   2.308
 4196SOL    HW213488   6.279   1.986   2.364
 4197SOL     OW13489   4.915   5.417   5.745
 4197SOL    HW113490   4.875   5.411   5.837
 4197SOL    HW213491   5.000   5.364   5.743
 4198SOL     OW13492   6.067   2.255   6.825
 4198SOL    HW113493   6.138   2.256   6.895
 4198SOL    HW213494   6.012   2.172   6.835
 4199SOL     OW13495   2.050   2.662   6.179
 4199SOL    HW113496   1.952   2.644   6.184
 4199SOL    HW213497   2.100   2.585   6.219
 4200SOL     OW13498   3.661   0.631   5.913
 4200SOL    HW113499   3.581   0.677   5.873
 4200SOL    HW213500   3.728   0.699   5.941
 4201SOL     OW13501   6.598   0.068   3.858
 4201SOL    HW113502   6.535   0.087   3.783
 4201SOL    HW213503   6.669   0.138   3.861
 4202SOL     OW13504   3.670   5.738   5.085
 4202SOL    HW113505   3.670   5.824   5.137
 4202SOL    HW213506   3.727   5.748   5.004
 4203SOL     OW13507   3.749   4.999   6.934
 4203SOL    HW113508   3.711   4.915   6.895
 4203SOL    HW213509   3.676   5.065   6.949
 4204SOL     OW13510   4.110   3.642   3.179
 4204SOL    HW113511   4.139   3.625   3.085
 4204SOL    HW213512   4.036   3.710   3.180
 4205SOL     OW13513   4.051   5.751   3.145
 4205SOL    HW113514   3.961   5.709   3.155
 4205SOL    HW213515   4.094   5.719   3.061
 4206SOL     OW13516   6.851   0.879   5.884
 4206SOL    HW113517   6.912   0.910   5.811
 4206SOL    HW213518   6.879   0.921   5.971
 4207SOL     OW13519   2.019   2.054   1.240
 4207SOL    HW113520   1.955   2.084   1.310
 4207SOL    HW213521   2.044   1.959   1.256
 4208SOL     OW13522   6.953   2.848   5.686
 4208SOL    HW113523   6.994   2.914   5.749
 4208SOL    HW213524   6.965   2.755   5.722
 4209SOL     OW13525   0.245   0.099   3.602
 4209SOL    HW113526   0.237   0.032   3.528
 4209SOL    HW213527   0.170   0.085   3.668
 4210SOL     OW13528   3.610   3.100   2.181
 4210SOL    HW113529   3.548   3.175   2.157
 4210SOL    HW213530   3.698   3.114   2.136
 4211SOL     OW13531   4.510   6.331   6.535
 4211SOL    HW113532   4.548   6.262   6.474
 4211SOL    HW213533   4.575   6.406   6.546
 4212SOL     OW13534   6.121   1.677   2.622
 4212SOL    HW113535   6.078   1.643   2.538
 4212SOL    HW213536   6.069   1.755   2.657
 4213SOL     OW13537   1.625   0.835   1.365
 4213SOL    HW113538   1.531   0.866   1.352
 4213SOL    HW213539   1.686   0.887   1.305
 4214SOL     OW13540   0.788   5.181   5.079
 4214SOL    HW113541   0.729   5.260   5.089
 4214SOL    HW213542   0.738   5.098   5.106
 4215SOL     OW13543   5.593   6.981   5.905
 4215SOL    HW113544   5.637   6.966   5.817
 4215SOL    HW213545   5.616   6.907   5.968
 4216SOL     OW13546   1.326   1.532   2.469
 4216SOL    HW113547   1.245   1.478   2.444
 4216SOL    HW213548   1.299   1.627   2.482
 4217SOL     OW13549   0.914   0.245   2.337
 4217SOL    HW113550   0.992   0.230   2.398
 4217SOL    HW213551   0.830   0.224   2.387
 4218SOL     OW13552   3.993   1.047   1.346
 4218SOL    HW113553   3.921   1.008   1.404
 4218SOL    HW213554   4.070   0.984   1.341
 4219SOL     OW13555   3.806   5.508   3.832
 4219SOL    HW113556   3.727   5.461   3.872
 4219SOL    HW213557   3.828   5.588   3.887
 4220SOL     OW13558   6.030   2.518   3.638
 4220SOL    HW113559   6.054   2.524   3.735
 4220SOL    HW213560   6.108   2.481   3.587
 4221SOL     OW13561   5.635   4.799   6.587
 4221SOL    HW113562   5.545   4.841   6.604
 4221SOL    HW213563   5.670   4.832   6.499
 4222SOL     OW13564   0.051   2.168   2.810
 4222SOL    HW113565   7.011   2.131   2.875
 4222SOL    HW213566   0.012   2.166   2.718
 4223SOL     OW13567   3.769   3.200   6.601
 4223SOL    HW113568   3.745   3.104   6.587
 4223SOL    HW213569   3.859   3.206   6.644
 4224SOL     OW13570   5.309   3.859   4.086
 4224SOL    HW113571   5.235   3.918   4.055
 4224SOL    HW213572   5.275   3.767   4.101
 4225SOL     OW13573   3.908   1.104   5.438
 4225SOL    HW113574   3.995   1.129   5.396
 4225SOL    HW213575   3.898   1.154   5.525
 4226SOL     OW13576   1.099   0.476   2.228
 4226SOL    HW113577   1.070   0.396   2.280
 4226SOL    HW213578   1.191   0.460   2.192
 4227SOL     OW13579   3.861   4.915   1.121
 4227SOL    HW113580   3.873   4.864   1.036
 4227SOL    HW213581   3.828   5.008   1.100
 4228SOL     OW13582   1.144   4.183   4.640
 4228SOL    HW113583   1.104   4.203   4.729
 4228SOL    HW213584   1.169   4.086   4.635
 4229SOL     OW13585   5.091   5.619   5.538
 4229SOL    HW113586   5.159   5.606   5.611
 4229SOL    HW213587   5.006   5.651   5.578
 4230SOL     OW13588   1.894   6.149   2.669
 4230SOL    HW113589   1.987   6.180   2.650
 4230SOL    HW213590   1.854   6.206   2.741
 4231SOL     OW13591   5.603   0.182   5.485
 4231SOL    HW113592   5.657   0.115   5.536
 4231SOL    HW213593   5.507   0.155   5.485
 4232SOL     OW13594   6.942   4.943   2.635
 4232SOL    HW113595   6.892   4.973   2.554
 4232SOL    HW213596   6.884   4.883   2.690
 4233SOL     OW13597   0.115   0.898   6.603
 4233SOL    HW113598   0.167   0.814   6.618
 4233SOL    HW213599   0.084   0.902   6.507
 4234SOL     OW13600   2.458   6.596   5.301
 4234SOL    HW113601   2.415   6.506   5.300
 4234SOL    HW213602   2.459   6.633   5.208
 4235SOL     OW13603   5.502   3.634   5.864
 4235SOL    HW113604   5.422   3.644   5.806
 4235SOL    HW213605   5.488   3.686   5.949
 4236SOL     OW13606   5.931   3.812   2.894
 4236SOL    HW113607   5.879   3.736   2.932
 4236SOL    HW213608   5.870   3.888   2.872
 4237SOL     OW13609   5.639   6.024   2.268
 4237SOL    HW113610   5.672   5.942   2.221
 4237SOL    HW213611   5.656   6.016   2.366
 4238SOL     OW13612   2.960   5.900   3.238
 4238SOL    HW113613   2.905   5.922   3.318
 4238SOL    HW213614   2.917   5.824   3.188
 4239SOL     OW13615   5.785   1.624   3.137
 4239SOL    HW113616   5.775   1.717   3.103
 4239SOL    HW213617   5.846   1.623   3.216
 4240SOL     OW13618   2.126   6.378   7.017
 4240SOL    HW113619   2.168   6.468   7.023
 4240SOL    HW213620   2.101   6.346   0.081
 4241SOL     OW13621   6.102   1.064   0.311
 4241SOL    HW113622   6.128   1.011   0.230
 4241SOL    HW213623   6.028   1.017   0.359
 4242SOL     OW13624   3.030   1.125   3.933
 4242SOL    HW113625   3.099   1.133   3.860
 4242SOL    HW213626   2.953   1.070   3.900
 4243SOL     OW13627   6.407   3.048   3.306
 4243SOL    HW113628   6.459   3.129   3.277
 4243SOL    HW213629   6.408   2.980   3.234
 4244SOL     OW13630   4.339   3.984   1.490
 4244SOL    HW113631   4.364   3.902   1.438
 4244SOL    HW213632   4.268   4.034   1.441
 4245SOL     OW13633   0.655   1.493   6.437
 4245SOL    HW113634   0.697   1.486   6.346
 4245SOL    HW213635   0.629   1.588   6.453
 4246SOL     OW13636   6.795   4.063   3.290
 4246SOL    HW113637   6.825   4.014   3.209
 4246SOL    HW213638   6.865   4.056   3.362
 4247SOL     OW13639   2.723   5.427   3.269
 4247SOL    HW113640   2.637   5.432   3.318
 4247SOL    HW213641   2.786   5.497   3.304
 4248SOL     OW13642   2.381   1.945   3.531
 4248SOL    HW113643   2.294   1.932   3.579
 4248SOL    HW213644   2.455   1.953   3.597
 4249SOL     OW13645   5.338   2.378   3.964
 4249SOL    HW113646   5.413   2.438   3.937
 4249SOL    HW213647   5.254   2.406   3.916
 4250SOL     OW13648   6.275   5.300   2.801
 4250SOL    HW113649   6.291   5.290   2.702
 4250SOL    HW213650   6.226   5.219   2.834
 4251SOL     OW13651   5.769   4.431   1.633
 4251SOL    HW113652   5.782   4.332   1.632
 4251SOL    HW213653   5.753   4.462   1.726
 4252SOL     OW13654   5.533   0.202   6.370
 4252SOL    HW113655   5.507   0.112   6.337
 4252SOL    HW213656   5.584   0.251   6.299
 4253SOL     OW13657   3.034   6.981   1.001
 4253SOL    HW113658   3.066   6.886   1.000
 4253SOL    HW213659   3.111   0.015   0.983
 4254SOL     OW13660   1.285   3.929   1.767
 4254SOL    HW113661   1.195   3.938   1.809
 4254SOL    HW213662   1.341   3.866   1.821
 4255SOL     OW13663   0.156   4.124   4.056
 4255SOL    HW113664   0.246   4.091   4.085
 4255SOL    HW213665   0.088   4.103   4.126
 4256SOL     OW13666   1.799   6.292   0.483
 4256SOL    HW113667   1.730   6.277   0.413
 4256SOL    HW213668   1.811   6.209   0.537
 4257SOL     OW13669   2.701   0.690   3.851
 4257SOL    HW113670   2.781   0.739   3.885
 4257SOL    HW213671   2.630   0.689   3.922
 4258SOL     OW13672   4.147   5.904   0.727
 4258SOL    HW113673   4.060   5.859   0.710
 4258SOL    HW213674   4.133   6.003   0.738
 4259SOL     OW13675   2.478   0.875   0.920
 4259SOL    HW113676   2.548   0.936   0.882
 4259SOL    HW213677   2.505   0.780   0.902
 4260SOL     OW13678   5.456   0.508   1.326
 4260SOL    HW113679   5.400   0.568   1.269
 4260SOL    HW213680   5.496   0.436   1.268
 4261SOL     OW13681   2.468   6.987   2.774
 4261SOL    HW113682   2.539   7.017   2.838
 4261SOL    HW213683   2.420   0.040   2.738
 4262SOL     OW13684   0.766   4.427   6.436
 4262SOL    HW113685   0.728   4.484   6.364
 4262SOL    HW213686   0.692   4.384   6.488
 4263SOL     OW13687   3.200   0.397   3.461
 4263SOL    HW113688   3.257   0.323   3.425
 4263SOL    HW213689   3.132   0.359   3.524
 4264SOL     OW13690   6.522   2.075   2.593
 4264SOL    HW113691   6.423   2.084   2.583
 4264SOL    HW213692   6.566   2.162   2.572
 4265SOL     OW13693   4.420   1.446   1.236
 4265SOL    HW113694   4.380   1.527   1.195
 4265SOL    HW213695   4.361   1.367   1.220
 4266SOL     OW13696   1.704   5.272   6.741
 4266SOL    HW113697   1.781   5.212   6.761
 4266SOL    HW213698   1.730   5.337   6.669
 4267SOL     OW13699   1.894   3.109   3.604
 4267SOL    HW113700   1.834   3.143   3.676
 4267SOL    HW213701   1.922   3.015   3.626
 4268SOL     OW13702   1.348   6.131   6.576
 4268SOL    HW113703   1.447   6.133   6.557
 4268SOL    HW213704   1.332   6.161   6.670
 4269SOL     OW13705   3.038   0.641   2.397
 4269SOL    HW113706   3.013   0.590   2.314
 4269SOL    HW213707   2.963   0.635   2.463
 4270SOL     OW13708   4.071   3.377   3.121
 4270SOL    HW113709   4.093   3.466   3.160
 4270SOL    HW213710   4.069   3.384   3.021
 4271SOL     OW13711   6.609   0.946   0.063
 4271SOL    HW113712   6.552   1.004   0.121
 4271SOL    HW213713   6.622   0.991   7.001
 4272SOL     OW13714   6.871   2.231   4.135
 4272SOL    HW113715   6.812   2.153   4.153
 4272SOL    HW213716   6.848   2.305   4.198
 4273SOL     OW13717   4.996   6.671   4.718
 4273SOL    HW113718   4.991   6.609   4.797
 4273SOL    HW213719   4.941   6.752   4.736
 4274SOL     OW13720   1.038   6.630   1.781
 4274SOL    HW113721   0.967   6.635   1.711
 4274SOL    HW213722   1.105   6.703   1.766
 4275SOL     OW13723   6.726   2.025   4.256
 4275SOL    HW113724   6.656   2.007   4.187
 4275SOL    HW213725   6.685   2.068   4.336
 4276SOL     OW13726   1.381   5.302   3.763
 4276SOL    HW113727   1.285   5.279   3.747
 4276SOL    HW213728   1.440   5.250   3.701
 4277SOL     OW13729   6.168   4.730   3.018
 4277SOL    HW113730   6.126   4.763   2.934
 4277SOL    HW213731   6.244   4.669   2.996
 4278SOL     OW13732   6.729   0.061   5.395
 4278SOL    HW113733   6.676   0.010   5.328
 4278SOL    HW213734   6.826   0.056   5.371
 4279SOL     OW13735   3.426   0.670   4.167
 4279SOL    HW113736   3.481   0.631   4.093
 4279SOL    HW213737   3.397   0.762   4.142
 4280SOL     OW13738   4.675   0.637   5.752
 4280SOL    HW113739   4.757   0.625   5.809
 4280SOL    HW213740   4.638   0.547   5.730
 4281SOL     OW13741   0.027   4.392   3.308
 4281SOL    HW113742   0.086   4.440   3.242
 4281SOL    HW213743   0.073   4.388   3.397
 4282SOL     OW13744   3.621   4.129   6.211
 4282SOL    HW113745   3.579   4.181   6.136
 4282SOL    HW213746   3.558   4.126   6.288
 4283SOL     OW13747   1.421   0.641   3.377
 4283SOL    HW113748   1.437   0.543   3.361
 4283SOL    HW213749   1.323   0.657   3.390
 4284SOL     OW13750   3.933   4.819   1.357
 4284SOL    HW113751   3.896   4.839   1.267
 4284SOL    HW213752   4.031   4.841   1.358
 4285SOL     OW13753   1.668   0.618   5.737
 4285SOL    HW113754   1.640   0.539   5.791
 4285SOL    HW213755   1.759   0.647   5.764
 4286SOL     OW13756   4.781   6.296   5.926
 4286SOL    HW113757   4.777   6.379   5.870
 4286SOL    HW213758   4.720   6.305   6.004
 4287SOL     OW13759   5.872   1.426   6.260
 4287SOL    HW113760   5.813   1.355   6.298
 4287SOL    HW213761   5.862   1.509   6.314
 4288SOL     OW13762   0.369   5.513   3.775
 4288SOL    HW113763   0.434   5.439   3.791
 4288SOL    HW213764   0.392   5.561   3.690
 4289SOL     OW13765   6.858   3.054   6.489
 4289SOL    HW113766   6.875   3.046   6.587
 4289SOL    HW213767   6.763   3.031   6.469
 4290SOL     OW13768   1.379   6.424   3.792
 4290SOL    HW113769   1.414   6.513   3.819
 4290SOL    HW213770   1.280   6.429   3.779
 4291SOL     OW13771   4.424   3.494   0.545
 4291SOL    HW113772   4.464   3.585   0.533
 4291SOL    HW213773   4.474   3.429   0.487
 4292SOL     OW13774   5.630   3.163   0.460
 4292SOL    HW113775   5.579   3.110   0.392
 4292SOL    HW213776   5.566   3.200   0.528
 4293SOL     OW13777   2.712   2.614   0.489
 4293SOL    HW113778   2.773   2.668   0.546
 4293SOL    HW213779   2.630   2.668   0.466
 4294SOL     OW13780   1.852   2.146   6.891
 4294SOL    HW113781   1.807   2.231   6.917
 4294SOL    HW213782   1.940   2.139   6.938
 4295SOL     OW13783   3.761   5.818   4.846
 4295SOL    HW113784   3.767   5.881   4.769
 4295SOL    HW213785   3.723   5.731   4.814
 4296SOL     OW13786   2.644   6.814   0.841
 4296SOL    HW113787   2.618   6.826   0.745
 4296SOL    HW213788   2.569   6.844   0.900
 4297SOL     OW13789   4.833   0.352   6.448
 4297SOL    HW113790   4.839   0.252   6.443
 4297SOL    HW213791   4.922   0.391   6.423
 4298SOL     OW13792   4.076   4.788   0.214
 4298SOL    HW113793   4.051   4.885   0.207
 4298SOL    HW213794   4.015   4.733   0.157
 4299SOL     OW13795   1.489   3.441   6.962
 4299SOL    HW113796   1.556   3.460   0.007
 4299SOL    HW213797   1.534   3.396   6.885
 4300SOL     OW13798   3.248   6.613   0.490
 4300SOL    HW113799   3.311   6.616   0.568
 4300SOL    HW213800   3.239   6.518   0.459
 4301SOL     OW13801   3.804   1.353   1.378
 4301SOL    HW113802   3.889   1.302   1.386
 4301SOL    HW213803   3.752   1.343   1.462
 4302SOL     OW13804   0.831   0.252   6.558
 4302SOL    HW113805   0.808   0.242   6.461
 4302SOL    HW213806   0.795   0.174   6.609
 4303SOL     OW13807   6.891   4.197   3.686
 4303SOL    HW113808   6.960   4.261   3.719
 4303SOL    HW213809   6.936   4.124   3.633
 4304SOL     OW13810   3.046   3.932   2.638
 4304SOL    HW113811   3.070   3.913   2.733
 4304SOL    HW213812   3.007   4.024   2.632
 4305SOL     OW13813   0.055   0.667   5.305
 4305SOL    HW113814   6.987   0.652   5.277
 4305SOL    HW213815   0.113   0.597   5.263
 4306SOL     OW13816   5.206   4.648   5.994
 4306SOL    HW113817   5.143   4.595   6.051
 4306SOL    HW213818   5.154   4.703   5.929
 4307SOL     OW13819   5.364   4.098   6.131
 4307SOL    HW113820   5.383   4.072   6.037
 4307SOL    HW213821   5.431   4.166   6.161
 4308SOL     OW13822   5.969   4.815   1.076
 4308SOL    HW113823   6.062   4.819   1.042
 4308SOL    HW213824   5.938   4.720   1.080
 4309SOL     OW13825   1.065   0.814   0.012
 4309SOL    HW113826   1.001   0.884   0.045
 4309SOL    HW213827   1.155   0.830   0.051
 4310SOL     OW13828   1.740   2.768   1.892
 4310SOL    HW113829   1.838   2.751   1.883
 4310SOL    HW213830   1.709   2.825   1.816
 4311SOL     OW13831   2.254   5.951   2.653
 4311SOL    HW113832   2.211   5.869   2.614
 4311SOL    HW213833   2.267   6.019   2.580
 4312SOL     OW13834   2.191   5.400   1.570
 4312SOL    HW113835   2.210   5.488   1.615
 4312SOL    HW213836   2.209   5.409   1.472
 4313SOL     OW13837   4.348   1.439   1.528
 4313SOL    HW113838   4.414   1.424   1.454
 4313SOL    HW213839   4.258   1.408   1.500
 4314SOL     OW13840   6.037   1.084   4.141
 4314SOL    HW113841   5.989   1.158   4.094
 4314SOL    HW213842   5.972   1.032   4.196
 4315SOL     OW13843   2.653   6.007   1.821
 4315SOL    HW113844   2.590   6.083   1.807
 4315SOL    HW213845   2.724   6.034   1.886
 4316SOL     OW13846   5.370   0.975   1.898
 4316SOL    HW113847   5.451   1.026   1.868
 4316SOL    HW213848   5.354   0.899   1.836
 4317SOL     OW13849   5.205   2.649   4.809
 4317SOL    HW113850   5.170   2.579   4.747
 4317SOL    HW213851   5.230   2.607   4.896
 4318SOL     OW13852   0.458   2.934   4.945
 4318SOL    HW113853   0.450   2.898   4.852
 4318SOL    HW213854   0.422   2.868   5.010
 4319SOL     OW13855   2.173   1.774   1.339
 4319SOL    HW113856   2.237   1.738   1.407
 4319SOL    HW213857   2.186   1.725   1.253
 4320SOL     OW13858   5.156   5.240   0.347
 4320SOL    HW113859   5.090   5.182   0.299
 4320SOL    HW213860   5.241   5.244   0.296
 4321SOL     OW13861   0.121   6.561   5.347
 4321SOL    HW113862   0.183   6.567   5.269
 4321SOL    HW213863   0.046   6.498   5.326
 4322SOL     OW13864   6.354   2.778   6.898
 4322SOL    HW113865   6.320   2.700   6.844
 4322SOL    HW213866   6.441   2.809   6.859
 4323SOL     OW13867   4.627   3.960   0.823
 4323SOL    HW113868   4.645   3.992   0.730
 4323SOL    HW213869   4.631   3.860   0.826
 4324SOL     OW13870   5.753   3.984   6.635
 4324SOL    HW113871   5.710   3.906   6.682
 4324SOL    HW213872   5.709   3.998   6.546
 4325SOL     OW13873   2.175   1.428   1.525
 4325SOL    HW113874   2.221   1.415   1.437
 4325SOL    HW213875   2.098   1.365   1.532
 4326SOL     OW13876   4.439   4.855   3.738
 4326SOL    HW113877   4.521   4.905   3.712
 4326SOL    HW213878   4.464   4.764   3.772
 4327SOL     OW13879   5.870   6.073   1.609
 4327SOL    HW113880   5.901   5.988   1.566
 4327SOL    HW213881   5.943   6.108   1.668
 4328SOL     OW13882   4.495   3.355   5.762
 4328SOL    HW113883   4.463   3.418   5.691
 4328SOL    HW213884   4.497   3.262   5.725
 4329SOL     OW13885   4.525   1.955   5.688
 4329SOL    HW113886   4.477   2.002   5.762
 4329SOL    HW213887   4.562   1.868   5.721
 4330SOL     OW13888   1.865   6.144   4.602
 4330SOL    HW113889   1.849   6.068   4.665
 4330SOL    HW213890   1.940   6.201   4.637
 4331SOL     OW13891   5.500   1.786   1.793
 4331SOL    HW113892   5.588   1.800   1.749
 4331SOL    HW213893   5.507   1.813   1.889
 4332SOL     OW13894   5.130   3.679   1.774
 4332SOL    HW113895   5.224   3.668   1.806
 4332SOL    HW213896   5.127   3.666   1.674
 4333SOL     OW13897   3.795   0.971   5.899
 4333SOL    HW113898   3.757   1.036   5.964
 4333SOL    HW213899   3.842   0.898   5.949
 4334SOL     OW13900   1.697   2.652   2.783
 4334SOL    HW113901   1.603   2.627   2.806
 4334SOL    HW213902   1.760   2.598   2.839
 4335SOL     OW13903   3.415   3.777   2.718
 4335SOL    HW113904   3.359   3.826   2.785
 4335SOL    HW213905   3.462   3.844   2.660
 4336SOL     OW13906   3.301   0.011   6.493
 4336SOL    HW113907   3.251   0.092   6.524
 4336SOL    HW213908   3.318   0.017   6.395
 4337SOL     OW13909   0.792   4.524   1.002
 4337SOL    HW113910   0.849   4.592   0.956
 4337SOL    HW213911   0.797   4.537   1.101
 4338SOL     OW13912   6.098   0.231   5.662
 4338SOL    HW113913   6.010   0.276   5.680
 4338SOL    HW213914   6.136   0.266   5.577
 4339SOL     OW13915   5.488   3.222   5.784
 4339SOL    HW113916   5.492   3.165   5.702
 4339SOL    HW213917   5.545   3.303   5.772
 4340SOL     OW13918   6.240   3.112   1.875
 4340SOL    HW113919   6.253   3.014   1.891
 4340SOL    HW213920   6.310   3.145   1.812
 4341SOL     OW13921   0.709   5.550   1.882
 4341SOL    HW113922   0.726   5.480   1.951
 4341SOL    HW213923   0.694   5.638   1.927
 4342SOL     OW13924   5.884   3.609   4.039
 4342SOL    HW113925   5.861   3.540   3.971
 4342SOL    HW213926   5.806   3.622   4.101
 4343SOL     OW13927   2.801   6.308   5.444
 4343SOL    HW113928   2.741   6.272   5.515
 4343SOL    HW213929   2.892   6.267   5.454
 4344SOL     OW13930   0.285   4.290   1.971
 4344SOL    HW113931   0.264   4.237   1.889
 4344SOL    HW213932   0.222   4.367   1.978
 4345SOL     OW13933   3.593   3.963   4.883
 4345SOL    HW113934   3.525   4.012   4.937
 4345SOL    HW213935   3.619   4.018   4.803
 4346SOL     OW13936   2.160   3.325   2.723
 4346SOL    HW113937   2.184   3.237   2.682
 4346SOL    HW213938   2.100   3.376   2.660
 4347SOL     OW13939   6.647   6.547   2.840
 4347SOL    HW113940   6.708   6.497   2.902
 4347SOL    HW213941   6.687   6.636   2.818
 4348SOL     OW13942   6.524   5.081   4.001
 4348SOL    HW113943   6.563   5.049   4.087
 4348SOL    HW213944   6.518   5.005   3.937
 4349SOL     OW13945   5.799   1.745   2.706
 4349SOL    HW113946   5.878   1.754   2.767
 4349SOL    HW213947   5.780   1.648   2.691
 4350SOL     OW13948   3.241   1.455   4.032
 4350SOL    HW113949   3.266   1.359   4.021
 4350SOL    HW213950   3.307   1.512   3.981
 4351SOL     OW13951   2.118   5.187   1.061
 4351SOL    HW113952   2.204   5.136   1.064
 4351SOL    HW213953   2.110   5.235   0.974
 4352SOL     OW13954   6.348   3.830   2.607
 4352SOL    HW113955   6.447   3.819   2.599
 4352SOL    HW213956   6.323   3.925   2.585
 4353SOL     OW13957   4.168   2.754   6.485
 4353SOL    HW113958   4.175   2.808   6.401
 4353SOL    HW213959   4.098   2.794   6.544
 4354SOL     OW13960   2.052   0.440   5.782
 4354SOL    HW113961   2.015   0.473   5.868
 4354SOL    HW213962   2.146   0.473   5.770
 4355SOL     OW13963   2.398   6.642   2.486
 4355SOL    HW113964   2.469   6.604   2.428
 4355SOL    HW213965   2.411   6.741   2.495
 4356SOL     OW13966   4.739   3.962   0.560
 4356SOL    HW113967   4.752   3.895   0.487
 4356SOL    HW213968   4.754   4.054   0.524
 4357SOL     OW13969   6.454   1.719   1.033
 4357SOL    HW113970   6.363   1.689   1.062
 4357SOL    HW213971   6.450   1.750   0.938
 4358SOL     OW13972   0.277   0.253   0.735
 4358SOL    HW113973   0.258   0.315   0.811
 4358SOL    HW213974   0.277   0.304   0.649
 4359SOL     OW13975   2.015   1.687   6.135
 4359SOL    HW113976   1.986   1.782   6.125
 4359SOL    HW213977   2.107   1.676   6.099
 4360SOL     OW13978   1.257   3.369   3.368
 4360SOL    HW113979   1.189   3.425   3.321
 4360SOL    HW213980   1.235   3.272   3.356
 4361SOL     OW13981   2.733   3.333   1.474
 4361SOL    HW113982   2.770   3.425   1.484
 4361SOL    HW213983   2.673   3.313   1.552
 4362SOL     OW13984   5.815   5.192   3.357
 4362SOL    HW113985   5.845   5.275   3.309
 4362SOL    HW213986   5.889   5.125   3.356
 4363SOL     OW13987   5.771   2.086   1.232
 4363SOL    HW113988   5.827   2.168   1.223
 4363SOL    HW213989   5.761   2.064   1.329
 4364SOL     OW13990   2.993   3.597   4.274
 4364SOL    HW113991   3.010   3.506   4.235
 4364SOL    HW213992   2.972   3.588   4.371
 4365SOL     OW13993   2.348   0.691   2.151
 4365SOL    HW113994   2.443   0.659   2.151
 4365SOL    HW213995   2.338   0.766   2.216
 4366SOL     OW13996   5.774   0.301   0.835
 4366SOL    HW113997   5.789   0.258   0.746
 4366SOL    HW213998   5.787   0.400   0.828
 4367SOL     OW13999   2.390   4.430   4.718
 4367SOL    HW114000   2.380   4.370   4.638
 4367SOL    HW214001   2.363   4.381   4.801
 4368SOL     OW14002   3.580   5.138   0.410
 4368SOL    HW114003   3.495   5.087   0.423
 4368SOL    HW214004   3.632   5.098   0.334
 4369SOL     OW14005   4.585   5.578   2.647
 4369SOL    HW114006   4.668   5.594   2.594
 4369SOL    HW214007   4.572   5.479   2.659
 4370SOL     OW14008   3.658   5.297   1.750
 4370SOL    HW114009   3.716   5.378   1.751
 4370SOL    HW214010   3.705   5.221   1.796
 4371SOL     OW14011   0.840   2.433   2.361
 4371SOL    HW114012   0.785   2.479   2.291
 4371SOL    HW214013   0.923   2.396   2.319
 4372SOL     OW14014   2.802   1.857   2.783
 4372SOL    HW114015   2.772   1.768   2.751
 4372SOL    HW214016   2.861   1.899   2.714
 4373SOL     OW14017   5.732   2.105   0.408
 4373SOL    HW114018   5.753   2.189   0.458
 4373SOL    HW214019   5.633   2.095   0.400
 4374SOL     OW14020   0.703   1.857   0.515
 4374SOL    HW114021   0.632   1.909   0.563
 4374SOL    HW214022   0.660   1.797   0.448
 4375SOL     OW14023   4.577   6.806   3.088
 4375SOL    HW114024   4.641   6.866   3.040
 4375SOL    HW214025   4.565   6.838   3.182
 4376SOL     OW14026   0.163   6.824   2.261
 4376SOL    HW114027   0.170   6.876   2.346
 4376SOL    HW214028   0.209   6.874   2.187
 4377SOL     OW14029   5.437   4.797   0.045
 4377SOL    HW114030   5.504   4.795   0.120
 4377SOL    HW214031   5.460   4.726   7.005
 4378SOL     OW14032   2.275   2.553   2.636
 4378SOL    HW114033   2.259   2.565   2.733
 4378SOL    HW214034   2.321   2.634   2.599
 4379SOL     OW14035   1.795   2.492   2.557
 4379SOL    HW114036   1.768   2.551   2.633
 4379SOL    HW214037   1.732   2.506   2.480
 4380SOL     OW14038   1.358   0.117   2.978
 4380SOL    HW114039   1.446   0.131   2.932
 4380SOL    HW214040   1.330   0.201   3.023
 4381SOL     OW14041   1.782   4.415   5.110
 4381SOL    HW114042   1.754   4.336   5.164
 4381SOL    HW214043   1.724   4.422   5.028
 4382SOL     OW14044   6.362   3.355   5.057
 4382SOL    HW114045   6.460   3.355   5.077
 4382SOL    HW214046   6.346   3.307   4.970
 4383SOL     OW14047   1.014   2.376   5.797
 4383SOL    HW114048   0.934   2.373   5.856
 4383SOL    HW214049   1.095   2.347   5.848
 4384SOL     OW14050   6.659   1.918   5.661
 4384SOL    HW114051   6.632   1.845   5.599
 4384SOL    HW214052   6.661   2.005   5.612
 4385SOL     OW14053   6.141   2.460   4.994
 4385SOL    HW114054   6.084   2.379   4.980
 4385SOL    HW214055   6.203   2.444   5.071
 4386SOL     OW14056   2.282   3.103   6.748
 4386SOL    HW114057   2.332   3.109   6.834
 4386SOL    HW214058   2.244   3.192   6.725
 4387SOL     OW14059   6.940   1.562   1.124
 4387SOL    HW114060   6.916   1.472   1.088
 4387SOL    HW214061   6.919   1.632   1.056
 4388SOL     OW14062   5.474   1.976   6.610
 4388SOL    HW114063   5.446   2.035   6.686
 4388SOL    HW214064   5.411   1.988   6.534
 4389SOL     OW14065   6.970   3.375   0.816
 4389SOL    HW114066   0.034   3.344   0.789
 4389SOL    HW214067   6.901   3.325   0.764
 4390SOL     OW14068   3.634   1.092   1.252
 4390SOL    HW114069   3.679   1.069   1.338
 4390SOL    HW214070   3.579   1.175   1.265
 4391SOL     OW14071   1.976   5.498   6.912
 4391SOL    HW114072   1.914   5.472   6.839
 4391SOL    HW214073   1.949   5.587   6.948
 4392SOL     OW14074   6.973   2.857   4.965
 4392SOL    HW114075   0.017   2.788   4.944
 4392SOL    HW214076   7.012   2.927   5.024
 4393SOL     OW14077   6.142   0.410   2.504
 4393SOL    HW114078   6.213   0.381   2.440
 4393SOL    HW214079   6.182   0.474   2.571
 4394SOL     OW14080   6.197   6.027   2.337
 4394SOL    HW114081   6.240   5.990   2.419
 4394SOL    HW214082   6.098   6.018   2.343
 4395SOL     OW14083   3.105   6.262   1.993
 4395SOL    HW114084   3.190   6.301   2.028
 4395SOL    HW214085   3.102   6.272   1.894
 4396SOL     OW14086   2.103   2.014   3.960
 4396SOL    HW114087   2.108   2.007   4.060
 4396SOL    HW214088   2.078   2.107   3.934
 4397SOL     OW14089   0.240   1.227   4.768
 4397SOL    HW114090   0.188   1.241   4.853
 4397SOL    HW214091   0.326   1.276   4.774
 4398SOL     OW14092   0.337   4.031   5.749
 4398SOL    HW114093   0.402   4.097   5.711
 4398SOL    HW214094   0.373   3.938   5.735
 4399SOL     OW14095   2.392   0.236   1.931
 4399SOL    HW114096   2.465   0.304   1.936
 4399SOL    HW214097   2.432   0.144   1.926
 4400SOL     OW14098   3.208   6.614   5.578
 4400SOL    HW114099   3.139   6.593   5.647
 4400SOL    HW214100   3.284   6.663   5.620
 4401SOL     OW14101   4.311   6.801   6.355
 4401SOL    HW114102   4.275   6.890   6.381
 4401SOL    HW214103   4.404   6.812   6.318
 4402SOL     OW14104   2.823   0.366   2.079
 4402SOL    HW114105   2.885   0.434   2.119
 4402SOL    HW214106   2.768   0.325   2.152
 4403SOL     OW14107   0.897   6.741   2.534
 4403SOL    HW114108   0.910   6.825   2.586
 4403SOL    HW214109   0.945   6.748   2.447
 4404SOL     OW14110   0.906   5.101   5.684
 4404SOL    HW114111   0.835   5.069   5.747
 4404SOL    HW214112   0.914   5.037   5.607
 4405SOL     OW14113   1.808   4.051   0.660
 4405SOL    HW114114   1.770   4.139   0.688
 4405SOL    HW214115   1.906   4.050   0.679
 4406SOL     OW14116   0.227   3.374   0.714
 4406SOL    HW114117   0.277   3.414   0.791
 4406SOL    HW214118   0.293   3.341   0.646
 4407SOL     OW14119   6.059   4.964   0.711
 4407SOL    HW114120   6.001   5.035   0.750
 4407SOL    HW214121   6.154   4.982   0.733
 4408SOL     OW14122   3.480   0.873   1.184
 4408SOL    HW114123   3.537   0.955   1.194
 4408SOL    HW214124   3.523   0.811   1.118
 4409SOL     OW14125   5.056   0.635   2.548
 4409SOL    HW114126   5.005   0.720   2.535
 4409SOL    HW214127   5.085   0.600   2.459
 4410SOL     OW14128   1.146   4.982   6.594
 4410SOL    HW114129   1.096   4.901   6.562
 4410SOL    HW214130   1.142   4.985   6.694
 4411SOL     OW14131   3.886   3.997   4.337
 4411SOL    HW114132   3.907   3.961   4.428
 4411SOL    HW214133   3.955   3.966   4.272
 4412SOL     OW14134   4.135   6.062   4.734
 4412SOL    HW114135   4.234   6.066   4.722
 4412SOL    HW214136   4.112   5.991   4.800
 4413SOL     OW14137   6.286   5.028   4.127
 4413SOL    HW114138   6.365   5.027   4.188
 4413SOL    HW214139   6.286   4.944   4.072
 4414SOL     OW14140   3.478   4.687   0.976
 4414SOL    HW114141   3.489   4.696   1.076
 4414SOL    HW214142   3.454   4.593   0.953
 4415SOL     OW14143   4.014   2.779   0.452
 4415SOL    HW114144   3.947   2.849   0.427
 4415SOL    HW214145   3.967   2.700   0.490
 4416SOL     OW14146   3.342   0.935   4.153
 4416SOL    HW114147   3.244   0.952   4.164
 4416SOL    HW214148   3.393   1.001   4.209
 4417SOL     OW14149   5.535   4.116   3.356
 4417SOL    HW114150   5.568   4.033   3.310
 4417SOL    HW214151   5.574   4.197   3.310
 4418SOL     OW14152   5.767   1.953   2.312
 4418SOL    HW114153   5.768   1.973   2.215
 4418SOL    HW214154   5.861   1.950   2.347
 4419SOL     OW14155   5.872   6.225   6.904
 4419SOL    HW114156   5.790   6.263   6.948
 4419SOL    HW214157   5.865   6.126   6.901
 4420SOL     OW14158   5.136   1.133   1.824
 4420SOL    HW114159   5.213   1.075   1.849
 4420SOL    HW214160   5.078   1.148   1.904
 4421SOL     OW14161   2.056   1.203   4.875
 4421SOL    HW114162   2.001   1.203   4.958
 4421SOL    HW214163   2.128   1.272   4.883
 4422SOL     OW14164   2.438   4.317   0.029
 4422SOL    HW114165   2.474   4.286   6.967
 4422SOL    HW214166   2.504   4.295   0.101
 4423SOL     OW14167   0.073   3.056   5.857
 4423SOL    HW114168   0.001   3.085   5.919
 4423SOL    HW214169   0.093   3.130   5.792
 4424SOL     OW14170   5.777   1.384   4.528
 4424SOL    HW114171   5.726   1.389   4.442
 4424SOL    HW214172   5.853   1.449   4.526
 4425SOL     OW14173   3.266   3.965   0.448
 4425SOL    HW114174   3.323   3.897   0.495
 4425SOL    HW214175   3.287   3.964   0.350
 4426SOL     OW14176   6.974   1.617   3.632
 4426SOL    HW114177   6.920   1.625   3.716
 4426SOL    HW214178   6.925   1.562   3.565
 4427SOL     OW14179   0.454   6.564   2.748
 4427SOL    HW114180   0.532   6.567   2.685
 4427SOL    HW214181   0.381   6.509   2.708
 4428SOL     OW14182   2.960   0.276   2.897
 4428SOL    HW114183   2.975   0.221   2.814
 4428SOL    HW214184   2.938   0.216   2.973
 4429SOL     OW14185   2.824   5.778   2.473
 4429SOL    HW114186   2.796   5.749   2.564
 4429SOL    HW214187   2.841   5.877   2.474
 4430SOL     OW14188   4.882   3.938   4.744
 4430SOL    HW114189   4.923   3.861   4.793
 4430SOL    HW214190   4.868   3.914   4.648
 4431SOL     OW14191   2.151   1.128   2.257
 4431SOL    HW114192   2.140   1.064   2.181
 4431SOL    HW214193   2.065   1.174   2.275
 4432SOL     OW14194   2.896   3.473   6.040
 4432SOL    HW114195   2.872   3.520   6.125
 4432SOL    HW214196   2.831   3.399   6.022
 4433SOL     OW14197   4.865   2.032   4.652
 4433SOL    HW114198   4.943   1.975   4.627
 4433SOL    HW214199   4.832   2.081   4.571
 4434SOL     OW14200   4.899   1.523   3.776
 4434SOL    HW114201   4.883   1.490   3.683
 4434SOL    HW214202   4.836   1.598   3.795
 4435SOL     OW14203   4.947   3.449   1.425
 4435SOL    HW114204   4.852   3.456   1.457
 4435SOL    HW214205   5.001   3.523   1.464
 4436SOL     OW14206   4.146   1.336   1.396
 4436SOL    HW114207   4.101   1.288   1.471
 4436SOL    HW214208   4.184   1.270   1.332
 4437SOL     OW14209   6.242   2.093   2.626
 4437SOL    HW114210   6.242   2.077   2.725
 4437SOL    HW214211   6.152   2.125   2.598
 4438SOL     OW14212   5.155   0.200   7.026
 4438SOL    HW114213   5.148   0.153   6.938
 4438SOL    HW214214   5.121   0.293   7.017
 4439SOL     OW14215   0.352   4.445   1.685
 4439SOL    HW114216   0.404   4.445   1.770
 4439SOL    HW214217   0.343   4.352   1.651
 4440SOL     OW14218   2.504   4.932   0.754
 4440SOL    HW114219   2.539   4.868   0.686
 4440SOL    HW214220   2.577   4.953   0.820
 4441SOL     OW14221   6.914   1.674   2.695
 4441SOL    HW114222   7.001   1.709   2.727
 4441SOL    HW214223   6.928   1.619   2.612
 4442SOL     OW14224   2.066   5.389   4.108
 4442SOL    HW114225   1.988   5.331   4.086
 4442SOL    HW214226   2.090   5.377   4.205
 4443SOL     OW14227   0.900   3.210   6.907
 4443SOL    HW114228   0.817   3.230   6.959
 4443SOL    HW214229   0.901   3.266   6.823
 4444SOL     OW14230   3.149   4.357   5.287
 4444SOL    HW114231   3.057   4.390   5.264
 4444SOL    HW214232   3.203   4.433   5.324
 4445SOL     OW14233   1.203   6.629   0.465
 4445SOL    HW114234   1.194   6.530   0.479
 4445SOL    HW214235   1.112   6.668   0.452
 4446SOL     OW14236   5.418   0.647   2.034
 4446SOL    HW114237   5.515   0.650   2.058
 4446SOL    HW214238   5.407   0.674   1.938
 4447SOL     OW14239   5.703   4.000   6.083
 4447SOL    HW114240   5.776   3.945   6.123
 4447SOL    HW214241   5.714   4.095   6.110
 4448SOL     OW14242   2.629   3.947   1.645
 4448SOL    HW114243   2.611   4.007   1.567
 4448SOL    HW214244   2.590   3.856   1.626
 4449SOL     OW14245   5.260   0.499   6.139
 4449SOL    HW114246   5.214   0.588   6.137
 4449SOL    HW214247   5.355   0.511   6.168
 4450SOL     OW14248   3.217   3.452   4.823
 4450SOL    HW114249   3.274   3.394   4.764
 4450SOL    HW214250   3.269   3.534   4.847
 4451SOL     OW14251   6.316   4.877   3.199
 4451SOL    HW114252   6.257   4.840   3.127
 4451SOL    HW214253   6.339   4.804   3.264
 4452SOL     OW14254   5.107   6.047   4.359
 4452SOL    HW114255   5.090   6.090   4.448
 4452SOL    HW214256   5.029   5.990   4.334
 4453SOL     OW14257   0.797   2.629   1.363
 4453SOL    HW114258   0.884   2.583   1.343
 4453SOL    HW214259   0.726   2.561   1.381
 4454SOL     OW14260   1.854   2.063   0.552
 4454SOL    HW114261   1.930   2.003   0.524
 4454SOL    HW214262   1.767   2.018   0.533
 4455SOL     OW14263   4.507   6.577   5.768
 4455SOL    HW114264   4.407   6.571   5.769
 4455SOL    HW214265   4.544   6.525   5.846
 4456SOL     OW14266   3.362   6.052   2.176
 4456SOL    HW114267   3.378   5.977   2.241
 4456SOL    HW214268   3.368   6.017   2.083
 4457SOL     OW14269   4.311   1.214   2.503
 4457SOL    HW114270   4.354   1.223   2.414
 4457SOL    HW214271   4.255   1.295   2.522
 4458SOL     OW14272   1.829   2.970   0.523
 4458SOL    HW114273   1.844   2.924   0.611
 4458SOL    HW214274   1.881   2.924   0.452
 4459SOL     OW14275   3.889   1.147   4.759
 4459SOL    HW114276   3.802   1.194   4.767
 4459SOL    HW214277   3.892   1.095   4.674
 4460SOL     OW14278   2.710   2.987   6.046
 4460SOL    HW114279   2.794   3.010   6.096
 4460SOL    HW214280   2.735   2.948   5.957
 4461SOL     OW14281   1.294   0.212   1.058
 4461SOL    HW114282   1.228   0.200   1.132
 4461SOL    HW214283   1.387   0.209   1.095
 4462SOL     OW14284   5.967   5.228   1.420
 4462SOL    HW114285   5.875   5.203   1.452
 4462SOL    HW214286   6.033   5.212   1.493
 4463SOL     OW14287   5.442   1.723   0.452
 4463SOL    HW114288   5.453   1.637   0.501
 4463SOL    HW214289   5.502   1.724   0.372
 4464SOL     OW14290   6.779   5.371   0.887
 4464SOL    HW114291   6.767   5.341   0.792
 4464SOL    HW214292   6.820   5.462   0.888
 4465SOL     OW14293   3.073   5.387   1.823
 4465SOL    HW114294   3.051   5.389   1.726
 4465SOL    HW214295   3.111   5.298   1.847
 4466SOL     OW14296   1.766   1.568   3.128
 4466SOL    HW114297   1.784   1.470   3.119
 4466SOL    HW214298   1.674   1.582   3.165
 4467SOL     OW14299   2.055   5.878   2.348
 4467SOL    HW114300   2.055   5.836   2.439
 4467SOL    HW214301   2.132   5.842   2.295
 4468SOL     OW14302   1.907   3.864   0.219
 4468SOL    HW114303   1.961   3.884   0.301
 4468SOL    HW214304   1.913   3.767   0.198
 4469SOL     OW14305   3.241   0.722   1.659
 4469SOL    HW114306   3.283   0.806   1.624
 4469SOL    HW214307   3.192   0.743   1.744
 4470SOL     OW14308   6.596   2.021   1.977
 4470SOL    HW114309   6.537   1.940   1.979
 4470SOL    HW214310   6.601   2.060   2.069
 4471SOL     OW14311   1.068   2.530   6.235
 4471SOL    HW114312   1.129   2.454   6.259
 4471SOL    HW214313   1.002   2.543   6.308
 4472SOL     OW14314   1.420   3.725   1.884
 4472SOL    HW114315   1.340   3.668   1.905
 4472SOL    HW214316   1.434   3.791   1.959
 4473SOL     OW14317   6.172   2.812   4.649
 4473SOL    HW114318   6.212   2.810   4.557
 4473SOL    HW214319   6.144   2.720   4.676
 4474SOL     OW14320   2.697   0.756   2.321
 4474SOL    HW114321   2.601   0.774   2.341
 4474SOL    HW214322   2.754   0.814   2.379
 4475SOL     OW14323   1.613   3.976   2.713
 4475SOL    HW114324   1.688   3.960   2.649
 4475SOL    HW214325   1.648   4.022   2.795
 4476SOL     OW14326   4.635   0.069   2.923
 4476SOL    HW114327   4.690   0.141   2.966
 4476SOL    HW214328   4.670   0.050   2.832
 4477SOL     OW14329   2.070   0.037   5.237
 4477SOL    HW114330   2.053   0.017   5.333
 4477SOL    HW214331   2.124   6.990   5.196
 4478SOL     OW14332   3.722   6.848   2.932
 4478SOL    HW114333   3.641   6.793   2.949
 4478SOL    HW214334   3.776   6.855   3.016
 4479SOL     OW14335   0.678   1.600   1.569
 4479SOL    HW114336   0.688   1.695   1.598
 4479SOL    HW214337   0.609   1.555   1.626
 4480SOL     OW14338   1.320   4.047   4.873
 4480SOL    HW114339   1.370   4.120   4.825
 4480SOL    HW214340   1.376   3.965   4.876
 4481SOL     OW14341   3.279   6.077   4.776
 4481SOL    HW114342   3.272   6.164   4.826
 4481SOL    HW214343   3.216   6.079   4.698
 4482SOL     OW14344   1.238   2.868   4.992
 4482SOL    HW114345   1.334   2.851   5.018
 4482SOL    HW214346   1.204   2.948   5.040
 4483SOL     OW14347   5.747   2.923   2.388
 4483SOL    HW114348   5.770   2.833   2.423
 4483SOL    HW214349   5.755   2.990   2.462
 4484SOL     OW14350   2.721   2.380   6.576
 4484SOL    HW114351   2.731   2.476   6.551
 4484SOL    HW214352   2.785   2.358   6.649
 4485SOL     OW14353   5.627   1.790   4.618
 4485SOL    HW114354   5.598   1.701   4.584
 4485SOL    HW214355   5.549   1.835   4.663
 4486SOL     OW14356   5.616   4.988   5.548
 4486SOL    HW114357   5.528   4.963   5.589
 4486SOL    HW214358   5.618   4.959   5.453
 4487SOL     OW14359   2.559   2.682   6.644
 4487SOL    HW114360   2.627   2.755   6.647
 4487SOL    HW214361   2.471   2.720   6.616
 4488SOL     OW14362   0.284   3.667   6.389
 4488SOL    HW114363   0.298   3.659   6.488
 4488SOL    HW214364   0.204   3.613   6.363
 4489SOL     OW14365   5.177   4.820   4.870
 4489SOL    HW114366   5.129   4.799   4.785
 4489SOL    HW214367   5.181   4.919   4.883
 4490SOL     OW14368   6.385   2.814   2.067
 4490SOL    HW114369   6.361   2.727   2.024
 4490SOL    HW214370   6.365   2.809   2.165
 4491SOL     OW14371   6.387   2.569   4.042
 4491SOL    HW114372   6.341   2.521   4.117
 4491SOL    HW214373   6.476   2.528   4.026
 4492SOL     OW14374   5.873   4.808   1.679
 4492SOL    HW114375   5.872   4.732   1.744
 4492SOL    HW214376   5.851   4.775   1.587
 4493SOL     OW14377   4.998   5.143   4.770
 4493SOL    HW114378   5.054   5.223   4.792
 4493SOL    HW214379   4.928   5.131   4.841
 4494SOL     OW14380   0.716   1.078   6.714
 4494SOL    HW114381   0.774   1.141   6.767
 4494SOL    HW214382   0.773   1.014   6.663
 4495SOL     OW14383   3.662   6.579   4.380
 4495SOL    HW114384   3.637   6.588   4.284
 4495SOL    HW214385   3.673   6.482   4.403
 4496SOL     OW14386   5.353   6.461   1.123
 4496SOL    HW114387   5.259   6.426   1.129
 4496SOL    HW214388   5.365   6.506   1.035
 4497SOL     OW14389   5.680   1.993   0.107
 4497SOL    HW114390   5.639   1.903   0.093
 4497SOL    HW214391   5.645   2.034   0.191
 4498SOL     OW14392   0.369   3.567   0.478
 4498SOL    HW114393   0.286   3.515   0.454
 4498SOL    HW214394   0.450   3.511   0.461
 4499SOL     OW14395   6.122   3.865   4.332
 4499SOL    HW114396   6.139   3.898   4.239
 4499SOL    HW214397   6.062   3.929   4.380
 4500SOL     OW14398   3.307   3.103   4.961
 4500SOL    HW114399   3.389   3.098   4.904
 4500SOL    HW214400   3.333   3.120   5.056
 4501SOL     OW14401   0.204   3.530   3.250
 4501SOL    HW114402   0.303   3.537   3.238
 4501SOL    HW214403   0.165   3.622   3.259
 4502SOL     OW14404   0.498   2.905   6.384
 4502SOL    HW114405   0.595   2.919   6.401
 4502SOL    HW214406   0.445   2.959   6.449
 4503SOL     OW14407   3.320   6.971   1.792
 4503SOL    HW114408   3.235   6.919   1.794
 4503SOL    HW214409   3.367   6.955   1.706
 4504SOL     OW14410   6.674   0.905   5.076
 4504SOL    HW114411   6.627   0.877   4.993
 4504SOL    HW214412   6.619   0.879   5.156
 4505SOL     OW14413   5.753   5.237   1.585
 4505SOL    HW114414   5.770   5.320   1.637
 4505SOL    HW214415   5.734   5.161   1.647
 4506SOL     OW14416   4.785   2.904   3.599
 4506SOL    HW114417   4.874   2.936   3.631
 4506SOL    HW214418   4.745   2.843   3.667
 4507SOL     OW14419   5.544   4.690   2.594
 4507SOL    HW114420   5.595   4.738   2.665
 4507SOL    HW214421   5.508   4.756   2.529
 4508SOL     OW14422   1.214   5.283   6.780
 4508SOL    HW114423   1.280   5.357   6.797
 4508SOL    HW214424   1.248   5.226   6.704
 4509SOL     OW14425   4.364   2.373   2.230
 4509SOL    HW114426   4.378   2.467   2.198
 4509SOL    HW214427   4.435   2.314   2.192
 4510SOL     OW14428   3.723   1.652   4.115
 4510SOL    HW114429   3.732   1.742   4.158
 4510SOL    HW214430   3.665   1.659   4.034
 4511SOL     OW14431   6.158   3.420   6.931
 4511SOL    HW114432   6.191   3.499   6.879
 4511SOL    HW214433   6.089   3.450   6.996
 4512SOL     OW14434   2.873   1.827   5.399
 4512SOL    HW114435   2.780   1.857   5.379
 4512SOL    HW214436   2.872   1.758   5.471
 4513SOL     OW14437   6.951   5.292   6.853
 4513SOL    HW114438   6.886   5.241   6.910
 4513SOL    HW214439   6.941   5.263   6.758
 4514SOL     OW14440   3.842   2.007   6.349
 4514SOL    HW114441   3.800   2.085   6.395
 4514SOL    HW214442   3.941   2.016   6.350
 4515SOL     OW14443   0.210   2.033   5.934
 4515SOL    HW114444   0.271   2.044   6.012
 4515SOL    HW214445   0.258   1.985   5.860
 4516SOL     OW14446   2.056   0.119   0.233
 4516SOL    HW114447   1.984   0.103   0.164
 4516SOL    HW214448   2.086   0.214   0.227
 4517SOL     OW14449   4.357   0.831   6.853
 4517SOL    HW114450   4.448   0.824   6.895
 4517SOL    HW214451   4.289   0.850   6.924
 4518SOL     OW14452   6.820   0.440   2.535
 4518SOL    HW114453   6.747   0.498   2.498
 4518SOL    HW214454   6.798   0.344   2.518
 4519SOL     OW14455   0.082   0.016   1.593
 4519SOL    HW114456   0.049   0.065   1.512
 4519SOL    HW214457   0.055   0.066   1.675
 4520SOL     OW14458   4.626   6.494   4.604
 4520SOL    HW114459   4.601   6.585   4.638
 4520SOL    HW214460   4.581   6.478   4.516
 4521SOL     OW14461   6.814   1.897   4.716
 4521SOL    HW114462   6.776   1.988   4.735
 4521SOL    HW214463   6.898   1.885   4.768
 4522SOL     OW14464   5.195   6.092   3.459
 4522SOL    HW114465   5.289   6.060   3.470
 4522SOL    HW214466   5.134   6.031   3.510
 4523SOL     OW14467   0.945   4.596   6.887
 4523SOL    HW114468   0.915   4.543   6.808
 4523SOL    HW214469   0.977   4.686   6.856
 4524SOL     OW14470   6.501   2.735   2.783
 4524SOL    HW114471   6.469   2.830   2.779
 4524SOL    HW214472   6.423   2.675   2.802
 4525SOL     OW14473   4.964   1.963   5.790
 4525SOL    HW114474   4.889   1.970   5.855
 4525SOL    HW214475   5.033   2.032   5.810
 4526SOL     OW14476   6.752   0.175   0.625
 4526SOL    HW114477   6.817   0.120   0.573
 4526SOL    HW214478   6.666   0.125   0.635
 4527SOL     OW14479   5.584   1.290   3.890
 4527SOL    HW114480   5.663   1.235   3.862
 4527SOL    HW214481   5.500   1.245   3.861
 4528SOL     OW14482   5.026   0.822   0.393
 4528SOL    HW114483   5.059   0.730   0.371
 4528SOL    HW214484   4.977   0.820   0.480
 4529SOL     OW14485   2.192   0.623   5.164
 4529SOL    HW114486   2.125   0.551   5.182
 4529SOL    HW214487   2.177   0.699   5.227
 4530SOL     OW14488   2.098   5.204   4.737
 4530SOL    HW114489   2.147   5.117   4.745
 4530SOL    HW214490   2.005   5.194   4.772
 4531SOL     OW14491   0.624   2.861   5.461
 4531SOL    HW114492   0.678   2.870   5.544
 4531SOL    HW214493   0.530   2.892   5.478
 4532SOL     OW14494   6.185   1.381   2.609
 4532SOL    HW114495   6.194   1.480   2.615
 4532SOL    HW214496   6.252   1.338   2.671
 4533SOL     OW14497   0.956   1.730   1.945
 4533SOL    HW114498   0.978   1.735   1.847
 4533SOL    HW214499   0.878   1.667   1.958
 4534SOL     OW14500   4.720   4.111   4.488
 4534SOL    HW114501   4.648   4.153   4.544
 4534SOL    HW214502   4.731   4.015   4.514
 4535SOL     OW14503   3.703   0.947   2.559
 4535SOL    HW114504   3.700   0.890   2.642
 4535SOL    HW214505   3.730   1.040   2.583
 4536SOL     OW14506   3.761   1.870   4.320
 4536SOL    HW114507   3.705   1.936   4.371
 4536SOL    HW214508   3.857   1.899   4.323
 4537SOL     OW14509   3.956   3.381   0.589
 4537SOL    HW114510   3.876   3.433   0.561
 4537SOL    HW214511   4.020   3.442   0.636
 4538SOL     OW14512   1.713   0.443   3.167
 4538SOL    HW114513   1.806   0.430   3.133
 4538SOL    HW214514   1.658   0.363   3.146
 4539SOL     OW14515   2.998   6.578   5.070
 4539SOL    HW114516   2.960   6.621   4.988
 4539SOL    HW214517   3.038   6.648   5.130
 4540SOL     OW14518   2.815   2.522   6.016
 4540SOL    HW114519   2.874   2.494   5.940
 4540SOL    HW214520   2.763   2.603   5.989
 4541SOL     OW14521   6.301   1.784   0.407
 4541SOL    HW114522   6.304   1.881   0.383
 4541SOL    HW214523   6.383   1.760   0.459
 4542SOL     OW14524   6.924   1.481   1.693
 4542SOL    HW114525   6.828   1.476   1.664
 4542SOL    HW214526   6.930   1.537   1.776
 4543SOL     OW14527   4.654   2.009   2.078
 4543SOL    HW114528   4.654   2.010   2.178
 4543SOL    HW214529   4.592   1.937   2.046
 4544SOL     OW14530   3.506   6.028   6.258
 4544SOL    HW114531   3.497   5.972   6.176
 4544SOL    HW214532   3.572   6.102   6.241
 4545SOL     OW14533   5.769   3.389   4.456
 4545SOL    HW114534   5.682   3.352   4.491
 4545SOL    HW214535   5.823   3.423   4.533
 4546SOL     OW14536   1.593   0.990   5.030
 4546SOL    HW114537   1.669   0.971   4.968
 4546SOL    HW214538   1.557   1.082   5.012
 4547SOL     OW14539   6.158   2.391   1.836
 4547SOL    HW114540   6.210   2.323   1.887
 4547SOL    HW214541   6.138   2.356   1.745
 4548SOL     OW14542   1.311   3.164   4.150
 4548SOL    HW114543   1.347   3.175   4.057
 4548SOL    HW214544   1.235   3.098   4.148
 4549SOL     OW14545   6.717   4.185   1.708
 4549SOL    HW114546   6.676   4.276   1.702
 4549SOL    HW214547   6.766   4.165   1.624
 4550SOL     OW14548   0.818   5.063   3.235
 4550SOL    HW114549   0.741   4.999   3.243
 4550SOL    HW214550   0.898   5.013   3.203
 4551SOL     OW14551   6.904   2.746   4.563
 4551SOL    HW114552   6.875   2.657   4.600
 4551SOL    HW214553   6.999   2.763   4.588
 4552SOL     OW14554   6.428   3.287   2.087
 4552SOL    HW114555   6.388   3.230   2.016
 4552SOL    HW214556   6.445   3.232   2.168
 4553SOL     OW14557   3.049   4.695   6.426
 4553SOL    HW114558   3.040   4.721   6.523
 4553SOL    HW214559   3.024   4.773   6.369
 4554SOL     OW14560   6.486   6.868   1.435
 4554SOL    HW114561   6.451   6.962   1.438
 4554SOL    HW214562   6.563   6.859   1.499
 4555SOL     OW14563   2.386   2.433   6.011
 4555SOL    HW114564   2.299   2.440   5.962
 4555SOL    HW214565   2.460   2.422   5.945
 4556SOL     OW14566   5.630   2.906   4.127
 4556SOL    HW114567   5.649   2.989   4.073
 4556SOL    HW214568   5.573   2.929   4.205
 4557SOL     OW14569   5.087   6.554   5.393
 4557SOL    HW114570   5.149   6.513   5.325
 4557SOL    HW214571   5.023   6.484   5.424
 4558SOL     OW14572   0.360   4.077   5.317
 4558SOL    HW114573   0.301   4.037   5.388
 4558SOL    HW214574   0.442   4.115   5.360
 4559SOL     OW14575   0.504   3.605   1.639
 4559SOL    HW114576   0.557   3.675   1.592
 4559SOL    HW214577   0.420   3.585   1.587
 4560SOL     OW14578   5.412   3.806   1.569
 4560SOL    HW114579   5.388   3.807   1.472
 4560SOL    HW214580   5.342   3.854   1.622
 4561SOL     OW14581   2.310   1.856   3.160
 4561SOL    HW114582   2.362   1.935   3.192
 4561SOL    HW214583   2.356   1.815   3.081
 4562SOL     OW14584   2.322   6.430   5.977
 4562SOL    HW114585   2.355   6.338   5.958
 4562SOL    HW214586   2.223   6.434   5.963
 4563SOL     OW14587   6.869   2.516   1.256
 4563SOL    HW114588   6.834   2.607   1.234
 4563SOL    HW214589   6.960   2.505   1.217
 4564SOL     OW14590   6.646   5.916   1.878
 4564SOL    HW114591   6.595   5.874   1.803
 4564SOL    HW214592   6.686   6.002   1.847
 4565SOL     OW14593   0.875   1.394   4.653
 4565SOL    HW114594   0.854   1.308   4.607
 4565SOL    HW214595   0.920   1.456   4.589
 4566SOL     OW14596   6.558   2.444   0.270
 4566SOL    HW114597   6.515   2.527   0.234
 4566SOL    HW214598   6.490   2.390   0.320
 4567SOL     OW14599   6.303   1.147   5.935
 4567SOL    HW114600   6.323   1.165   6.031
 4567SOL    HW214601   6.380   1.101   5.892
 4568SOL     OW14602   2.243   3.616   6.412
 4568SOL    HW114603   2.165   3.672   6.383
 4568SOL    HW214604   2.313   3.617   6.340
 4569SOL     OW14605   2.107   1.775   2.741
 4569SOL    HW114606   2.042   1.761   2.667
 4569SOL    HW214607   2.058   1.783   2.828
 4570SOL     OW14608   0.174   6.348   2.919
 4570SOL    HW114609   0.092   6.403   2.935
 4570SOL    HW214610   0.216   6.325   3.007
 4571SOL     OW14611   4.134   4.522   6.434
 4571SOL    HW114612   4.148   4.619   6.452
 4571SOL    HW214613   4.063   4.487   6.495
 4572SOL     OW14614   2.400   0.641   6.876
 4572SOL    HW114615   2.320   0.669   6.929
 4572SOL    HW214616   2.478   0.629   6.937
 4573SOL     OW14617   6.137   0.427   0.786
 4573SOL    HW114618   6.134   0.449   0.883
 4573SOL    HW214619   6.083   0.494   0.734
 4574SOL     OW14620   5.571   4.121   0.733
 4574SOL    HW114621   5.571   4.122   0.633
 4574SOL    HW214622   5.553   4.028   0.765
 4575SOL     OW14623   5.963   1.013   6.354
 4575SOL    HW114624   5.865   1.009   6.338
 4575SOL    HW214625   6.011   0.964   6.281
 4576SOL     OW14626   2.528   6.339   5.721
 4576SOL    HW114627   2.431   6.341   5.745
 4576SOL    HW214628   2.577   6.409   5.774
 4577SOL     OW14629   1.557   1.917   5.045
 4577SOL    HW114630   1.568   1.955   5.137
 4577SOL    HW214631   1.556   1.991   4.978
 4578SOL     OW14632   0.341   2.850   5.256
 4578SOL    HW114633   0.397   2.856   5.338
 4578SOL    HW214634   0.256   2.901   5.269
 4579SOL     OW14635   3.959   0.828   3.599
 4579SOL    HW114636   4.020   0.841   3.677
 4579SOL    HW214637   3.886   0.764   3.625
 4580SOL     OW14638   5.772   4.666   0.367
 4580SOL    HW114639   5.675   4.677   0.390
 4580SOL    HW214640   5.822   4.748   0.395
 4581SOL     OW14641   2.439   5.299   2.887
 4581SOL    HW114642   2.444   5.299   2.787
 4581SOL    HW214643   2.516   5.246   2.924
 4582SOL     OW14644   5.159   7.024   5.238
 4582SOL    HW114645   5.202   6.949   5.288
 4582SOL    HW214646   5.229   0.051   5.191
 4583SOL     OW14647   2.433   2.446   6.523
 4583SOL    HW114648   2.351   2.448   6.581
 4583SOL    HW214649   2.512   2.472   6.578
 4584SOL     OW14650   0.018   4.588   5.530
 4584SOL    HW114651   0.096   4.525   5.528
 4584SOL    HW214652   0.050   4.681   5.514
 4585SOL     OW14653   2.834   6.113   3.674
 4585SOL    HW114654   2.918   6.085   3.721
 4585SOL    HW214655   2.755   6.077   3.724
 4586SOL     OW14656   3.811   4.979   0.614
 4586SOL    HW114657   3.749   4.986   0.692
 4586SOL    HW214658   3.821   4.883   0.587
 4587SOL     OW14659   3.575   4.089   3.349
 4587SOL    HW114660   3.561   3.990   3.344
 4587SOL    HW214661   3.586   4.116   3.445
 4588SOL     OW14662   2.452   3.357   5.282
 4588SOL    HW114663   2.431   3.319   5.372
 4588SOL    HW214664   2.549   3.347   5.263
 4589SOL     OW14665   6.065   1.019   2.555
 4589SOL    HW114666   6.012   1.091   2.600
 4589SOL    HW214667   6.159   1.050   2.542
 4590SOL     OW14668   4.938   5.783   1.416
 4590SOL    HW114669   4.857   5.758   1.363
 4590SOL    HW214670   4.913   5.791   1.512
 4591SOL     OW14671   1.326   0.094   4.620
 4591SOL    HW114672   1.311   0.072   4.523
 4591SOL    HW214673   1.269   0.172   4.646
 4592SOL     OW14674   2.563   1.715   2.552
 4592SOL    HW114675   2.527   1.625   2.576
 4592SOL    HW214676   2.515   1.786   2.605
 4593SOL     OW14677   5.034   5.506   2.950
 4593SOL    HW114678   4.985   5.425   2.919
 4593SOL    HW214679   5.085   5.546   2.874
 4594SOL     OW14680   2.876   1.087   3.114
 4594SOL    HW114681   2.854   1.066   3.209
 4594SOL    HW214682   2.792   1.083   3.059
 4595SOL     OW14683   4.059   3.370   5.661
 4595SOL    HW114684   3.988   3.420   5.612
 4595SOL    HW214685   4.095   3.427   5.735
 4596SOL     OW14686   5.853   6.836   1.895
 4596SOL    HW114687   5.859   6.814   1.798
 4596SOL    HW214688   5.811   6.760   1.944
 4597SOL     OW14689   3.659   5.707   5.954
 4597SOL    HW114690   3.613   5.708   6.043
 4597SOL    HW214691   3.712   5.791   5.944
 4598SOL     OW14692   1.739   6.293   6.890
 4598SOL    HW114693   1.668   6.230   6.922
 4598SOL    HW214694   1.829   6.251   6.906
 4599SOL     OW14695   1.201   5.071   0.708
 4599SOL    HW114696   1.106   5.098   0.690
 4599SOL    HW214697   1.253   5.074   0.622
 4600SOL     OW14698   1.345   5.221   5.560
 4600SOL    HW114699   1.255   5.218   5.603
 4600SOL    HW214700   1.352   5.150   5.490
 4601SOL     OW14701   2.257   1.364   5.383
 4601SOL    HW114702   2.172   1.323   5.415
 4601SOL    HW214703   2.238   1.424   5.305
 4602SOL     OW14704   2.791   6.427   1.097
 4602SOL    HW114705   2.877   6.380   1.118
 4602SOL    HW214706   2.810   6.520   1.065
 4603SOL     OW14707   3.065   6.287   0.714
 4603SOL    HW114708   3.068   6.229   0.632
 4603SOL    HW214709   3.158   6.302   0.747
 4604SOL     OW14710   4.785   0.493   0.505
 4604SOL    HW114711   4.748   0.401   0.491
 4604SOL    HW214712   4.806   0.506   0.602
 4605SOL     OW14713   2.762   6.938   2.185
 4605SOL    HW114714   2.670   6.978   2.175
 4605SOL    HW214715   2.818   6.999   2.241
 4606SOL     OW14716   0.832   6.095   2.329
 4606SOL    HW114717   0.822   6.191   2.354
 4606SOL    HW214718   0.910   6.084   2.267
 4607SOL     OW14719   1.631   3.579   1.541
 4607SOL    HW114720   1.595   3.644   1.473
 4607SOL    HW214721   1.686   3.629   1.608
 4608SOL     OW14722   0.496   5.952   3.707
 4608SOL    HW114723   0.547   6.034   3.683
 4608SOL    HW214724   0.463   5.908   3.623
 4609SOL     OW14725   4.104   5.172   6.375
 4609SOL    HW114726   4.055   5.252   6.342
 4609SOL    HW214727   4.159   5.197   6.455
 4610SOL     OW14728   4.555   2.231   0.763
 4610SOL    HW114729   4.592   2.302   0.823
 4610SOL    HW214730   4.455   2.234   0.765
 4611SOL     OW14731   0.922   6.418   6.730
 4611SOL    HW114732   0.966   6.412   6.641
 4611SOL    HW214733   0.887   6.510   6.744
 4612SOL     OW14734   1.263   5.966   0.158
 4612SOL    HW114735   1.302   5.984   0.249
 4612SOL    HW214736   1.191   6.034   0.139
 4613SOL     OW14737   2.125   5.761   1.509
 4613SOL    HW114738   2.111   5.846   1.458
 4613SOL    HW214739   2.223   5.743   1.516
 4614SOL     OW14740   6.168   3.410   3.608
 4614SOL    HW114741   6.178   3.393   3.707
 4614SOL    HW214742   6.126   3.499   3.594
 4615SOL     OW14743   1.922   0.746   0.004
 4615SOL    HW114744   1.891   0.669   0.060
 4615SOL    HW214745   1.859   0.759   6.954
 4616SOL     OW14746   6.460   1.120   4.578
 4616SOL    HW114747   6.406   1.198   4.545
 4616SOL    HW214748   6.478   1.057   4.503
 4617SOL     OW14749   0.637   2.322   2.512
 4617SOL    HW114750   0.722   2.364   2.478
 4617SOL    HW214751   0.651   2.291   2.606
 4618SOL     OW14752   2.244   2.958   4.816
 4618SOL    HW114753   2.300   2.956   4.899
 4618SOL    HW214754   2.269   3.038   4.762
 4619SOL     OW14755   3.229   6.306   3.685
 4619SOL    HW114756   3.168   6.289   3.608
 4619SOL    HW214757   3.322   6.282   3.660
 4620SOL     OW14758   2.776   5.264   0.802
 4620SOL    HW114759   2.829   5.243   0.720
 4620SOL    HW214760   2.713   5.339   0.783
 4621SOL     OW14761   4.990   0.206   2.318
 4621SOL    HW114762   5.043   0.142   2.263
 4621SOL    HW214763   5.023   0.204   2.413
 4622SOL     OW14764   2.897   4.659   0.880
 4622SOL    HW114765   2.846   4.604   0.814
 4622SOL    HW214766   2.983   4.689   0.839
 4623SOL     OW14767   5.599   6.452   0.786
 4623SOL    HW114768   5.574   6.548   0.776
 4623SOL    HW214769   5.651   6.423   0.705
 4624SOL     OW14770   4.038   6.735   3.093
 4624SOL    HW114771   3.959   6.786   3.128
 4624SOL    HW214772   4.119   6.794   3.094
 4625SOL     OW14773   1.943   4.239   1.266
 4625SOL    HW114774   1.868   4.208   1.324
 4625SOL    HW214775   1.923   4.220   1.170
 4626SOL     OW14776   5.633   4.143   1.987
 4626SOL    HW114777   5.725   4.158   1.951
 4626SOL    HW214778   5.566   4.170   1.918
 4627SOL     OW14779   1.815   4.504   4.765
 4627SOL    HW114780   1.884   4.434   4.748
 4627SOL    HW214781   1.844   4.591   4.725
 4628SOL     OW14782   5.930   4.012   3.705
 4628SOL    HW114783   5.921   4.088   3.771
 4628SOL    HW214784   6.001   4.034   3.639
 4629SOL     OW14785   2.349   5.218   5.918
 4629SOL    HW114786   2.426   5.252   5.972
 4629SOL    HW214787   2.365   5.124   5.891
 4630SOL     OW14788   2.913   5.998   2.291
 4630SOL    HW114789   2.846   6.045   2.233
 4630SOL    HW214790   2.944   5.914   2.245
 4631SOL     OW14791   1.691   5.786   3.197
 4631SOL    HW114792   1.760   5.713   3.196
 4631SOL    HW214793   1.656   5.797   3.289
 4632SOL     OW14794   3.118   5.030   2.368
 4632SOL    HW114795   3.147   5.012   2.273
 4632SOL    HW214796   3.054   4.959   2.397
 4633SOL     OW14797   5.798   0.967   4.692
 4633SOL    HW114798   5.825   0.985   4.786
 4633SOL    HW214799   5.772   0.871   4.682
 4634SOL     OW14800   3.168   4.322   5.691
 4634SOL    HW114801   3.216   4.250   5.740
 4634SOL    HW214802   3.129   4.286   5.607
 4635SOL     OW14803   4.878   3.898   1.448
 4635SOL    HW114804   4.857   3.967   1.379
 4635SOL    HW214805   4.879   3.807   1.405
 4636SOL     OW14806   1.224   4.597   6.946
 4636SOL    HW114807   1.129   4.586   6.976
 4636SOL    HW214808   1.285   4.561   7.017
 4637SOL     OW14809   0.869   5.989   0.861
 4637SOL    HW114810   0.901   5.930   0.935
 4637SOL    HW214811   0.769   5.989   0.860
 4638SOL     OW14812   4.236   4.583   6.718
 4638SOL    HW114813   4.264   4.574   6.813
 4638SOL    HW214814   4.189   4.499   6.689
 4639SOL     OW14815   3.848   3.576   5.680
 4639SOL    HW114816   3.857   3.556   5.778
 4639SOL    HW214817   3.895   3.662   5.660
 4640SOL     OW14818   5.030   3.887   4.044
 4640SOL    HW114819   5.035   3.811   3.979
 4640SOL    HW214820   4.967   3.864   4.118
 4641SOL     OW14821   2.350   0.152   4.748
 4641SOL    HW114822   2.297   0.068   4.745
 4641SOL    HW214823   2.346   0.198   4.659
 4642SOL     OW14824   1.312   6.056   4.200
 4642SOL    HW114825   1.301   6.114   4.281
 4642SOL    HW214826   1.223   6.042   4.156
 4643SOL     OW14827   6.672   2.594   0.826
 4643SOL    HW114828   6.616   2.538   0.888
 4643SOL    HW214829   6.643   2.578   0.732
 4644SOL     OW14830   6.833   4.954   5.597
 4644SOL    HW114831   6.797   5.045   5.577
 4644SOL    HW214832   6.874   4.954   5.688
 4645SOL     OW14833   0.642   6.997   4.230
 4645SOL    HW114834   0.717   6.959   4.177
 4645SOL    HW214835   0.563   7.012   4.171
 4646SOL     OW14836   2.117   5.728   3.759
 4646SOL    HW114837   2.035   5.737   3.815
 4646SOL    HW214838   2.168   5.647   3.788
 4647SOL     OW14839   1.781   6.811   2.840
 4647SOL    HW114840   1.868   6.855   2.864
 4647SOL    HW214841   1.785   6.776   2.746
 4648SOL     OW14842   3.427   0.984   2.676
 4648SOL    HW114843   3.487   1.063   2.682
 4648SOL    HW214844   3.389   0.964   2.767
 4649SOL     OW14845   5.243   0.876   6.802
 4649SOL    HW114846   5.298   0.952   6.837
 4649SOL    HW214847   5.174   0.850   6.870
 4650SOL     OW14848   4.928   5.370   2.522
 4650SOL    HW114849   4.876   5.323   2.451
 4650SOL    HW214850   4.876   5.449   2.555
 4651SOL     OW14851   6.432   3.248   0.454
 4651SOL    HW114852   6.431   3.166   0.396
 4651SOL    HW214853   6.364   3.313   0.420
 4652SOL     OW14854   6.418   6.610   4.108
 4652SOL    HW114855   6.347   6.552   4.068
 4652SOL    HW214856   6.435   6.688   4.048
 4653SOL     OW14857   5.273   5.457   1.035
 4653SOL    HW114858   5.315   5.391   1.097
 4653SOL    HW214859   5.238   5.535   1.087
 4654SOL     OW14860   0.476   6.937   0.222
 4654SOL    HW114861   0.503   6.846   0.255
 4654SOL    HW214862   0.505   6.948   0.127
 4655SOL     OW14863   5.826   4.256   1.375
 4655SOL    HW114864   5.856   4.179   1.319
 4655SOL    HW214865   5.849   4.239   1.471
 4656SOL     OW14866   1.272   0.004   2.584
 4656SOL    HW114867   1.345   0.069   2.604
 4656SOL    HW214868   1.243   6.986   2.669
 4657SOL     OW14869   4.313   6.605   2.142
 4657SOL    HW114870   4.233   6.640   2.191
 4657SOL    HW214871   4.390   6.667   2.154
 4658SOL     OW14872   3.903   0.935   3.103
 4658SOL    HW114873   3.943   1.012   3.053
 4658SOL    HW214874   3.955   0.918   3.186
 4659SOL     OW14875   3.304   4.635   5.320
 4659SOL    HW114876   3.345   4.673   5.238
 4659SOL    HW214877   3.343   4.680   5.401
 4660SOL     OW14878   0.952   4.290   5.508
 4660SOL    HW114879   1.037   4.304   5.558
 4660SOL    HW214880   0.947   4.356   5.432
 4661SOL     OW14881   2.921   4.409   5.782
 4661SOL    HW114882   3.020   4.401   5.774
 4661SOL    HW214883   2.877   4.365   5.703
 4662SOL     OW14884   3.370   0.235   5.369
 4662SOL    HW114885   3.462   0.254   5.336
 4662SOL    HW214886   3.347   0.300   5.442
 4663SOL     OW14887   0.467   1.822   1.313
 4663SOL    HW114888   0.484   1.895   1.380
 4663SOL    HW214889   0.415   1.749   1.357
 4664SOL     OW14890   1.294   1.203   1.339
 4664SOL    HW114891   1.207   1.164   1.368
 4664SOL    HW214892   1.357   1.206   1.416
 4665SOL     OW14893   3.631   6.779   6.737
 4665SOL    HW114894   3.607   6.850   6.804
 4665SOL    HW214895   3.556   6.714   6.729
 4666SOL     OW14896   1.742   3.325   0.442
 4666SOL    HW114897   1.830   3.351   0.482
 4666SOL    HW214898   1.695   3.262   0.503
 4667SOL     OW14899   0.028   3.497   2.429
 4667SOL    HW114900   0.050   3.399   2.427
 4667SOL    HW214901   6.994   3.520   2.353
 4668SOL     OW14902   4.070   2.166   2.986
 4668SOL    HW114903   4.083   2.222   3.067
 4668SOL    HW214904   4.143   2.187   2.920
 4669SOL     OW14905   4.657   6.558   6.552
 4669SOL    HW114906   4.579   6.608   6.590
 4669SOL    HW214907   4.704   6.615   6.485
 4670SOL     OW14908   2.137   2.484   5.921
 4670SOL    HW114909   2.086   2.499   5.837
 4670SOL    HW214910   2.096   2.537   5.995
 4671SOL     OW14911   0.134   2.717   0.236
 4671SOL    HW114912   0.186   2.681   0.159
 4671SOL    HW214913   0.187   2.789   0.281
 4672SOL     OW14914   2.456   5.031   5.730
 4672SOL    HW114915   2.497   5.044   5.640
 4672SOL    HW214916   2.505   4.958   5.778
 4673SOL     OW14917   5.086   6.812   2.064
 4673SOL    HW114918   5.050   6.725   2.097
 4673SOL    HW214919   5.183   6.801   2.041
 4674SOL     OW14920   5.273   0.674   6.419
 4674SOL    HW114921   5.215   0.688   6.499
 4674SOL    HW214922   5.219   0.690   6.336
 4675SOL     OW14923   2.410   1.004   6.197
 4675SOL    HW114924   2.372   0.912   6.193
 4675SOL    HW214925   2.339   1.071   6.175
 4676SOL     OW14926   6.789   6.434   4.337
 4676SOL    HW114927   6.696   6.472   4.342
 4676SOL    HW214928   6.784   6.334   4.341
 4677SOL     OW14929   2.522   1.476   6.597
 4677SOL    HW114930   2.472   1.522   6.670
 4677SOL    HW214931   2.596   1.536   6.565
 4678SOL     OW14932   1.479   4.182   3.057
 4678SOL    HW114933   1.485   4.263   2.999
 4678SOL    HW214934   1.571   4.151   3.081
 4679SOL     OW14935   3.558   0.965   0.348
 4679SOL    HW114936   3.652   0.956   0.379
 4679SOL    HW214937   3.557   0.998   0.253
 4680SOL     OW14938   2.847   1.474   0.532
 4680SOL    HW114939   2.891   1.457   0.621
 4680SOL    HW214940   2.762   1.524   0.546
 4681SOL     OW14941   5.157   6.092   6.078
 4681SOL    HW114942   5.152   6.135   5.988
 4681SOL    HW214943   5.184   6.160   6.146
 4682SOL     OW14944   4.598   4.392   5.773
 4682SOL    HW114945   4.644   4.326   5.713
 4682SOL    HW214946   4.506   4.409   5.738
 4683SOL     OW14947   4.341   5.073   2.809
 4683SOL    HW114948   4.415   5.065   2.742
 4683SOL    HW214949   4.328   5.169   2.833
 4684SOL     OW14950   7.000   1.712   5.422
 4684SOL    HW114951   0.010   1.644   5.358
 4684SOL    HW214952   0.036   1.721   5.500
 4685SOL     OW14953   0.736   6.398   5.565
 4685SOL    HW114954   0.808   6.330   5.558
 4685SOL    HW214955   0.764   6.471   5.628
 4686SOL     OW14956   4.441   4.997   0.187
 4686SOL    HW114957   4.356   5.029   0.231
 4686SOL    HW214958   4.422   4.913   0.136
 4687SOL     OW14959   6.355   3.877   4.611
 4687SOL    HW114960   6.411   3.888   4.693
 4687SOL    HW214961   6.381   3.946   4.543
 4688SOL     OW14962   6.121   4.162   4.598
 4688SOL    HW114963   6.023   4.143   4.593
 4688SOL    HW214964   6.157   4.126   4.684
 4689SOL     OW14965   6.001   0.601   0.615
 4689SOL    HW114966   5.954   0.690   0.616
 4689SOL    HW214967   5.985   0.556   0.527
 4690SOL     OW14968   1.472   0.299   6.931
 4690SOL    HW114969   1.388   0.277   6.882
 4690SOL    HW214970   1.476   0.398   6.947
 4691SOL     OW14971   2.938   4.940   1.747
 4691SOL    HW114972   2.945   4.945   1.648
 4691SOL    HW214973   2.852   4.981   1.777
 4692SOL     OW14974   5.737   5.793   2.139
 4692SOL    HW114975   5.770   5.709   2.182
 4692SOL    HW214976   5.791   5.813   2.058
 4693SOL     OW14977   0.962   1.339   3.021
 4693SOL    HW114978   0.923   1.344   3.112
 4693SOL    HW214979   1.060   1.359   3.025
 4694SOL     OW14980   2.361   0.488   0.337
 4694SOL    HW114981   2.354   0.583   0.305
 4694SOL    HW214982   2.361   0.488   0.437
 4695SOL     OW14983   1.845   3.594   1.846
 4695SOL    HW114984   1.785   3.537   1.902
 4695SOL    HW214985   1.912   3.536   1.799
 4696SOL     OW14986   0.391   4.116   0.033
 4696SOL    HW114987   0.443   4.033   0.050
 4696SOL    HW214988   0.327   4.132   0.109
 4697SOL     OW14989   2.202   3.237   1.118
 4697SOL    HW114990   2.261   3.199   1.188
 4697SOL    HW214991   2.248   3.316   1.076
 4698SOL     OW14992   4.302   5.324   2.909
 4698SOL    HW114993   4.262   5.290   2.995
 4698SOL    HW214994   4.239   5.388   2.866
 4699SOL     OW14995   1.949   6.719   1.978
 4699SOL    HW114996   1.851   6.726   1.994
 4699SOL    HW214997   1.967   6.717   1.880
 4700SOL     OW14998   6.594   1.885   2.778
 4700SOL    HW114999   6.510   1.832   2.792
 4700SOL    HW215000   6.576   1.959   2.714
 4701SOL     OW15001   2.334   2.230   0.114
 4701SOL    HW115002   2.429   2.258   0.099
 4701SOL    HW215003   2.294   2.200   0.027
 4702SOL     OW15004   4.074   5.205   6.889
 4702SOL    HW115005   4.142   5.148   6.935
 4702SOL    HW215006   4.070   5.182   6.792
 4703SOL     OW15007   0.838   0.999   1.512
 4703SOL    HW115008   0.826   0.936   1.588
 4703SOL    HW215009   0.753   1.050   1.497
 4704SOL     OW15010   0.789   6.716   0.248
 4704SOL    HW115011   0.690   6.718   0.255
 4704SOL    HW215012   0.819   6.779   0.177
 4705SOL     OW15013   3.436   3.267   2.037
 4705SOL    HW115014   3.359   3.327   2.061
 4705SOL    HW215015   3.404   3.174   2.026
 4706SOL     OW15016   3.548   0.355   6.690
 4706SOL    HW115017   3.626   0.417   6.694
 4706SOL    HW215018   3.497   0.359   6.776
 4707SOL     OW15019   1.718   6.518   1.177
 4707SOL    HW115020   1.793   6.564   1.223
 4707SOL    HW215021   1.716   6.545   1.080
 4708SOL     OW15022   1.207   1.724   6.707
 4708SOL    HW115023   1.126   1.727   6.650
 4708SOL    HW215024   1.259   1.640   6.688
 4709SOL     OW15025   4.170   5.755   5.815
 4709SOL    HW115026   4.130   5.785   5.729
 4709SOL    HW215027   4.234   5.680   5.798
 4710SOL     OW15028   3.734   1.197   5.253
 4710SOL    HW115029   3.772   1.142   5.327
 4710SOL    HW215030   3.781   1.176   5.167
 4711SOL     OW15031   5.641   0.949   1.538
 4711SOL    HW115032   5.555   0.974   1.492
 4711SOL    HW215033   5.656   0.851   1.530
 4712SOL     OW15034   2.893   4.381   6.962
 4712SOL    HW115035   2.849   4.439   6.892
 4712SOL    HW215036   2.991   4.377   6.945
 4713SOL     OW15037   3.159   3.439   0.276
 4713SOL    HW115038   3.093   3.493   0.328
 4713SOL    HW215039   3.159   3.345   0.310
 4714SOL     OW15040   1.057   2.628   6.875
 4714SOL    HW115041   1.154   2.649   6.887
 4714SOL    HW215042   1.004   2.713   6.880
 4715SOL     OW15043   5.995   2.432   2.456
 4715SOL    HW115044   5.921   2.424   2.522
 4715SOL    HW215045   6.005   2.345   2.407
 4716SOL     OW15046   4.879   5.801   6.701
 4716SOL    HW115047   4.805   5.867   6.713
 4716SOL    HW215048   4.935   5.799   6.784
 4717SOL     OW15049   0.248   6.878   3.436
 4717SOL    HW115050   0.337   6.846   3.404
 4717SOL    HW215051   0.206   6.808   3.495
 4718SOL     OW15052   5.855   2.842   1.411
 4718SOL    HW115053   5.804   2.889   1.483
 4718SOL    HW215054   5.797   2.831   1.331
 4719SOL     OW15055   5.379   3.247   2.038
 4719SOL    HW115056   5.313   3.224   1.967
 4719SOL    HW215057   5.339   3.315   2.100
 4720SOL     OW15058   2.579   5.319   6.063
 4720SOL    HW115059   2.607   5.415   6.057
 4720SOL    HW215060   2.518   5.307   6.141
 4721SOL     OW15061   0.107   2.272   1.759
 4721SOL    HW115062   0.115   2.223   1.846
 4721SOL    HW215063   0.056   2.357   1.773
 4722SOL     OW15064   1.092   6.176   6.505
 4722SOL    HW115065   1.184   6.146   6.528
 4722SOL    HW215066   1.093   6.274   6.485
 4723SOL     OW15067   2.025   3.970   5.667
 4723SOL    HW115068   2.011   3.987   5.764
 4723SOL    HW215069   2.011   4.056   5.616
 4724SOL     OW15070   5.721   5.908   3.076
 4724SOL    HW115071   5.757   5.815   3.072
 4724SOL    HW215072   5.794   5.973   3.056
 4725SOL     OW15073   6.072   5.748   2.960
 4725SOL    HW115074   6.123   5.662   2.952
 4725SOL    HW215075   5.989   5.732   3.014
 4726SOL     OW15076   1.987   2.581   5.677
 4726SOL    HW115077   1.976   2.503   5.615
 4726SOL    HW215078   1.904   2.592   5.733
 4727SOL     OW15079   0.708   5.856   0.477
 4727SOL    HW115080   0.726   5.803   0.394
 4727SOL    HW215081   0.633   5.919   0.460
 4728SOL     OW15082   5.682   0.744   2.072
 4728SOL    HW115083   5.708   0.838   2.096
 4728SOL    HW215084   5.692   0.731   1.974
 4729SOL     OW15085   2.685   1.443   1.039
 4729SOL    HW115086   2.759   1.436   1.106
 4729SOL    HW215087   2.722   1.471   0.951
 4730SOL     OW15088   3.271   5.765   4.776
 4730SOL    HW115089   3.172   5.773   4.779
 4730SOL    HW215090   3.311   5.855   4.754
 4731SOL     OW15091   4.482   0.258   0.008
 4731SOL    HW115092   4.420   0.299   6.967
 4731SOL    HW215093   4.556   0.322   0.028
 4732SOL     OW15094   1.230   3.423   6.278
 4732SOL    HW115095   1.197   3.404   6.370
 4732SOL    HW215096   1.277   3.342   6.242
 4733SOL     OW15097   1.217   3.893   3.581
 4733SOL    HW115098   1.293   3.889   3.516
 4733SOL    HW215099   1.172   3.982   3.573
 4734SOL     OW15100   4.571   2.589   0.734
 4734SOL    HW115101   4.519   2.585   0.649
 4734SOL    HW215102   4.596   2.496   0.762
 4735SOL     OW15103   6.853   5.967   4.985
 4735SOL    HW115104   6.914   5.908   5.039
 4735SOL    HW215105   6.900   6.053   4.964
 4736SOL     OW15106   0.112   2.614   6.341
 4736SOL    HW115107   0.092   2.693   6.283
 4736SOL    HW215108   0.150   2.540   6.286
 4737SOL     OW15109   2.373   4.351   2.342
 4737SOL    HW115110   2.406   4.264   2.379
 4737SOL    HW215111   2.418   4.426   2.389
 4738SOL     OW15112   0.356   6.433   3.425
 4738SOL    HW115113   0.267   6.466   3.455
 4738SOL    HW215114   0.427   6.499   3.448
 4739SOL     OW15115   4.208   6.359   3.376
 4739SOL    HW115116   4.156   6.305   3.442
 4739SOL    HW215117   4.306   6.346   3.391
 4740SOL     OW15118   0.854   1.304   1.251
 4740SOL    HW115119   0.835   1.303   1.349
 4740SOL    HW215120   0.853   1.211   1.215
 4741SOL     OW15121   3.936   3.197   1.469
 4741SOL    HW115122   4.002   3.259   1.426
 4741SOL    HW215123   3.932   3.112   1.417
 4742SOL     OW15124   3.341   6.989   5.614
 4742SOL    HW115125   3.390   0.002   5.691
 4742SOL    HW215126   3.243   6.994   5.631
 4743SOL     OW15127   1.828   3.226   2.917
 4743SOL    HW115128   1.824   3.236   2.817
 4743SOL    HW215129   1.736   3.208   2.952
 4744SOL     OW15130   1.250   4.545   0.682
 4744SOL    HW115131   1.225   4.629   0.729
 4744SOL    HW215132   1.192   4.470   0.714
 4745SOL     OW15133   3.230   3.679   5.621
 4745SOL    HW115134   3.213   3.608   5.689
 4745SOL    HW215135   3.311   3.654   5.567
 4746SOL     OW15136   5.608   6.182   2.710
 4746SOL    HW115137   5.703   6.170   2.680
 4746SOL    HW215138   5.598   6.145   2.802
 4747SOL     OW15139   1.522   3.796   0.052
 4747SOL    HW115140   1.494   3.841   6.994
 4747SOL    HW215141   1.447   3.738   0.086
 4748SOL     OW15142   2.691   5.236   1.087
 4748SOL    HW115143   2.756   5.252   1.013
 4748SOL    HW215144   2.635   5.317   1.100
 4749SOL     OW15145   2.046   6.153   5.862
 4749SOL    HW115146   2.029   6.122   5.768
 4749SOL    HW215147   2.076   6.075   5.918
 4750SOL     OW15148   0.222   3.639   4.769
 4750SOL    HW115149   0.263   3.696   4.697
 4750SOL    HW215150   0.200   3.696   4.847
 4751SOL     OW15151   3.722   1.994   2.310
 4751SOL    HW115152   3.640   2.011   2.256
 4751SOL    HW215153   3.701   2.006   2.407
 4752SOL     OW15154   4.241   1.400   6.398
 4752SOL    HW115155   4.303   1.345   6.454
 4752SOL    HW215156   4.294   1.453   6.332
 4753SOL     OW15157   6.324   0.425   3.692
 4753SOL    HW115158   6.305   0.470   3.779
 4753SOL    HW215159   6.400   0.471   3.647
 4754SOL     OW15160   5.546   4.695   4.710
 4754SOL    HW115161   5.581   4.624   4.772
 4754SOL    HW215162   5.593   4.689   4.623
 4755SOL     OW15163   3.167   0.789   0.469
 4755SOL    HW115164   3.242   0.736   0.427
 4755SOL    HW215165   3.128   0.851   0.401
 4756SOL     OW15166   5.888   2.684   6.695
 4756SOL    HW115167   5.937   2.665   6.610
 4756SOL    HW215168   5.813   2.620   6.705
 4757SOL     OW15169   2.423   1.738   1.479
 4757SOL    HW115170   2.403   1.647   1.517
 4757SOL    HW215171   2.483   1.788   1.541
 4758SOL     OW15172   1.604   6.328   3.656
 4758SOL    HW115173   1.594   6.327   3.557
 4758SOL    HW215174   1.515   6.337   3.699
 4759SOL     OW15175   6.584   4.437   5.333
 4759SOL    HW115176   6.603   4.371   5.260
 4759SOL    HW215177   6.661   4.500   5.342
 4760SOL     OW15178   2.221   1.949   0.142
 4760SOL    HW115179   2.171   2.035   0.132
 4760SOL    HW215180   2.258   1.921   0.054
 4761SOL     OW15181   0.949   6.512   0.660
 4761SOL    HW115182   0.869   6.465   0.699
 4761SOL    HW215183   0.918   6.591   0.608
 4762SOL     OW15184   1.597   5.696   1.813
 4762SOL    HW115185   1.640   5.623   1.865
 4762SOL    HW215186   1.666   5.740   1.754
 4763SOL     OW15187   6.207   0.224   2.677
 4763SOL    HW115188   6.176   0.284   2.603
 4763SOL    HW215189   6.288   0.264   2.721
 4764SOL     OW15190   4.953   3.717   4.876
 4764SOL    HW115191   5.040   3.669   4.890
 4764SOL    HW215192   4.882   3.672   4.929
 4765SOL     OW15193   4.662   0.793   4.891
 4765SOL    HW115194   4.590   0.768   4.826
 4765SOL    HW215195   4.631   0.871   4.946
 4766SOL     OW15196   5.694   5.982   3.751
 4766SOL    HW115197   5.715   6.036   3.832
 4766SOL    HW215198   5.645   6.038   3.684
 4767SOL     OW15199   2.815   5.781   5.131
 4767SOL    HW115200   2.733   5.826   5.095
 4767SOL    HW215201   2.815   5.685   5.104
 4768SOL     OW15202   4.697   2.243   6.375
 4768SOL    HW115203   4.763   2.194   6.317
 4768SOL    HW215204   4.626   2.179   6.404
 4769SOL     OW15205   4.914   5.364   6.795
 4769SOL    HW115206   4.815   5.371   6.795
 4769SOL    HW215207   4.943   5.290   6.734
 4770SOL     OW15208   6.741   1.579   4.266
 4770SOL    HW115209   6.773   1.670   4.238
 4770SOL    HW215210   6.736   1.520   4.185
 4771SOL     OW15211   2.734   5.822   5.796
 4771SOL    HW115212   2.771   5.735   5.764
 4771SOL    HW215213   2.809   5.887   5.813
 4772SOL     OW15214   4.211   5.044   0.675
 4772SOL    HW115215   4.156   5.023   0.757
 4772SOL    HW215216   4.257   4.961   0.644
 4773SOL     OW15217   6.639   5.437   4.574
 4773SOL    HW115218   6.571   5.430   4.648
 4773SOL    HW215219   6.731   5.439   4.614
 4774SOL     OW15220   2.054   3.358   1.549
 4774SOL    HW115221   2.037   3.263   1.526
 4774SOL    HW215222   2.068   3.367   1.648
 4775SOL     OW15223   5.962   6.895   2.985
 4775SOL    HW115224   6.040   6.839   3.013
 4775SOL    HW215225   5.992   6.962   2.917
 4776SOL     OW15226   1.489   6.389   5.531
 4776SOL    HW115227   1.490   6.299   5.573
 4776SOL    HW215228   1.463   6.458   5.599
 4777SOL     OW15229   1.602   5.161   1.117
 4777SOL    HW115230   1.524   5.205   1.163
 4777SOL    HW215231   1.685   5.176   1.172
 4778SOL     OW15232   6.478   2.957   4.048
 4778SOL    HW115233   6.489   2.949   3.949
 4778SOL    HW215234   6.480   3.053   4.075
 4779SOL     OW15235   5.676   5.958   2.579
 4779SOL    HW115236   5.615   6.032   2.609
 4779SOL    HW215237   5.733   5.929   2.656
 4780SOL     OW15238   5.864   2.022   6.770
 4780SOL    HW115239   5.790   2.035   6.705
 4780SOL    HW215240   5.850   2.080   6.850
 4781SOL     OW15241   2.750   5.741   2.752
 4781SOL    HW115242   2.833   5.759   2.805
 4781SOL    HW215243   2.679   5.805   2.781
 4782SOL     OW15244   5.973   5.473   6.902
 4782SOL    HW115245   5.896   5.533   6.882
 4782SOL    HW215246   5.940   5.379   6.912
 4783SOL     OW15247   4.802   3.735   6.832
 4783SOL    HW115248   4.716   3.742   6.883
 4783SOL    HW215249   4.819   3.639   6.809
 4784SOL     OW15250   6.334   3.172   6.073
 4784SOL    HW115251   6.275   3.092   6.081
 4784SOL    HW215252   6.428   3.146   6.093
 4785SOL     OW15253   1.281   6.095   3.018
 4785SOL    HW115254   1.284   6.015   2.957
 4785SOL    HW215255   1.239   6.068   3.105
 4786SOL     OW15256   2.791   0.302   0.550
 4786SOL    HW115257   2.774   0.383   0.493
 4786SOL    HW215258   2.705   0.252   0.563
 4787SOL     OW15259   4.159   1.122   2.893
 4787SOL    HW115260   4.081   1.185   2.891
 4787SOL    HW215261   4.239   1.169   2.857
 4788SOL     OW15262   6.553   6.010   6.747
 4788SOL    HW115263   6.477   5.945   6.746
 4788SOL    HW215264   6.547   6.071   6.668
 4789SOL     OW15265   4.917   1.527   1.603
 4789SOL    HW115266   5.012   1.503   1.584
 4789SOL    HW215267   4.909   1.561   1.696
 4790SOL     OW15268   5.785   1.586   5.654
 4790SOL    HW115269   5.738   1.613   5.739
 4790SOL    HW215270   5.806   1.668   5.600
 4791SOL     OW15271   0.133   3.015   1.261
 4791SOL    HW115272   0.200   3.049   1.327
 4791SOL    HW215273   0.134   2.915   1.262
 4792SOL     OW15274   2.472   4.842   3.825
 4792SOL    HW115275   2.386   4.892   3.812
 4792SOL    HW215276   2.530   4.892   3.890
 4793SOL     OW15277   2.391   2.749   5.203
 4793SOL    HW115278   2.405   2.835   5.154
 4793SOL    HW215279   2.480   2.711   5.230
 4794SOL     OW15280   5.335   7.009   4.854
 4794SOL    HW115281   5.265   6.997   4.785
 4794SOL    HW215282   5.394   6.928   4.857
 4795SOL     OW15283   6.207   2.171   4.096
 4795SOL    HW115284   6.201   2.100   4.026
 4795SOL    HW215285   6.175   2.135   4.183
 4796SOL     OW15286   4.913   1.146   4.906
 4796SOL    HW115287   4.887   1.239   4.932
 4796SOL    HW215288   4.852   1.081   4.949
 4797SOL     OW15289   0.594   6.806   5.692
 4797SOL    HW115290   0.540   6.779   5.613
 4797SOL    HW215291   0.540   6.866   5.751
 4798SOL     OW15292   0.099   4.234   5.568
 4798SOL    HW115293   0.126   4.152   5.518
 4798SOL    HW215294   0.151   4.313   5.533
 4799SOL     OW15295   3.920   1.630   0.675
 4799SOL    HW115296   3.858   1.553   0.665
 4799SOL    HW215297   3.975   1.640   0.592
 4800SOL     OW15298   2.923   3.179   7.017
 4800SOL    HW115299   2.985   3.115   6.974
 4800SOL    HW215300   2.968   3.223   0.069
 4801SOL     OW15301   3.288   2.269   6.915
 4801SOL    HW115302   3.292   2.172   6.939
 4801SOL    HW215303   3.322   2.283   6.822
 4802SOL     OW15304   0.583   6.407   1.951
 4802SOL    HW115305   0.682   6.415   1.938
 4802SOL    HW215306   0.540   6.495   1.938
 4803SOL     OW15307   0.113   4.630   6.646
 4803SOL    HW115308   0.185   4.605   6.711
 4803SOL    HW215309   0.093   4.727   6.656
 4804SOL     OW15310   6.952   6.383   1.688
 4804SOL    HW115311   7.016   6.346   1.755
 4804SOL    HW215312   6.957   6.483   1.689
 4805SOL     OW15313   5.569   1.335   2.063
 4805SOL    HW115314   5.476   1.307   2.041
 4805SOL    HW215315   5.602   1.399   1.993
 4806SOL     OW15316   1.018   4.494   2.347
 4806SOL    HW115317   1.056   4.422   2.289
 4806SOL    HW215318   0.961   4.555   2.293
 4807SOL     OW15319   0.365   4.892   0.237
 4807SOL    HW115320   0.342   4.986   0.211
 4807SOL    HW215321   0.296   4.857   0.300
 4808SOL     OW15322   4.530   5.350   0.982
 4808SOL    HW115323   4.469   5.348   0.903
 4808SOL    HW215324   4.542   5.444   1.012
 4809SOL     OW15325   3.731   4.995   0.218
 4809SOL    HW115326   3.758   4.911   0.172
 4809SOL    HW215327   3.807   5.027   0.276
 4810SOL     OW15328   1.673   4.272   2.615
 4810SOL    HW115329   1.597   4.336   2.596
 4810SOL    HW215330   1.636   4.183   2.639
 4811SOL     OW15331   2.846   4.073   1.718
 4811SOL    HW115332   2.765   4.017   1.703
 4811SOL    HW215333   2.881   4.059   1.810
 4812SOL     OW15334   0.624   5.891   2.308
 4812SOL    HW115335   0.613   5.856   2.215
 4812SOL    HW215336   0.666   5.982   2.305
 4813SOL     OW15337   5.850   1.763   6.870
 4813SOL    HW115338   5.786   1.701   6.825
 4813SOL    HW215339   5.835   1.857   6.838
 4814SOL     OW15340   0.038   3.134   1.013
 4814SOL    HW115341   0.009   3.216   1.064
 4814SOL    HW215342   0.086   3.072   1.075
 4815SOL     OW15343   5.212   3.575   2.809
 4815SOL    HW115344   5.261   3.632   2.875
 4815SOL    HW215345   5.232   3.607   2.716
 4816SOL     OW15346   2.202   4.799   1.220
 4816SOL    HW115347   2.229   4.892   1.193
 4816SOL    HW215348   2.260   4.769   1.296
 4817SOL     OW15349   2.240   1.590   0.423
 4817SOL    HW115350   2.309   1.610   0.353
 4817SOL    HW215351   2.265   1.506   0.470
 4818SOL     OW15352   0.577   0.239   4.597
 4818SOL    HW115353   0.580   0.139   4.589
 4818SOL    HW215354   0.625   0.280   4.520
 4819SOL     OW15355   2.315   2.096   1.446
 4819SOL    HW115356   2.317   2.014   1.389
 4819SOL    HW215357   2.272   2.171   1.395
 4820SOL     OW15358   6.566   2.414   2.100
 4820SOL    HW115359   6.558   2.401   2.001
 4820SOL    HW215360   6.485   2.376   2.145
 4821SOL     OW15361   0.635   6.602   2.562
 4821SOL    HW115362   0.718   6.656   2.565
 4821SOL    HW215363   0.566   6.649   2.507
 4822SOL     OW15364   2.106   3.394   4.502
 4822SOL    HW115365   2.087   3.435   4.591
 4822SOL    HW215366   2.129   3.297   4.515
 4823SOL     OW15367   1.300   0.697   4.236
 4823SOL    HW115368   1.387   0.734   4.203
 4823SOL    HW215369   1.232   0.771   4.240
 4824SOL     OW15370   5.058   2.034   4.385
 4824SOL    HW115371   4.979   2.091   4.404
 4824SOL    HW215372   5.029   1.949   4.341
 4825SOL     OW15373   1.776   2.317   4.967
 4825SOL    HW115374   1.736   2.343   5.054
 4825SOL    HW215375   1.704   2.300   4.900
 4826SOL     OW15376   0.298   1.546   6.376
 4826SOL    HW115377   0.216   1.490   6.369
 4826SOL    HW215378   0.319   1.563   6.472
 4827SOL     OW15379   6.151   1.375   1.467
 4827SOL    HW115380   6.093   1.295   1.479
 4827SOL    HW215381   6.197   1.371   1.378
 4828SOL     OW15382   5.418   3.278   1.267
 4828SOL    HW115383   5.429   3.230   1.354
 4828SOL    HW215384   5.507   3.302   1.230
 4829SOL     OW15385   4.372   6.973   6.688
 4829SOL    HW115386   4.395   0.024   6.630
 4829SOL    HW215387   4.314   7.003   6.764
 4830SOL     OW15388   4.558   6.767   3.959
 4830SOL    HW115389   4.590   6.685   4.008
 4830SOL    HW215390   4.460   6.759   3.942
 4831SOL     OW15391   0.216   4.489   6.132
 4831SOL    HW115392   0.231   4.573   6.185
 4831SOL    HW215393   0.142   4.436   6.174
 4832SOL     OW15394   2.948   3.337   4.683
 4832SOL    HW115395   2.852   3.324   4.659
 4832SOL    HW215396   2.954   3.370   4.778
 4833SOL     OW15397   5.012   1.854   3.071
 4833SOL    HW115398   5.010   1.930   3.006
 4833SOL    HW215399   4.938   1.790   3.051
 4834SOL     OW15400   4.368   6.347   1.240
 4834SOL    HW115401   4.284   6.353   1.187
 4834SOL    HW215402   4.388   6.251   1.260
 4835SOL     OW15403   0.109   1.297   6.433
 4835SOL    HW115404   0.149   1.228   6.372
 4835SOL    HW215405   0.044   1.252   6.495
 4836SOL     OW15406   5.078   2.619   4.396
 4836SOL    HW115407   5.112   2.701   4.441
 4836SOL    HW215408   5.032   2.561   4.462
 4837SOL     OW15409   5.983   3.924   2.491
 4837SOL    HW115410   5.996   3.851   2.558
 4837SOL    HW215411   5.906   3.902   2.432
 4838SOL     OW15412   0.748   5.096   0.696
 4838SOL    HW115413   0.766   5.020   0.632
 4838SOL    HW215414   0.798   5.080   0.781
 4839SOL     OW15415   1.892   2.957   6.698
 4839SOL    HW115416   1.909   3.043   6.746
 4839SOL    HW215417   1.931   2.881   6.749
 4840SOL     OW15418   6.720   5.488   5.974
 4840SOL    HW115419   6.719   5.499   6.073
 4840SOL    HW215420   6.635   5.525   5.935
 4841SOL     OW15421   3.004   5.735   2.264
 4841SOL    HW115422   3.008   5.639   2.236
 4841SOL    HW215423   2.936   5.746   2.337
 4842SOL     OW15424   3.835   4.850   2.752
 4842SOL    HW115425   3.925   4.817   2.779
 4842SOL    HW215426   3.842   4.906   2.670
 4843SOL     OW15427   6.355   2.887   0.810
 4843SOL    HW115428   6.410   2.882   0.894
 4843SOL    HW215429   6.358   2.980   0.773
 4844SOL     OW15430   7.009   3.144   5.587
 4844SOL    HW115431   0.053   3.201   5.630
 4844SOL    HW215432   6.931   3.135   5.649
 4845SOL     OW15433   5.297   5.505   5.737
 4845SOL    HW115434   5.352   5.421   5.738
 4845SOL    HW215435   5.354   5.582   5.765
 4846SOL     OW15436   6.810   3.339   3.698
 4846SOL    HW115437   6.724   3.323   3.748
 4846SOL    HW215438   6.887   3.330   3.761
 4847SOL     OW15439   2.850   1.130   5.977
 4847SOL    HW115440   2.775   1.185   6.013
 4847SOL    HW215441   2.869   1.054   6.040
 4848SOL     OW15442   1.856   0.686   3.854
 4848SOL    HW115443   1.843   0.785   3.848
 4848SOL    HW215444   1.769   0.640   3.836
 4849SOL     OW15445   1.489   6.738   6.700
 4849SOL    HW115446   1.528   6.828   6.678
 4849SOL    HW215447   1.415   6.750   6.766
 4850SOL     OW15448   4.014   1.879   2.404
 4850SOL    HW115449   4.033   1.919   2.315
 4850SOL    HW215450   3.930   1.825   2.399
 4851SOL     OW15451   4.566   6.182   5.592
 4851SOL    HW115452   4.491   6.211   5.652
 4851SOL    HW215453   4.638   6.139   5.647
 4852SOL     OW15454   1.546   6.119   5.153
 4852SOL    HW115455   1.533   6.213   5.186
 4852SOL    HW215456   1.643   6.104   5.134
 4853SOL     OW15457   3.189   1.214   3.331
 4853SOL    HW115458   3.187   1.135   3.269
 4853SOL    HW215459   3.243   1.287   3.290
 4854SOL     OW15460   4.636   0.008   1.461
 4854SOL    HW115461   4.628   0.048   1.370
 4854SOL    HW215462   4.546   7.026   1.503
 4855SOL     OW15463   6.301   2.581   2.857
 4855SOL    HW115464   6.323   2.568   2.954
 4855SOL    HW215465   6.309   2.493   2.809
 4856SOL     OW15466   1.687   3.567   2.631
 4856SOL    HW115467   1.624   3.503   2.587
 4856SOL    HW215468   1.654   3.588   2.723
 4857SOL     OW15469   2.049   2.189   4.918
 4857SOL    HW115470   2.084   2.273   4.960
 4857SOL    HW215471   1.949   2.189   4.923
 4858SOL     OW15472   0.658   0.795   4.270
 4858SOL    HW115473   0.671   0.747   4.356
 4858SOL    HW215474   0.622   0.887   4.288
 4859SOL     OW15475   0.552   0.719   4.844
 4859SOL    HW115476   0.516   0.760   4.760
 4859SOL    HW215477   0.509   0.762   4.923
 4860SOL     OW15478   4.121   4.419   1.642
 4860SOL    HW115479   4.070   4.419   1.556
 4860SOL    HW215480   4.196   4.353   1.636
 4861SOL     OW15481   5.633   4.375   0.118
 4861SOL    HW115482   5.552   4.408   0.165
 4861SOL    HW215483   5.714   4.392   0.175
 4862SOL     OW15484   2.742   5.065   4.676
 4862SOL    HW115485   2.785   4.985   4.718
 4862SOL    HW215486   2.653   5.081   4.718
 4863SOL     OW15487   5.886   3.805   1.950
 4863SOL    HW115488   5.853   3.886   1.902
 4863SOL    HW215489   5.813   3.737   1.955
 4864SOL     OW15490   4.023   1.485   2.763
 4864SOL    HW115491   4.032   1.445   2.854
 4864SOL    HW215492   3.929   1.514   2.749
 4865SOL     OW15493   2.305   6.834   4.506
 4865SOL    HW115494   2.228   6.894   4.483
 4865SOL    HW215495   2.270   6.746   4.537
 4866SOL     OW15496   6.242   2.825   1.778
 4866SOL    HW115497   6.162   2.833   1.837
 4866SOL    HW215498   6.299   2.748   1.809
 4867SOL     OW15499   3.372   5.228   2.034
 4867SOL    HW115500   3.367   5.289   1.955
 4867SOL    HW215501   3.427   5.148   2.010
 4868SOL     OW15502   6.800   4.767   2.791
 4868SOL    HW115503   6.793   4.683   2.737
 4868SOL    HW215504   6.710   4.793   2.825
 4869SOL     OW15505   1.108   1.188   2.048
 4869SOL    HW115506   1.048   1.162   1.972
 4869SOL    HW215507   1.202   1.160   2.028
 4870SOL     OW15508   0.176   5.632   2.107
 4870SOL    HW115509   0.102   5.595   2.163
 4870SOL    HW215510   0.263   5.593   2.135
 4871SOL     OW15511   1.615   1.414   3.506
 4871SOL    HW115512   1.620   1.349   3.430
 4871SOL    HW215513   1.661   1.499   3.480
 4872SOL     OW15514   5.914   6.236   3.665
 4872SOL    HW115515   5.919   6.169   3.592
 4872SOL    HW215516   6.000   6.239   3.716
 4873SOL     OW15517   0.053   4.963   3.262
 4873SOL    HW115518   0.064   4.924   3.353
 4873SOL    HW215519   0.122   5.034   3.248
 4874SOL     OW15520   5.957   3.352   2.993
 4874SOL    HW115521   6.005   3.359   2.905
 4874SOL    HW215522   6.008   3.292   3.054
 4875SOL     OW15523   5.987   2.595   1.443
 4875SOL    HW115524   6.084   2.614   1.427
 4875SOL    HW215525   5.933   2.677   1.422
 4876SOL     OW15526   5.604   1.372   4.292
 4876SOL    HW115527   5.580   1.277   4.272
 4876SOL    HW215528   5.566   1.431   4.220
 4877SOL     OW15529   1.531   1.913   6.795
 4877SOL    HW115530   1.450   1.898   6.739
 4877SOL    HW215531   1.544   2.011   6.810
 4878SOL     OW15532   6.718   0.422   3.047
 4878SOL    HW115533   6.738   0.335   3.093
 4878SOL    HW215534   6.798   0.481   3.050
 4879SOL     OW15535   4.679   6.756   2.622
 4879SOL    HW115536   4.735   6.751   2.704
 4879SOL    HW215537   4.585   6.731   2.645
 4880SOL     OW15538   5.552   3.344   0.103
 4880SOL    HW115539   5.518   3.273   0.166
 4880SOL    HW215540   5.608   3.301   0.032
 4881SOL     OW15541   1.509   1.094   6.646
 4881SOL    HW115542   1.583   1.095   6.714
 4881SOL    HW215543   1.450   1.173   6.660
 4882SOL     OW15544   5.132   1.602   5.057
 4882SOL    HW115545   5.091   1.630   5.143
 4882SOL    HW215546   5.200   1.669   5.028
 4883SOL     OW15547   5.039   4.655   1.988
 4883SOL    HW115548   5.010   4.751   1.988
 4883SOL    HW215549   4.966   4.599   2.027
 4884SOL     OW15550   3.048   6.594   1.560
 4884SOL    HW115551   2.958   6.580   1.521
 4884SOL    HW215552   3.059   6.536   1.641
 4885SOL     OW15553   2.487   5.030   1.888
 4885SOL    HW115554   2.488   4.931   1.871
 4885SOL    HW215555   2.421   5.051   1.960
 4886SOL     OW15556   1.298   5.572   1.233
 4886SOL    HW115557   1.246   5.586   1.317
 4886SOL    HW215558   1.380   5.629   1.234
 4887SOL     OW15559   0.912   0.314   2.770
 4887SOL    HW115560   0.938   0.289   2.864
 4887SOL    HW215561   0.815   0.337   2.767
 4888SOL     OW15562   2.548   6.692   4.015
 4888SOL    HW115563   2.465   6.638   4.001
 4888SOL    HW215564   2.578   6.682   4.110
 4889SOL     OW15565   6.934   1.345   6.083
 4889SOL    HW115566   6.972   1.379   6.169
 4889SOL    HW215567   6.869   1.412   6.046
 4890SOL     OW15568   0.898   1.268   6.872
 4890SOL    HW115569   0.952   1.336   6.921
 4890SOL    HW215570   0.879   1.190   6.933
 4891SOL     OW15571   1.632   4.711   6.741
 4891SOL    HW115572   1.546   4.750   6.708
 4891SOL    HW215573   1.684   4.674   6.664
 4892SOL     OW15574   3.432   5.964   1.894
 4892SOL    HW115575   3.508   6.005   1.844
 4892SOL    HW215576   3.407   5.877   1.852
 4893SOL     OW15577   6.531   3.509   1.604
 4893SOL    HW115578   6.530   3.541   1.699
 4893SOL    HW215579   6.455   3.552   1.554
 4894SOL     OW15580   2.392   1.327   3.167
 4894SOL    HW115581   2.331   1.334   3.088
 4894SOL    HW215582   2.375   1.403   3.229
 4895SOL     OW15583   0.488   4.632   3.724
 4895SOL    HW115584   0.397   4.603   3.752
 4895SOL    HW215585   0.483   4.726   3.690
 4896SOL     OW15586   1.647   5.095   2.249
 4896SOL    HW115587   1.635   5.006   2.207
 4896SOL    HW215588   1.734   5.097   2.300
 4897SOL     OW15589   2.400   3.985   5.796
 4897SOL    HW115590   2.475   3.958   5.736
 4897SOL    HW215591   2.431   3.981   5.891
 4898SOL     OW15592   4.076   0.865   4.461
 4898SOL    HW115593   4.031   0.830   4.544
 4898SOL    HW215594   4.065   0.799   4.387
 4899SOL     OW15595   5.481   5.207   3.088
 4899SOL    HW115596   5.479   5.302   3.122
 4899SOL    HW215597   5.548   5.155   3.142
 4900SOL     OW15598   2.073   6.330   4.679
 4900SOL    HW115599   2.041   6.415   4.638
 4900SOL    HW215600   2.157   6.300   4.633
 4901SOL     OW15601   3.624   0.376   5.661
 4901SOL    HW115602   3.617   0.277   5.653
 4901SOL    HW215603   3.711   0.400   5.705
 4902SOL     OW15604   2.327   1.759   4.479
 4902SOL    HW115605   2.321   1.771   4.380
 4902SOL    HW215606   2.312   1.846   4.525
 4903SOL     OW15607   3.907   6.265   6.582
 4903SOL    HW115608   3.974   6.339   6.574
 4903SOL    HW215609   3.818   6.299   6.552
 4904SOL     OW15610   2.236   6.756   4.078
 4904SOL    HW115611   2.296   6.827   4.041
 4904SOL    HW215612   2.142   6.789   4.079
 4905SOL     OW15613   4.463   6.835   2.815
 4905SOL    HW115614   4.514   6.880   2.888
 4905SOL    HW215615   4.483   6.737   2.816
 4906SOL     OW15616   4.885   2.190   6.161
 4906SOL    HW115617   4.984   2.178   6.165
 4906SOL    HW215618   4.847   2.131   6.090
 4907SOL     OW15619   4.335   6.115   1.878
 4907SOL    HW115620   4.381   6.200   1.851
 4907SOL    HW215621   4.373   6.039   1.827
 4908SOL     OW15622   5.342   4.833   6.620
 4908SOL    HW115623   5.298   4.775   6.689
 4908SOL    HW215624   5.275   4.857   6.550
 4909SOL     OW15625   6.854   0.316   4.180
 4909SOL    HW115626   6.949   0.345   4.191
 4909SOL    HW215627   6.837   0.236   4.237
 4910SOL     OW15628   5.699   0.673   4.723
 4910SOL    HW115629   5.666   0.585   4.688
 4910SOL    HW215630   5.762   0.657   4.799
 4911SOL     OW15631   1.600   3.505   4.271
 4911SOL    HW115632   1.508   3.470   4.253
 4911SOL    HW215633   1.667   3.445   4.227
 4912SOL     OW15634   5.086   1.713   6.933
 4912SOL    HW115635   5.112   1.786   6.870
 4912SOL    HW215636   5.010   1.745   6.991
 4913SOL     OW15637   3.719   2.603   5.369
 4913SOL    HW115638   3.758   2.694   5.355
 4913SOL    HW215639   3.792   2.535   5.368
 4914SOL     OW15640   3.919   0.680   5.194
 4914SOL    HW115641   3.881   0.641   5.277
 4914SOL    HW215642   3.863   0.655   5.116
 4915SOL     OW15643   4.465   6.920   5.340
 4915SOL    HW115644   4.463   6.953   5.435
 4915SOL    HW215645   4.430   6.827   5.336
 4916SOL     OW15646   1.319   6.993   3.925
 4916SOL    HW115647   1.307   6.916   3.863
 4916SOL    HW215648   1.339   6.958   4.017
 4917SOL     OW15649   2.653   4.754   1.182
 4917SOL    HW115650   2.716   4.728   1.255
 4917SOL    HW215651   2.564   4.712   1.197
 4918SOL     OW15652   4.831   5.788   2.329
 4918SOL    HW115653   4.791   5.710   2.282
 4918SOL    HW215654   4.806   5.872   2.282
 4919SOL     OW15655   2.925   2.560   0.254
 4919SOL    HW115656   2.834   2.592   0.226
 4919SOL    HW215657   2.992   2.631   0.237
 4920SOL     OW15658   6.204   0.906   4.026
 4920SOL    HW115659   6.147   0.980   4.061
 4920SOL    HW215660   6.155   0.858   3.953
 4921SOL     OW15661   1.102   4.827   0.466
 4921SOL    HW115662   1.134   4.888   0.394
 4921SOL    HW215663   1.138   4.735   0.450
 4922SOL     OW15664   2.162   2.381   5.075
 4922SOL    HW115665   2.196   2.391   5.168
 4922SOL    HW215666   2.178   2.466   5.024
 4923SOL     OW15667   4.282   1.758   2.351
 4923SOL    HW115668   4.182   1.763   2.361
 4923SOL    HW215669   4.309   1.805   2.267
 4924SOL     OW15670   2.940   1.871   4.929
 4924SOL    HW115671   2.956   1.959   4.886
 4924SOL    HW215672   2.983   1.870   5.020
 4925SOL     OW15673   6.868   6.588   2.484
 4925SOL    HW115674   6.893   6.615   2.391
 4925SOL    HW215675   6.950   6.564   2.535
 4926SOL     OW15676   5.297   1.295   0.271
 4926SOL    HW115677   5.366   1.237   0.313
 4926SOL    HW215678   5.262   1.252   0.188
 4927SOL     OW15679   3.471   3.843   4.110
 4927SOL    HW115680   3.517   3.796   4.185
 4927SOL    HW215681   3.413   3.915   4.146
 4928SOL     OW15682   1.590   0.311   0.165
 4928SOL    HW115683   1.506   0.337   0.117
 4928SOL    HW215684   1.663   0.293   0.098
 4929SOL     OW15685   0.481   5.705   5.004
 4929SOL    HW115686   0.456   5.702   5.100
 4929SOL    HW215687   0.399   5.697   4.947
 4930SOL     OW15688   4.767   0.957   3.313
 4930SOL    HW115689   4.767   1.044   3.263
 4930SOL    HW215690   4.813   0.887   3.259
 4931SOL     OW15691   0.040   6.741   0.730
 4931SOL    HW115692   0.105   6.805   0.690
 4931SOL    HW215693   6.981   6.743   0.679
 4932SOL     OW15694   2.673   3.117   1.720
 4932SOL    HW115695   2.583   3.148   1.753
 4932SOL    HW215696   2.681   3.019   1.733
 4933SOL     OW15697   2.470   0.241   3.307
 4933SOL    HW115698   2.449   0.151   3.267
 4933SOL    HW215699   2.564   0.265   3.286
 4934SOL     OW15700   2.702   5.534   2.338
 4934SOL    HW115701   2.686   5.626   2.374
 4934SOL    HW215702   2.661   5.525   2.248
 4935SOL     OW15703   1.789   1.376   6.418
 4935SOL    HW115704   1.873   1.388   6.472
 4935SOL    HW215705   1.804   1.410   6.326
 4936SOL     OW15706   2.539   4.488   1.864
 4936SOL    HW115707   2.608   4.559   1.873
 4936SOL    HW215708   2.462   4.508   1.925
 4937SOL     OW15709   6.482   2.973   5.668
 4937SOL    HW115710   6.414   3.042   5.694
 4937SOL    HW215711   6.458   2.885   5.710
 4938SOL     OW15712   2.201   5.372   5.520
 4938SOL    HW115713   2.174   5.286   5.477
 4938SOL    HW215714   2.229   5.437   5.450
 4939SOL     OW15715   6.568   1.956   4.048
 4939SOL    HW115716   6.523   1.883   3.997
 4939SOL    HW215717   6.522   2.043   4.029
 4940SOL     OW15718   0.267   0.916   5.205
 4940SOL    HW115719   0.191   0.938   5.267
 4940SOL    HW215720   0.232   0.864   5.127
 4941SOL     OW15721   5.209   2.380   5.250
 4941SOL    HW115722   5.144   2.311   5.218
 4941SOL    HW215723   5.230   2.442   5.174
 4942SOL     OW15724   5.066   2.805   6.089
 4942SOL    HW115725   5.021   2.864   6.022
 4942SOL    HW215726   5.027   2.823   6.179
 4943SOL     OW15727   4.416   3.803   6.336
 4943SOL    HW115728   4.487   3.774   6.400
 4943SOL    HW215729   4.455   3.815   6.245
 4944SOL     OW15730   2.150   4.498   1.823
 4944SOL    HW115731   2.202   4.428   1.872
 4944SOL    HW215732   2.207   4.539   1.752
 4945SOL     OW15733   1.040   0.286   4.385
 4945SOL    HW115734   1.047   0.374   4.338
 4945SOL    HW215735   0.950   0.246   4.369
 4946SOL     OW15736   1.492   4.840   0.195
 4946SOL    HW115737   1.549   4.868   0.118
 4946SOL    HW215738   1.432   4.765   0.167
 4947SOL     OW15739   2.074   1.004   1.115
 4947SOL    HW115740   2.096   1.068   1.042
 4947SOL    HW215741   2.142   0.931   1.118
 4948SOL     OW15742   1.540   2.902   2.481
 4948SOL    HW115743   1.467   2.889   2.414
 4948SOL    HW215744   1.629   2.899   2.434
 4949SOL     OW15745   5.404   5.928   6.213
 4949SOL    HW115746   5.325   5.940   6.274
 4949SOL    HW215747   5.471   5.869   6.257
 4950SOL     OW15748   2.312   5.514   4.580
 4950SOL    HW115749   2.373   5.448   4.625
 4950SOL    HW215750   2.304   5.596   4.638
 4951SOL     OW15751   6.397   1.668   5.092
 4951SOL    HW115752   6.325   1.601   5.113
 4951SOL    HW215753   6.405   1.733   5.168
 4952SOL     OW15754   0.747   1.125   5.911
 4952SOL    HW115755   0.664   1.115   5.967
 4952SOL    HW215756   0.725   1.174   5.827
 4953SOL     OW15757   2.504   5.780   2.547
 4953SOL    HW115758   2.539   5.839   2.474
 4953SOL    HW215759   2.528   5.819   2.636
 4954SOL     OW15760   3.622   3.113   0.085
 4954SOL    HW115761   3.574   3.039   0.039
 4954SOL    HW215762   3.555   3.174   0.129
 4955SOL     OW15763   2.989   6.736   6.515
 4955SOL    HW115764   2.933   6.727   6.432
 4955SOL    HW215765   2.989   6.650   6.565
 4956SOL     OW15766   2.208   0.118   5.529
 4956SOL    HW115767   2.241   0.209   5.554
 4956SOL    HW215768   2.248   0.091   5.441
 4957SOL     OW15769   6.187   2.164   2.019
 4957SOL    HW115770   6.190   2.193   2.115
 4957SOL    HW215771   6.202   2.066   2.014
 4958SOL     OW15772   0.047   5.050   5.325
 4958SOL    HW115773   0.098   5.029   5.242
 4958SOL    HW215774   7.024   5.135   5.314
 4959SOL     OW15775   6.479   1.548   0.128
 4959SOL    HW115776   6.565   1.499   0.136
 4959SOL    HW215777   6.496   1.646   0.123
 4960SOL     OW15778   3.153   5.261   3.635
 4960SOL    HW115779   3.114   5.279   3.726
 4960SOL    HW215780   3.246   5.225   3.645
 4961SOL     OW15781   4.251   1.295   6.081
 4961SOL    HW115782   4.291   1.384   6.103
 4961SOL    HW215783   4.318   1.223   6.099
 4962SOL     OW15784   6.374   2.251   0.437
 4962SOL    HW115785   6.322   2.181   0.487
 4962SOL    HW215786   6.400   2.215   0.348
 4963SOL     OW15787   6.140   5.537   0.511
 4963SOL    HW115788   6.189   5.617   0.476
 4963SOL    HW215789   6.137   5.466   0.440
 4964SOL     OW15790   3.034   0.265   3.615
 4964SOL    HW115791   3.079   0.194   3.671
 4964SOL    HW215792   2.964   0.310   3.670
 4965SOL     OW15793   0.257   0.522   2.424
 4965SOL    HW115794   0.232   0.608   2.379
 4965SOL    HW215795   0.175   0.467   2.439
 4966SOL     OW15796   2.495   6.989   5.082
 4966SOL    HW115797   2.542   6.912   5.040
 4966SOL    HW215798   2.396   6.977   5.072
 4967SOL     OW15799   3.767   5.516   5.549
 4967SOL    HW115800   3.762   5.603   5.500
 4967SOL    HW215801   3.812   5.531   5.637
 4968SOL     OW15802   6.615   1.858   3.669
 4968SOL    HW115803   6.541   1.864   3.602
 4968SOL    HW215804   6.646   1.951   3.692
 4969SOL     OW15805   2.550   6.725   2.878
 4969SOL    HW115806   2.523   6.642   2.829
 4969SOL    HW215807   2.532   6.805   2.821
 4970SOL     OW15808   1.797   2.871   2.931
 4970SOL    HW115809   1.767   2.884   3.025
 4970SOL    HW215810   1.764   2.783   2.896
 4971SOL     OW15811   6.116   5.613   3.513
 4971SOL    HW115812   6.090   5.518   3.493
 4971SOL    HW215813   6.216   5.620   3.517
 4972SOL     OW15814   1.453   3.570   0.592
 4972SOL    HW115815   1.497   3.532   0.672
 4972SOL    HW215816   1.404   3.498   0.543
 4973SOL     OW15817   1.708   0.029   2.226
 4973SOL    HW115818   1.640   6.984   2.209
 4973SOL    HW215819   1.781   7.018   2.283
 4974SOL     OW15820   5.993   4.500   0.940
 4974SOL    HW115821   6.006   4.402   0.934
 4974SOL    HW215822   6.062   4.547   0.884
 4975SOL     OW15823   5.743   4.322   5.675
 4975SOL    HW115824   5.796   4.239   5.659
 4975SOL    HW215825   5.773   4.365   5.760
 4976SOL     OW15826   2.334   0.603   3.158
 4976SOL    HW115827   2.367   0.698   3.153
 4976SOL    HW215828   2.388   0.554   3.226
 4977SOL     OW15829   3.882   4.631   0.101
 4977SOL    HW115830   3.785   4.651   0.090
 4977SOL    HW215831   3.893   4.550   0.158
 4978SOL     OW15832   6.879   3.617   4.878
 4978SOL    HW115833   6.878   3.684   4.804
 4978SOL    HW215834   6.968   3.619   4.924
 4979SOL     OW15835   0.456   0.162   6.193
 4979SOL    HW115836   0.388   0.143   6.122
 4979SOL    HW215837   0.480   0.077   6.240
 4980SOL     OW15838   5.177   6.559   3.073
 4980SOL    HW115839   5.108   6.514   3.129
 4980SOL    HW215840   5.177   6.520   2.981
 4981SOL     OW15841   5.174   6.106   6.781
 4981SOL    HW115842   5.116   6.122   6.701
 4981SOL    HW215843   5.125   6.048   6.847
 4982SOL     OW15844   2.694   1.294   6.154
 4982SOL    HW115845   2.718   1.240   6.235
 4982SOL    HW215846   2.623   1.360   6.177
 4983SOL     OW15847   5.979   2.724   5.026
 4983SOL    HW115848   5.958   2.779   4.945
 4983SOL    HW215849   5.994   2.629   4.998
 4984SOL     OW15850   5.659   4.286   3.612
 4984SOL    HW115851   5.757   4.304   3.618
 4984SOL    HW215852   5.633   4.278   3.515
 4985SOL     OW15853   6.226   6.373   3.542
 4985SOL    HW115854   6.192   6.308   3.610
 4985SOL    HW215855   6.172   6.364   3.458
 4986SOL     OW15856   6.069   4.058   2.051
 4986SOL    HW115857   6.085   4.006   2.135
 4986SOL    HW215858   6.157   4.078   2.007
 4987SOL     OW15859   1.137   0.194   1.270
 4987SOL    HW115860   1.132   0.147   1.358
 4987SOL    HW215861   1.046   0.196   1.228
 4988SOL     OW15862   5.169   0.647   3.367
 4988SOL    HW115863   5.079   0.645   3.324
 4988SOL    HW215864   5.163   0.609   3.459
 4989SOL     OW15865   4.981   0.191   1.782
 4989SOL    HW115866   4.970   0.120   1.852
 4989SOL    HW215867   4.894   0.202   1.733
 4990SOL     OW15868   1.831   2.272   5.330
 4990SOL    HW115869   1.759   2.202   5.332
 4990SOL    HW215870   1.796   2.354   5.285
 4991SOL     OW15871   6.389   4.736   4.600
 4991SOL    HW115872   6.384   4.834   4.581
 4991SOL    HW215873   6.322   4.712   4.670
 4992SOL     OW15874   5.058   1.140   4.344
 4992SOL    HW115875   5.063   1.065   4.278
 4992SOL    HW215876   5.139   1.198   4.334
 4993SOL     OW15877   2.993   5.752   3.803
 4993SOL    HW115878   3.027   5.794   3.887
 4993SOL    HW215879   3.070   5.723   3.746
 4994SOL     OW15880   1.850   0.034   3.054
 4994SOL    HW115881   1.883   7.001   3.127
 4994SOL    HW215882   1.916   0.033   2.979
 4995SOL     OW15883   6.992   2.596   5.787
 4995SOL    HW115884   0.063   2.589   5.770
 4995SOL    HW215885   6.947   2.511   5.759
 4996SOL     OW15886   1.367   1.445   2.730
 4996SOL    HW115887   1.345   1.460   2.634
 4996SOL    HW215888   1.292   1.396   2.775
 4997SOL     OW15889   5.197   2.134   3.172
 4997SOL    HW115890   5.206   2.228   3.138
 4997SOL    HW215891   5.129   2.132   3.246
 4998SOL     OW15892   2.042   4.060   5.047
 4998SOL    HW115893   2.031   4.095   5.141
 4998SOL    HW215894   2.137   4.035   5.032
 4999SOL     OW15895   6.105   4.387   0.541
 4999SOL    HW115896   6.126   4.294   0.511
 4999SOL    HW215897   6.009   4.407   0.523
 5000SOL     OW15898   2.542   6.801   3.485
 5000SOL    HW115899   2.506   6.748   3.408
 5000SOL    HW215900   2.621   6.854   3.455
 5001SOL     OW15901   0.305   4.095   0.723
 5001SOL    HW115902   0.303   4.175   0.663
 5001SOL    HW215903   0.400   4.074   0.748
 5002SOL     OW15904   0.945   3.319   3.504
 5002SOL    HW115905   0.973   3.227   3.532
 5002SOL    HW215906   0.845   3.324   3.500
 5003SOL     OW15907   2.640   6.295   2.498
 5003SOL    HW115908   2.647   6.204   2.540
 5003SOL    HW215909   2.676   6.364   2.561
 5004SOL     OW15910   3.534   5.044   6.013
 5004SOL    HW115911   3.606   5.051   6.082
 5004SOL    HW215912   3.502   5.135   5.989
 5005SOL     OW15913   3.078   2.256   0.523
 5005SOL    HW115914   3.133   2.184   0.479
 5005SOL    HW215915   3.014   2.215   0.588
 5006SOL     OW15916   5.364   0.429   0.535
 5006SOL    HW115917   5.408   0.510   0.573
 5006SOL    HW215918   5.419   0.395   0.458
 5007SOL     OW15919   1.607   0.079   6.804
 5007SOL    HW115920   1.621   0.019   6.883
 5007SOL    HW215921   1.580   0.170   6.836
 5008SOL     OW15922   6.785   6.562   3.400
 5008SOL    HW115923   6.702   6.508   3.402
 5008SOL    HW215924   6.859   6.509   3.358
 5009SOL     OW15925   1.363   6.457   0.908
 5009SOL    HW115926   1.449   6.405   0.907
 5009SOL    HW215927   1.373   6.536   0.969
 5010SOL     OW15928   3.360   3.500   2.763
 5010SOL    HW115929   3.348   3.597   2.743
 5010SOL    HW215930   3.342   3.446   2.681
 5011SOL     OW15931   1.847   3.705   2.959
 5011SOL    HW115932   1.893   3.784   2.917
 5011SOL    HW215933   1.903   3.623   2.945
 5012SOL     OW15934   5.133   4.429   6.671
 5012SOL    HW115935   5.171   4.337   6.659
 5012SOL    HW215936   5.090   4.459   6.586
 5013SOL     OW15937   4.769   1.777   0.016
 5013SOL    HW115938   4.755   1.709   0.088
 5013SOL    HW215939   4.743   1.738   6.955
 5014SOL     OW15940   5.447   4.767   0.926
 5014SOL    HW115941   5.538   4.728   0.935
 5014SOL    HW215942   5.451   4.866   0.938
 5015SOL     OW15943   4.570   2.191   4.290
 5015SOL    HW115944   4.632   2.169   4.214
 5015SOL    HW215945   4.487   2.136   4.282
 5016SOL     OW15946   2.342   2.479   0.963
 5016SOL    HW115947   2.362   2.575   0.945
 5016SOL    HW215948   2.261   2.451   0.911
 5017SOL     OW15949   2.053   2.146   0.055
 5017SOL    HW115950   2.057   2.242   0.081
 5017SOL    HW215951   1.973   2.104   0.098
 5018SOL     OW15952   0.105   4.494   1.966
 5018SOL    HW115953   0.078   4.551   2.044
 5018SOL    HW215954   0.027   4.484   1.904
 5019SOL     OW15955   1.306   4.727   6.715
 5019SOL    HW115956   1.242   4.689   6.782
 5019SOL    HW215957   1.297   4.826   6.714
 5020SOL     OW15958   4.892   0.055   6.153
 5020SOL    HW115959   4.797   0.040   6.181
 5020SOL    HW215960   4.920   7.008   6.092
 5021SOL     OW15961   1.662   2.012   6.046
 5021SOL    HW115962   1.601   1.993   6.123
 5021SOL    HW215963   1.693   1.926   6.005
 5022SOL     OW15964   1.255   0.929   0.236
 5022SOL    HW115965   1.254   1.027   0.219
 5022SOL    HW215966   1.347   0.900   0.263
 5023SOL     OW15967   6.348   3.132   1.132
 5023SOL    HW115968   6.265   3.150   1.080
 5023SOL    HW215969   6.366   3.209   1.193
 5024SOL     OW15970   5.585   5.796   2.775
 5024SOL    HW115971   5.511   5.863   2.770
 5024SOL    HW215972   5.668   5.840   2.808
 5025SOL     OW15973   3.878   2.112   1.929
 5025SOL    HW115974   3.790   2.155   1.946
 5025SOL    HW215975   3.864   2.017   1.902
 5026SOL     OW15976   6.217   6.249   6.425
 5026SOL    HW115977   6.138   6.285   6.376
 5026SOL    HW215978   6.301   6.276   6.378
 5027SOL     OW15979   1.154   6.250   2.331
 5027SOL    HW115980   1.157   6.152   2.313
 5027SOL    HW215981   1.063   6.275   2.365
 5028SOL     OW15982   0.718   0.535   3.479
 5028SOL    HW115983   0.797   0.496   3.526
 5028SOL    HW215984   0.643   0.548   3.544
 5029SOL     OW15985   0.089   2.622   3.096
 5029SOL    HW115986   0.098   2.524   3.080
 5029SOL    HW215987   0.180   2.663   3.107
 5030SOL     OW15988   6.550   0.162   6.237
 5030SOL    HW115989   6.525   0.220   6.160
 5030SOL    HW215990   6.468   0.122   6.278
 5031SOL     OW15991   6.082   0.939   4.603
 5031SOL    HW115992   6.131   0.978   4.525
 5031SOL    HW215993   5.985   0.963   4.597
 5032SOL     OW15994   1.293   3.681   0.884
 5032SOL    HW115995   1.347   3.721   0.810
 5032SOL    HW215996   1.336   3.595   0.914
 5033SOL     OW15997   3.248   6.438   6.535
 5033SOL    HW115998   3.296   6.524   6.523
 5033SOL    HW215999   3.299   6.364   6.491
 5034SOL     OW16000   5.839   1.092   2.810
 5034SOL    HW116001   5.857   1.160   2.740
 5034SOL    HW216002   5.742   1.093   2.835
 5035SOL     OW16003   0.075   4.336   0.358
 5035SOL    HW116004   0.167   4.296   0.358
 5035SOL    HW216005   0.018   4.288   0.425
 5036SOL     OW16006   0.144   5.144   6.932
 5036SOL    HW116007   0.075   5.214   6.914
 5036SOL    HW216008   0.169   5.146   0.002
 5037SOL     OW16009   5.330   2.615   2.914
 5037SOL    HW116010   5.331   2.637   3.012
 5037SOL    HW216011   5.237   2.623   2.879
 5038SOL     OW16012   2.202   4.043   6.487
 5038SOL    HW116013   2.204   4.097   6.403
 5038SOL    HW216014   2.288   3.992   6.496
 5039SOL     OW16015   3.065   4.156   5.481
 5039SOL    HW116016   3.090   4.206   5.398
 5039SOL    HW216017   3.075   4.058   5.466
 5040SOL     OW16018   2.179   5.002   5.767
 5040SOL    HW116019   2.270   5.002   5.726
 5040SOL    HW216020   2.156   5.095   5.799
 5041SOL     OW16021   1.597   1.956   1.318
 5041SOL    HW116022   1.603   2.026   1.389
 5041SOL    HW216023   1.641   1.872   1.350
 5042SOL     OW16024   6.070   3.218   0.762
 5042SOL    HW116025   6.033   3.302   0.722
 5042SOL    HW216026   6.000   3.146   0.756
 5043SOL     OW16027   2.848   1.000   5.703
 5043SOL    HW116028   2.762   0.962   5.668
 5043SOL    HW216029   2.831   1.043   5.791
 5044SOL     OW16030   6.943   6.340   2.254
 5044SOL    HW116031   7.017   6.325   2.320
 5044SOL    HW216032   6.881   6.262   2.255
 5045SOL     OW16033   5.977   2.456   0.389
 5045SOL    HW116034   6.050   2.456   0.457
 5045SOL    HW216035   5.956   2.550   0.362
 5046SOL     OW16036   3.512   4.158   3.868
 5046SOL    HW116037   3.415   4.152   3.892
 5046SOL    HW216038   3.564   4.188   3.948
 5047SOL     OW16039   0.208   3.252   2.398
 5047SOL    HW116040   0.296   3.284   2.435
 5047SOL    HW216041   0.206   3.152   2.400
 5048SOL     OW16042   0.687   1.115   1.986
 5048SOL    HW116043   0.659   1.071   2.071
 5048SOL    HW216044   0.715   1.045   1.919
 5049SOL     OW16045   6.804   1.952   5.088
 5049SOL    HW116046   6.761   1.880   5.033
 5049SOL    HW216047   6.735   2.018   5.116
 5050SOL     OW16048   1.261   0.436   1.873
 5050SOL    HW116049   1.225   0.529   1.866
 5050SOL    HW216050   1.253   0.405   1.968
 5051SOL     OW16051   4.213   3.520   1.200
 5051SOL    HW116052   4.306   3.486   1.185
 5051SOL    HW216053   4.150   3.474   1.137
 5052SOL     OW16054   2.213   5.996   6.050
 5052SOL    HW116055   2.183   6.040   6.135
 5052SOL    HW216056   2.295   6.042   6.016
 5053SOL     OW16057   2.122   3.840   3.712
 5053SOL    HW116058   2.026   3.867   3.701
 5053SOL    HW216059   2.175   3.920   3.741
 5054SOL     OW16060   3.680   6.006   5.263
 5054SOL    HW116061   3.740   6.086   5.267
 5054SOL    HW216062   3.586   6.034   5.281
 5055SOL     OW16063   2.165   6.938   5.721
 5055SOL    HW116064   2.196   7.009   5.657
 5055SOL    HW216065   2.217   6.854   5.704
 5056SOL     OW16066   6.202   4.131   0.491
 5056SOL    HW116067   6.187   4.035   0.467
 5056SOL    HW216068   6.282   4.166   0.441
 5057SOL     OW16069   6.661   5.806   5.421
 5057SOL    HW116070   6.622   5.898   5.427
 5057SOL    HW216071   6.657   5.775   5.326
 5058SOL     OW16072   2.747   3.178   5.263
 5058SOL    HW116073   2.669   3.117   5.249
 5058SOL    HW216074   2.827   3.143   5.214
 5059SOL     OW16075   5.524   2.657   3.299
 5059SOL    HW116076   5.618   2.686   3.315
 5059SOL    HW216077   5.523   2.563   3.265
 5060SOL     OW16078   0.369   2.593   5.561
 5060SOL    HW116079   0.293   2.555   5.509
 5060SOL    HW216080   0.360   2.566   5.657
 5061SOL     OW16081   3.599   3.101   3.001
 5061SOL    HW116082   3.652   3.047   3.067
 5061SOL    HW216083   3.661   3.163   2.952
 5062SOL     OW16084   5.707   0.275   3.153
 5062SOL    HW116085   5.624   0.311   3.110
 5062SOL    HW216086   5.697   0.278   3.252
 5063SOL     OW16087   1.273   0.010   2.321
 5063SOL    HW116088   1.270   6.936   2.320
 5063SOL    HW216089   1.276   0.042   2.416
 5064SOL     OW16090   4.302   3.808   1.768
 5064SOL    HW116091   4.360   3.878   1.727
 5064SOL    HW216092   4.206   3.828   1.749
 5065SOL     OW16093   1.369   1.546   3.479
 5065SOL    HW116094   1.352   1.638   3.514
 5065SOL    HW216095   1.458   1.514   3.511
 5066SOL     OW16096   3.601   4.407   0.845
 5066SOL    HW116097   3.524   4.428   0.905
 5066SOL    HW216098   3.568   4.368   0.759
 5067SOL     OW16099   3.255   1.032   2.425
 5067SOL    HW116100   3.293   0.996   2.340
 5067SOL    HW216101   3.313   1.006   2.501
 5068SOL     OW16102   3.046   4.935   6.993
 5068SOL    HW116103   3.035   4.858   6.930
 5068SOL    HW216104   3.092   5.010   6.945
 5069SOL     OW16105   2.274   2.775   6.069
 5069SOL    HW116106   2.272   2.749   5.973
 5069SOL    HW216107   2.180   2.772   6.106
 5070SOL     OW16108   5.143   4.757   4.047
 5070SOL    HW116109   5.170   4.751   4.143
 5070SOL    HW216110   5.223   4.739   3.989
 5071SOL     OW16111   3.879   1.234   3.939
 5071SOL    HW116112   3.819   1.165   3.980
 5071SOL    HW216113   3.914   1.293   4.011
 5072SOL     OW16114   1.094   0.635   1.709
 5072SOL    HW116115   1.180   0.668   1.671
 5072SOL    HW216116   1.044   0.585   1.638
 5073SOL     OW16117   1.724   4.320   0.699
 5073SOL    HW116118   1.624   4.315   0.692
 5073SOL    HW216119   1.756   4.403   0.653
 5074SOL     OW16120   3.117   1.934   1.658
 5074SOL    HW116121   3.143   1.867   1.727
 5074SOL    HW216122   3.128   2.026   1.695
 5075SOL     OW16123   1.623   2.253   5.870
 5075SOL    HW116124   1.606   2.161   5.907
 5075SOL    HW216125   1.641   2.317   5.945
 5076SOL     OW16126   5.191   0.404   1.032
 5076SOL    HW116127   5.168   0.366   1.121
 5076SOL    HW216128   5.234   0.334   0.976
 5077SOL     OW16129   1.725   4.513   5.698
 5077SOL    HW116130   1.817   4.552   5.703
 5077SOL    HW216131   1.668   4.553   5.769
 5078SOL     OW16132   0.809   0.740   4.033
 5078SOL    HW116133   0.767   0.751   4.123
 5078SOL    HW216134   0.756   0.788   3.965
 5079SOL     OW16135   2.126   3.127   4.549
 5079SOL    HW116136   2.050   3.065   4.566
 5079SOL    HW216137   2.203   3.077   4.511
 5080SOL     OW16138   6.099   6.505   6.032
 5080SOL    HW116139   6.024   6.539   6.089
 5080SOL    HW216140   6.138   6.582   5.980
 5081SOL     OW16141   2.644   3.676   5.487
 5081SOL    HW116142   2.673   3.729   5.567
 5081SOL    HW216143   2.660   3.729   5.404
 5082SOL     OW16144   5.191   5.853   1.361
 5082SOL    HW116145   5.099   5.824   1.385
 5082SOL    HW216146   5.204   5.949   1.386
 5083SOL     OW16147   2.509   0.689   2.871
 5083SOL    HW116148   2.534   0.774   2.824
 5083SOL    HW216149   2.410   0.682   2.878
 5084SOL     OW16150   0.802   4.266   3.839
 5084SOL    HW116151   0.836   4.315   3.759
 5084SOL    HW216152   0.718   4.217   3.816
 5085SOL     OW16153   6.498   2.656   6.101
 5085SOL    HW116154   6.575   2.709   6.063
 5085SOL    HW216155   6.533   2.575   6.148
 5086SOL     OW16156   1.346   5.060   2.740
 5086SOL    HW116157   1.325   4.963   2.737
 5086SOL    HW216158   1.378   5.090   2.650
 5087SOL     OW16159   1.028   5.377   2.100
 5087SOL    HW116160   0.988   5.363   2.009
 5087SOL    HW216161   1.086   5.299   2.123
 5088SOL     OW16162   6.099   0.080   3.660
 5088SOL    HW116163   6.153   0.132   3.593
 5088SOL    HW216164   6.143   7.018   3.676
 5089SOL     OW16165   6.321   4.153   4.189
 5089SOL    HW116166   6.278   4.069   4.156
 5089SOL    HW216167   6.252   4.226   4.193
 5090SOL     OW16168   1.976   3.523   2.604
 5090SOL    HW116169   2.003   3.618   2.614
 5090SOL    HW216170   1.882   3.511   2.635
 5091SOL     OW16171   6.679   1.540   1.528
 5091SOL    HW116172   6.668   1.601   1.606
 5091SOL    HW216173   6.595   1.486   1.516
 5092SOL     OW16174   3.538   3.824   3.313
 5092SOL    HW116175   3.474   3.790   3.382
 5092SOL    HW216176   3.563   3.749   3.252
 5093SOL     OW16177   3.261   0.869   0.762
 5093SOL    HW116178   3.319   0.889   0.683
 5093SOL    HW216179   3.183   0.931   0.763
 5094SOL     OW16180   2.417   5.542   6.236
 5094SOL    HW116181   2.481   5.550   6.159
 5094SOL    HW216182   2.387   5.447   6.244
 5095SOL     OW16183   6.457   2.175   3.017
 5095SOL    HW116184   6.486   2.082   3.037
 5095SOL    HW216185   6.535   2.229   2.986
 5096SOL     OW16186   3.946   5.339   6.214
 5096SOL    HW116187   3.887   5.418   6.230
 5096SOL    HW216188   4.026   5.368   6.161
 5097SOL     OW16189   0.722   0.233   6.283
 5097SOL    HW116190   0.639   0.176   6.278
 5097SOL    HW216191   0.737   0.277   6.195
 5098SOL     OW16192   2.811   0.856   2.032
 5098SOL    HW116193   2.796   0.825   2.125
 5098SOL    HW216194   2.814   0.956   2.029
 5099SOL     OW16195   0.537   0.048   0.988
 5099SOL    HW116196   0.535   0.044   1.088
 5099SOL    HW216197   0.579   0.135   0.959
 5100SOL     OW16198   3.021   5.823   4.361
 5100SOL    HW116199   3.002   5.877   4.443
 5100SOL    HW216200   2.959   5.745   4.357
 5101SOL     OW16201   4.377   0.372   6.775
 5101SOL    HW116202   4.475   0.354   6.763
 5101SOL    HW216203   4.324   0.297   6.735
 5102SOL     OW16204   5.539   6.622   3.973
 5102SOL    HW116205   5.601   6.700   3.981
 5102SOL    HW216206   5.445   6.654   3.960
 5103SOL     OW16207   0.369   0.654   4.055
 5103SOL    HW116208   0.440   0.713   4.017
 5103SOL    HW216209   0.379   0.649   4.154
 5104SOL     OW16210   1.900   5.922   2.035
 5104SOL    HW116211   1.823   5.903   1.973
 5104SOL    HW216212   1.976   5.961   1.983
 5105SOL     OW16213   2.491   2.328   0.509
 5105SOL    HW116214   2.418   2.294   0.451
 5105SOL    HW216215   2.559   2.376   0.452
 5106SOL     OW16216   4.267   2.100   0.519
 5106SOL    HW116217   4.236   2.018   0.568
 5106SOL    HW216218   4.363   2.088   0.493
 5107SOL     OW16219   3.974   1.738   1.563
 5107SOL    HW116220   4.045   1.808   1.575
 5107SOL    HW216221   3.884   1.781   1.564
 5108SOL     OW16222   3.989   3.856   4.937
 5108SOL    HW116223   4.055   3.814   4.875
 5108SOL    HW216224   4.033   3.929   4.989
 5109SOL     OW16225   0.862   2.056   6.860
 5109SOL    HW116226   0.874   2.092   6.767
 5109SOL    HW216227   0.853   2.132   6.924
 5110SOL     OW16228   0.614   0.594   5.910
 5110SOL    HW116229   0.676   0.663   5.949
 5110SOL    HW216230   0.624   0.594   5.810
 5111SOL     OW16231   1.401   0.547   4.478
 5111SOL    HW116232   1.357   0.526   4.391
 5111SOL    HW216233   1.404   0.646   4.491
 5112SOL     OW16234   1.608   0.016   2.843
 5112SOL    HW116235   1.665   6.973   2.799
 5112SOL    HW216236   1.628   0.018   2.941
 5113SOL     OW16237   1.676   6.624   0.933
 5113SOL    HW116238   1.590   6.617   0.983
 5113SOL    HW216239   1.660   6.600   0.837
 5114SOL     OW16240   3.915   0.571   6.951
 5114SOL    HW116241   3.947   0.634   6.881
 5114SOL    HW216242   3.958   0.482   6.938
 5115SOL     OW16243   1.132   4.829   4.160
 5115SOL    HW116244   1.111   4.731   4.166
 5115SOL    HW216245   1.227   4.844   4.185
 5116SOL     OW16246   0.977   6.848   6.587
 5116SOL    HW116247   1.009   6.913   6.657
 5116SOL    HW216248   0.881   6.827   6.603
 5117SOL     OW16249   2.187   4.033   4.684
 5117SOL    HW116250   2.138   4.053   4.768
 5117SOL    HW216251   2.179   3.935   4.663
 5118SOL     OW16252   4.983   1.192   6.590
 5118SOL    HW116253   5.076   1.224   6.570
 5118SOL    HW216254   4.917   1.260   6.559
 5119SOL     OW16255   5.204   0.470   2.397
 5119SOL    HW116256   5.203   0.455   2.298
 5119SOL    HW216257   5.201   0.382   2.444
 5120SOL     OW16258   3.820   0.601   4.163
 5120SOL    HW116259   3.909   0.558   4.151
 5120SOL    HW216260   3.773   0.608   4.075
 5121SOL     OW16261   3.248   2.012   6.966
 5121SOL    HW116262   3.237   2.012   6.867
 5121SOL    HW216263   3.158   2.016   7.009
 5122SOL     OW16264   3.498   6.241   3.626
 5122SOL    HW116265   3.597   6.242   3.612
 5122SOL    HW216266   3.451   6.247   3.538
 5123SOL     OW16267   4.136   2.284   4.007
 5123SOL    HW116268   4.159   2.237   4.091
 5123SOL    HW216269   4.090   2.221   3.944
 5124SOL     OW16270   2.300   5.487   4.921
 5124SOL    HW116271   2.201   5.491   4.908
 5124SOL    HW216272   2.334   5.397   4.893
 5125SOL     OW16273   6.310   2.964   3.763
 5125SOL    HW116274   6.309   3.009   3.674
 5125SOL    HW216275   6.226   2.987   3.813
 5126SOL     OW16276   5.712   5.541   5.772
 5126SOL    HW116277   5.754   5.572   5.687
 5126SOL    HW216278   5.616   5.571   5.774
 5127SOL     OW16279   0.843   4.286   6.962
 5127SOL    HW116280   0.876   4.260   0.026
 5127SOL    HW216281   0.883   4.374   6.936
 5128SOL     OW16282   6.971   0.598   6.214
 5128SOL    HW116283   6.902   0.617   6.144
 5128SOL    HW216284   0.000   0.520   6.185
 5129SOL     OW16285   6.331   0.015   2.504
 5129SOL    HW116286   6.340   0.032   2.406
 5129SOL    HW216287   6.268   0.081   2.544
 5130SOL     OW16288   0.155   5.732   3.876
 5130SOL    HW116289   0.245   5.688   3.864
 5130SOL    HW216290   0.164   5.830   3.863
 5131SOL     OW16291   1.809   5.211   4.081
 5131SOL    HW116292   1.747   5.137   4.107
 5131SOL    HW216293   1.822   5.212   3.982
 5132SOL     OW16294   3.459   2.620   6.675
 5132SOL    HW116295   3.545   2.625   6.724
 5132SOL    HW216296   3.422   2.712   6.662
 5133SOL     OW16297   1.753   5.664   6.726
 5133SOL    HW116298   1.719   5.743   6.676
 5133SOL    HW216299   1.739   5.677   6.824
 5134SOL     OW16300   0.446   2.846   2.742
 5134SOL    HW116301   0.449   2.772   2.809
 5134SOL    HW216302   0.517   2.913   2.762
 5135SOL     OW16303   5.563   3.250   4.607
 5135SOL    HW116304   5.619   3.279   4.685
 5135SOL    HW216305   5.467   3.245   4.635
 5136SOL     OW16306   4.561   0.735   6.126
 5136SOL    HW116307   4.508   0.800   6.072
 5136SOL    HW216308   4.637   0.783   6.171
 5137SOL     OW16309   5.127   3.353   5.418
 5137SOL    HW116310   5.201   3.323   5.478
 5137SOL    HW216311   5.066   3.277   5.399
 5138SOL     OW16312   3.612   3.325   5.280
 5138SOL    HW116313   3.650   3.394   5.341
 5138SOL    HW216314   3.601   3.363   5.188
 5139SOL     OW16315   1.703   1.050   2.826
 5139SOL    HW116316   1.675   1.138   2.863
 5139SOL    HW216317   1.801   1.051   2.806
 5140SOL     OW16318   3.964   2.857   6.618
 5140SOL    HW116319   3.980   2.874   6.715
 5140SOL    HW216320   3.871   2.887   6.593
 5141SOL     OW16321   6.650   3.681   0.743
 5141SOL    HW116322   6.694   3.625   0.813
 5141SOL    HW216323   6.578   3.628   0.699
 5142SOL     OW16324   6.438   6.928   3.397
 5142SOL    HW116325   6.357   6.873   3.378
 5142SOL    HW216326   6.518   6.869   3.402
 5143SOL     OW16327   6.434   4.520   4.015
 5143SOL    HW116328   6.383   4.523   3.929
 5143SOL    HW216329   6.523   4.477   3.999
 5144SOL     OW16330   0.450   4.657   5.726
 5144SOL    HW116331   0.395   4.603   5.662
 5144SOL    HW216332   0.475   4.744   5.684
 5145SOL     OW16333   3.032   5.245   5.892
 5145SOL    HW116334   3.084   5.162   5.914
 5145SOL    HW216335   2.935   5.229   5.908
 5146SOL     OW16336   3.696   3.875   5.410
 5146SOL    HW116337   3.697   3.904   5.315
 5146SOL    HW216338   3.603   3.884   5.447
 5147SOL     OW16339   0.026   5.217   2.353
 5147SOL    HW116340   0.003   5.119   2.348
 5147SOL    HW216341   0.022   5.246   2.448
 5148SOL     OW16342   6.747   6.301   1.892
 5148SOL    HW116343   6.825   6.347   1.849
 5148SOL    HW216344   6.745   6.323   1.990
 5149SOL     OW16345   6.371   5.172   3.242
 5149SOL    HW116346   6.414   5.194   3.155
 5149SOL    HW216347   6.304   5.098   3.229
 5150SOL     OW16348   2.383   5.472   3.110
 5150SOL    HW116349   2.439   5.443   3.032
 5150SOL    HW216350   2.350   5.391   3.159
 5151SOL     OW16351   6.544   2.645   1.584
 5151SOL    HW116352   6.555   2.576   1.513
 5151SOL    HW216353   6.550   2.602   1.674
 5152SOL     OW16354   1.904   4.426   6.979
 5152SOL    HW116355   1.806   4.443   6.985
 5152SOL    HW216356   1.920   4.352   6.913
 5153SOL     OW16357   2.011   0.962   0.158
 5153SOL    HW116358   1.949   0.903   0.106
 5153SOL    HW216359   2.085   0.993   0.099
 5154SOL     OW16360   1.120   2.765   6.094
 5154SOL    HW116361   1.138   2.743   5.998
 5154SOL    HW216362   1.132   2.683   6.150
 5155SOL     OW16363   4.546   0.303   2.006
 5155SOL    HW116364   4.612   0.350   1.948
 5155SOL    HW216365   4.550   0.341   2.099
 5156SOL     OW16366   5.315   3.677   6.103
 5156SOL    HW116367   5.219   3.653   6.119
 5156SOL    HW216368   5.353   3.721   6.185
 5157SOL     OW16369   3.895   2.052   3.178
 5157SOL    HW116370   3.972   2.067   3.115
 5157SOL    HW216371   3.898   2.121   3.250
 5158SOL     OW16372   3.568   1.499   1.839
 5158SOL    HW116373   3.469   1.490   1.850
 5158SOL    HW216374   3.588   1.584   1.791
 5159SOL     OW16375   6.891   3.562   4.485
 5159SOL    HW116376   6.830   3.631   4.525
 5159SOL    HW216377   6.901   3.578   4.387
 5160SOL     OW16378   6.742   5.157   2.880
 5160SOL    HW116379   6.777   5.097   2.952
 5160SOL    HW216380   6.775   5.250   2.895
 5161SOL     OW16381   1.745   3.967   5.549
 5161SOL    HW116382   1.842   3.951   5.526
 5161SOL    HW216383   1.710   3.887   5.597
 5162SOL     OW16384   1.249   4.813   3.103
 5162SOL    HW116385   1.290   4.738   3.153
 5162SOL    HW216386   1.317   4.886   3.091
 5163SOL     OW16387   3.794   6.371   0.398
 5163SOL    HW116388   3.718   6.393   0.337
 5163SOL    HW216389   3.823   6.453   0.447
 5164SOL     OW16390   3.805   2.591   7.017
 5164SOL    HW116391   3.715   2.567   0.027
 5164SOL    HW216392   3.846   2.660   0.050
 5165SOL     OW16393   6.249   4.404   5.648
 5165SOL    HW116394   6.190   4.457   5.588
 5165SOL    HW216395   6.284   4.324   5.598
 5166SOL     OW16396   0.576   5.221   2.520
 5166SOL    HW116397   0.519   5.161   2.578
 5166SOL    HW216398   0.658   5.247   2.570
 5167SOL     OW16399   6.713   6.451   6.421
 5167SOL    HW116400   6.767   6.368   6.409
 5167SOL    HW216401   6.773   6.525   6.451
 5168SOL     OW16402   5.372   3.750   1.939
 5168SOL    HW116403   5.453   3.764   1.882
 5168SOL    HW216404   5.399   3.710   2.027
 5169SOL     OW16405   3.933   2.196   4.455
 5169SOL    HW116406   3.942   2.273   4.518
 5169SOL    HW216407   3.844   2.200   4.410
 5170SOL     OW16408   0.575   4.188   5.475
 5170SOL    HW116409   0.597   4.091   5.461
 5170SOL    HW216410   0.607   4.217   5.565
 5171SOL     OW16411   0.655   5.472   4.648
 5171SOL    HW116412   0.657   5.569   4.621
 5171SOL    HW216413   0.687   5.463   4.742
 5172SOL     OW16414   1.160   2.675   2.444
 5172SOL    HW116415   1.082   2.660   2.504
 5172SOL    HW216416   1.206   2.588   2.428
 5173SOL     OW16417   4.892   4.847   6.172
 5173SOL    HW116418   4.885   4.783   6.096
 5173SOL    HW216419   4.807   4.899   6.181
 5174SOL     OW16420   2.273   4.904   3.468
 5174SOL    HW116421   2.270   4.988   3.521
 5174SOL    HW216422   2.343   4.913   3.396
 5175SOL     OW16423   2.888   3.480   0.156
 5175SOL    HW116424   2.906   3.414   0.229
 5175SOL    HW216425   2.915   3.441   0.069
 5176SOL     OW16426   4.553   3.214   6.891
 5176SOL    HW116427   4.650   3.229   6.913
 5176SOL    HW216428   4.526   3.123   6.921
 5177SOL     OW16429   4.875   0.709   0.012
 5177SOL    HW116430   4.952   0.770   7.020
 5177SOL    HW216431   4.880   0.678   0.107
 5178SOL     OW16432   1.295   4.504   2.288
 5178SOL    HW116433   1.230   4.518   2.363
 5178SOL    HW216434   1.287   4.410   2.254
 5179SOL     OW16435   4.196   5.880   3.540
 5179SOL    HW116436   4.224   5.803   3.597
 5179SOL    HW216437   4.097   5.879   3.528
 5180SOL     OW16438   2.580   2.571   1.196
 5180SOL    HW116439   2.668   2.593   1.238
 5180SOL    HW216440   2.545   2.487   1.236
 5181SOL     OW16441   5.835   1.393   2.354
 5181SOL    HW116442   5.745   1.436   2.360
 5181SOL    HW216443   5.855   1.368   2.259
 5182SOL     OW16444   3.975   4.378   1.396
 5182SOL    HW116445   3.961   4.306   1.328
 5182SOL    HW216446   3.890   4.430   1.407
 5183SOL     OW16447   4.554   1.602   3.104
 5183SOL    HW116448   4.525   1.552   3.185
 5183SOL    HW216449   4.611   1.543   3.047
 5184SOL     OW16450   0.745   1.773   4.354
 5184SOL    HW116451   0.703   1.785   4.444
 5184SOL    HW216452   0.676   1.789   4.283
 5185SOL     OW16453   5.401   0.900   2.173
 5185SOL    HW116454   5.468   0.826   2.164
 5185SOL    HW216455   5.390   0.945   2.085
 5186SOL     OW16456   6.625   2.884   0.683
 5186SOL    HW116457   6.695   2.935   0.732
 5186SOL    HW216458   6.537   2.895   0.730
 5187SOL     OW16459   0.986   6.942   4.393
 5187SOL    HW116460   0.954   6.855   4.430
 5187SOL    HW216461   0.969   6.944   4.294
 5188SOL     OW16462   0.642   5.700   0.702
 5188SOL    HW116463   0.684   5.719   0.613
 5188SOL    HW216464   0.664   5.607   0.730
 5189SOL     OW16465   3.813   4.509   0.710
 5189SOL    HW116466   3.888   4.474   0.766
 5189SOL    HW216467   3.730   4.514   0.766
 5190SOL     OW16468   0.778   2.145   4.304
 5190SOL    HW116469   0.768   2.213   4.232
 5190SOL    HW216470   0.763   2.054   4.266
 5191SOL     OW16471   4.121   0.379   1.767
 5191SOL    HW116472   4.162   0.334   1.687
 5191SOL    HW216473   4.120   0.316   1.844
 5192SOL     OW16474   2.994   5.796   2.889
 5192SOL    HW116475   3.030   5.719   2.942
 5192SOL    HW216476   3.070   5.845   2.845
 5193SOL     OW16477   5.115   4.475   4.743
 5193SOL    HW116478   5.085   4.391   4.789
 5193SOL    HW216479   5.175   4.526   4.804
 5194SOL     OW16480   4.639   2.146   0.510
 5194SOL    HW116481   4.650   2.046   0.506
 5194SOL    HW216482   4.604   2.172   0.600
 5195SOL     OW16483   5.772   6.403   4.314
 5195SOL    HW116484   5.690   6.447   4.280
 5195SOL    HW216485   5.839   6.394   4.240
 5196SOL     OW16486   3.468   4.717   0.604
 5196SOL    HW116487   3.402   4.770   0.550
 5196SOL    HW216488   3.510   4.776   0.673
 5197SOL     OW16489   2.000   5.575   5.153
 5197SOL    HW116490   1.926   5.614   5.208
 5197SOL    HW216491   2.087   5.592   5.200
 5198SOL     OW16492   4.330   6.673   3.337
 5198SOL    HW116493   4.398   6.624   3.392
 5198SOL    HW216494   4.238   6.646   3.367
 5199SOL     OW16495   1.387   5.744   0.456
 5199SOL    HW116496   1.402   5.747   0.555
 5199SOL    HW216497   1.370   5.837   0.422
 5200SOL     OW16498   1.159   2.605   5.013
 5200SOL    HW116499   1.059   2.600   5.017
 5200SOL    HW216500   1.188   2.699   5.001
 5201SOL     OW16501   0.104   6.668   4.040
 5201SOL    HW116502   0.165   6.654   3.962
 5201SOL    HW216503   0.147   6.730   4.105
 5202SOL     OW16504   6.018   4.032   5.393
 5202SOL    HW116505   5.945   4.051   5.459
 5202SOL    HW216506   6.061   3.944   5.415
 5203SOL     OW16507   2.392   1.239   6.583
 5203SOL    HW116508   2.439   1.327   6.570
 5203SOL    HW216509   2.378   1.223   6.680
 5204SOL     OW16510   4.362   6.187   6.890
 5204SOL    HW116511   4.402   6.114   6.835
 5204SOL    HW216512   4.420   6.205   6.969
 5205SOL     OW16513   0.595   5.961   0.861
 5205SOL    HW116514   0.517   5.992   0.807
 5205SOL    HW216515   0.620   5.868   0.832
 5206SOL     OW16516   0.550   5.183   6.967
 5206SOL    HW116517   0.591   5.103   7.011
 5206SOL    HW216518   0.563   5.264   7.025
 5207SOL     OW16519   1.276   6.379   4.103
 5207SOL    HW116520   1.179   6.402   4.111
 5207SOL    HW216521   1.288   6.282   4.123
 5208SOL     OW16522   5.038   2.424   6.898
 5208SOL    HW116523   5.029   2.357   6.972
 5208SOL    HW216524   4.959   2.418   6.838
 5209SOL     OW16525   5.819   0.015   2.065
 5209SOL    HW116526   5.886   7.006   2.130
 5209SOL    HW216527   5.812   6.980   1.986
 5210SOL     OW16528   4.670   3.004   0.112
 5210SOL    HW116529   4.691   2.956   0.197
 5210SOL    HW216530   4.588   2.965   0.070
 5211SOL     OW16531   3.719   2.211   5.827
 5211SOL    HW116532   3.740   2.271   5.750
 5211SOL    HW216533   3.783   2.134   5.828
 5212SOL     OW16534   0.281   2.480   0.627
 5212SOL    HW116535   0.211   2.472   0.699
 5212SOL    HW216536   0.260   2.416   0.553
 5213SOL     OW16537   4.412   4.006   6.847
 5213SOL    HW116538   4.349   3.994   6.923
 5213SOL    HW216539   4.416   4.103   6.822
 5214SOL     OW16540   5.149   2.157   6.256
 5214SOL    HW116541   5.211   2.205   6.194
 5214SOL    HW216542   5.200   2.122   6.334
 5215SOL     OW16543   1.101   4.327   3.908
 5215SOL    HW116544   1.013   4.292   3.875
 5215SOL    HW216545   1.169   4.318   3.836
 5216SOL     OW16546   4.460   4.901   1.449
 5216SOL    HW116547   4.447   4.803   1.430
 5216SOL    HW216548   4.480   4.913   1.546
 5217SOL     OW16549   3.500   5.255   4.136
 5217SOL    HW116550   3.509   5.160   4.165
 5217SOL    HW216551   3.459   5.308   4.210
 5218SOL     OW16552   0.959   0.767   1.915
 5218SOL    HW116553   1.008   0.710   1.851
 5218SOL    HW216554   0.980   0.738   2.009
 5219SOL     OW16555   4.120   1.306   5.053
 5219SOL    HW116556   4.157   1.329   4.963
 5219SOL    HW216557   4.168   1.357   5.124
 5220SOL     OW16558   1.424   6.298   2.206
 5220SOL    HW116559   1.473   6.212   2.221
 5220SOL    HW216560   1.336   6.294   2.252
 5221SOL     OW16561   5.939   1.478   3.615
 5221SOL    HW116562   5.925   1.385   3.649
 5221SOL    HW216563   5.864   1.537   3.648
 5222SOL     OW16564   4.399   6.519   3.091
 5222SOL    HW116565   4.375   6.577   3.169
 5222SOL    HW216566   4.322   6.517   3.027
 5223SOL     OW16567   6.277   2.728   0.597
 5223SOL    HW116568   6.283   2.796   0.670
 5223SOL    HW216569   6.185   2.730   0.557
 5224SOL     OW16570   6.573   2.707   4.668
 5224SOL    HW116571   6.661   2.691   4.713
 5224SOL    HW216572   6.502   2.715   4.738
 5225SOL     OW16573   0.188   0.656   3.826
 5225SOL    HW116574   0.209   0.571   3.778
 5225SOL    HW216575   0.218   0.649   3.922
 5226SOL     OW16576   0.008   0.074   4.947
 5226SOL    HW116577   0.094   0.122   4.965
 5226SOL    HW216578   6.959   0.140   4.946
 5227SOL     OW16579   0.282   3.380   5.246
 5227SOL    HW116580   0.213   3.345   5.183
 5227SOL    HW216581   0.302   3.476   5.225
 5228SOL     OW16582   6.440   2.473   0.988
 5228SOL    HW116583   6.388   2.485   0.904
 5228SOL    HW216584   6.431   2.555   1.045
 5229SOL     OW16585   2.473   6.340   0.122
 5229SOL    HW116586   2.529   6.371   0.199
 5229SOL    HW216587   2.391   6.396   0.116
 5230SOL     OW16588   0.625   5.819   1.942
 5230SOL    HW116589   0.691   5.849   1.873
 5230SOL    HW216590   0.592   5.898   1.994
 5231SOL     OW16591   4.772   2.379   4.614
 5231SOL    HW116592   4.713   2.454   4.643
 5231SOL    HW216593   4.769   2.306   4.681
 5232SOL     OW16594   2.096   3.958   6.018
 5232SOL    HW116595   2.058   3.884   6.074
 5232SOL    HW216596   2.026   4.029   6.004
 5233SOL     OW16597   4.414   1.230   2.249
 5233SOL    HW116598   4.476   1.156   2.277
 5233SOL    HW216599   4.443   1.266   2.161
 5234SOL     OW16600   2.766   1.684   6.041
 5234SOL    HW116601   2.810   1.747   6.105
 5234SOL    HW216602   2.668   1.702   6.038
 5235SOL     OW16603   1.911   2.448   0.662
 5235SOL    HW116604   1.824   2.457   0.614
 5235SOL    HW216605   1.986   2.456   0.597
 5236SOL     OW16606   4.733   5.117   1.818
 5236SOL    HW116607   4.786   5.201   1.806
 5236SOL    HW216608   4.688   5.118   1.907
 5237SOL     OW16609   1.582   1.282   5.019
 5237SOL    HW116610   1.602   1.324   4.930
 5237SOL    HW216611   1.484   1.275   5.032
 5238SOL     OW16612   0.490   4.472   0.175
 5238SOL    HW116613   0.579   4.518   0.180
 5238SOL    HW216614   0.489   4.393   0.235
 5239SOL     OW16615   3.573   2.890   4.723
 5239SOL    HW116616   3.587   2.792   4.739
 5239SOL    HW216617   3.486   2.903   4.676
 5240SOL     OW16618   3.174   2.740   5.541
 5240SOL    HW116619   3.235   2.817   5.560
 5240SOL    HW216620   3.115   2.724   5.619
 5241SOL     OW16621   0.299   5.096   4.522
 5241SOL    HW116622   0.298   5.063   4.617
 5241SOL    HW216623   0.258   5.027   4.463
 5242SOL     OW16624   6.576   6.810   7.013
 5242SOL    HW116625   6.517   6.729   7.010
 5242SOL    HW216626   6.653   6.798   6.950
 5243SOL     OW16627   1.621   5.506   1.359
 5243SOL    HW116628   1.585   5.420   1.323
 5243SOL    HW216629   1.550   5.554   1.409
 5244SOL     OW16630   2.988   5.399   6.817
 5244SOL    HW116631   2.975   5.473   6.751
 5244SOL    HW216632   3.080   5.406   6.856
 5245SOL     OW16633   4.164   4.526   0.003
 5245SOL    HW116634   4.065   4.540   0.012
 5245SOL    HW216635   4.188   4.436   0.041
 5246SOL     OW16636   5.878   3.621   1.709
 5246SOL    HW116637   5.875   3.529   1.668
 5246SOL    HW216638   5.885   3.613   1.808
 5247SOL     OW16639   1.756   0.811   6.813
 5247SOL    HW116640   1.745   0.908   6.790
 5247SOL    HW216641   1.740   0.756   6.731
 5248SOL     OW16642   5.575   1.632   3.485
 5248SOL    HW116643   5.516   1.640   3.565
 5248SOL    HW216644   5.654   1.574   3.507
 5249SOL     OW16645   0.388   5.224   6.362
 5249SOL    HW116646   0.447   5.157   6.408
 5249SOL    HW216647   0.338   5.179   6.288
 5250SOL     OW16648   2.056   5.659   6.413
 5250SOL    HW116649   2.119   5.707   6.353
 5250SOL    HW216650   2.004   5.725   6.467
 5251SOL     OW16651   0.257   3.675   0.218
 5251SOL    HW116652   0.209   3.705   0.300
 5251SOL    HW216653   0.355   3.671   0.236
 5252SOL     OW16654   1.861   6.583   0.518
 5252SOL    HW116655   1.861   6.488   0.549
 5252SOL    HW216656   1.772   6.625   0.538
 5253SOL     OW16657   6.137   4.659   4.722
 5253SOL    HW116658   6.122   4.738   4.663
 5253SOL    HW216659   6.085   4.670   4.807
 5254SOL     OW16660   4.438   0.814   3.094
 5254SOL    HW116661   4.443   0.714   3.091
 5254SOL    HW216662   4.448   0.851   3.002
 5255SOL     OW16663   5.754   1.824   5.162
 5255SOL    HW116664   5.670   1.805   5.214
 5255SOL    HW216665   5.735   1.894   5.093
 5256SOL     OW16666   4.145   1.469   3.672
 5256SOL    HW116667   4.147   1.489   3.770
 5256SOL    HW216668   4.109   1.377   3.658
 5257SOL     OW16669   5.360   6.828   2.067
 5257SOL    HW116670   5.383   6.846   1.972
 5257SOL    HW216671   5.424   6.875   2.127
 5258SOL     OW16672   5.760   3.243   1.414
 5258SOL    HW116673   5.759   3.272   1.510
 5258SOL    HW216674   5.836   3.288   1.367
 5259SOL     OW16675   5.084   6.328   2.070
 5259SOL    HW116676   5.086   6.278   2.157
 5259SOL    HW216677   5.174   6.366   2.050
 5260SOL     OW16678   4.925   3.655   0.433
 5260SOL    HW116679   5.003   3.627   0.378
 5260SOL    HW216680   4.871   3.723   0.382
 5261SOL     OW16681   0.353   3.869   6.682
 5261SOL    HW116682   0.336   3.961   6.718
 5261SOL    HW216683   0.425   3.873   6.613
 5262SOL     OW16684   2.958   1.018   3.639
 5262SOL    HW116685   3.027   0.961   3.683
 5262SOL    HW216686   2.990   1.112   3.632
 5263SOL     OW16687   2.093   1.601   3.981
 5263SOL    HW116688   2.092   1.641   3.890
 5263SOL    HW216689   2.098   1.501   3.974
 5264SOL     OW16690   6.600   2.332   2.593
 5264SOL    HW116691   6.665   2.380   2.653
 5264SOL    HW216692   6.585   2.386   2.510
 5265SOL     OW16693   6.555   3.888   4.035
 5265SOL    HW116694   6.475   3.827   4.036
 5265SOL    HW216695   6.627   3.848   3.979
 5266SOL     OW16696   3.269   5.401   0.654
 5266SOL    HW116697   3.181   5.408   0.701
 5266SOL    HW216698   3.301   5.493   0.630
 5267SOL     OW16699   5.700   3.777   5.297
 5267SOL    HW116700   5.778   3.738   5.249
 5267SOL    HW216701   5.616   3.753   5.249
 5268SOL     OW16702   5.515   0.832   6.471
 5268SOL    HW116703   5.432   0.777   6.460
 5268SOL    HW216704   5.553   0.818   6.562
 5269SOL     OW16705   1.603   6.338   3.367
 5269SOL    HW116706   1.539   6.335   3.291
 5269SOL    HW216707   1.697   6.339   3.332
 5270SOL     OW16708   5.987   0.785   0.896
 5270SOL    HW116709   6.084   0.799   0.873
 5270SOL    HW216710   5.958   0.854   0.961
 5271SOL     OW16711   6.091   5.631   5.069
 5271SOL    HW116712   6.040   5.545   5.071
 5271SOL    HW216713   6.050   5.693   5.002
 5272SOL     OW16714   3.058   5.483   2.155
 5272SOL    HW116715   3.110   5.411   2.200
 5272SOL    HW216716   2.982   5.442   2.103
 5273SOL     OW16717   6.548   3.330   3.820
 5273SOL    HW116718   6.450   3.335   3.842
 5273SOL    HW216719   6.601   3.360   3.899
 5274SOL     OW16720   6.780   6.752   2.686
 5274SOL    HW116721   6.860   6.802   2.720
 5274SOL    HW216722   6.809   6.684   2.618
 5275SOL     OW16723   3.636   2.176   1.254
 5275SOL    HW116724   3.569   2.163   1.181
 5275SOL    HW216725   3.608   2.125   1.335
 5276SOL     OW16726   2.152   0.539   1.112
 5276SOL    HW116727   2.115   0.496   1.030
 5276SOL    HW216728   2.167   0.637   1.095
 5277SOL     OW16729   1.574   1.675   2.764
 5277SOL    HW116730   1.511   1.600   2.787
 5277SOL    HW216731   1.557   1.707   2.671
 5278SOL     OW16732   6.431   0.151   3.665
 5278SOL    HW116733   6.374   0.210   3.607
 5278SOL    HW216734   6.385   0.063   3.678
 5279SOL     OW16735   1.977   4.790   6.326
 5279SOL    HW116736   2.057   4.845   6.349
 5279SOL    HW216737   1.985   4.759   6.231
 5280SOL     OW16738   2.489   6.308   5.235
 5280SOL    HW116739   2.581   6.349   5.231
 5280SOL    HW216740   2.476   6.248   5.156
 5281SOL     OW16741   0.342   2.146   3.065
 5281SOL    HW116742   0.374   2.137   3.159
 5281SOL    HW216743   0.289   2.065   3.039
 5282SOL     OW16744   2.555   1.774   3.385
 5282SOL    HW116745   2.604   1.705   3.438
 5282SOL    HW216746   2.486   1.818   3.443
 5283SOL     OW16747   4.104   6.687   0.914
 5283SOL    HW116748   4.107   6.781   0.880
 5283SOL    HW216749   4.130   6.624   0.842
 5284SOL     OW16750   4.902   3.967   3.537
 5284SOL    HW116751   4.939   3.945   3.447
 5284SOL    HW216752   4.922   3.892   3.600
 5285SOL     OW16753   2.770   5.085   3.804
 5285SOL    HW116754   2.833   5.161   3.816
 5285SOL    HW216755   2.814   5.000   3.832
 5286SOL     OW16756   1.230   4.563   0.410
 5286SOL    HW116757   1.227   4.565   0.510
 5286SOL    HW216758   1.289   4.488   0.380
 5287SOL     OW16759   2.644   6.533   0.583
 5287SOL    HW116760   2.743   6.550   0.581
 5287SOL    HW216761   2.627   6.444   0.626
 5288SOL     OW16762   3.240   0.169   1.542
 5288SOL    HW116763   3.195   0.236   1.483
 5288SOL    HW216764   3.171   0.110   1.584
 5289SOL     OW16765   1.490   4.816   6.001
 5289SOL    HW116766   1.482   4.887   6.071
 5289SOL    HW216767   1.445   4.846   5.917
 5290SOL     OW16768   1.310   5.227   5.142
 5290SOL    HW116769   1.334   5.307   5.087
 5290SOL    HW216770   1.385   5.206   5.205
 5291SOL     OW16771   2.524   4.778   6.086
 5291SOL    HW116772   2.578   4.795   6.169
 5291SOL    HW216773   2.444   4.837   6.086
 5292SOL     OW16774   6.248   3.159   6.942
 5292SOL    HW116775   6.272   3.108   6.860
 5292SOL    HW216776   6.232   3.255   6.919
 5293SOL     OW16777   0.799   0.686   4.925
 5293SOL    HW116778   0.815   0.598   4.969
 5293SOL    HW216779   0.705   0.690   4.892
 5294SOL     OW16780   4.754   3.394   5.660
 5294SOL    HW116781   4.831   3.418   5.719
 5294SOL    HW216782   4.672   3.381   5.715
 5295SOL     OW16783   5.772   0.829   2.864
 5295SOL    HW116784   5.821   0.766   2.802
 5295SOL    HW216785   5.774   0.921   2.825
 5296SOL     OW16786   2.555   5.085   0.106
 5296SOL    HW116787   2.544   4.990   0.077
 5296SOL    HW216788   2.531   5.093   0.203
 5297SOL     OW16789   2.185   2.031   1.708
 5297SOL    HW116790   2.231   1.965   1.768
 5297SOL    HW216791   2.237   2.041   1.623
 5298SOL     OW16792   0.776   5.561   0.478
 5298SOL    HW116793   0.866   5.583   0.516
 5298SOL    HW216794   0.770   5.462   0.464
 5299SOL     OW16795   2.781   2.437   0.687
 5299SOL    HW116796   2.764   2.495   0.607
 5299SOL    HW216797   2.694   2.415   0.731
 5300SOL     OW16798   0.413   5.753   2.470
 5300SOL    HW116799   0.463   5.724   2.552
 5300SOL    HW216800   0.468   5.819   2.419
 5301SOL     OW16801   4.336   1.781   0.510
 5301SOL    HW116802   4.313   1.792   0.413
 5301SOL    HW216803   4.433   1.759   0.519
 5302SOL     OW16804   5.925   4.351   3.187
 5302SOL    HW116805   5.994   4.339   3.116
 5302SOL    HW216806   5.939   4.282   3.258
 5303SOL     OW16807   6.540   6.166   3.373
 5303SOL    HW116808   6.518   6.080   3.419
 5303SOL    HW216809   6.508   6.243   3.428
 5304SOL     OW16810   0.039   1.756   5.878
 5304SOL    HW116811   0.069   1.764   5.973
 5304SOL    HW216812   7.009   1.835   5.855
 5305SOL     OW16813   1.307   6.855   4.842
 5305SOL    HW116814   1.351   6.767   4.824
 5305SOL    HW216815   1.359   6.903   4.913
 5306SOL     OW16816   0.039   5.817   5.077
 5306SOL    HW116817   0.117   5.827   5.140
 5306SOL    HW216818   0.022   5.720   5.059
 5307SOL     OW16819   4.325   0.006   6.986
 5307SOL    HW116820   4.356   6.943   7.020
 5307SOL    HW216821   4.404   0.064   6.968
 5308SOL     OW16822   0.596   6.926   4.931
 5308SOL    HW116823   0.654   6.956   4.855
 5308SOL    HW216824   0.532   6.857   4.898
 5309SOL     OW16825   3.285   3.622   2.300
 5309SOL    HW116826   3.192   3.639   2.331
 5309SOL    HW216827   3.292   3.530   2.261
 5310SOL     OW16828   5.337   2.974   2.125
 5310SOL    HW116829   5.252   2.963   2.074
 5310SOL    HW216830   5.375   3.065   2.108
 5311SOL     OW16831   0.265   5.603   0.980
 5311SOL    HW116832   0.351   5.596   1.031
 5311SOL    HW216833   0.279   5.655   0.897
 5312SOL     OW16834   0.149   4.257   2.410
 5312SOL    HW116835   0.071   4.298   2.362
 5312SOL    HW216836   0.213   4.219   2.344
 5313SOL     OW16837   0.832   5.509   0.175
 5313SOL    HW116838   0.828   5.506   0.275
 5313SOL    HW216839   0.894   5.583   0.146
 5314SOL     OW16840   3.309   4.915   0.498
 5314SOL    HW116841   3.213   4.906   0.473
 5314SOL    HW216842   3.320   4.988   0.566
 5315SOL     OW16843   3.702   4.035   1.214
 5315SOL    HW116844   3.677   4.104   1.147
 5315SOL    HW216845   3.787   3.990   1.185
 5316SOL     OW16846   6.590   5.220   5.184
 5316SOL    HW116847   6.497   5.242   5.155
 5316SOL    HW216848   6.603   5.120   5.182
 5317SOL     OW16849   6.825   0.942   4.774
 5317SOL    HW116850   6.911   0.931   4.823
 5317SOL    HW216851   6.768   0.861   4.788
 5318SOL     OW16852   0.710   2.109   5.935
 5318SOL    HW116853   0.644   2.106   6.010
 5318SOL    HW216854   0.672   2.162   5.859
 5319SOL     OW16855   4.739   6.721   0.071
 5319SOL    HW116856   4.737   6.716   6.997
 5319SOL    HW216857   4.648   6.746   0.104
 5320SOL     OW16858   5.684   4.951   6.949
 5320SOL    HW116859   5.616   5.014   6.910
 5320SOL    HW216860   5.650   4.915   0.009
 5321SOL     OW16861   0.928   4.566   2.787
 5321SOL    HW116862   1.004   4.501   2.794
 5321SOL    HW216863   0.954   4.652   2.831
 5322SOL     OW16864   3.613   6.514   6.236
 5322SOL    HW116865   3.605   6.578   6.312
 5322SOL    HW216866   3.666   6.556   6.162
 5323SOL     OW16867   3.641   3.142   0.931
 5323SOL    HW116868   3.722   3.083   0.929
 5323SOL    HW216869   3.628   3.176   1.024
 5324SOL     OW16870   3.577   2.668   1.832
 5324SOL    HW116871   3.609   2.736   1.898
 5324SOL    HW216872   3.602   2.576   1.864
 5325SOL     OW16873   6.028   6.419   3.043
 5325SOL    HW116874   5.938   6.376   3.039
 5325SOL    HW216875   6.080   6.381   3.119
 5326SOL     OW16876   6.692   5.153   2.606
 5326SOL    HW116877   6.740   5.107   2.531
 5326SOL    HW216878   6.729   5.123   2.693
 5327SOL     OW16879   0.241   5.256   5.514
 5327SOL    HW116880   0.322   5.277   5.570
 5327SOL    HW216881   0.271   5.216   5.427
 5328SOL     OW16882   4.235   2.836   5.839
 5328SOL    HW116883   4.217   2.922   5.790
 5328SOL    HW216884   4.203   2.844   5.933
 5329SOL     OW16885   0.015   3.815   6.624
 5329SOL    HW116886   0.076   3.875   6.574
 5329SOL    HW216887   0.025   3.831   6.722
 5330SOL     OW16888   3.128   4.835   6.667
 5330SOL    HW116889   3.080   4.923   6.657
 5330SOL    HW216890   3.085   4.782   6.740
 5331SOL     OW16891   5.388   1.621   1.186
 5331SOL    HW116892   5.468   1.615   1.246
 5331SOL    HW216893   5.306   1.639   1.241
 5332SOL     OW16894   6.590   4.403   0.100
 5332SOL    HW116895   6.670   4.344   0.100
 5332SOL    HW216896   6.507   4.347   0.097
 5333SOL     OW16897   1.014   0.470   3.594
 5333SOL    HW116898   1.112   0.488   3.606
 5333SOL    HW216899   0.994   0.375   3.619
 5334SOL     OW16900   3.675   5.166   5.411
 5334SOL    HW116901   3.659   5.076   5.371
 5334SOL    HW216902   3.654   5.237   5.344
 5335SOL     OW16903   0.593   5.060   2.315
 5335SOL    HW116904   0.579   5.125   2.391
 5335SOL    HW216905   0.670   5.000   2.337
 5336SOL     OW16906   1.705   2.230   3.650
 5336SOL    HW116907   1.748   2.188   3.730
 5336SOL    HW216908   1.698   2.162   3.576
 5337SOL     OW16909   5.848   4.637   1.440
 5337SOL    HW116910   5.824   4.566   1.507
 5337SOL    HW216911   5.860   4.594   1.350
 5338SOL     OW16912   5.236   1.056   6.236
 5338SOL    HW116913   5.154   1.001   6.248
 5338SOL    HW216914   5.222   1.123   6.163
 5339SOL     OW16915   5.628   1.195   3.078
 5339SOL    HW116916   5.681   1.273   3.046
 5339SOL    HW216917   5.684   1.112   3.074
 5340SOL     OW16918   5.801   3.882   0.876
 5340SOL    HW116919   5.753   3.901   0.961
 5340SOL    HW216920   5.857   3.800   0.886
 5341SOL     OW16921   3.099   5.032   5.240
 5341SOL    HW116922   3.030   4.979   5.190
 5341SOL    HW216923   3.128   4.981   5.321
 5342SOL     OW16924   5.329   6.321   4.790
 5342SOL    HW116925   5.279   6.234   4.787
 5342SOL    HW216926   5.425   6.305   4.767
 5343SOL     OW16927   3.815   3.576   4.438
 5343SOL    HW116928   3.738   3.543   4.383
 5343SOL    HW216929   3.780   3.620   4.521
 5344SOL     OW16930   0.556   1.694   0.331
 5344SOL    HW116931   0.547   1.602   0.369
 5344SOL    HW216932   0.581   1.688   0.234
 5345SOL     OW16933   4.860   0.564   6.808
 5345SOL    HW116934   4.948   0.517   6.815
 5345SOL    HW216935   4.840   0.610   6.894
 5346SOL     OW16936   2.878   5.536   4.469
 5346SOL    HW116937   2.816   5.489   4.532
 5346SOL    HW216938   2.964   5.556   4.516
 5347SOL     OW16939   6.587   3.838   3.350
 5347SOL    HW116940   6.657   3.905   3.377
 5347SOL    HW216941   6.509   3.886   3.310
 5348SOL     OW16942   0.326   1.123   6.320
 5348SOL    HW116943   0.305   1.030   6.290
 5348SOL    HW216944   0.408   1.123   6.376
 5349SOL     OW16945   2.668   3.102   1.359
 5349SOL    HW116946   2.698   3.189   1.399
 5349SOL    HW216947   2.722   3.083   1.277
 5350SOL     OW16948   2.705   6.730   5.404
 5350SOL    HW116949   2.657   6.653   5.362
 5350SOL    HW216950   2.639   6.785   5.456
 5351SOL     OW16951   0.262   5.364   2.188
 5351SOL    HW116952   0.355   5.399   2.198
 5351SOL    HW216953   0.247   5.289   2.252
 5352SOL     OW16954   2.495   4.811   3.082
 5352SOL    HW116955   2.540   4.762   3.157
 5352SOL    HW216956   2.495   4.909   3.101
 5353SOL     OW16957   3.828   5.746   3.985
 5353SOL    HW116958   3.752   5.773   3.925
 5353SOL    HW216959   3.915   5.775   3.944
 5354SOL     OW16960   2.158   4.973   0.595
 5354SOL    HW116961   2.090   4.911   0.557
 5354SOL    HW216962   2.205   4.929   0.671
 5355SOL     OW16963   6.027   4.934   4.290
 5355SOL    HW116964   6.119   4.972   4.278
 5355SOL    HW216965   6.026   4.876   4.372
 5356SOL     OW16966   6.638   3.821   2.271
 5356SOL    HW116967   6.678   3.891   2.212
 5356SOL    HW216968   6.619   3.739   2.218
 5357SOL     OW16969   4.084   4.492   0.876
 5357SOL    HW116970   4.079   4.463   0.781
 5357SOL    HW216971   4.135   4.425   0.929
 5358SOL     OW16972   4.599   2.331   1.165
 5358SOL    HW116973   4.592   2.249   1.108
 5358SOL    HW216974   4.691   2.338   1.202
 5359SOL     OW16975   2.521   1.675   6.227
 5359SOL    HW116976   2.436   1.727   6.234
 5359SOL    HW216977   2.506   1.581   6.257
 5360SOL     OW16978   5.385   6.183   3.721
 5360SOL    HW116979   5.372   6.278   3.751
 5360SOL    HW216980   5.310   6.127   3.756
 5361SOL     OW16981   2.350   6.561   4.254
 5361SOL    HW116982   2.316   6.630   4.189
 5361SOL    HW216983   2.450   6.564   4.256
 5362SOL     OW16984   6.335   5.602   2.684
 5362SOL    HW116985   6.298   5.631   2.772
 5362SOL    HW216986   6.397   5.525   2.697
 5363SOL     OW16987   5.404   6.400   6.038
 5363SOL    HW116988   5.501   6.382   6.056
 5363SOL    HW216989   5.392   6.498   6.018
 5364SOL     OW16990   6.161   6.854   1.666
 5364SOL    HW116991   6.227   6.917   1.625
 5364SOL    HW216992   6.201   6.813   1.748
 5365SOL     OW16993   3.313   3.051   2.277
 5365SOL    HW116994   3.386   3.010   2.331
 5365SOL    HW216995   3.321   3.021   2.182
 5366SOL     OW16996   0.139   6.920   2.511
 5366SOL    HW116997   0.116   6.890   2.604
 5366SOL    HW216998   0.237   6.937   2.505
 5367SOL     OW16999   6.989   6.507   1.226
 5367SOL    HW117000   6.905   6.541   1.271
 5367SOL    HW217001   6.967   6.478   1.133
 5368SOL     OW17002   6.345   6.749   2.528
 5368SOL    HW117003   6.313   6.710   2.442
 5368SOL    HW217004   6.341   6.849   2.523
 5369SOL     OW17005   3.030   6.330   1.149
 5369SOL    HW117006   3.056   6.243   1.107
 5369SOL    HW217007   3.108   6.367   1.200
 5370SOL     OW17008   3.905   3.655   1.181
 5370SOL    HW117009   3.999   3.654   1.216
 5370SOL    HW217010   3.884   3.567   1.139
 5371SOL     OW17011   6.877   4.860   5.352
 5371SOL    HW117012   6.843   4.876   5.445
 5371SOL    HW217013   6.960   4.914   5.337
 5372SOL     OW17014   1.018   5.898   2.767
 5372SOL    HW117015   0.970   5.844   2.836
 5372SOL    HW217016   1.113   5.912   2.795
 5373SOL     OW17017   4.349   6.659   5.450
 5373SOL    HW117018   4.275   6.625   5.508
 5373SOL    HW217019   4.420   6.701   5.506
 5374SOL     OW17020   2.179   4.357   0.344
 5374SOL    HW117021   2.105   4.298   0.375
 5374SOL    HW217022   2.143   4.448   0.321
 5375SOL     OW17023   0.442   5.748   5.808
 5375SOL    HW117024   0.417   5.765   5.713
 5375SOL    HW217025   0.511   5.676   5.811
 5376SOL     OW17026   1.118   2.483   1.391
 5376SOL    HW117027   1.198   2.542   1.407
 5376SOL    HW217028   1.128   2.438   1.303
 5377SOL     OW17029   1.321   0.379   3.043
 5377SOL    HW117030   1.248   0.410   2.981
 5377SOL    HW217031   1.329   0.444   3.119
 5378SOL     OW17032   6.684   0.201   2.105
 5378SOL    HW117033   6.725   0.114   2.079
 5378SOL    HW217034   6.623   0.187   2.183
 5379SOL     OW17035   1.242   3.563   4.997
 5379SOL    HW117036   1.143   3.558   5.011
 5379SOL    HW217037   1.276   3.650   5.034
 5380SOL     OW17038   2.636   0.051   1.279
 5380SOL    HW117039   2.613   0.125   1.216
 5380SOL    HW217040   2.562   7.010   1.281
 5381SOL     OW17041   6.774   6.146   2.312
 5381SOL    HW117042   6.711   6.116   2.383
 5381SOL    HW217043   6.798   6.068   2.254
 5382SOL     OW17044   2.911   2.256   2.736
 5382SOL    HW117045   2.882   2.323   2.667
 5382SOL    HW217046   2.849   2.260   2.814
 5383SOL     OW17047   1.112   2.354   4.387
 5383SOL    HW117048   1.055   2.435   4.396
 5383SOL    HW217049   1.146   2.348   4.293
 5384SOL     OW17050   4.422   5.711   4.700
 5384SOL    HW117051   4.510   5.759   4.713
 5384SOL    HW217052   4.373   5.708   4.787
 5385SOL     OW17053   5.241   2.728   5.226
 5385SOL    HW117054   5.332   2.737   5.266
 5385SOL    HW217055   5.230   2.796   5.153
 5386SOL     OW17056   5.904   1.300   4.049
 5386SOL    HW117057   5.972   1.371   4.070
 5386SOL    HW217058   5.821   1.317   4.101
 5387SOL     OW17059   2.377   6.463   3.373
 5387SOL    HW117060   2.322   6.451   3.456
 5387SOL    HW217061   2.329   6.523   3.310
 5388SOL     OW17062   1.251   6.686   2.603
 5388SOL    HW117063   1.334   6.695   2.658
 5388SOL    HW217064   1.183   6.752   2.634
 5389SOL     OW17065   3.893   1.863   4.724
 5389SOL    HW117066   3.852   1.805   4.654
 5389SOL    HW217067   3.822   1.901   4.783
 5390SOL     OW17068   5.457   4.556   3.679
 5390SOL    HW117069   5.554   4.547   3.703
 5390SOL    HW217070   5.449   4.582   3.583
 5391SOL     OW17071   2.588   1.729   6.853
 5391SOL    HW117072   2.606   1.632   6.870
 5391SOL    HW217073   2.565   1.742   6.756
 5392SOL     OW17074   5.614   4.010   1.282
 5392SOL    HW117075   5.702   4.038   1.243
 5392SOL    HW217076   5.579   3.932   1.231
 5393SOL     OW17077   5.109   0.907   5.014
 5393SOL    HW117078   5.144   0.929   4.923
 5393SOL    HW217079   5.119   0.987   5.073
 5394SOL     OW17080   0.885   5.752   1.014
 5394SOL    HW117081   0.909   5.760   1.111
 5394SOL    HW217082   0.962   5.714   0.964
 5395SOL     OW17083   5.082   0.756   1.538
 5395SOL    HW117084   5.132   0.794   1.460
 5395SOL    HW217085   5.111   0.661   1.553
 5396SOL     OW17086   5.585   5.039   1.766
 5396SOL    HW117087   5.613   5.077   1.855
 5396SOL    HW217088   5.524   4.962   1.781
 5397SOL     OW17089   0.486   2.185   2.022
 5397SOL    HW117090   0.462   2.226   2.110
 5397SOL    HW217091   0.454   2.243   1.948
 5398SOL     OW17092   2.695   2.148   3.603
 5398SOL    HW117093   2.652   2.058   3.609
 5398SOL    HW217094   2.625   2.219   3.611
 5399SOL     OW17095   2.930   0.193   6.433
 5399SOL    HW117096   2.902   0.114   6.488
 5399SOL    HW217097   2.909   0.176   6.337
 5400SOL     OW17098   2.974   3.572   0.425
 5400SOL    HW117099   2.994   3.641   0.495
 5400SOL    HW217100   2.944   3.488   0.469
 5401SOL     OW17101   5.638   4.085   2.352
 5401SOL    HW117102   5.713   4.019   2.361
 5401SOL    HW217103   5.571   4.051   2.287
 5402SOL     OW17104   2.351   6.898   0.889
 5402SOL    HW117105   2.336   6.963   0.815
 5402SOL    HW217106   2.289   6.820   0.879
 5403SOL     OW17107   5.174   3.341   6.297
 5403SOL    HW117108   5.158   3.278   6.221
 5403SOL    HW217109   5.143   3.433   6.271
 5404SOL     OW17110   0.784   6.883   1.512
 5404SOL    HW117111   0.762   6.933   1.596
 5404SOL    HW217112   0.717   6.810   1.498
 5405SOL     OW17113   6.137   4.803   0.168
 5405SOL    HW117114   6.180   4.842   0.250
 5405SOL    HW217115   6.208   4.784   0.100
 5406SOL     OW17116   2.178   0.975   5.073
 5406SOL    HW117117   2.116   1.034   5.022
 5406SOL    HW217118   2.247   1.031   5.119
 5407SOL     OW17119   3.519   1.621   0.977
 5407SOL    HW117120   3.424   1.608   1.005
 5407SOL    HW217121   3.575   1.548   1.014
 5408SOL     OW17122   3.891   1.147   5.042
 5408SOL    HW117123   3.970   1.206   5.056
 5408SOL    HW217124   3.874   1.137   4.944
 5409SOL     OW17125   6.247   1.314   2.332
 5409SOL    HW117126   6.198   1.365   2.403
 5409SOL    HW217127   6.190   1.238   2.300
 5410SOL     OW17128   1.015   2.411   6.663
 5410SOL    HW117129   0.974   2.421   6.754
 5410SOL    HW217130   1.045   2.501   6.630
 5411SOL     OW17131   4.723   5.000   6.447
 5411SOL    HW117132   4.790   5.071   6.467
 5411SOL    HW217133   4.722   4.981   6.349
 5412SOL     OW17134   2.542   1.078   6.428
 5412SOL    HW117135   2.501   1.045   6.343
 5412SOL    HW217136   2.472   1.120   6.485
 5413SOL     OW17137   0.546   6.895   6.702
 5413SOL    HW117138   0.487   6.930   6.776
 5413SOL    HW217139   0.491   6.882   6.620
 5414SOL     OW17140   6.348   4.701   5.060
 5414SOL    HW117141   6.357   4.626   5.125
 5414SOL    HW217142   6.335   4.787   5.109
 5415SOL     OW17143   2.845   6.169   0.810
 5415SOL    HW117144   2.920   6.236   0.806
 5415SOL    HW217145   2.770   6.199   0.752
 5416SOL     OW17146   2.564   4.655   4.999
 5416SOL    HW117147   2.506   4.576   5.020
 5416SOL    HW217148   2.660   4.631   5.012
 5417SOL     OW17149   3.671   0.090   4.944
 5417SOL    HW117150   3.675   0.094   4.844
 5417SOL    HW217151   3.588   0.136   4.976
 5418SOL     OW17152   5.424   5.570   5.162
 5418SOL    HW117153   5.524   5.568   5.160
 5418SOL    HW217154   5.392   5.574   5.257
 5419SOL     OW17155   3.903   5.838   0.631
 5419SOL    HW117156   3.935   5.795   0.546
 5419SOL    HW217157   3.852   5.921   0.609
 5420SOL     OW17158   2.132   2.363   0.832
 5420SOL    HW117159   2.051   2.399   0.787
 5420SOL    HW217160   2.129   2.263   0.831
 5421SOL     OW17161   3.161   5.185   1.067
 5421SOL    HW117162   3.081   5.158   1.013
 5421SOL    HW217163   3.181   5.114   1.134
 5422SOL     OW17164   1.356   5.479   5.027
 5422SOL    HW117165   1.417   5.507   5.101
 5422SOL    HW217166   1.410   5.458   4.945
 5423SOL     OW17167   5.484   5.044   0.541
 5423SOL    HW117168   5.385   5.038   0.553
 5423SOL    HW217169   5.530   5.003   0.621
 5424SOL     OW17170   5.112   3.902   4.368
 5424SOL    HW117171   5.167   3.978   4.404
 5424SOL    HW217172   5.119   3.824   4.430
 5425SOL     OW17173   6.500   2.462   4.470
 5425SOL    HW117174   6.413   2.467   4.422
 5425SOL    HW217175   6.512   2.544   4.526
 5426SOL     OW17176   4.724   5.537   2.234
 5426SOL    HW117177   4.753   5.523   2.139
 5426SOL    HW217178   4.634   5.581   2.235
 5427SOL     OW17179   5.447   3.068   0.277
 5427SOL    HW117180   5.391   3.001   0.325
 5427SOL    HW217181   5.455   3.041   0.181
 5428SOL     OW17182   5.290   6.497   1.981
 5428SOL    HW117183   5.316   6.583   2.026
 5428SOL    HW217184   5.264   6.515   1.887
 5429SOL     OW17185   1.916   0.023   4.989
 5429SOL    HW117186   1.818   0.037   4.974
 5429SOL    HW217187   1.930   7.012   5.081
 5430SOL     OW17188   1.829   2.992   4.680
 5430SOL    HW117189   1.757   3.057   4.657
 5430SOL    HW217190   1.856   3.004   4.776
 5431SOL     OW17191   3.225   3.973   6.525
 5431SOL    HW117192   3.235   3.897   6.589
 5431SOL    HW217193   3.162   4.041   6.563
 5432SOL     OW17194   4.262   5.219   6.613
 5432SOL    HW117195   4.307   5.300   6.651
 5432SOL    HW217196   4.332   5.151   6.587
 5433SOL     OW17197   0.767   6.991   1.238
 5433SOL    HW117198   0.774   6.968   1.335
 5433SOL    HW217199   0.856   6.975   1.194
 5434SOL     OW17200   4.189   1.090   4.737
 5434SOL    HW117201   4.099   1.125   4.764
 5434SOL    HW217202   4.228   1.037   4.812
 5435SOL     OW17203   6.350   3.789   0.579
 5435SOL    HW117204   6.307   3.827   0.661
 5435SOL    HW217205   6.433   3.840   0.557
 5436SOL     OW17206   6.554   4.155   4.035
 5436SOL    HW117207   6.554   4.060   4.067
 5436SOL    HW217208   6.478   4.204   4.077
 5437SOL     OW17209   3.194   4.982   5.504
 5437SOL    HW117210   3.252   5.062   5.490
 5437SOL    HW217211   3.243   4.914   5.558
 5438SOL     OW17212   5.182   4.483   1.837
 5438SOL    HW117213   5.122   4.553   1.876
 5438SOL    HW217214   5.265   4.526   1.801
 5439SOL     OW17215   0.233   3.728   6.965
 5439SOL    HW117216   0.245   3.728   0.038
 5439SOL    HW217217   0.315   3.767   6.922
 5440SOL     OW17218   6.471   6.687   3.829
 5440SOL    HW117219   6.371   6.680   3.829
 5440SOL    HW217220   6.510   6.598   3.803
 5441SOL     OW17221   5.151   3.553   3.178
 5441SOL    HW117222   5.179   3.522   3.269
 5441SOL    HW217223   5.054   3.532   3.164
 5442SOL     OW17224   4.163   0.032   3.795
 5442SOL    HW117225   4.226   0.018   3.872
 5442SOL    HW217226   4.188   0.115   3.745
 5443SOL     OW17227   4.836   6.008   3.916
 5443SOL    HW117228   4.928   5.979   3.939
 5443SOL    HW217229   4.840   6.076   3.842
 5444SOL     OW17230   0.222   0.930   3.816
 5444SOL    HW117231   0.172   0.955   3.733
 5444SOL    HW217232   0.200   0.836   3.841
 5445SOL     OW17233   5.920   4.357   3.655
 5445SOL    HW117234   5.888   4.447   3.624
 5445SOL    HW217235   5.986   4.321   3.589
 5446SOL     OW17236   5.941   5.089   4.630
 5446SOL    HW117237   5.842   5.079   4.626
 5446SOL    HW217238   5.968   5.169   4.577
 5447SOL     OW17239   1.812   1.553   1.004
 5447SOL    HW117240   1.837   1.484   0.937
 5447SOL    HW217241   1.865   1.539   1.087
 5448SOL     OW17242   4.334   5.001   3.976
 5448SOL    HW117243   4.404   4.960   3.917
 5448SOL    HW217244   4.276   4.929   4.014
 5449SOL     OW17245   1.699   1.252   1.078
 5449SOL    HW117246   1.616   1.293   1.116
 5449SOL    HW217247   1.713   1.285   0.985
 5450SOL     OW17248   3.426   6.895   1.017
 5450SOL    HW117249   3.389   6.976   0.971
 5450SOL    HW217250   3.356   6.823   1.019
 5451SOL     OW17251   1.891   5.798   3.633
 5451SOL    HW117252   1.980   5.819   3.672
 5451SOL    HW217253   1.821   5.852   3.679
 5452SOL     OW17254   2.473   4.538   1.284
 5452SOL    HW117255   2.384   4.494   1.271
 5452SOL    HW217256   2.494   4.542   1.382
 5453SOL     OW17257   5.398   3.641   2.200
 5453SOL    HW117258   5.370   3.696   2.278
 5453SOL    HW217259   5.358   3.550   2.206
 5454SOL     OW17260   5.446   5.868   1.155
 5454SOL    HW117261   5.419   5.830   1.067
 5454SOL    HW217262   5.470   5.794   1.218
 5455SOL     OW17263   0.325   1.936   3.609
 5455SOL    HW117264   0.318   1.926   3.709
 5455SOL    HW217265   0.414   1.974   3.586
 5456SOL     OW17266   3.229   1.621   6.430
 5456SOL    HW117267   3.223   1.574   6.342
 5456SOL    HW217268   3.226   1.720   6.415
 5457SOL     OW17269   6.856   2.148   1.330
 5457SOL    HW117270   6.860   2.081   1.256
 5457SOL    HW217271   6.945   2.193   1.337
 5458SOL     OW17272   6.948   5.030   0.828
 5458SOL    HW117273   7.006   5.112   0.835
 5458SOL    HW217274   6.892   5.022   0.911
 5459SOL     OW17275   2.030   4.825   5.149
 5459SOL    HW117276   2.040   4.732   5.112
 5459SOL    HW217277   2.070   4.891   5.085
 5460SOL     OW17278   2.903   0.058   2.379
 5460SOL    HW117279   2.868   0.127   2.442
 5460SOL    HW217280   2.951   7.013   2.431
 5461SOL     OW17281   0.908   0.944   4.588
 5461SOL    HW117282   0.970   1.017   4.618
 5461SOL    HW217283   0.939   0.908   4.499
 5462SOL     OW17284   5.576   5.941   6.634
 5462SOL    HW117285   5.519   5.867   6.597
 5462SOL    HW217286   5.606   5.917   6.726
 5463SOL     OW17287   0.151   1.695   0.231
 5463SOL    HW117288   0.165   1.675   0.328
 5463SOL    HW217289   0.215   1.767   0.202
 5464SOL     OW17290   6.311   5.886   4.801
 5464SOL    HW117291   6.304   5.799   4.849
 5464SOL    HW217292   6.396   5.888   4.748
 5465SOL     OW17293   6.511   0.487   3.208
 5465SOL    HW117294   6.500   0.391   3.234
 5465SOL    HW217295   6.596   0.499   3.158
 5466SOL     OW17296   5.804   2.639   5.889
 5466SOL    HW117297   5.767   2.564   5.834
 5466SOL    HW217298   5.903   2.629   5.896
 5467SOL     OW17299   5.868   3.744   3.208
 5467SOL    HW117300   5.954   3.795   3.212
 5467SOL    HW217301   5.887   3.646   3.214
 5468SOL     OW17302   0.167   2.274   4.393
 5468SOL    HW117303   0.093   2.246   4.454
 5468SOL    HW217304   0.139   2.261   4.298
 5469SOL     OW17305   3.135   5.673   5.579
 5469SOL    HW117306   3.217   5.676   5.523
 5469SOL    HW217307   3.058   5.711   5.528
 5470SOL     OW17308   3.858   5.322   4.098
 5470SOL    HW117309   3.844   5.296   4.002
 5470SOL    HW217310   3.953   5.345   4.113
 5471SOL     OW17311   5.848   0.431   2.247
 5471SOL    HW117312   5.768   0.457   2.300
 5471SOL    HW217313   5.917   0.503   2.254
 5472SOL     OW17314   3.008   3.841   6.782
 5472SOL    HW117315   2.986   3.877   6.872
 5472SOL    HW217316   2.928   3.850   6.722
 5473SOL     OW17317   1.189   3.700   0.237
 5473SOL    HW117318   1.234   3.611   0.238
 5473SOL    HW217319   1.175   3.731   0.331
 5474SOL     OW17320   0.784   5.244   4.581
 5474SOL    HW117321   0.719   5.311   4.615
 5474SOL    HW217322   0.735   5.170   4.534
 5475SOL     OW17323   1.803   2.056   0.147
 5475SOL    HW117324   1.827   1.961   0.169
 5475SOL    HW217325   1.704   2.064   0.140
 5476SOL     OW17326   2.025   4.318   4.823
 5476SOL    HW117327   2.108   4.297   4.875
 5476SOL    HW217328   1.975   4.234   4.805
 5477SOL     OW17329   2.145   3.887   3.067
 5477SOL    HW117330   2.139   3.789   3.080
 5477SOL    HW217331   2.179   3.930   3.150
 5478SOL     OW17332   4.675   6.635   5.404
 5478SOL    HW117333   4.771   6.665   5.396
 5478SOL    HW217334   4.672   6.535   5.404
 5479SOL     OW17335   4.855   1.933   4.983
 5479SOL    HW117336   4.784   1.982   4.934
 5479SOL    HW217337   4.943   1.978   4.968
 5480SOL     OW17338   5.389   5.167   5.191
 5480SOL    HW117339   5.363   5.071   5.179
 5480SOL    HW217340   5.443   5.197   5.112
 5481SOL     OW17341   4.735   1.503   4.637
 5481SOL    HW117342   4.827   1.491   4.600
 5481SOL    HW217343   4.720   1.600   4.657
 5482SOL     OW17344   3.642   3.679   1.936
 5482SOL    HW117345   3.556   3.724   1.913
 5482SOL    HW217346   3.654   3.678   2.035
 5483SOL     OW17347   0.633   2.274   5.202
 5483SOL    HW117348   0.618   2.185   5.246
 5483SOL    HW217349   0.583   2.345   5.252
 5484SOL     OW17350   5.168   0.463   4.153
 5484SOL    HW117351   5.077   0.437   4.183
 5484SOL    HW217352   5.163   0.547   4.098
 5485SOL     OW17353   2.989   7.002   5.045
 5485SOL    HW117354   2.947   7.024   5.133
 5485SOL    HW217355   3.071   0.031   5.032
 5486SOL     OW17356   1.562   5.645   4.680
 5486SOL    HW117357   1.480   5.645   4.622
 5486SOL    HW217358   1.616   5.727   4.663
 5487SOL     OW17359   5.079   2.897   6.982
 5487SOL    HW117360   5.120   2.817   7.026
 5487SOL    HW217361   5.128   2.917   6.897
 5488SOL     OW17362   5.171   1.010   0.714
 5488SOL    HW117363   5.159   0.926   0.766
 5488SOL    HW217364   5.247   0.998   0.649
 5489SOL     OW17365   1.104   5.376   0.814
 5489SOL    HW117366   1.161   5.356   0.893
 5489SOL    HW217367   1.009   5.349   0.834
 5490SOL     OW17368   3.668   0.294   0.645
 5490SOL    HW117369   3.645   0.297   0.742
 5490SOL    HW217370   3.597   0.246   0.595
 5491SOL     OW17371   1.876   4.126   6.812
 5491SOL    HW117372   1.974   4.134   6.798
 5491SOL    HW217373   1.858   4.074   6.896
 5492SOL     OW17374   0.883   2.074   6.596
 5492SOL    HW117375   0.914   2.013   6.522
 5492SOL    HW217376   0.848   2.159   6.556
 5493SOL     OW17377   4.107   3.622   3.690
 5493SOL    HW117378   4.201   3.643   3.716
 5493SOL    HW217379   4.107   3.576   3.602
 5494SOL     OW17380   6.777   2.709   6.657
 5494SOL    HW117381   6.677   2.705   6.656
 5494SOL    HW217382   6.807   2.804   6.646
 5495SOL     OW17383   3.714   2.334   1.510
 5495SOL    HW117384   3.628   2.371   1.475
 5495SOL    HW217385   3.726   2.361   1.606
 5496SOL     OW17386   2.485   0.510   3.434
 5496SOL    HW117387   2.473   0.508   3.533
 5496SOL    HW217388   2.480   0.417   3.398
 5497SOL     OW17389   0.455   2.221   3.984
 5497SOL    HW117390   0.526   2.173   3.932
 5497SOL    HW217391   0.491   2.245   4.074
 5498SOL     OW17392   5.299   6.790   1.378
 5498SOL    HW117393   5.329   6.725   1.448
 5498SOL    HW217394   5.369   6.797   1.307
 5499SOL     OW17395   6.978   1.113   3.792
 5499SOL    HW117396   6.920   1.195   3.795
 5499SOL    HW217397   6.981   1.071   3.883
 5500SOL     OW17398   1.658   6.979   0.569
 5500SOL    HW117399   1.676   6.927   0.486
 5500SOL    HW217400   1.607   0.035   0.547
 5501SOL     OW17401   4.175   6.913   0.725
 5501SOL    HW117402   4.170   6.898   0.626
 5501SOL    HW217403   4.132   7.001   0.747
 5502SOL     OW17404   5.814   3.691   7.010
 5502SOL    HW117405   5.749   3.619   6.989
 5502SOL    HW217406   5.775   3.751   0.054
 5503SOL     OW17407   6.712   5.308   3.263
 5503SOL    HW117408   6.750   5.380   3.204
 5503SOL    HW217409   6.633   5.267   3.218
 5504SOL     OW17410   4.211   1.411   4.792
 5504SOL    HW117411   4.168   1.440   4.706
 5504SOL    HW217412   4.304   1.381   4.775
 5505SOL     OW17413   1.732   5.605   4.445
 5505SOL    HW117414   1.675   5.555   4.511
 5505SOL    HW217415   1.763   5.543   4.374
 5506SOL     OW17416   0.995   1.466   6.414
 5506SOL    HW117417   0.970   1.389   6.473
 5506SOL    HW217418   1.086   1.451   6.376
 5507SOL     OW17419   2.573   0.196   4.063
 5507SOL    HW117420   2.602   0.105   4.091
 5507SOL    HW217421   2.490   0.221   4.112
 5508SOL     OW17422   2.308   0.782   6.460
 5508SOL    HW117423   2.221   0.829   6.478
 5508SOL    HW217424   2.306   0.744   6.368
 5509SOL     OW17425   0.458   6.432   0.484
 5509SOL    HW117426   0.460   6.399   0.389
 5509SOL    HW217427   0.533   6.496   0.499
 5510SOL     OW17428   4.756   6.201   0.830
 5510SOL    HW117429   4.793   6.288   0.797
 5510SOL    HW217430   4.831   6.145   0.865
 5511SOL     OW17431   2.596   0.582   4.364
 5511SOL    HW117432   2.570   0.611   4.456
 5511SOL    HW217433   2.513   0.573   4.308
 5512SOL     OW17434   5.929   2.207   1.893
 5512SOL    HW117435   6.023   2.217   1.927
 5512SOL    HW217436   5.904   2.288   1.841
 5513SOL     OW17437   4.163   4.797   6.454
 5513SOL    HW117438   4.091   4.867   6.444
 5513SOL    HW217439   4.245   4.839   6.492
 5514SOL     OW17440   4.618   6.325   3.148
 5514SOL    HW117441   4.524   6.351   3.130
 5514SOL    HW217442   4.652   6.375   3.228
 5515SOL     OW17443   0.082   4.509   1.631
 5515SOL    HW117444   0.095   4.590   1.574
 5515SOL    HW217445   0.170   4.470   1.655
 5516SOL     OW17446   1.140   3.695   6.269
 5516SOL    HW117447   1.205   3.765   6.298
 5516SOL    HW217448   1.185   3.606   6.267
 5517SOL     OW17449   2.098   3.280   2.123
 5517SOL    HW117450   2.136   3.349   2.062
 5517SOL    HW217451   2.033   3.323   2.186
 5518SOL     OW17452   5.863   6.981   6.452
 5518SOL    HW117453   5.882   6.884   6.464
 5518SOL    HW217454   5.773   7.003   6.490
 5519SOL     OW17455   5.153   3.168   3.034
 5519SOL    HW117456   5.183   3.078   3.004
 5519SOL    HW217457   5.196   3.239   2.978
 5520SOL     OW17458   6.800   5.957   2.109
 5520SOL    HW117459   6.894   5.965   2.075
 5520SOL    HW217460   6.739   5.934   2.033
 5521SOL     OW17461   4.908   6.849   1.443
 5521SOL    HW117462   4.996   6.879   1.405
 5521SOL    HW217463   4.834   6.891   1.392
 5522SOL     OW17464   6.676   5.141   1.246
 5522SOL    HW117465   6.598   5.193   1.211
 5522SOL    HW217466   6.752   5.149   1.182
 5523SOL     OW17467   3.872   0.091   1.950
 5523SOL    HW117468   3.955   0.147   1.953
 5523SOL    HW217469   3.804   0.135   1.892
 5524SOL     OW17470   5.112   5.032   5.102
 5524SOL    HW117471   5.165   5.107   5.139
 5524SOL    HW217472   5.041   5.067   5.041
 5525SOL     OW17473   0.158   3.013   0.105
 5525SOL    HW117474   0.135   2.947   0.033
 5525SOL    HW217475   0.077   3.033   0.160
 5526SOL     OW17476   5.071   4.739   4.637
 5526SOL    HW117477   5.015   4.785   4.568
 5526SOL    HW217478   5.023   4.657   4.669
 5527SOL     OW17479   6.408   3.586   4.636
 5527SOL    HW117480   6.478   3.522   4.668
 5527SOL    HW217481   6.409   3.668   4.694
 5528SOL     OW17482   1.161   2.001   6.814
 5528SOL    HW117483   1.069   2.020   6.848
 5528SOL    HW217484   1.184   1.905   6.832
 5529SOL     OW17485   2.197   0.360   3.920
 5529SOL    HW117486   2.255   0.441   3.923
 5529SOL    HW217487   2.101   0.387   3.914
 5530SOL     OW17488   6.604   2.106   2.266
 5530SOL    HW117489   6.533   2.060   2.320
 5530SOL    HW217490   6.592   2.205   2.271
 5531SOL     OW17491   3.965   3.031   2.337
 5531SOL    HW117492   4.041   2.969   2.315
 5531SOL    HW217493   3.893   2.980   2.383
 5532SOL     OW17494   1.494   2.413   0.454
 5532SOL    HW117495   1.546   2.458   0.381
 5532SOL    HW217496   1.493   2.470   0.535
 5533SOL     OW17497   3.631   0.895   3.117
 5533SOL    HW117498   3.623   0.828   3.191
 5533SOL    HW217499   3.727   0.919   3.105
 5534SOL     OW17500   0.997   1.978   6.073
 5534SOL    HW117501   1.087   1.963   6.032
 5534SOL    HW217502   0.927   1.932   6.018
 5535SOL     OW17503   0.480   3.294   3.822
 5535SOL    HW117504   0.570   3.253   3.804
 5535SOL    HW217505   0.444   3.258   3.908
 5536SOL     OW17506   2.655   0.843   4.219
 5536SOL    HW117507   2.672   0.780   4.295
 5536SOL    HW217508   2.612   0.793   4.144
 5537SOL     OW17509   2.887   0.517   3.018
 5537SOL    HW117510   2.927   0.600   2.979
 5537SOL    HW217511   2.915   0.438   2.964
 5538SOL     OW17512   2.916   0.144   5.274
 5538SOL    HW117513   2.859   0.210   5.226
 5538SOL    HW217514   2.984   0.192   5.329
 5539SOL     OW17515   1.322   3.475   0.248
 5539SOL    HW117516   1.409   3.434   0.225
 5539SOL    HW217517   1.276   3.421   0.319
 5540SOL     OW17518   5.779   3.387   3.921
 5540SOL    HW117519   5.693   3.424   3.887
 5540SOL    HW217520   5.831   3.347   3.845
 5541SOL     OW17521   5.890   0.790   6.138
 5541SOL    HW117522   5.827   0.836   6.201
 5541SOL    HW217523   5.850   0.788   6.046
 5542SOL     OW17524   6.289   5.440   6.109
 5542SOL    HW117525   6.273   5.444   6.010
 5542SOL    HW217526   6.207   5.472   6.157
 5543SOL     OW17527   3.398   5.301   5.875
 5543SOL    HW117528   3.305   5.308   5.838
 5543SOL    HW217529   3.456   5.250   5.812
 5544SOL     OW17530   5.663   6.808   6.137
 5544SOL    HW117531   5.626   6.739   6.198
 5544SOL    HW217532   5.752   6.778   6.103
 5545SOL     OW17533   3.941   1.859   2.665
 5545SOL    HW117534   3.878   1.783   2.681
 5545SOL    HW217535   3.955   1.871   2.567
 5546SOL     OW17536   0.646   6.652   4.632
 5546SOL    HW117537   0.644   6.609   4.722
 5546SOL    HW217538   0.554   6.683   4.607
 5547SOL     OW17539   3.602   0.143   4.645
 5547SOL    HW117540   3.506   0.166   4.662
 5547SOL    HW217541   3.659   0.223   4.662
 5548SOL     OW17542   5.841   3.329   5.523
 5548SOL    HW117543   5.782   3.318   5.443
 5548SOL    HW217544   5.791   3.377   5.595
 5549SOL     OW17545   4.946   3.794   1.004
 5549SOL    HW117546   4.898   3.879   1.029
 5549SOL    HW217547   5.005   3.766   1.080
 5550SOL     OW17548   1.982   4.455   2.262
 5550SOL    HW117549   1.906   4.503   2.304
 5550SOL    HW217550   2.014   4.507   2.183
 5551SOL     OW17551   2.070   5.871   3.054
 5551SOL    HW117552   2.025   5.858   3.143
 5551SOL    HW217553   2.002   5.895   2.985
 5552SOL     OW17554   6.272   0.367   0.067
 5552SOL    HW117555   6.279   0.286   0.124
 5552SOL    HW217556   6.360   0.413   0.064
 5553SOL     OW17557   5.215   6.146   0.152
 5553SOL    HW117558   5.201   6.094   0.236
 5553SOL    HW217559   5.255   6.086   0.082
 5554SOL     OW17560   4.910   1.746   6.070
 5554SOL    HW117561   4.959   1.779   5.990
 5554SOL    HW217562   4.858   1.821   6.111
 5555SOL     OW17563   1.878   4.019   3.772
 5555SOL    HW117564   1.828   4.037   3.857
 5555SOL    HW217565   1.824   4.050   3.694
 5556SOL     OW17566   6.975   1.239   3.337
 5556SOL    HW117567   6.947   1.290   3.256
 5556SOL    HW217568   6.945   1.288   3.419
 5557SOL     OW17569   3.392   6.687   3.184
 5557SOL    HW117570   3.358   6.773   3.145
 5557SOL    HW217571   3.466   6.652   3.127
 5558SOL     OW17572   4.486   3.628   5.973
 5558SOL    HW117573   4.559   3.600   5.910
 5558SOL    HW217574   4.440   3.547   6.009
 5559SOL     OW17575   1.887   0.168   2.066
 5559SOL    HW117576   1.830   0.100   2.112
 5559SOL    HW217577   1.892   0.251   2.122
 5560SOL     OW17578   1.311   6.410   2.629
 5560SOL    HW117579   1.329   6.349   2.551
 5560SOL    HW217580   1.278   6.498   2.594
 5561SOL     OW17581   1.209   1.879   3.957
 5561SOL    HW117582   1.147   1.805   3.930
 5561SOL    HW217583   1.302   1.856   3.929
 5562SOL     OW17584   3.514   2.035   6.745
 5562SOL    HW117585   3.573   2.098   6.796
 5562SOL    HW217586   3.520   1.944   6.786
 5563SOL     OW17587   4.333   5.320   2.283
 5563SOL    HW117588   4.234   5.331   2.285
 5563SOL    HW217589   4.363   5.273   2.366
 5564SOL     OW17590   4.225   0.600   1.548
 5564SOL    HW117591   4.310   0.569   1.504
 5564SOL    HW217592   4.243   0.620   1.644
 5565SOL     OW17593   4.643   1.818   6.345
 5565SOL    HW117594   4.602   1.735   6.383
 5565SOL    HW217595   4.606   1.835   6.254
 5566SOL     OW17596   1.551   5.238   6.961
 5566SOL    HW117597   1.542   5.139   6.973
 5566SOL    HW217598   1.586   5.258   6.870
 5567SOL     OW17599   7.024   3.329   1.669
 5567SOL    HW117600   0.048   3.259   1.619
 5567SOL    HW217601   6.929   3.329   1.639
 5568SOL     OW17602   4.354   1.764   4.246
 5568SOL    HW117603   4.398   1.699   4.184
 5568SOL    HW217604   4.284   1.716   4.300
 5569SOL     OW17605   1.660   1.685   2.292
 5569SOL    HW117606   1.708   1.597   2.296
 5569SOL    HW217607   1.616   1.703   2.379
 5570SOL     OW17608   6.230   4.406   4.776
 5570SOL    HW117609   6.206   4.338   4.706
 5570SOL    HW217610   6.200   4.496   4.746
 5571SOL     OW17611   6.954   5.574   0.905
 5571SOL    HW117612   6.975   5.671   0.915
 5571SOL    HW217613   7.015   5.521   0.964
 5572SOL     OW17614   1.408   2.546   5.121
 5572SOL    HW117615   1.379   2.462   5.167
 5572SOL    HW217616   1.330   2.585   5.072
 5573SOL     OW17617   2.446   4.396   6.176
 5573SOL    HW117618   2.394   4.481   6.186
 5573SOL    HW217619   2.508   4.386   6.254
 5574SOL     OW17620   6.347   1.725   2.815
 5574SOL    HW117621   6.298   1.666   2.879
 5574SOL    HW217622   6.292   1.737   2.732
 5575SOL     OW17623   6.815   1.321   1.013
 5575SOL    HW117624   6.805   1.250   1.082
 5575SOL    HW217625   6.735   1.381   1.014
 5576SOL     OW17626   1.069   5.644   2.208
 5576SOL    HW117627   1.060   5.554   2.165
 5576SOL    HW217628   1.165   5.672   2.207
 5577SOL     OW17629   2.888   2.992   5.478
 5577SOL    HW117630   2.972   2.980   5.426
 5577SOL    HW217631   2.810   2.969   5.420
 5578SOL     OW17632   3.789   3.902   6.955
 5578SOL    HW117633   3.736   3.923   0.011
 5578SOL    HW217634   3.744   3.828   6.904
 5579SOL     OW17635   1.066   3.403   6.043
 5579SOL    HW117636   1.072   3.304   6.025
 5579SOL    HW217637   1.121   3.424   6.125
 5580SOL     OW17638   5.081   2.532   6.124
 5580SOL    HW117639   4.996   2.510   6.076
 5580SOL    HW217640   5.091   2.632   6.128
 5581SOL     OW17641   2.205   0.502   2.008
 5581SOL    HW117642   2.199   0.498   1.908
 5581SOL    HW217643   2.272   0.572   2.034
 5582SOL     OW17644   3.485   3.500   4.685
 5582SOL    HW117645   3.555   3.571   4.679
 5582SOL    HW217646   3.396   3.539   4.664
 5583SOL     OW17647   4.234   0.665   2.718
 5583SOL    HW117648   4.141   0.630   2.708
 5583SOL    HW217649   4.233   0.765   2.708
 5584SOL     OW17650   5.710   4.551   3.775
 5584SOL    HW117651   5.746   4.592   3.859
 5584SOL    HW217652   5.732   4.453   3.773
 5585SOL     OW17653   5.068   6.285   4.215
 5585SOL    HW117654   5.085   6.200   4.266
 5585SOL    HW217655   5.112   6.361   4.263
 5586SOL     OW17656   0.184   2.390   6.996
 5586SOL    HW117657   0.118   2.430   6.934
 5586SOL    HW217658   0.140   2.320   0.025
 5587SOL     OW17659   4.222   6.174   2.566
 5587SOL    HW117660   4.218   6.269   2.536
 5587SOL    HW217661   4.302   6.129   2.528
 5588SOL     OW17662   2.104   6.301   2.918
 5588SOL    HW117663   2.010   6.335   2.910
 5588SOL    HW217664   2.118   6.263   3.010
 5589SOL     OW17665   5.834   3.950   5.044
 5589SOL    HW117666   5.806   4.002   5.125
 5589SOL    HW217667   5.902   3.882   5.070
 5590SOL     OW17668   6.433   5.273   3.820
 5590SOL    HW117669   6.349   5.233   3.784
 5590SOL    HW217670   6.475   5.208   3.884
 5591SOL     OW17671   5.542   1.372   6.739
 5591SOL    HW117672   5.626   1.412   6.777
 5591SOL    HW217673   5.553   1.273   6.732
 5592SOL     OW17674   6.859   4.700   3.084
 5592SOL    HW117675   6.807   4.717   3.000
 5592SOL    HW217676   6.954   4.680   3.061
 5593SOL     OW17677   0.054   2.849   6.133
 5593SOL    HW117678   6.999   2.856   6.076
 5593SOL    HW217679   0.134   2.879   6.082
 5594SOL     OW17680   3.591   1.299   6.359
 5594SOL    HW117681   3.631   1.208   6.350
 5594SOL    HW217682   3.548   1.308   6.449
 5595SOL     OW17683   6.347   0.440   5.416
 5595SOL    HW117684   6.395   0.365   5.370
 5595SOL    HW217685   6.302   0.498   5.349
 5596SOL     OW17686   4.842   0.370   2.711
 5596SOL    HW117687   4.877   0.283   2.679
 5596SOL    HW217688   4.919   0.428   2.740
 5597SOL     OW17689   6.407   1.875   5.281
 5597SOL    HW117690   6.316   1.912   5.300
 5597SOL    HW217691   6.466   1.947   5.246
 5598SOL     OW17692   6.247   3.405   4.199
 5598SOL    HW117693   6.270   3.377   4.292
 5598SOL    HW217694   6.190   3.487   4.201
 5599SOL     OW17695   0.772   2.902   1.920
 5599SOL    HW117696   0.788   2.837   1.845
 5599SOL    HW217697   0.819   2.871   2.002
 5600SOL     OW17698   2.373   0.163   2.647
 5600SOL    HW117699   2.456   0.217   2.664
 5600SOL    HW217700   2.294   0.223   2.645
 5601SOL     OW17701   2.797   1.207   6.421
 5601SOL    HW117702   2.721   1.151   6.456
 5601SOL    HW217703   2.828   1.268   6.494
 5602SOL     OW17704   0.710   0.143   2.058
 5602SOL    HW117705   0.699   0.237   2.090
 5602SOL    HW217706   0.636   0.120   1.995
 5603SOL     OW17707   5.320   2.225   0.035
 5603SOL    HW117708   5.261   2.277   0.096
 5603SOL    HW217709   5.346   2.139   0.079
 5604SOL     OW17710   6.559   2.559   5.122
 5604SOL    HW117711   6.503   2.566   5.039
 5604SOL    HW217712   6.586   2.651   5.152
 5605SOL     OW17713   1.018   0.601   4.558
 5605SOL    HW117714   1.037   0.510   4.595
 5605SOL    HW217715   1.085   0.666   4.594
 5606SOL     OW17716   5.775   0.606   0.856
 5606SOL    HW117717   5.849   0.669   0.878
 5606SOL    HW217718   5.691   0.637   0.900
 5607SOL     OW17719   5.797   1.134   3.861
 5607SOL    HW117720   5.842   1.213   3.903
 5607SOL    HW217721   5.852   1.102   3.784
 5608SOL     OW17722   6.340   0.945   3.321
 5608SOL    HW117723   6.399   1.025   3.333
 5608SOL    HW217724   6.253   0.960   3.368
 5609SOL     OW17725   4.762   6.013   2.196
 5609SOL    HW117726   4.802   6.060   2.117
 5609SOL    HW217727   4.664   5.997   2.178
 5610SOL     OW17728   5.236   4.236   1.603
 5610SOL    HW117729   5.316   4.292   1.624
 5610SOL    HW217730   5.152   4.287   1.624
 5611SOL     OW17731   0.973   5.059   3.520
 5611SOL    HW117732   1.065   5.093   3.501
 5611SOL    HW217733   0.928   5.034   3.434
 5612SOL     OW17734   4.291   3.178   0.156
 5612SOL    HW117735   4.215   3.189   0.092
 5612SOL    HW217736   4.377   3.178   0.105
 5613SOL     OW17737   5.151   5.323   5.128
 5613SOL    HW117738   5.100   5.327   5.213
 5613SOL    HW217739   5.242   5.286   5.145
 5614SOL     OW17740   5.557   3.504   5.247
 5614SOL    HW117741   5.483   3.442   5.221
 5614SOL    HW217742   5.531   3.598   5.221
 5615SOL     OW17743   6.848   1.276   4.149
 5615SOL    HW117744   6.833   1.331   4.067
 5615SOL    HW217745   6.914   1.204   4.129
 5616SOL     OW17746   1.887   2.560   4.851
 5616SOL    HW117747   1.907   2.463   4.835
 5616SOL    HW217748   1.969   2.614   4.835
 5617SOL     OW17749   1.752   4.864   5.266
 5617SOL    HW117750   1.851   4.881   5.260
 5617SOL    HW217751   1.709   4.893   5.181
 5618SOL     OW17752   6.768   4.957   4.109
 5618SOL    HW117753   6.813   5.046   4.116
 5618SOL    HW217754   6.766   4.928   4.013
 5619SOL     OW17755   3.610   3.494   4.007
 5619SOL    HW117756   3.589   3.582   3.965
 5619SOL    HW217757   3.685   3.450   3.956
 5620SOL     OW17758   4.261   4.008   0.040
 5620SOL    HW117759   4.273   3.975   0.134
 5620SOL    HW217760   4.163   4.019   0.021
 5621SOL     OW17761   1.660   2.974   0.303
 5621SOL    HW117762   1.678   2.966   0.401
 5621SOL    HW217763   1.607   3.057   0.286
 5622SOL     OW17764   4.669   0.141   5.692
 5622SOL    HW117765   4.594   0.109   5.750
 5622SOL    HW217766   4.731   0.065   5.672
 5623SOL     OW17767   4.554   6.256   4.775
 5623SOL    HW117768   4.637   6.205   4.797
 5623SOL    HW217769   4.578   6.335   4.719
 5624SOL     OW17770   0.239   4.574   3.824
 5624SOL    HW117771   0.243   4.613   3.915
 5624SOL    HW217772   0.217   4.476   3.830
 5625SOL     OW17773   0.272   0.018   5.666
 5625SOL    HW117774   0.266   6.945   5.678
 5625SOL    HW217775   0.193   0.050   5.614
 5626SOL     OW17776   2.606   6.035   3.844
 5626SOL    HW117777   2.514   6.051   3.808
 5626SOL    HW217778   2.602   5.964   3.914
 5627SOL     OW17779   0.206   4.956   6.494
 5627SOL    HW117780   0.110   4.970   6.469
 5627SOL    HW217781   0.211   4.911   6.583
 5628SOL     OW17782   1.740   3.230   1.591
 5628SOL    HW117783   1.840   3.232   1.602
 5628SOL    HW217784   1.716   3.263   1.500
 5629SOL     OW17785   4.630   3.282   1.677
 5629SOL    HW117786   4.728   3.259   1.679
 5629SOL    HW217787   4.583   3.233   1.750
 5630SOL     OW17788   1.627   4.511   6.941
 5630SOL    HW117789   1.557   4.442   6.955
 5630SOL    HW217790   1.600   4.573   6.867
 5631SOL     OW17791   4.792   1.724   2.069
 5631SOL    HW117792   4.747   1.651   2.017
 5631SOL    HW217793   4.729   1.757   2.140
 5632SOL     OW17794   3.120   2.408   5.461
 5632SOL    HW117795   3.173   2.388   5.543
 5632SOL    HW217796   3.181   2.420   5.383
 5633SOL     OW17797   5.698   4.751   4.474
 5633SOL    HW117798   5.640   4.760   4.393
 5633SOL    HW217799   5.772   4.686   4.455
 5634SOL     OW17800   1.869   4.965   4.461
 5634SOL    HW117801   1.901   4.916   4.380
 5634SOL    HW217802   1.906   5.057   4.462
 5635SOL     OW17803   1.772   6.713   6.630
 5635SOL    HW117804   1.726   6.799   6.608
 5635SOL    HW217805   1.707   6.650   6.674
 5636SOL     OW17806   6.251   6.937   5.098
 5636SOL    HW117807   6.169   6.894   5.061
 5636SOL    HW217808   6.323   6.868   5.109
 5637SOL     OW17809   4.222   6.393   3.776
 5637SOL    HW117810   4.190   6.421   3.867
 5637SOL    HW217811   4.322   6.394   3.775
 5638SOL     OW17812   6.637   3.882   1.003
 5638SOL    HW117813   6.681   3.832   0.928
 5638SOL    HW217814   6.655   3.835   1.089
 5639SOL     OW17815   2.774   0.254   2.495
 5639SOL    HW117816   2.736   0.270   2.404
 5639SOL    HW217817   2.710   0.288   2.564
 5640SOL     OW17818   3.871   0.980   2.334
 5640SOL    HW117819   3.829   0.958   2.422
 5640SOL    HW217820   3.968   0.959   2.337
 5641SOL     OW17821   0.699   4.464   5.687
 5641SOL    HW117822   0.707   4.564   5.686
 5641SOL    HW217823   0.788   4.424   5.667
 5642SOL     OW17824   0.213   5.853   5.324
 5642SOL    HW117825   0.132   5.813   5.367
 5642SOL    HW217826   0.190   5.944   5.288
 5643SOL     OW17827   3.797   1.159   4.494
 5643SOL    HW117828   3.843   1.127   4.412
 5643SOL    HW217829   3.812   1.258   4.504
 5644SOL     OW17830   3.532   6.918   4.758
 5644SOL    HW117831   3.583   6.999   4.729
 5644SOL    HW217832   3.583   6.871   4.830
 5645SOL     OW17833   5.279   4.813   2.740
 5645SOL    HW117834   5.263   4.716   2.756
 5645SOL    HW217835   5.365   4.840   2.783
 5646SOL     OW17836   0.474   5.502   3.277
 5646SOL    HW117837   0.541   5.574   3.255
 5646SOL    HW217838   0.503   5.416   3.235
 5647SOL     OW17839   4.829   0.207   0.491
 5647SOL    HW117840   4.853   0.111   0.502
 5647SOL    HW217841   4.904   0.255   0.446
 5648SOL     OW17842   1.662   6.964   3.642
 5648SOL    HW117843   1.721   6.885   3.629
 5648SOL    HW217844   1.669   6.997   3.736
 5649SOL     OW17845   0.657   0.311   4.887
 5649SOL    HW117846   0.646   0.278   4.793
 5649SOL    HW217847   0.751   0.342   4.901
 5650SOL     OW17848   1.386   5.397   0.690
 5650SOL    HW117849   1.438   5.480   0.712
 5650SOL    HW217850   1.308   5.389   0.753
 5651SOL     OW17851   1.096   1.008   1.424
 5651SOL    HW117852   1.123   0.912   1.421
 5651SOL    HW217853   1.004   1.016   1.463
 5652SOL     OW17854   6.972   6.851   2.090
 5652SOL    HW117855   0.015   6.856   2.162
 5652SOL    HW217856   6.890   6.807   2.126
 5653SOL     OW17857   0.012   6.385   6.718
 5653SOL    HW117858   6.994   6.446   6.784
 5653SOL    HW217859   6.974   6.316   6.687
 5654SOL     OW17860   6.552   0.267   5.726
 5654SOL    HW117861   6.591   0.266   5.634
 5654SOL    HW217862   6.600   0.335   5.782
 5655SOL     OW17863   1.463   3.770   4.597
 5655SOL    HW117864   1.547   3.814   4.631
 5655SOL    HW217865   1.408   3.838   4.548
 5656SOL     OW17866   0.012   3.870   6.908
 5656SOL    HW117867   0.091   3.810   6.918
 5656SOL    HW217868   0.009   3.935   6.983
 5657SOL     OW17869   5.840   1.659   0.410
 5657SOL    HW117870   5.931   1.640   0.448
 5657SOL    HW217871   5.838   1.752   0.374
 5658SOL     OW17872   3.705   4.529   6.298
 5658SOL    HW117873   3.764   4.451   6.280
 5658SOL    HW217874   3.755   4.614   6.278
 5659SOL     OW17875   4.022   3.196   4.268
 5659SOL    HW117876   3.974   3.115   4.302
 5659SOL    HW217877   4.045   3.256   4.344
 5660SOL     OW17878   5.513   0.646   0.649
 5660SOL    HW117879   5.588   0.610   0.704
 5660SOL    HW217880   5.495   0.741   0.676
 5661SOL     OW17881   1.525   5.111   5.242
 5661SOL    HW117882   1.552   5.047   5.170
 5661SOL    HW217883   1.602   5.128   5.303
 5662SOL     OW17884   2.765   5.995   3.441
 5662SOL    HW117885   2.787   6.035   3.530
 5662SOL    HW217886   2.697   5.923   3.453
 5663SOL     OW17887   2.385   3.335   0.295
 5663SOL    HW117888   2.344   3.281   0.368
 5663SOL    HW217889   2.332   3.323   0.211
 5664SOL     OW17890   6.783   4.116   4.792
 5664SOL    HW117891   6.726   4.119   4.874
 5664SOL    HW217892   6.727   4.134   4.711
 5665SOL     OW17893   1.727   1.213   0.032
 5665SOL    HW117894   1.712   1.157   0.113
 5665SOL    HW217895   1.654   1.281   0.025
 5666SOL     OW17896   6.110   6.402   1.737
 5666SOL    HW117897   6.023   6.445   1.762
 5666SOL    HW217898   6.185   6.447   1.785
 5667SOL     OW17899   0.868   5.333   4.324
 5667SOL    HW117900   0.831   5.303   4.412
 5667SOL    HW217901   0.923   5.259   4.284
 5668SOL     OW17902   5.472   1.944   4.301
 5668SOL    HW117903   5.460   2.014   4.230
 5668SOL    HW217904   5.396   1.950   4.366
 5669SOL     OW17905   0.091   3.120   6.747
 5669SOL    HW117906   0.158   3.122   6.672
 5669SOL    HW217907   0.124   3.177   6.822
 5670SOL     OW17908   6.794   2.855   3.671
 5670SOL    HW117909   6.804   2.806   3.757
 5670SOL    HW217910   6.698   2.883   3.660
 5671SOL     OW17911   6.771   6.472   0.092
 5671SOL    HW117912   6.795   6.496   7.025
 5671SOL    HW217913   6.855   6.451   0.143
 5672SOL     OW17914   3.447   4.427   6.685
 5672SOL    HW117915   3.539   4.436   6.649
 5672SOL    HW217916   3.384   4.484   6.631
 5673SOL     OW17917   0.701   0.085   2.460
 5673SOL    HW117918   0.711   0.030   2.377
 5673SOL    HW217919   0.753   0.043   2.534
 5674SOL     OW17920   0.225   5.007   4.782
 5674SOL    HW117921   0.306   4.955   4.811
 5674SOL    HW217922   0.157   4.944   4.745
 5675SOL     OW17923   3.791   2.598   6.598
 5675SOL    HW117924   3.754   2.677   6.646
 5675SOL    HW217925   3.776   2.609   6.500
 5676SOL     OW17926   1.870   2.903   2.152
 5676SOL    HW117927   1.915   2.841   2.087
 5676SOL    HW217928   1.872   2.996   2.116
 5677SOL     OW17929   0.901   1.075   1.108
 5677SOL    HW117930   0.808   1.058   1.075
 5677SOL    HW217931   0.964   1.009   1.067
 5678SOL     OW17932   4.004   6.317   2.887
 5678SOL    HW117933   4.047   6.401   2.921
 5678SOL    HW217934   3.927   6.293   2.947
 5679SOL     OW17935   0.488   1.258   3.618
 5679SOL    HW117936   0.417   1.219   3.676
 5679SOL    HW217937   0.478   1.357   3.614
 5680SOL     OW17938   1.377   4.961   5.751
 5680SOL    HW117939   1.442   5.018   5.701
 5680SOL    HW217940   1.293   5.012   5.767
 5681SOL     OW17941   6.758   4.432   0.636
 5681SOL    HW117942   6.742   4.435   0.538
 5681SOL    HW217943   6.789   4.340   0.662
 5682SOL     OW17944   2.241   4.583   5.558
 5682SOL    HW117945   2.292   4.607   5.641
 5682SOL    HW217946   2.299   4.598   5.478
 5683SOL     OW17947   3.907   0.768   6.054
 5683SOL    HW117948   4.006   0.785   6.051
 5683SOL    HW217949   3.880   0.747   6.148
 5684SOL     OW17950   2.498   3.022   5.801
 5684SOL    HW117951   2.440   2.956   5.848
 5684SOL    HW217952   2.446   3.065   5.727
 5685SOL     OW17953   1.894   3.098   2.390
 5685SOL    HW117954   1.847   3.160   2.327
 5685SOL    HW217955   1.869   3.004   2.369
 5686SOL     OW17956   3.468   1.591   5.729
 5686SOL    HW117957   3.396   1.527   5.705
 5686SOL    HW217958   3.438   1.684   5.709
 5687SOL     OW17959   0.694   4.879   6.792
 5687SOL    HW117960   0.634   4.952   6.758
 5687SOL    HW217961   0.660   4.791   6.760
 5688SOL     OW17962   0.569   2.447   0.913
 5688SOL    HW117963   0.600   2.496   0.994
 5688SOL    HW217964   0.608   2.355   0.912
 5689SOL     OW17965   4.140   0.927   0.629
 5689SOL    HW117966   4.202   0.981   0.571
 5689SOL    HW217967   4.191   0.889   0.706
 5690SOL     OW17968   2.312   6.136   0.242
 5690SOL    HW117969   2.214   6.157   0.239
 5690SOL    HW217970   2.364   6.221   0.233
 5691SOL     OW17971   3.032   0.491   2.173
 5691SOL    HW117972   3.079   0.544   2.102
 5691SOL    HW217973   3.098   0.436   2.223
 5692SOL     OW17974   5.938   3.440   0.635
 5692SOL    HW117975   5.839   3.434   0.641
 5692SOL    HW217976   5.975   3.487   0.715
 5693SOL     OW17977   5.805   2.290   2.224
 5693SOL    HW117978   5.751   2.313   2.143
 5693SOL    HW217979   5.749   2.236   2.287
 5694SOL     OW17980   0.762   1.535   3.278
 5694SOL    HW117981   0.828   1.602   3.245
 5694SOL    HW217982   0.800   1.443   3.268
 5695SOL     OW17983   1.423   2.560   2.873
 5695SOL    HW117984   1.423   2.633   2.805
 5695SOL    HW217985   1.333   2.555   2.916
 5696SOL     OW17986   1.235   1.338   2.996
 5696SOL    HW117987   1.281   1.289   3.070
 5696SOL    HW217988   1.239   1.283   2.912
 5697SOL     OW17989   6.033   2.360   1.562
 5697SOL    HW117990   5.954   2.299   1.552
 5697SOL    HW217991   6.020   2.441   1.505
 5698SOL     OW17992   0.880   3.561   3.805
 5698SOL    HW117993   0.783   3.559   3.829
 5698SOL    HW217994   0.891   3.592   3.711
 5699SOL     OW17995   0.672   2.207   3.142
 5699SOL    HW117996   0.655   2.289   3.089
 5699SOL    HW217997   0.644   2.222   3.237
 5700SOL     OW17998   0.030   6.698   3.716
 5700SOL    HW117999   6.997   6.777   3.731
 5700SOL    HW218000   0.120   6.716   3.757
 5701SOL     OW18001   1.246   0.873   2.126
 5701SOL    HW118002   1.260   0.912   2.035
 5701SOL    HW218003   1.174   0.803   2.121
 5702SOL     OW18004   2.559   5.928   5.127
 5702SOL    HW118005   2.494   5.975   5.067
 5702SOL    HW218006   2.613   5.996   5.176
 5703SOL     OW18007   6.639   4.564   1.495
 5703SOL    HW118008   6.623   4.502   1.571
 5703SOL    HW218009   6.697   4.520   1.427
 5704SOL     OW18010   4.859   4.504   2.124
 5704SOL    HW118011   4.929   4.496   2.195
 5704SOL    HW218012   4.771   4.473   2.161
 5705SOL     OW18013   5.210   0.992   0.334
 5705SOL    HW118014   5.146   0.915   0.337
 5705SOL    HW218015   5.162   1.076   0.361
 5706SOL     OW18016   6.928   4.004   0.758
 5706SOL    HW118017   7.011   4.027   0.707
 5706SOL    HW218018   6.932   3.909   0.788
 5707SOL     OW18019   0.201   6.456   0.393
 5707SOL    HW118020   0.294   6.474   0.425
 5707SOL    HW218021   0.151   6.408   0.465
 5708SOL     OW18022   5.433   5.830   1.716
 5708SOL    HW118023   5.383   5.911   1.685
 5708SOL    HW218024   5.427   5.824   1.816
 5709SOL     OW18025   1.525   0.509   2.368
 5709SOL    HW118026   1.474   0.580   2.417
 5709SOL    HW218027   1.614   0.495   2.412
 5710SOL     OW18028   2.865   3.355   0.556
 5710SOL    HW118029   2.949   3.327   0.604
 5710SOL    HW218030   2.860   3.306   0.468
 5711SOL     OW18031   5.282   1.173   2.375
 5711SOL    HW118032   5.216   1.246   2.356
 5711SOL    HW218033   5.366   1.191   2.326
 5712SOL     OW18034   6.720   6.759   6.781
 5712SOL    HW118035   6.645   6.695   6.765
 5712SOL    HW218036   6.734   6.815   6.700
 5713SOL     OW18037   3.183   2.540   1.569
 5713SOL    HW118038   3.109   2.570   1.629
 5713SOL    HW218039   3.256   2.500   1.623
 5714SOL     OW18040   0.121   5.642   0.142
 5714SOL    HW118041   0.191   5.698   0.097
 5714SOL    HW218042   0.133   5.648   0.241
 5715SOL     OW18043   1.140   0.074   3.188
 5715SOL    HW118044   1.111   7.007   3.209
 5715SOL    HW218045   1.217   0.072   3.124
 5716SOL     OW18046   1.371   4.102   0.145
 5716SOL    HW118047   1.364   4.035   0.219
 5716SOL    HW218048   1.323   4.068   0.065
 5717SOL     OW18049   2.058   5.311   0.839
 5717SOL    HW118050   2.070   5.374   0.763
 5717SOL    HW218051   1.964   5.313   0.871
 5718SOL     OW18052   0.370   2.868   5.568
 5718SOL    HW118053   0.396   2.906   5.657
 5718SOL    HW218054   0.360   2.769   5.576
 5719SOL     OW18055   2.539   1.795   6.589
 5719SOL    HW118056   2.609   1.744   6.539
 5719SOL    HW218057   2.580   1.874   6.634
 5720SOL     OW18058   1.704   5.240   4.429
 5720SOL    HW118059   1.716   5.317   4.367
 5720SOL    HW218060   1.786   5.231   4.486
 5721SOL     OW18061   0.151   3.592   1.110
 5721SOL    HW118062   0.081   3.521   1.122
 5721SOL    HW218063   0.123   3.675   1.159
 5722SOL     OW18064   6.536   1.440   4.963
 5722SOL    HW118065   6.611   1.473   4.905
 5722SOL    HW218066   6.478   1.516   4.989
 5723SOL     OW18067   4.220   3.438   0.891
 5723SOL    HW118068   4.183   3.363   0.945
 5723SOL    HW218069   4.308   3.411   0.852
 5724SOL     OW18070   5.501   2.836   4.939
 5724SOL    HW118071   5.521   2.810   4.844
 5724SOL    HW218072   5.505   2.935   4.948
 5725SOL     OW18073   4.958   5.236   4.122
 5725SOL    HW118074   4.970   5.281   4.033
 5725SOL    HW218075   4.964   5.137   4.109
 5726SOL     OW18076   0.330   4.739   4.617
 5726SOL    HW118077   0.394   4.665   4.596
 5726SOL    HW218078   0.309   4.789   4.533
 5727SOL     OW18079   6.757   1.287   3.798
 5727SOL    HW118080   6.685   1.345   3.835
 5727SOL    HW218081   6.718   1.200   3.767
 5728SOL     OW18082   3.792   0.514   6.637
 5728SOL    HW118083   3.798   0.607   6.672
 5728SOL    HW218084   3.878   0.466   6.652
 5729SOL     OW18085   1.417   1.344   0.518
 5729SOL    HW118086   1.387   1.342   0.614
 5729SOL    HW218087   1.400   1.435   0.480
 5730SOL     OW18088   4.530   5.183   6.060
 5730SOL    HW118089   4.470   5.135   6.124
 5730SOL    HW218090   4.532   5.135   5.973
 5731SOL     OW18091   0.583   6.742   3.821
 5731SOL    HW118092   0.669   6.724   3.774
 5731SOL    HW218093   0.540   6.824   3.782
 5732SOL     OW18094   6.627   5.577   4.318
 5732SOL    HW118095   6.555   5.574   4.249
 5732SOL    HW218096   6.594   5.536   4.402
 5733SOL     OW18097   4.145   6.602   5.110
 5733SOL    HW118098   4.114   6.535   5.042
 5733SOL    HW218099   4.224   6.652   5.074
 5734SOL     OW18100   1.306   6.655   5.512
 5734SOL    HW118101   1.331   6.610   5.598
 5734SOL    HW218102   1.353   6.743   5.506
 5735SOL     OW18103   4.263   2.072   2.137
 5735SOL    HW118104   4.169   2.105   2.152
 5735SOL    HW218105   4.319   2.147   2.103
 5736SOL     OW18106   5.920   4.337   0.195
 5736SOL    HW118107   5.929   4.286   0.281
 5736SOL    HW218108   5.952   4.430   0.207
 5737SOL     OW18109   5.216   6.617   0.477
 5737SOL    HW118110   5.239   6.644   0.383
 5737SOL    HW218111   5.155   6.538   0.474
 5738SOL     OW18112   2.718   3.271   5.988
 5738SOL    HW118113   2.664   3.290   5.906
 5738SOL    HW218114   2.711   3.174   6.012
 5739SOL     OW18115   1.435   0.643   5.184
 5739SOL    HW118116   1.478   0.623   5.272
 5739SOL    HW218117   1.461   0.572   5.117
 5740SOL     OW18118   4.468   3.644   1.626
 5740SOL    HW118119   4.441   3.684   1.538
 5740SOL    HW218120   4.439   3.704   1.700
 5741SOL     OW18121   0.468   3.439   4.397
 5741SOL    HW118122   0.486   3.531   4.362
 5741SOL    HW218123   0.469   3.374   4.321
 5742SOL     OW18124   5.518   6.625   2.274
 5742SOL    HW118125   5.420   6.612   2.259
 5742SOL    HW218126   5.535   6.644   2.371
 5743SOL     OW18127   2.534   5.036   5.377
 5743SOL    HW118128   2.520   4.996   5.286
 5743SOL    HW218129   2.575   4.968   5.438
 5744SOL     OW18130   4.677   0.899   1.897
 5744SOL    HW118131   4.747   0.907   1.825
 5744SOL    HW218132   4.587   0.918   1.858
 5745SOL     OW18133   1.950   0.683   4.219
 5745SOL    HW118134   1.852   0.699   4.221
 5745SOL    HW218135   1.998   0.770   4.231
 5746SOL     OW18136   5.919   6.776   1.633
 5746SOL    HW118137   6.013   6.808   1.644
 5746SOL    HW218138   5.882   6.809   1.546
 5747SOL     OW18139   6.821   4.081   3.008
 5747SOL    HW118140   6.724   4.092   3.032
 5747SOL    HW218141   6.868   4.168   3.020
 5748SOL     OW18142   1.168   5.571   0.313
 5748SOL    HW118143   1.180   5.523   0.227
 5748SOL    HW218144   1.252   5.621   0.336
 5749SOL     OW18145   1.553   6.667   4.942
 5749SOL    HW118146   1.538   6.672   5.040
 5749SOL    HW218147   1.621   6.735   4.915
 5750SOL     OW18148   6.079   6.225   4.582
 5750SOL    HW118149   5.979   6.216   4.588
 5750SOL    HW218150   6.101   6.315   4.545
 5751SOL     OW18151   2.950   2.234   4.217
 5751SOL    HW118152   2.936   2.140   4.250
 5751SOL    HW218153   2.885   2.253   4.144
 5752SOL     OW18154   6.272   0.846   0.503
 5752SOL    HW118155   6.216   0.830   0.422
 5752SOL    HW218156   6.322   0.763   0.526
 5753SOL     OW18157   3.947   3.282   4.999
 5753SOL    HW118158   3.850   3.261   4.991
 5753SOL    HW218159   4.000   3.211   4.952
 5754SOL     OW18160   6.786   4.231   0.833
 5754SOL    HW118161   6.879   4.196   0.835
 5754SOL    HW218162   6.725   4.166   0.878
 5755SOL     OW18163   2.079   3.237   6.131
 5755SOL    HW118164   2.042   3.289   6.055
 5755SOL    HW218165   2.171   3.206   6.109
 5756SOL     OW18166   6.257   6.893   3.708
 5756SOL    HW118167   6.344   6.907   3.661
 5756SOL    HW218168   6.234   6.796   3.708
 5757SOL     OW18169   6.738   6.098   2.925
 5757SOL    HW118170   6.639   6.085   2.914
 5757SOL    HW218171   6.778   6.119   2.835
 5758SOL     OW18172   2.518   1.039   5.082
 5758SOL    HW118173   2.462   1.080   5.154
 5758SOL    HW218174   2.549   0.949   5.111
 5759SOL     OW18175   4.629   1.215   6.793
 5759SOL    HW118176   4.688   1.268   6.732
 5759SOL    HW218177   4.676   1.132   6.822
 5760SOL     OW18178   0.493   4.685   1.106
 5760SOL    HW118179   0.466   4.594   1.140
 5760SOL    HW218180   0.590   4.683   1.080
 5761SOL     OW18181   5.747   6.812   6.814
 5761SOL    HW118182   5.703   6.844   6.731
 5761SOL    HW218183   5.771   6.715   6.805
 5762SOL     OW18184   4.840   5.990   0.066
 5762SOL    HW118185   4.814   5.986   0.162
 5762SOL    HW218186   4.771   5.942   0.010
 5763SOL     OW18187   6.952   0.509   0.027
 5763SOL    HW118188   6.976   0.427   7.003
 5763SOL    HW218189   7.022   0.527   0.097
 5764SOL     OW18190   4.878   5.074   5.772
 5764SOL    HW118191   4.913   5.076   5.678
 5764SOL    HW218192   4.779   5.087   5.770
 5765SOL     OW18193   6.466   3.469   6.964
 5765SOL    HW118194   6.387   3.443   7.020
 5765SOL    HW218195   6.535   3.512   7.023
 5766SOL     OW18196   2.383   2.643   6.874
 5766SOL    HW118197   2.483   2.647   6.863
 5766SOL    HW218198   2.340   2.642   6.784
 5767SOL     OW18199   1.947   0.646   0.341
 5767SOL    HW118200   1.998   0.727   0.368
 5767SOL    HW218201   1.877   0.626   0.409
 5768SOL     OW18202   0.242   6.342   3.176
 5768SOL    HW118203   0.282   6.370   3.264
 5768SOL    HW218204   0.146   6.319   3.189
 5769SOL     OW18205   2.181   5.745   4.663
 5769SOL    HW118206   2.144   5.777   4.750
 5769SOL    HW218207   2.106   5.725   4.600
 5770SOL     OW18208   5.726   0.133   0.361
 5770SOL    HW118209   5.812   0.103   0.319
 5770SOL    HW218210   5.681   0.054   0.404
 5771SOL     OW18211   1.589   5.961   3.443
 5771SOL    HW118212   1.533   5.878   3.449
 5771SOL    HW218213   1.645   5.969   3.525
 5772SOL     OW18214   6.134   2.142   0.743
 5772SOL    HW118215   6.059   2.146   0.808
 5772SOL    HW218216   6.220   2.160   0.791
 5773SOL     OW18217   4.358   1.244   3.950
 5773SOL    HW118218   4.442   1.204   3.986
 5773SOL    HW218219   4.336   1.202   3.863
 5774SOL     OW18220   2.720   5.763   3.790
 5774SOL    HW118221   2.819   5.777   3.795
 5774SOL    HW218222   2.679   5.835   3.735
 5775SOL     OW18223   1.682   0.951   2.162
 5775SOL    HW118224   1.665   0.914   2.071
 5775SOL    HW218225   1.622   0.906   2.228
 5776SOL     OW18226   6.712   0.679   5.673
 5776SOL    HW118227   6.633   0.684   5.733
 5776SOL    HW218228   6.794   0.708   5.722
 5777SOL     OW18229   6.513   0.523   4.777
 5777SOL    HW118230   6.565   0.438   4.771
 5777SOL    HW218231   6.529   0.578   4.695
 5778SOL     OW18232   1.896   0.257   1.421
 5778SOL    HW118233   1.865   0.250   1.516
 5778SOL    HW218234   1.991   0.287   1.420
 5779SOL     OW18235   4.084   1.639   0.440
 5779SOL    HW118236   4.132   1.572   0.384
 5779SOL    HW218237   4.150   1.685   0.500
 5780SOL     OW18238   6.171   5.078   2.903
 5780SOL    HW118239   6.183   4.980   2.887
 5780SOL    HW218240   6.095   5.092   2.967
 5781SOL     OW18241   0.470   4.119   4.626
 5781SOL    HW118242   0.457   4.135   4.528
 5781SOL    HW218243   0.554   4.066   4.640
 5782SOL     OW18244   1.320   1.028   0.709
 5782SOL    HW118245   1.366   0.988   0.787
 5782SOL    HW218246   1.377   1.018   0.627
 5783SOL     OW18247   1.906   0.538   1.559
 5783SOL    HW118248   1.834   0.555   1.492
 5783SOL    HW218249   1.991   0.579   1.527
 5784SOL     OW18250   6.438   6.584   0.417
 5784SOL    HW118251   6.367   6.556   0.353
 5784SOL    HW218252   6.398   6.643   0.487
 5785SOL     OW18253   1.827   1.807   0.884
 5785SOL    HW118254   1.815   1.891   0.936
 5785SOL    HW218255   1.843   1.731   0.947
 5786SOL     OW18256   0.505   4.068   0.423
 5786SOL    HW118257   0.530   4.162   0.446
 5786SOL    HW218258   0.511   4.010   0.504
 5787SOL     OW18259   4.638   2.620   5.336
 5787SOL    HW118260   4.547   2.629   5.376
 5787SOL    HW218261   4.707   2.635   5.406
 5788SOL     OW18262   3.146   1.203   1.517
 5788SOL    HW118263   3.242   1.202   1.542
 5788SOL    HW218264   3.121   1.116   1.474
 5789SOL     OW18265   3.437   4.107   6.407
 5789SOL    HW118266   3.376   4.088   6.330
 5789SOL    HW218267   3.410   4.052   6.486
 5790SOL     OW18268   0.413   4.612   5.079
 5790SOL    HW118269   0.321   4.582   5.052
 5790SOL    HW218270   0.470   4.532   5.097
 5791SOL     OW18271   2.918   2.056   2.521
 5791SOL    HW118272   2.922   2.140   2.574
 5791SOL    HW218273   2.975   2.064   2.440
 5792SOL     OW18274   5.803   2.836   1.963
 5792SOL    HW118275   5.754   2.817   1.878
 5792SOL    HW218276   5.755   2.793   2.040
 5793SOL     OW18277   5.997   0.645   4.051
 5793SOL    HW118278   6.039   0.648   4.141
 5793SOL    HW218279   5.898   0.644   4.059
 5794SOL     OW18280   2.953   0.458   6.527
 5794SOL    HW118281   3.002   0.384   6.480
 5794SOL    HW218282   2.860   0.430   6.547
 5795SOL     OW18283   6.910   0.228   1.464
 5795SOL    HW118284   6.909   0.309   1.523
 5795SOL    HW218285   6.870   0.250   1.376
 5796SOL     OW18286   4.314   0.949   6.611
 5796SOL    HW118287   4.322   0.887   6.689
 5796SOL    HW218288   4.325   1.043   6.642
 5797SOL     OW18289   5.225   1.862   0.518
 5797SOL    HW118290   5.311   1.812   0.523
 5797SOL    HW218291   5.197   1.889   0.610
 5798SOL     OW18292   0.160   5.279   4.902
 5798SOL    HW118293   0.077   5.234   4.936
 5798SOL    HW218294   0.201   5.224   4.829
 5799SOL     OW18295   0.341   0.602   4.323
 5799SOL    HW118296   0.338   0.684   4.381
 5799SOL    HW218297   0.289   0.529   4.367
 5800SOL     OW18298   1.022   6.729   2.287
 5800SOL    HW118299   0.976   6.710   2.200
 5800SOL    HW218300   1.118   6.752   2.270
 5801SOL     OW18301   2.022   2.234   3.411
 5801SOL    HW118302   2.008   2.327   3.377
 5801SOL    HW218303   2.078   2.236   3.494
 5802SOL     OW18304   6.403   2.993   2.795
 5802SOL    HW118305   6.324   3.042   2.757
 5802SOL    HW218306   6.469   3.059   2.830
 5803SOL     OW18307   1.887   5.928   2.874
 5803SOL    HW118308   1.882   6.013   2.822
 5803SOL    HW218309   1.872   5.851   2.812
 5804SOL     OW18310   6.986   5.788   3.441
 5804SOL    HW118311   6.908   5.730   3.466
 5804SOL    HW218312   6.996   5.789   3.342
 5805SOL     OW18313   1.624   3.136   0.612
 5805SOL    HW118314   1.649   3.201   0.683
 5805SOL    HW218315   1.703   3.080   0.588
 5806SOL     OW18316   6.960   4.885   4.627
 5806SOL    HW118317   6.982   4.814   4.695
 5806SOL    HW218318   6.862   4.904   4.630
 5807SOL     OW18319   0.963   5.772   0.177
 5807SOL    HW118320   1.009   5.809   0.257
 5807SOL    HW218321   1.031   5.734   0.114
 5808SOL     OW18322   0.034   6.574   4.412
 5808SOL    HW118323   0.125   6.534   4.424
 5808SOL    HW218324   6.992   6.502   4.411
 5809SOL     OW18325   6.760   1.565   5.453
 5809SOL    HW118326   6.849   1.604   5.477
 5809SOL    HW218327   6.760   1.541   5.356
 5810SOL     OW18328   4.901   0.891   5.505
 5810SOL    HW118329   4.997   0.880   5.482
 5810SOL    HW218330   4.863   0.802   5.533
 5811SOL     OW18331   3.592   1.507   4.937
 5811SOL    HW118332   3.560   1.476   5.026
 5811SOL    HW218333   3.688   1.535   4.944
 5812SOL     OW18334   4.962   3.217   6.065
 5812SOL    HW118335   4.954   3.117   6.060
 5812SOL    HW218336   4.879   3.255   6.107
 5813SOL     OW18337   2.810   0.602   0.852
 5813SOL    HW118338   2.821   0.621   0.755
 5813SOL    HW218339   2.819   0.504   0.869
 5814SOL     OW18340   6.910   3.271   2.117
 5814SOL    HW118341   6.848   3.333   2.069
 5814SOL    HW218342   6.998   3.267   2.068
 5815SOL     OW18343   4.182   1.453   4.203
 5815SOL    HW118344   4.278   1.431   4.221
 5815SOL    HW218345   4.128   1.438   4.286
 5816SOL     OW18346   5.023   4.599   0.277
 5816SOL    HW118347   4.997   4.612   0.373
 5816SOL    HW218348   4.946   4.626   0.219
 5817SOL     OW18349   6.051   4.867   5.388
 5817SOL    HW118350   6.033   4.930   5.312
 5817SOL    HW218351   6.120   4.906   5.448
 5818SOL     OW18352   6.888   5.751   5.713
 5818SOL    HW118353   6.938   5.666   5.732
 5818SOL    HW218354   6.791   5.730   5.698
 5819SOL     OW18355   3.706   6.308   0.030
 5819SOL    HW118356   3.806   6.298   0.023
 5819SOL    HW218357   3.674   6.374   6.989
 5820SOL     OW18358   4.265   4.669   2.700
 5820SOL    HW118359   4.278   4.652   2.798
 5820SOL    HW218360   4.214   4.754   2.688
 5821SOL     OW18361   6.859   1.204   1.800
 5821SOL    HW118362   6.789   1.141   1.833
 5821SOL    HW218363   6.821   1.259   1.725
 5822SOL     OW18364   1.898   2.866   1.473
 5822SOL    HW118365   1.821   2.874   1.536
 5822SOL    HW218366   1.869   2.816   1.391
 5823SOL     OW18367   3.019   7.022   4.598
 5823SOL    HW118368   2.955   0.024   4.669
 5823SOL    HW218369   3.091   6.966   4.639
 5824SOL     OW18370   0.001   6.240   3.202
 5824SOL    HW118371   7.020   6.164   3.137
 5824SOL    HW218372   6.943   6.247   3.255
 5825SOL     OW18373   0.055   6.667   4.766
 5825SOL    HW118374   0.087   6.760   4.781
 5825SOL    HW218375   0.063   6.644   4.669
 5826SOL     OW18376   0.594   5.909   6.487
 5826SOL    HW118377   0.593   6.008   6.503
 5826SOL    HW218378   0.506   5.870   6.514
 5827SOL     OW18379   1.941   3.853   4.396
 5827SOL    HW118380   1.851   3.811   4.403
 5827SOL    HW218381   1.937   3.947   4.427
 5828SOL     OW18382   5.001   1.365   2.723
 5828SOL    HW118383   4.922   1.306   2.710
 5828SOL    HW218384   5.063   1.324   2.790
 5829SOL     OW18385   1.868   0.653   4.530
 5829SOL    HW118386   1.797   0.683   4.594
 5829SOL    HW218387   1.829   0.643   4.439
 5830SOL     OW18388   5.541   0.214   5.828
 5830SOL    HW118389   5.517   0.202   5.731
 5830SOL    HW218390   5.547   0.125   5.872
 5831SOL     OW18391   1.434   0.894   6.028
 5831SOL    HW118392   1.419   0.795   6.021
 5831SOL    HW218393   1.373   0.932   6.097
 5832SOL     OW18394   3.086   4.673   6.866
 5832SOL    HW118395   3.114   4.657   6.961
 5832SOL    HW218396   3.068   4.585   6.822
 5833SOL     OW18397   4.193   3.438   5.294
 5833SOL    HW118398   4.100   3.469   5.312
 5833SOL    HW218399   4.196   3.339   5.296
 5834SOL     OW18400   6.906   4.165   6.564
 5834SOL    HW118401   6.937   4.100   6.495
 5834SOL    HW218402   6.837   4.226   6.523
 5835SOL     OW18403   5.370   2.128   2.690
 5835SOL    HW118404   5.344   2.207   2.746
 5835SOL    HW218405   5.452   2.150   2.637
 5836SOL     OW18406   3.018   0.547   1.618
 5836SOL    HW118407   3.042   0.470   1.678
 5836SOL    HW218408   3.063   0.630   1.652
 5837SOL     OW18409   3.301   3.195   7.002
 5837SOL    HW118410   3.244   3.210   0.056
 5837SOL    HW218411   3.264   3.119   6.949
 5838SOL     OW18412   2.860   1.647   0.830
 5838SOL    HW118413   2.817   1.715   0.770
 5838SOL    HW218414   2.914   1.694   0.899
 5839SOL     OW18415   0.749   2.322   0.558
 5839SOL    HW118416   0.741   2.249   0.626
 5839SOL    HW218417   0.833   2.310   0.505
 5840SOL     OW18418   1.011   3.936   6.705
 5840SOL    HW118419   0.998   3.914   6.609
 5840SOL    HW218420   0.970   4.025   6.725
 5841SOL     OW18421   5.350   1.271   1.675
 5841SOL    HW118422   5.272   1.213   1.697
 5841SOL    HW218423   5.341   1.359   1.723
 5842SOL     OW18424   4.859   3.034   1.419
 5842SOL    HW118425   4.818   3.016   1.508
 5842SOL    HW218426   4.814   2.978   1.349
 5843SOL     OW18427   1.105   4.710   1.602
 5843SOL    HW118428   1.158   4.768   1.540
 5843SOL    HW218429   1.128   4.614   1.586
 5844SOL     OW18430   1.778   5.992   6.358
 5844SOL    HW118431   1.820   6.028   6.275
 5844SOL    HW218432   1.719   5.915   6.335
 5845SOL     OW18433   0.710   0.013   1.730
 5845SOL    HW118434   0.616   7.004   1.739
 5845SOL    HW218435   0.716   0.102   1.775
 5846SOL     OW18436   6.394   3.675   5.615
 5846SOL    HW118437   6.299   3.649   5.627
 5846SOL    HW218438   6.400   3.757   5.559
 5847SOL     OW18439   2.613   2.385   2.011
 5847SOL    HW118440   2.712   2.375   2.017
 5847SOL    HW218441   2.569   2.303   2.047
 5848SOL     OW18442   1.584   5.361   3.177
 5848SOL    HW118443   1.530   5.423   3.120
 5848SOL    HW218444   1.661   5.411   3.216
 5849SOL     OW18445   1.800   0.439   5.129
 5849SOL    HW118446   1.768   0.432   5.224
 5849SOL    HW218447   1.898   0.421   5.125
 5850SOL     OW18448   0.173   3.729   1.927
 5850SOL    HW118449   0.188   3.798   1.998
 5850SOL    HW218450   0.079   3.696   1.932
 5851SOL     OW18451   5.271   3.615   3.700
 5851SOL    HW118452   5.292   3.702   3.655
 5851SOL    HW218453   5.356   3.571   3.729
 5852SOL     OW18454   5.436   6.542   2.740
 5852SOL    HW118455   5.528   6.555   2.778
 5852SOL    HW218456   5.437   6.465   2.677
 5853SOL     OW18457   3.885   5.166   5.241
 5853SOL    HW118458   3.954   5.096   5.224
 5853SOL    HW218459   3.826   5.136   5.317
 5854SOL     OW18460   4.399   3.761   5.687
 5854SOL    HW118461   4.392   3.669   5.648
 5854SOL    HW218462   4.476   3.809   5.646
 5855SOL     OW18463   1.702   0.913   4.302
 5855SOL    HW118464   1.764   0.984   4.336
 5855SOL    HW218465   1.643   0.882   4.376
 5856SOL     OW18466   1.363   5.831   3.674
 5856SOL    HW118467   1.392   5.740   3.705
 5856SOL    HW218468   1.426   5.900   3.710
 5857SOL     OW18469   6.168   3.378   5.242
 5857SOL    HW118470   6.201   3.353   5.334
 5857SOL    HW218471   6.247   3.384   5.180
 5858SOL     OW18472   2.357   2.305   2.669
 5858SOL    HW118473   2.350   2.405   2.671
 5858SOL    HW218474   2.265   2.266   2.678
 5859SOL     OW18475   6.306   6.195   1.557
 5859SOL    HW118476   6.388   6.194   1.614
 5859SOL    HW218477   6.266   6.287   1.558
 5860SOL     OW18478   0.064   4.833   3.497
 5860SOL    HW118479   7.024   4.838   3.572
 5860SOL    HW218480   0.135   4.767   3.520
 5861SOL     OW18481   5.758   0.977   4.091
 5861SOL    HW118482   5.754   1.012   3.998
 5861SOL    HW218483   5.776   0.879   4.090
 5862SOL     OW18484   5.836   5.539   1.159
 5862SOL    HW118485   5.771   5.484   1.107
 5862SOL    HW218486   5.831   5.514   1.255
 5863SOL     OW18487   2.801   2.275   4.840
 5863SOL    HW118488   2.722   2.227   4.877
 5863SOL    HW218489   2.884   2.219   4.854
 5864SOL     OW18490   3.568   3.943   2.562
 5864SOL    HW118491   3.667   3.961   2.565
 5864SOL    HW218492   3.540   3.930   2.467
 5865SOL     OW18493   5.547   0.310   5.097
 5865SOL    HW118494   5.628   0.315   5.155
 5865SOL    HW218495   5.508   0.402   5.086
 5866SOL     OW18496   3.665   3.244   1.198
 5866SOL    HW118497   3.757   3.220   1.169
 5866SOL    HW218498   3.667   3.275   1.293
 5867SOL     OW18499   2.472   3.447   1.337
 5867SOL    HW118500   2.459   3.453   1.436
 5867SOL    HW218501   2.466   3.352   1.308
 5868SOL     OW18502   2.115   1.522   5.719
 5868SOL    HW118503   2.148   1.548   5.809
 5868SOL    HW218504   2.094   1.604   5.665
 5869SOL     OW18505   2.296   5.850   2.910
 5869SOL    HW118506   2.269   5.890   2.822
 5869SOL    HW218507   2.221   5.858   2.975
 5870SOL     OW18508   5.589   6.084   5.099
 5870SOL    HW118509   5.600   6.050   5.006
 5870SOL    HW218510   5.593   6.184   5.099
 5871SOL     OW18511   3.645   3.399   1.892
 5871SOL    HW118512   3.608   3.357   1.975
 5871SOL    HW218513   3.651   3.498   1.904
 5872SOL     OW18514   4.267   6.705   1.564
 5872SOL    HW118515   4.171   6.689   1.586
 5872SOL    HW218516   4.324   6.643   1.618
 5873SOL     OW18517   3.660   0.560   2.184
 5873SOL    HW118518   3.641   0.651   2.221
 5873SOL    HW218519   3.628   0.556   2.089
 5874SOL     OW18520   2.157   4.432   5.277
 5874SOL    HW118521   2.155   4.333   5.263
 5874SOL    HW218522   2.082   4.459   5.338
 5875SOL     OW18523   4.272   1.449   0.396
 5875SOL    HW118524   4.341   1.490   0.337
 5875SOL    HW218525   4.206   1.398   0.340
 5876SOL     OW18526   4.041   3.383   1.690
 5876SOL    HW118527   4.084   3.431   1.765
 5876SOL    HW218528   3.972   3.442   1.648
 5877SOL     OW18529   6.697   6.370   0.992
 5877SOL    HW118530   6.650   6.360   0.904
 5877SOL    HW218531   6.789   6.403   0.977
 5878SOL     OW18532   0.044   5.580   4.476
 5878SOL    HW118533   0.083   5.637   4.547
 5878SOL    HW218534   0.117   5.546   4.416
 5879SOL     OW18535   1.424   4.336   7.000
 5879SOL    HW118536   1.381   4.316   6.912
 5879SOL    HW218537   1.408   4.259   0.037
 5880SOL     OW18538   4.444   4.457   6.869
 5880SOL    HW118539   4.508   4.380   6.865
 5880SOL    HW218540   4.361   4.429   6.917
 5881SOL     OW18541   0.618   6.599   2.953
 5881SOL    HW118542   0.599   6.570   3.047
 5881SOL    HW218543   0.535   6.589   2.898
 5882SOL     OW18544   0.270   6.020   1.726
 5882SOL    HW118545   0.332   6.093   1.755
 5882SOL    HW218546   0.310   5.932   1.749
 5883SOL     OW18547   1.183   1.149   6.142
 5883SOL    HW118548   1.225   1.078   6.199
 5883SOL    HW218549   1.185   1.236   6.191
 5884SOL     OW18550   2.917   1.641   4.746
 5884SOL    HW118551   2.968   1.720   4.781
 5884SOL    HW218552   2.826   1.640   4.787
 5885SOL     OW18553   0.586   0.601   3.254
 5885SOL    HW118554   0.608   0.556   3.341
 5885SOL    HW218555   0.667   0.602   3.196
 5886SOL     OW18556   1.163   2.132   4.952
 5886SOL    HW118557   1.259   2.117   4.927
 5886SOL    HW218558   1.104   2.079   4.891
 5887SOL     OW18559   2.562   1.617   3.140
 5887SOL    HW118560   2.535   1.664   3.224
 5887SOL    HW218561   2.647   1.658   3.106
 5888SOL     OW18562   3.031   1.095   1.757
 5888SOL    HW118563   2.978   1.031   1.703
 5888SOL    HW218564   3.059   1.172   1.700
 5889SOL     OW18565   1.359   6.774   0.597
 5889SOL    HW118566   1.361   6.862   0.550
 5889SOL    HW218567   1.294   6.713   0.551
 5890SOL     OW18568   2.219   1.078   3.964
 5890SOL    HW118569   2.274   1.117   4.038
 5890SOL    HW218570   2.268   0.999   3.926
 5891SOL     OW18571   3.865   3.070   6.126
 5891SOL    HW118572   3.863   3.004   6.051
 5891SOL    HW218573   3.785   3.130   6.120
 5892SOL     OW18574   0.705   5.280   1.601
 5892SOL    HW118575   0.658   5.356   1.646
 5892SOL    HW218576   0.641   5.205   1.585
 5893SOL     OW18577   2.016   3.977   4.162
 5893SOL    HW118578   2.027   3.893   4.109
 5893SOL    HW218579   2.008   3.956   4.259
 5894SOL     OW18580   6.734   4.865   4.380
 5894SOL    HW118581   6.795   4.787   4.369
 5894SOL    HW218582   6.747   4.928   4.304
 5895SOL     OW18583   5.770   3.964   4.142
 5895SOL    HW118584   5.695   3.997   4.084
 5895SOL    HW218585   5.743   3.881   4.189
 5896SOL     OW18586   4.223   0.678   0.501
 5896SOL    HW118587   4.160   0.755   0.513
 5896SOL    HW218588   4.197   0.627   0.419
 5897SOL     OW18589   4.031   0.400   1.409
 5897SOL    HW118590   4.080   0.353   1.483
 5897SOL    HW218591   4.094   0.462   1.361
 5898SOL     OW18592   1.897   6.565   3.172
 5898SOL    HW118593   1.820   6.625   3.150
 5898SOL    HW218594   1.863   6.472   3.188
 5899SOL     OW18595   5.109   5.834   5.944
 5899SOL    HW118596   5.161   5.834   5.859
 5899SOL    HW218597   5.127   5.918   5.995
 5900SOL     OW18598   5.638   5.331   3.518
 5900SOL    HW118599   5.689   5.264   3.464
 5900SOL    HW218600   5.655   5.423   3.481
 5901SOL     OW18601   2.564   0.718   0.507
 5901SOL    HW118602   2.493   0.754   0.445
 5901SOL    HW218603   2.531   0.721   0.601
 5902SOL     OW18604   6.654   2.666   5.577
 5902SOL    HW118605   6.566   2.697   5.614
 5902SOL    HW218606   6.708   2.745   5.547
 5903SOL     OW18607   4.622   4.631   0.147
 5903SOL    HW118608   4.694   4.646   0.079
 5903SOL    HW218609   4.664   4.623   0.238
 5904SOL     OW18610   1.009   4.186   1.394
 5904SOL    HW118611   1.098   4.189   1.440
 5904SOL    HW218612   0.983   4.091   1.378
 5905SOL     OW18613   6.239   5.812   3.180
 5905SOL    HW118614   6.159   5.788   3.234
 5905SOL    HW218615   6.227   5.781   3.086
 5906SOL     OW18616   4.070   2.028   3.649
 5906SOL    HW118617   4.168   2.011   3.651
 5906SOL    HW218618   4.021   1.942   3.665
 5907SOL     OW18619   0.324   5.290   1.040
 5907SOL    HW118620   0.420   5.265   1.048
 5907SOL    HW218621   0.316   5.383   1.002
 5908SOL     OW18622   0.567   2.654   6.488
 5908SOL    HW118623   0.538   2.732   6.434
 5908SOL    HW218624   0.513   2.573   6.462
 5909SOL     OW18625   6.801   5.565   0.514
 5909SOL    HW118626   6.754   5.602   0.595
 5909SOL    HW218627   6.756   5.599   0.431
 5910SOL     OW18628   6.711   3.577   3.556
 5910SOL    HW118629   6.617   3.547   3.538
 5910SOL    HW218630   6.761   3.503   3.602
 5911SOL     OW18631   6.516   6.568   6.788
 5911SOL    HW118632   6.583   6.500   6.757
 5911SOL    HW218633   6.505   6.560   6.887
 5912SOL     OW18634   6.593   0.928   6.035
 5912SOL    HW118635   6.654   0.908   6.111
 5912SOL    HW218636   6.647   0.939   5.951
 5913SOL     OW18637   4.877   2.939   6.294
 5913SOL    HW118638   4.880   2.976   6.387
 5913SOL    HW218639   4.803   2.873   6.286
 5914SOL     OW18640   1.426   4.980   6.747
 5914SOL    HW118641   1.464   4.927   6.671
 5914SOL    HW218642   1.433   5.078   6.727
 5915SOL     OW18643   4.540   5.840   1.170
 5915SOL    HW118644   4.593   5.877   1.246
 5915SOL    HW218645   4.534   5.909   1.097
 5916SOL     OW18646   5.788   6.453   3.988
 5916SOL    HW118647   5.750   6.388   3.922
 5916SOL    HW218648   5.717   6.515   4.019
 5917SOL     OW18649   3.109   3.291   4.461
 5917SOL    HW118650   3.069   3.285   4.553
 5917SOL    HW218651   3.208   3.300   4.468
 5918SOL     OW18652   1.839   4.229   5.330
 5918SOL    HW118653   1.904   4.211   5.404
 5918SOL    HW218654   1.793   4.144   5.305
 5919SOL     OW18655   3.922   3.037   3.019
 5919SOL    HW118656   3.961   3.098   3.089
 5919SOL    HW218657   3.881   2.958   3.063
 5920SOL     OW18658   4.365   1.212   6.684
 5920SOL    HW118659   4.448   1.198   6.738
 5920SOL    HW218660   4.294   1.251   6.742
 5921SOL     OW18661   3.347   5.339   6.361
 5921SOL    HW118662   3.386   5.264   6.414
 5921SOL    HW218663   3.303   5.303   6.278
 5922SOL     OW18664   5.168   4.057   2.986
 5922SOL    HW118665   5.099   4.008   3.041
 5922SOL    HW218666   5.206   3.995   2.918
 5923SOL     OW18667   7.021   1.674   1.933
 5923SOL    HW118668   0.025   1.708   2.022
 5923SOL    HW218669   6.952   1.736   1.895
 5924SOL     OW18670   6.793   6.998   2.863
 5924SOL    HW118671   6.789   0.025   2.948
 5924SOL    HW218672   6.702   6.994   2.822
 5925SOL     OW18673   4.044   6.837   2.075
 5925SOL    HW118674   3.986   6.918   2.088
 5925SOL    HW218675   4.117   6.838   2.143
 5926SOL     OW18676   4.013   5.635   2.148
 5926SOL    HW118677   3.999   5.620   2.245
 5926SOL    HW218678   4.020   5.547   2.101
 5927SOL     OW18679   1.460   4.420   2.594
 5927SOL    HW118680   1.478   4.519   2.595
 5927SOL    HW218681   1.361   4.405   2.587
 5928SOL     OW18682   3.646   7.002   1.323
 5928SOL    HW118683   3.583   0.025   1.383
 5928SOL    HW218684   3.601   6.921   1.287
 5929SOL     OW18685   6.720   0.399   5.889
 5929SOL    HW118686   6.655   0.427   5.960
 5929SOL    HW218687   6.813   0.416   5.921
 5930SOL     OW18688   6.546   4.097   3.013
 5930SOL    HW118689   6.495   4.177   3.044
 5930SOL    HW218690   6.536   4.088   2.914
 5931SOL     OW18691   0.191   5.836   3.118
 5931SOL    HW118692   0.217   5.876   3.030
 5931SOL    HW218693   0.177   5.910   3.184
 5932SOL     OW18694   3.376   0.376   0.965
 5932SOL    HW118695   3.286   0.397   0.926
 5932SOL    HW218696   3.418   0.460   0.999
 5933SOL     OW18697   6.786   4.908   3.851
 5933SOL    HW118698   6.869   4.855   3.829
 5933SOL    HW218699   6.720   4.899   3.776
 5934SOL     OW18700   3.996   3.082   4.746
 5934SOL    HW118701   3.960   3.020   4.817
 5934SOL    HW218702   4.017   3.029   4.664
 5935SOL     OW18703   6.179   5.235   6.443
 5935SOL    HW118704   6.175   5.137   6.424
 5935SOL    HW218705   6.187   5.285   6.356
 5936SOL     OW18706   3.128   2.190   1.788
 5936SOL    HW118707   3.103   2.287   1.795
 5936SOL    HW218708   3.159   2.157   1.877
 5937SOL     OW18709   6.306   3.613   2.346
 5937SOL    HW118710   6.207   3.602   2.361
 5937SOL    HW218711   6.342   3.678   2.413
 5938SOL     OW18712   6.460   5.276   3.000
 5938SOL    HW118713   6.383   5.314   2.948
 5938SOL    HW218714   6.517   5.221   2.939
 5939SOL     OW18715   2.512   6.455   2.777
 5939SOL    HW118716   2.598   6.441   2.727
 5939SOL    HW218717   2.508   6.391   2.854
 5940SOL     OW18718   4.737   5.289   2.306
 5940SOL    HW118719   4.668   5.280   2.378
 5940SOL    HW218720   4.744   5.385   2.278
 5941SOL     OW18721   5.546   3.204   2.368
 5941SOL    HW118722   5.645   3.192   2.360
 5941SOL    HW218723   5.503   3.180   2.280
 5942SOL     OW18724   5.708   3.663   0.459
 5942SOL    HW118725   5.713   3.623   0.367
 5942SOL    HW218726   5.703   3.589   0.527
 5943SOL     OW18727   3.285   4.120   5.854
 5943SOL    HW118728   3.258   4.026   5.873
 5943SOL    HW218729   3.322   4.162   5.937
 5944SOL     OW18730   0.100   2.527   1.096
 5944SOL    HW118731   0.189   2.495   1.063
 5944SOL    HW218732   0.037   2.535   1.019
 5945SOL     OW18733   6.703   4.984   5.170
 5945SOL    HW118734   6.708   4.937   5.082
 5945SOL    HW218735   6.773   4.947   5.231
 5946SOL     OW18736   3.755   3.562   6.202
 5946SOL    HW118737   3.707   3.505   6.268
 5946SOL    HW218738   3.752   3.658   6.231
 5947SOL     OW18739   3.249   3.342   2.239
 5947SOL    HW118740   3.156   3.335   2.202
 5947SOL    HW218741   3.291   3.251   2.242
 5948SOL     OW18742   4.352   4.718   2.436
 5948SOL    HW118743   4.308   4.686   2.520
 5948SOL    HW218744   4.329   4.814   2.420
 5949SOL     OW18745   5.351   4.075   1.404
 5949SOL    HW118746   5.450   4.064   1.414
 5949SOL    HW218747   5.315   4.122   1.485
 5950SOL     OW18748   5.229   1.068   5.276
 5950SOL    HW118749   5.203   1.160   5.245
 5950SOL    HW218750   5.293   1.027   5.211
 5951SOL     OW18751   1.168   5.503   3.585
 5951SOL    HW118752   1.155   5.412   3.624
 5951SOL    HW218753   1.230   5.555   3.643
 5952SOL     OW18754   5.432   4.720   3.423
 5952SOL    HW118755   5.481   4.804   3.447
 5952SOL    HW218756   5.395   4.729   3.331
 5953SOL     OW18757   6.243   3.300   5.486
 5953SOL    HW118758   6.339   3.277   5.502
 5953SOL    HW218759   6.204   3.338   5.569
 5954SOL     OW18760   6.162   5.259   5.312
 5954SOL    HW118761   6.082   5.241   5.370
 5954SOL    HW218762   6.136   5.320   5.237
 5955SOL     OW18763   4.839   5.631   2.567
 5955SOL    HW118764   4.831   5.699   2.494
 5955SOL    HW218765   4.866   5.676   2.652
 5956SOL     OW18766   4.620   1.881   4.788
 5956SOL    HW118767   4.608   1.798   4.843
 5956SOL    HW218768   4.667   1.859   4.703
 5957SOL     OW18769   3.316   1.175   4.942
 5957SOL    HW118770   3.311   1.221   5.031
 5957SOL    HW218771   3.239   1.204   4.885
 5958SOL     OW18772   5.260   6.056   3.146
 5958SOL    HW118773   5.206   6.090   3.223
 5958SOL    HW218774   5.219   6.086   3.060
 5959SOL     OW18775   4.145   2.964   5.395
 5959SOL    HW118776   4.088   3.023   5.337
 5959SOL    HW218777   4.134   2.869   5.368
 5960SOL     OW18778   4.108   5.212   5.022
 5960SOL    HW118779   4.112   5.303   5.063
 5960SOL    HW218780   4.159   5.147   5.079
 5961SOL     OW18781   4.774   1.711   2.659
 5961SOL    HW118782   4.871   1.734   2.649
 5961SOL    HW218783   4.747   1.648   2.586
 5962SOL     OW18784   6.115   6.132   0.314
 5962SOL    HW118785   6.057   6.201   0.270
 5962SOL    HW218786   6.076   6.108   0.403
 5963SOL     OW18787   3.869   3.548   6.894
 5963SOL    HW118788   3.801   3.602   6.845
 5963SOL    HW218789   3.957   3.555   6.848
 5964SOL     OW18790   0.911   6.189   5.564
 5964SOL    HW118791   0.854   6.108   5.557
 5964SOL    HW218792   0.994   6.177   5.509
 5965SOL     OW18793   1.979   1.542   0.061
 5965SOL    HW118794   1.919   1.470   0.024
 5965SOL    HW218795   1.974   1.542   0.160
 5966SOL     OW18796   2.262   6.367   5.700
 5966SOL    HW118797   2.195   6.322   5.759
 5966SOL    HW218798   2.283   6.309   5.622
 5967SOL     OW18799   3.252   0.280   6.147
 5967SOL    HW118800   3.155   0.306   6.150
 5967SOL    HW218801   3.305   0.340   6.207
 5968SOL     OW18802   5.568   2.137   0.654
 5968SOL    HW118803   5.627   2.164   0.730
 5968SOL    HW218804   5.560   2.038   0.652
 5969SOL     OW18805   6.253   0.142   6.602
 5969SOL    HW118806   6.250   0.043   6.610
 5969SOL    HW218807   6.236   0.183   6.692
 5970SOL     OW18808   0.253   4.267   2.861
 5970SOL    HW118809   0.174   4.218   2.826
 5970SOL    HW218810   0.310   4.298   2.785
 5971SOL     OW18811   0.233   1.536   2.454
 5971SOL    HW118812   0.168   1.523   2.379
 5971SOL    HW218813   0.230   1.632   2.484
 5972SOL     OW18814   5.624   5.835   6.318
 5972SOL    HW118815   5.683   5.884   6.382
 5972SOL    HW218816   5.646   5.738   6.320
 5973SOL     OW18817   1.475   3.336   2.162
 5973SOL    HW118818   1.394   3.358   2.216
 5973SOL    HW218819   1.481   3.237   2.150
 5974SOL     OW18820   5.499   5.683   6.803
 5974SOL    HW118821   5.442   5.649   6.877
 5974SOL    HW218822   5.476   5.636   6.718
 5975SOL     OW18823   4.362   6.980   0.976
 5975SOL    HW118824   4.276   7.026   0.959
 5975SOL    HW218825   4.347   6.881   0.981
 5976SOL     OW18826   3.875   2.471   6.077
 5976SOL    HW118827   3.878   2.564   6.111
 5976SOL    HW218828   3.788   2.428   6.101
 5977SOL     OW18829   1.513   5.842   0.139
 5977SOL    HW118830   1.579   5.886   0.199
 5977SOL    HW218831   1.421   5.877   0.158
 5978SOL     OW18832   3.886   5.741   1.927
 5978SOL    HW118833   3.937   5.822   1.897
 5978SOL    HW218834   3.928   5.705   2.011
 5979SOL     OW18835   5.622   0.523   2.876
 5979SOL    HW118836   5.701   0.488   2.824
 5979SOL    HW218837   5.631   0.622   2.888
 5980SOL     OW18838   3.227   3.897   0.974
 5980SOL    HW118839   3.268   3.965   1.034
 5980SOL    HW218840   3.270   3.900   0.884
 5981SOL     OW18841   5.775   2.100   1.506
 5981SOL    HW118842   5.743   2.177   1.562
 5981SOL    HW218843   5.746   2.014   1.548
 5982SOL     OW18844   6.334   2.602   1.901
 5982SOL    HW118845   6.422   2.566   1.871
 5982SOL    HW218846   6.266   2.529   1.898
 5983SOL     OW18847   1.172   1.382   3.681
 5983SOL    HW118848   1.233   1.346   3.610
 5983SOL    HW218849   1.119   1.307   3.720
 5984SOL     OW18850   5.952   5.398   3.201
 5984SOL    HW118851   5.944   5.359   3.110
 5984SOL    HW218852   6.048   5.411   3.224
 5985SOL     OW18853   6.791   3.313   4.041
 5985SOL    HW118854   6.891   3.320   4.049
 5985SOL    HW218855   6.748   3.346   4.125
 5986SOL     OW18856   3.307   4.114   4.178
 5986SOL    HW118857   3.398   4.150   4.199
 5986SOL    HW218858   3.287   4.130   4.081
 5987SOL     OW18859   5.758   6.747   3.884
 5987SOL    HW118860   5.825   6.753   3.958
 5987SOL    HW218861   5.734   6.839   3.852
 5988SOL     OW18862   4.210   0.427   5.943
 5988SOL    HW118863   4.132   0.443   6.003
 5988SOL    HW218864   4.289   0.480   5.975
 5989SOL     OW18865   2.707   5.906   6.408
 5989SOL    HW118866   2.682   5.873   6.499
 5989SOL    HW218867   2.761   5.990   6.417
 5990SOL     OW18868   3.209   3.643   0.682
 5990SOL    HW118869   3.144   3.698   0.631
 5990SOL    HW218870   3.169   3.614   0.769
 5991SOL     OW18871   3.436   5.294   6.760
 5991SOL    HW118872   3.509   5.352   6.726
 5991SOL    HW218873   3.437   5.207   6.712
 5992SOL     OW18874   3.681   0.222   1.810
 5992SOL    HW118875   3.727   0.292   1.755
 5992SOL    HW218876   3.582   0.226   1.794
 5993SOL     OW18877   3.768   4.632   6.022
 5993SOL    HW118878   3.748   4.680   6.108
 5993SOL    HW218879   3.867   4.627   6.010
 5994SOL     OW18880   6.596   2.515   1.850
 5994SOL    HW118881   6.655   2.438   1.825
 5994SOL    HW218882   6.651   2.596   1.867
 5995SOL     OW18883   4.886   3.410   2.512
 5995SOL    HW118884   4.922   3.319   2.490
 5995SOL    HW218885   4.910   3.474   2.439
 5996SOL     OW18886   0.742   6.010   1.299
 5996SOL    HW118887   0.676   5.938   1.322
 5996SOL    HW218888   0.696   6.099   1.301
 5997SOL     OW18889   6.937   5.360   2.560
 5997SOL    HW118890   6.863   5.293   2.549
 5997SOL    HW218891   6.901   5.452   2.545
 5998SOL     OW18892   6.142   1.211   3.390
 5998SOL    HW118893   6.102   1.129   3.431
 5998SOL    HW218894   6.127   1.210   3.291
 5999SOL     OW18895   2.559   2.577   1.800
 5999SOL    HW118896   2.515   2.511   1.739
 5999SOL    HW218897   2.593   2.530   1.881
 6000SOL     OW18898   2.561   6.818   0.579
 6000SOL    HW118899   2.586   6.721   0.575
 6000SOL    HW218900   2.620   6.869   0.516
 6001SOL     OW18901   0.305   4.393   6.888
 6001SOL    HW118902   0.380   4.327   6.897
 6001SOL    HW218903   0.335   4.471   6.833
 6002SOL     OW18904   5.936   0.828   0.425
 6002SOL    HW118905   5.849   0.801   0.383
 6002SOL    HW218906   6.012   0.793   0.369
 6003SOL     OW18907   6.043   2.013   4.802
 6003SOL    HW118908   6.100   2.012   4.721
 6003SOL    HW218909   6.082   1.953   4.872
 6004SOL     OW18910   6.642   3.611   2.848
 6004SOL    HW118911   6.545   3.591   2.859
 6004SOL    HW218912   6.696   3.532   2.877
 6005SOL     OW18913   4.742   4.917   4.287
 6005SOL    HW118914   4.713   5.013   4.286
 6005SOL    HW218915   4.661   4.859   4.293
 6006SOL     OW18916   2.636   1.291   5.203
 6006SOL    HW118917   2.735   1.299   5.209
 6006SOL    HW218918   2.604   1.225   5.272
 6007SOL     OW18919   5.336   4.021   5.841
 6007SOL    HW118920   5.405   4.040   5.771
 6007SOL    HW218921   5.287   3.937   5.817
 6008SOL     OW18922   2.401   4.444   5.137
 6008SOL    HW118923   2.426   4.364   5.192
 6008SOL    HW218924   2.309   4.474   5.162
 6009SOL     OW18925   2.266   1.064   3.203
 6009SOL    HW118926   2.168   1.061   3.223
 6009SOL    HW218927   2.298   1.159   3.207
 6010SOL     OW18928   1.065   5.077   4.335
 6010SOL    HW118929   1.084   4.992   4.285
 6010SOL    HW218930   1.140   5.096   4.399
 6011SOL     OW18931   5.272   2.912   2.970
 6011SOL    HW118932   5.260   2.843   3.042
 6011SOL    HW218933   5.326   2.872   2.895
 6012SOL     OW18934   5.684   0.851   0.305
 6012SOL    HW118935   5.647   0.919   0.369
 6012SOL    HW218936   5.609   0.801   0.263
 6013SOL     OW18937   5.150   2.185   2.529
 6013SOL    HW118938   5.235   2.153   2.572
 6013SOL    HW218939   5.075   2.177   2.594
 6014SOL     OW18940   3.987   3.420   2.843
 6014SOL    HW118941   4.031   3.357   2.780
 6014SOL    HW218942   3.906   3.377   2.882
 6015SOL     OW18943   6.407   3.713   4.360
 6015SOL    HW118944   6.342   3.733   4.286
 6015SOL    HW218945   6.369   3.742   4.447
 6016SOL     OW18946   6.543   1.723   5.503
 6016SOL    HW118947   6.600   1.649   5.466
 6016SOL    HW218948   6.520   1.787   5.429
 6017SOL     OW18949   6.611   4.632   3.778
 6017SOL    HW118950   6.613   4.561   3.848
 6017SOL    HW218951   6.532   4.692   3.792
 6018SOL     OW18952   4.094   0.473   6.206
 6018SOL    HW118953   4.141   0.445   6.290
 6018SOL    HW218954   4.015   0.415   6.190
 6019SOL     OW18955   0.570   2.897   4.136
 6019SOL    HW118956   0.639   2.837   4.177
 6019SOL    HW218957   0.527   2.952   4.208
 6020SOL     OW18958   0.897   4.995   0.887
 6020SOL    HW118959   0.960   4.996   0.964
 6020SOL    HW218960   0.890   4.903   0.849
 6021SOL     OW18961   4.371   0.414   2.673
 6021SOL    HW118962   4.326   0.501   2.691
 6021SOL    HW218963   4.460   0.411   2.719
 6022SOL     OW18964   5.504   1.507   4.053
 6022SOL    HW118965   5.527   1.443   3.981
 6022SOL    HW218966   5.407   1.498   4.077
 6023SOL     OW18967   5.752   1.345   1.570
 6023SOL    HW118968   5.700   1.339   1.485
 6023SOL    HW218969   5.835   1.289   1.563
 6024SOL     OW18970   1.893   4.650   2.833
 6024SOL    HW118971   1.859   4.556   2.830
 6024SOL    HW218972   1.889   4.684   2.927
 6025SOL     OW18973   3.922   1.667   3.422
 6025SOL    HW118974   3.862   1.708   3.491
 6025SOL    HW218975   3.993   1.732   3.397
 6026SOL     OW18976   6.862   4.128   5.520
 6026SOL    HW118977   6.799   4.203   5.534
 6026SOL    HW218978   6.941   4.138   5.581
 6027SOL     OW18979   0.513   2.997   5.765
 6027SOL    HW118980   0.542   3.028   5.856
 6027SOL    HW218981   0.546   3.061   5.696
 6028SOL     OW18982   6.643   4.972   0.424
 6028SOL    HW118983   6.734   4.946   0.457
 6028SOL    HW218984   6.579   4.973   0.501
 6029SOL     OW18985   2.234   6.914   5.031
 6029SOL    HW118986   2.204   6.968   4.953
 6029SOL    HW218987   2.216   6.817   5.014
 6030SOL     OW18988   4.068   5.395   2.391
 6030SOL    HW118989   4.105   5.483   2.421
 6030SOL    HW218990   3.970   5.405   2.374
 6031SOL     OW18991   2.728   5.538   4.228
 6031SOL    HW118992   2.802   5.525   4.294
 6031SOL    HW218993   2.671   5.615   4.256
 6032SOL     OW18994   2.404   4.550   2.678
 6032SOL    HW118995   2.451   4.558   2.590
 6032SOL    HW218996   2.406   4.638   2.725
 6033SOL     OW18997   2.550   2.021   2.789
 6033SOL    HW118998   2.621   1.950   2.794
 6033SOL    HW218999   2.590   2.105   2.753
 6034SOL     OW19000   1.406   6.999   5.098
 6034SOL    HW119001   1.366   7.022   5.187
 6034SOL    HW219002   1.504   7.022   5.098
 6035SOL     OW19003   0.464   1.472   2.027
 6035SOL    HW119004   0.384   1.425   1.989
 6035SOL    HW219005   0.435   1.535   2.099
 6036SOL     OW19006   4.899   4.729   3.259
 6036SOL    HW119007   4.967   4.748   3.189
 6036SOL    HW219008   4.833   4.662   3.225
 6037SOL     OW19009   4.503   6.272   0.102
 6037SOL    HW119010   4.537   6.194   0.154
 6037SOL    HW219011   4.568   6.348   0.110
 6038SOL     OW19012   1.961   2.856   5.888
 6038SOL    HW119013   1.913   2.770   5.867
 6038SOL    HW219014   1.940   2.883   5.982
 6039SOL     OW19015   3.037   3.093   2.999
 6039SOL    HW119016   3.026   3.127   3.092
 6039SOL    HW219017   3.116   3.031   2.995
 6040SOL     OW19018   1.328   1.604   0.424
 6040SOL    HW119019   1.286   1.591   0.514
 6040SOL    HW219020   1.363   1.698   0.417
 6041SOL     OW19021   2.813   0.297   4.988
 6041SOL    HW119022   2.816   0.396   4.972
 6041SOL    HW219023   2.718   0.267   4.993
 6042SOL     OW19024   4.490   6.332   2.503
 6042SOL    HW119025   4.501   6.320   2.602
 6042SOL    HW219026   4.413   6.392   2.485
 6043SOL     OW19027   1.072   5.280   5.637
 6043SOL    HW119028   1.004   5.207   5.642
 6043SOL    HW219029   1.066   5.337   5.718
 6044SOL     OW19030   1.336   2.714   1.363
 6044SOL    HW119031   1.416   2.768   1.336
 6044SOL    HW219032   1.253   2.764   1.340
 6045SOL     OW19033   6.011   4.174   2.420
 6045SOL    HW119034   6.063   4.173   2.335
 6045SOL    HW219035   5.999   4.080   2.453
 6046SOL     OW19036   3.694   2.175   0.138
 6046SOL    HW119037   3.644   2.141   0.217
 6046SOL    HW219038   3.760   2.106   0.108
 6047SOL     OW19039   5.051   1.608   1.876
 6047SOL    HW119040   5.032   1.688   1.820
 6047SOL    HW219041   5.059   1.635   1.972
 6048SOL     OW19042   4.732   5.246   5.557
 6048SOL    HW119043   4.771   5.318   5.615
 6048SOL    HW219044   4.702   5.286   5.471
 6049SOL     OW19045   5.135   3.625   0.255
 6049SOL    HW119046   5.216   3.592   0.206
 6049SOL    HW219047   5.116   3.720   0.229
 6050SOL     OW19048   3.408   5.679   5.791
 6050SOL    HW119049   3.392   5.586   5.757
 6050SOL    HW219050   3.505   5.693   5.805
 6051SOL     OW19051   1.940   6.151   3.761
 6051SOL    HW119052   1.904   6.242   3.780
 6051SOL    HW219053   2.030   6.160   3.718
 6052SOL     OW19054   5.855   1.219   0.375
 6052SOL    HW119055   5.808   1.289   0.322
 6052SOL    HW219056   5.944   1.199   0.333
 6053SOL     OW19057   4.113   1.322   6.776
 6053SOL    HW119058   4.111   1.421   6.795
 6053SOL    HW219059   4.062   1.303   6.692
 6054SOL     OW19060   2.062   3.563   7.003
 6054SOL    HW119061   2.148   3.571   6.954
 6054SOL    HW219062   2.079   3.566   0.075
 6055SOL     OW19063   4.965   6.802   5.365
 6055SOL    HW119064   4.971   6.814   5.266
 6055SOL    HW219065   5.019   6.723   5.392
 6056SOL     OW19066   4.847   3.247   4.507
 6056SOL    HW119067   4.862   3.176   4.575
 6056SOL    HW219068   4.816   3.331   4.553
 6057SOL     OW19069   6.284   2.019   2.888
 6057SOL    HW119070   6.325   2.087   2.948
 6057SOL    HW219071   6.352   1.950   2.864
 6058SOL     OW19072   4.699   3.476   1.522
 6058SOL    HW119073   4.662   3.403   1.580
 6058SOL    HW219074   4.658   3.563   1.547
 6059SOL     OW19075   5.058   4.830   5.835
 6059SOL    HW119076   5.107   4.809   5.750
 6059SOL    HW219077   4.990   4.902   5.818
 6060SOL     OW19078   2.666   3.536   6.389
 6060SOL    HW119079   2.621   3.463   6.338
 6060SOL    HW219080   2.625   3.543   6.480
 6061SOL     OW19081   3.368   3.026   0.803
 6061SOL    HW119082   3.368   3.056   0.899
 6061SOL    HW219083   3.436   3.078   0.752
 6062SOL     OW19084   2.329   1.130   5.270
 6062SOL    HW119085   2.262   1.203   5.268
 6062SOL    HW219086   2.382   1.135   5.355
 6063SOL     OW19087   4.154   2.819   6.093
 6063SOL    HW119088   4.090   2.757   6.136
 6063SOL    HW219089   4.114   2.911   6.089
 6064SOL     OW19090   0.993   6.114   1.290
 6064SOL    HW119091   1.046   6.098   1.373
 6064SOL    HW219092   0.898   6.087   1.305
 6065SOL     OW19093   0.822   6.574   2.291
 6065SOL    HW119094   0.828   6.518   2.208
 6065SOL    HW219095   0.914   6.596   2.324
 6066SOL     OW19096   4.793   1.534   6.186
 6066SOL    HW119097   4.875   1.481   6.209
 6066SOL    HW219098   4.821   1.620   6.143
 6067SOL     OW19099   5.519   0.988   5.394
 6067SOL    HW119100   5.467   0.904   5.404
 6067SOL    HW219101   5.506   1.025   5.302
 6068SOL     OW19102   5.123   3.318   4.867
 6068SOL    HW119103   5.053   3.273   4.921
 6068SOL    HW219104   5.089   3.405   4.833
 6069SOL     OW19105   5.983   2.969   5.215
 6069SOL    HW119106   6.070   2.974   5.265
 6069SOL    HW219107   5.980   2.883   5.163
 6070SOL     OW19108   2.604   2.648   0.883
 6070SOL    HW119109   2.643   2.648   0.975
 6070SOL    HW219110   2.592   2.553   0.852
 6071SOL     OW19111   5.629   5.565   4.642
 6071SOL    HW119112   5.673   5.586   4.555
 6071SOL    HW219113   5.537   5.604   4.643
 6072SOL     OW19114   6.574   0.154   1.377
 6072SOL    HW119115   6.599   0.112   1.464
 6072SOL    HW219116   6.630   0.235   1.363
 6073SOL     OW19117   5.758   3.225   6.985
 6073SOL    HW119118   5.844   3.194   7.025
 6073SOL    HW219119   5.738   3.173   6.902
 6074SOL     OW19120   0.790   6.031   2.602
 6074SOL    HW119121   0.818   6.054   2.509
 6074SOL    HW219122   0.843   5.953   2.635
 6075SOL     OW19123   5.593   0.855   5.729
 6075SOL    HW119124   5.677   0.816   5.767
 6075SOL    HW219125   5.611   0.949   5.700
 6076SOL     OW19126   3.125   5.509   4.164
 6076SOL    HW119127   3.029   5.534   4.158
 6076SOL    HW219128   3.154   5.508   4.260
 6077SOL     OW19129   6.143   5.731   0.986
 6077SOL    HW119130   6.242   5.736   0.984
 6077SOL    HW219131   6.106   5.773   0.903
 6078SOL     OW19132   4.790   4.897   0.772
 6078SOL    HW119133   4.725   4.955   0.820
 6078SOL    HW219134   4.883   4.931   0.788
 6079SOL     OW19135   4.448   3.914   5.997
 6079SOL    HW119136   4.529   3.954   5.954
 6079SOL    HW219137   4.458   3.815   6.001
 6080SOL     OW19138   0.171   6.523   1.389
 6080SOL    HW119139   0.084   6.514   1.341
 6080SOL    HW219140   0.175   6.612   1.435
 6081SOL     OW19141   6.642   2.822   5.250
 6081SOL    HW119142   6.689   2.845   5.335
 6081SOL    HW219143   6.677   2.879   5.176
 6082SOL     OW19144   1.913   1.331   3.603
 6082SOL    HW119145   1.985   1.343   3.535
 6082SOL    HW219146   1.901   1.415   3.656
 6083SOL     OW19147   6.286   5.990   0.181
 6083SOL    HW119148   6.337   5.951   0.257
 6083SOL    HW219149   6.202   6.032   0.216
 6084SOL     OW19150   0.579   6.912   3.486
 6084SOL    HW119151   0.532   6.914   3.575
 6084SOL    HW219152   0.513   6.934   3.414
 6085SOL     OW19153   6.903   6.097   0.482
 6085SOL    HW119154   6.992   6.063   0.451
 6085SOL    HW219155   6.912   6.192   0.512
 6086SOL     OW19156   3.412   1.092   6.056
 6086SOL    HW119157   3.332   1.099   5.996
 6086SOL    HW219158   3.492   1.127   6.009
 6087SOL     OW19159   3.579   5.639   1.245
 6087SOL    HW119160   3.572   5.603   1.338
 6087SOL    HW219161   3.488   5.649   1.206
 6088SOL     OW19162   5.373   5.960   4.455
 6088SOL    HW119163   5.297   5.950   4.391
 6088SOL    HW219164   5.383   6.056   4.480
 6089SOL     OW19165   5.196   3.156   1.863
 6089SOL    HW119166   5.104   3.155   1.903
 6089SOL    HW219167   5.201   3.088   1.790
 6090SOL     OW19168   2.248   5.589   5.336
 6090SOL    HW119169   2.327   5.605   5.276
 6090SOL    HW219170   2.224   5.674   5.383
 6091SOL     OW19171   1.922   1.118   0.339
 6091SOL    HW119172   1.858   1.187   0.304
 6091SOL    HW219173   1.934   1.046   0.270
 6092SOL     OW19174   4.200   0.145   2.300
 6092SOL    HW119175   4.246   0.162   2.387
 6092SOL    HW219176   4.107   0.112   2.317
 6093SOL     OW19177   2.001   3.373   1.835
 6093SOL    HW119178   2.001   3.281   1.872
 6093SOL    HW219179   2.059   3.432   1.891
 6094SOL     OW19180   2.408   6.616   1.935
 6094SOL    HW119181   2.369   6.566   1.859
 6094SOL    HW219182   2.346   6.689   1.963
 6095SOL     OW19183   5.302   4.011   0.836
 6095SOL    HW119184   5.328   4.016   0.932
 6095SOL    HW219185   5.358   4.074   0.783
 6096SOL     OW19186   6.211   6.409   4.046
 6096SOL    HW119187   6.158   6.489   4.019
 6096SOL    HW219188   6.158   6.354   4.111
 6097SOL     OW19189   2.128   5.733   1.952
 6097SOL    HW119190   2.105   5.830   1.949
 6097SOL    HW219191   2.228   5.723   1.946
 6098SOL     OW19192   1.590   1.657   5.294
 6098SOL    HW119193   1.661   1.689   5.231
 6098SOL    HW219194   1.500   1.668   5.251
 6099SOL     OW19195   5.916   6.302   0.178
 6099SOL    HW119196   5.877   6.254   0.100
 6099SOL    HW219197   5.901   6.400   0.169
 6100SOL     OW19198   5.563   6.102   0.750
 6100SOL    HW119199   5.525   6.151   0.828
 6100SOL    HW219200   5.490   6.056   0.700
 6101SOL     OW19201   6.458   3.210   4.141
 6101SOL    HW119202   6.364   3.243   4.147
 6101SOL    HW219203   6.520   3.288   4.132
 6102SOL     OW19204   3.227   6.415   2.961
 6102SOL    HW119205   3.259   6.321   2.953
 6102SOL    HW219206   3.260   6.468   2.883
 6103SOL     OW19207   6.533   1.963   1.506
 6103SOL    HW119208   6.552   1.926   1.415
 6103SOL    HW219209   6.459   1.910   1.548
 6104SOL     OW19210   6.115   0.818   5.351
 6104SOL    HW119211   6.148   0.894   5.407
 6104SOL    HW219212   6.191   0.779   5.299
 6105SOL     OW19213   3.530   6.432   6.861
 6105SOL    HW119214   3.483   6.348   6.834
 6105SOL    HW219215   3.479   6.511   6.826
 6106SOL     OW19216   1.480   3.915   6.831
 6106SOL    HW119217   1.416   3.883   6.761
 6106SOL    HW219218   1.571   3.922   6.792
 6107SOL     OW19219   4.027   5.374   4.441
 6107SOL    HW119220   4.095   5.416   4.381
 6107SOL    HW219221   3.935   5.401   4.411
 6108SOL     OW19222   1.964   3.088   1.871
 6108SOL    HW119223   2.056   3.075   1.908
 6108SOL    HW219224   1.944   3.016   1.804
 6109SOL     OW19225   5.988   2.084   5.209
 6109SOL    HW119226   5.986   1.986   5.187
 6109SOL    HW219227   6.082   2.112   5.228
 6110SOL     OW19228   3.789   4.079   0.631
 6110SOL    HW119229   3.773   3.988   0.593
 6110SOL    HW219230   3.785   4.147   0.558
 6111SOL     OW19231   1.904   4.202   2.458
 6111SOL    HW119232   1.864   4.137   2.393
 6111SOL    HW219233   1.845   4.207   2.539
 6112SOL     OW19234   3.527   0.327   2.281
 6112SOL    HW119235   3.576   0.257   2.229
 6112SOL    HW219236   3.576   0.414   2.273
 6113SOL     OW19237   2.702   1.072   6.745
 6113SOL    HW119238   2.672   0.992   6.797
 6113SOL    HW219239   2.641   1.086   6.667
 6114SOL     OW19240   5.202   4.998   1.605
 6114SOL    HW119241   5.265   5.049   1.664
 6114SOL    HW219242   5.179   4.911   1.648
 6115SOL     OW19243   5.526   0.080   4.184
 6115SOL    HW119244   5.609   0.065   4.131
 6115SOL    HW219245   5.492   0.172   4.168
 6116SOL     OW19246   3.964   1.467   6.064
 6116SOL    HW119247   3.968   1.395   6.134
 6116SOL    HW219248   3.971   1.556   6.107
 6117SOL     OW19249   1.590   1.303   3.239
 6117SOL    HW119250   1.658   1.317   3.168
 6117SOL    HW219251   1.551   1.211   3.231
 6118SOL     OW19252   0.098   1.002   2.424
 6118SOL    HW119253   0.129   1.091   2.457
 6118SOL    HW219254   0.022   1.015   2.361
 6119SOL     OW19255   0.715   3.898   6.656
 6119SOL    HW119256   0.653   3.893   6.578
 6119SOL    HW219257   0.774   3.978   6.648
 6120SOL     OW19258   3.406   6.395   5.126
 6120SOL    HW119259   3.360   6.409   5.214
 6120SOL    HW219260   3.339   6.362   5.059
 6121SOL     OW19261   0.759   3.535   5.660
 6121SOL    HW119262   0.823   3.475   5.708
 6121SOL    HW219263   0.712   3.594   5.726
 6122SOL     OW19264   4.211   5.322   0.571
 6122SOL    HW119265   4.205   5.225   0.595
 6122SOL    HW219266   4.279   5.367   0.629
 6123SOL     OW19267   5.338   6.953   6.811
 6123SOL    HW119268   5.324   6.876   6.749
 6123SOL    HW219269   5.270   7.024   6.792
 6124SOL     OW19270   2.150   6.986   5.991
 6124SOL    HW119271   2.137   6.969   5.893
 6124SOL    HW219272   2.088   0.032   6.021
 6125SOL     OW19273   1.988   4.772   0.473
 6125SOL    HW119274   1.903   4.816   0.441
 6125SOL    HW219275   2.020   4.707   0.404
 6126SOL     OW19276   1.200   0.073   4.367
 6126SOL    HW119277   1.142   0.153   4.351
 6126SOL    HW219278   1.144   7.022   4.394
 6127SOL     OW19279   3.118   0.432   0.860
 6127SOL    HW119280   3.101   0.456   0.765
 6127SOL    HW219281   3.033   0.399   0.902
 6128SOL     OW19282   5.736   3.900   0.191
 6128SOL    HW119283   5.814   3.955   0.218
 6128SOL    HW219284   5.683   3.874   0.272
 6129SOL     OW19285   6.833   3.381   3.216
 6129SOL    HW119286   6.788   3.470   3.208
 6129SOL    HW219287   6.853   3.362   3.313
 6130SOL     OW19288   5.820   2.299   2.665
 6130SOL    HW119289   5.732   2.317   2.622
 6130SOL    HW219290   5.821   2.339   2.757
 6131SOL     OW19291   0.400   1.341   5.340
 6131SOL    HW119292   0.453   1.274   5.392
 6131SOL    HW219293   0.350   1.295   5.267
 6132SOL     OW19294   4.685   1.960   0.213
 6132SOL    HW119295   4.759   1.984   0.276
 6132SOL    HW219296   4.722   1.907   0.137
 6133SOL     OW19297   1.748   3.163   2.038
 6133SOL    HW119298   1.819   3.142   1.969
 6133SOL    HW219299   1.692   3.238   2.005
 6134SOL     OW19300   3.935   4.954   6.443
 6134SOL    HW119301   3.891   4.986   6.527
 6134SOL    HW219302   4.000   5.024   6.411
 6135SOL     OW19303   0.476   0.776   1.118
 6135SOL    HW119304   0.533   0.748   1.194
 6135SOL    HW219305   0.532   0.785   1.035
 6136SOL     OW19306   1.057   3.065   2.173
 6136SOL    HW119307   1.057   3.115   2.260
 6136SOL    HW219308   1.058   3.130   2.097
 6137SOL     OW19309   6.615   3.104   2.898
 6137SOL    HW119310   6.661   3.191   2.913
 6137SOL    HW219311   6.660   3.032   2.952
 6138SOL     OW19312   3.661   6.350   2.838
 6138SOL    HW119313   3.724   6.341   2.761
 6138SOL    HW219314   3.686   6.284   2.909
 6139SOL     OW19315   1.437   0.177   5.988
 6139SOL    HW119316   1.455   0.219   6.077
 6139SOL    HW219317   1.509   0.202   5.924
 6140SOL     OW19318   0.822   6.170   1.923
 6140SOL    HW119319   0.859   6.242   1.863
 6140SOL    HW219320   0.807   6.087   1.869
 6141SOL     OW19321   0.232   6.519   6.611
 6141SOL    HW119322   0.226   6.514   6.511
 6141SOL    HW219323   0.163   6.459   6.651
 6142SOL     OW19324   1.138   6.625   0.042
 6142SOL    HW119325   1.211   6.668   0.094
 6142SOL    HW219326   1.093   6.555   0.098
 6143SOL     OW19327   6.901   3.650   1.449
 6143SOL    HW119328   6.838   3.671   1.375
 6143SOL    HW219329   6.871   3.566   1.496
 6144SOL     OW19330   5.490   4.467   3.035
 6144SOL    HW119331   5.448   4.550   3.071
 6144SOL    HW219332   5.420   4.406   2.999
 6145SOL     OW19333   4.714   5.181   2.893
 6145SOL    HW119334   4.738   5.267   2.848
 6145SOL    HW219335   4.619   5.183   2.922
 6146SOL     OW19336   3.103   5.879   4.031
 6146SOL    HW119337   3.083   5.947   4.101
 6146SOL    HW219338   3.202   5.868   4.022
 6147SOL     OW19339   2.004   2.212   4.610
 6147SOL    HW119340   2.040   2.289   4.558
 6147SOL    HW219341   2.058   2.200   4.693
 6148SOL     OW19342   5.309   6.550   4.966
 6148SOL    HW119343   5.313   6.479   4.895
 6148SOL    HW219344   5.367   6.627   4.940
 6149SOL     OW19345   2.745   5.928   1.131
 6149SOL    HW119346   2.717   6.023   1.121
 6149SOL    HW219347   2.690   5.884   1.203
 6150SOL     OW19348   4.292   5.484   6.706
 6150SOL    HW119349   4.225   5.504   6.635
 6150SOL    HW219350   4.381   5.466   6.663
 6151SOL     OW19351   6.252   4.274   6.108
 6151SOL    HW119352   6.345   4.255   6.077
 6151SOL    HW219353   6.255   4.318   6.198
 6152SOL     OW19354   6.325   5.009   4.517
 6152SOL    HW119355   6.350   5.098   4.555
 6152SOL    HW219356   6.369   4.997   4.428
 6153SOL     OW19357   5.050   4.471   1.414
 6153SOL    HW119358   5.044   4.422   1.501
 6153SOL    HW219359   5.131   4.441   1.364
 6154SOL     OW19360   5.652   2.008   2.759
 6154SOL    HW119361   5.590   2.003   2.837
 6154SOL    HW219362   5.720   1.935   2.765
 6155SOL     OW19363   1.778   1.688   3.908
 6155SOL    HW119364   1.792   1.700   4.006
 6155SOL    HW219365   1.833   1.611   3.875
 6156SOL     OW19366   4.140   4.133   1.366
 6156SOL    HW119367   4.108   4.191   1.292
 6156SOL    HW219368   4.098   4.162   1.452
 6157SOL     OW19369   0.352   0.958   4.888
 6157SOL    HW119370   0.354   1.007   4.801
 6157SOL    HW219371   0.422   0.995   4.949
 6158SOL     OW19372   3.440   2.151   5.711
 6158SOL    HW119373   3.526   2.182   5.752
 6158SOL    HW219374   3.450   2.146   5.612
 6159SOL     OW19375   5.405   2.772   2.311
 6159SOL    HW119376   5.399   2.846   2.244
 6159SOL    HW219377   5.431   2.687   2.264
 6160SOL     OW19378   4.844   1.604   6.646
 6160SOL    HW119379   4.930   1.646   6.619
 6160SOL    HW219380   4.776   1.676   6.662
 6161SOL     OW19381   4.794   1.372   5.053
 6161SOL    HW119382   4.704   1.346   5.016
 6161SOL    HW219383   4.783   1.450   5.116
 6162SOL     OW19384   0.642   6.038   3.321
 6162SOL    HW119385   0.726   6.002   3.281
 6162SOL    HW219386   0.592   6.091   3.252
 6163SOL     OW19387   6.503   6.780   1.069
 6163SOL    HW119388   6.512   6.874   1.102
 6163SOL    HW219389   6.553   6.769   0.983
 6164SOL     OW19390   4.103   3.814   2.244
 6164SOL    HW119391   4.100   3.846   2.149
 6164SOL    HW219392   4.198   3.818   2.277
 6165SOL     OW19393   4.946   1.474   6.965
 6165SOL    HW119394   4.957   1.389   6.913
 6165SOL    HW219395   5.004   1.545   6.924
 6166SOL     OW19396   5.414   1.489   6.517
 6166SOL    HW119397   5.488   1.514   6.455
 6166SOL    HW219398   5.450   1.480   6.610
 6167SOL     OW19399   1.300   5.528   3.335
 6167SOL    HW119400   1.254   5.464   3.272
 6167SOL    HW219401   1.270   5.510   3.428
 6168SOL     OW19402   1.697   4.001   1.935
 6168SOL    HW119403   1.782   3.961   1.969
 6168SOL    HW219404   1.718   4.073   1.868
 6169SOL     OW19405   1.043   2.518   0.301
 6169SOL    HW119406   1.110   2.503   0.373
 6169SOL    HW219407   1.085   2.566   0.225
 6170SOL     OW19408   1.438   3.907   5.375
 6170SOL    HW119409   1.402   3.963   5.300
 6170SOL    HW219410   1.434   3.960   5.460
 6171SOL     OW19411   0.617   3.050   0.620
 6171SOL    HW119412   0.664   2.993   0.553
 6171SOL    HW219413   0.528   3.078   0.583
 6172SOL     OW19414   1.786   2.830   2.395
 6172SOL    HW119415   1.861   2.790   2.448
 6172SOL    HW219416   1.818   2.848   2.302
 6173SOL     OW19417   6.772   5.686   1.662
 6173SOL    HW119418   6.759   5.599   1.615
 6173SOL    HW219419   6.776   5.670   1.761
 6174SOL     OW19420   5.728   4.841   3.686
 6174SOL    HW119421   5.676   4.913   3.641
 6174SOL    HW219422   5.724   4.757   3.630
 6175SOL     OW19423   4.459   0.723   3.713
 6175SOL    HW119424   4.379   0.774   3.681
 6175SOL    HW219425   4.458   0.718   3.813
 6176SOL     OW19426   4.960   4.039   6.212
 6176SOL    HW119427   4.908   4.084   6.284
 6176SOL    HW219428   4.909   3.959   6.179
 6177SOL     OW19429   5.619   0.908   1.193
 6177SOL    HW119430   5.624   0.995   1.143
 6177SOL    HW219431   5.575   0.924   1.282
 6178SOL     OW19432   4.811   5.018   2.592
 6178SOL    HW119433   4.755   5.025   2.509
 6178SOL    HW219434   4.887   4.956   2.575
 6179SOL     OW19435   6.564   4.193   3.353
 6179SOL    HW119436   6.570   4.197   3.452
 6179SOL    HW219437   6.650   4.159   3.315
 6180SOL     OW19438   3.283   4.306   0.213
 6180SOL    HW119439   3.299   4.355   0.128
 6180SOL    HW219440   3.257   4.371   0.285
 6181SOL     OW19441   4.335   6.730   1.044
 6181SOL    HW119442   4.249   6.703   1.001
 6181SOL    HW219443   4.344   6.685   1.133
 6182SOL     OW19444   5.360   3.566   5.448
 6182SOL    HW119445   5.305   3.573   5.364
 6182SOL    HW219446   5.457   3.559   5.423
 6183SOL     OW19447   1.210   2.359   2.961
 6183SOL    HW119448   1.115   2.382   2.984
 6183SOL    HW219449   1.241   2.285   3.021
 6184SOL     OW19450   2.042   6.943   6.601
 6184SOL    HW119451   2.049   7.025   6.545
 6184SOL    HW219452   1.952   6.939   6.644
 6185SOL     OW19453   0.945   3.808   5.749
 6185SOL    HW119454   0.957   3.731   5.812
 6185SOL    HW219455   0.969   3.778   5.656
 6186SOL     OW19456   0.338   0.253   0.010
 6186SOL    HW119457   0.309   0.246   0.106
 6186SOL    HW219458   0.292   0.329   6.993
 6187SOL     OW19459   4.997   4.801   3.642
 6187SOL    HW119460   4.907   4.788   3.600
 6187SOL    HW219461   5.032   4.892   3.619
 6188SOL     OW19462   2.209   0.844   0.738
 6188SOL    HW119463   2.306   0.852   0.762
 6188SOL    HW219464   2.186   0.912   0.669
 6189SOL     OW19465   4.694   4.567   3.205
 6189SOL    HW119466   4.672   4.591   3.110
 6189SOL    HW219467   4.629   4.612   3.267
 6190SOL     OW19468   0.834   4.062   5.578
 6190SOL    HW119469   0.861   4.153   5.546
 6190SOL    HW219470   0.917   4.006   5.590
 6191SOL     OW19471   3.106   1.775   0.140
 6191SOL    HW119472   3.093   1.868   0.106
 6191SOL    HW219473   3.029   1.750   0.199
 6192SOL     OW19474   3.505   2.605   5.622
 6192SOL    HW119475   3.482   2.546   5.544
 6192SOL    HW219476   3.572   2.673   5.593
 6193SOL     OW19477   4.918   0.572   1.985
 6193SOL    HW119478   4.832   0.532   1.953
 6193SOL    HW219479   4.923   0.563   2.085
 6194SOL     OW19480   1.534   0.047   1.914
 6194SOL    HW119481   1.609   0.107   1.886
 6194SOL    HW219482   1.485   0.090   1.990
 6195SOL     OW19483   3.815   6.277   5.855
 6195SOL    HW119484   3.831   6.188   5.813
 6195SOL    HW219485   3.738   6.322   5.810
 6196SOL     OW19486   5.669   2.994   1.552
 6196SOL    HW119487   5.603   3.014   1.624
 6196SOL    HW219488   5.682   3.077   1.496
 6197SOL     OW19489   3.995   4.740   0.916
 6197SOL    HW119490   3.938   4.730   0.835
 6197SOL    HW219491   4.050   4.657   0.930
 6198SOL     OW19492   4.092   6.358   2.005
 6198SOL    HW119493   4.086   6.448   1.961
 6198SOL    HW219494   4.070   6.287   1.938
 6199SOL     OW19495   0.930   1.246   0.275
 6199SOL    HW119496   0.872   1.202   0.343
 6199SOL    HW219497   0.897   1.338   0.256
 6200SOL     OW19498   1.588   1.304   5.969
 6200SOL    HW119499   1.543   1.237   5.909
 6200SOL    HW219500   1.520   1.345   6.030
 6201SOL     OW19501   0.795   3.879   4.864
 6201SOL    HW119502   0.874   3.895   4.922
 6201SOL    HW219503   0.824   3.835   4.779
 6202SOL     OW19504   3.889   1.449   2.425
 6202SOL    HW119505   3.877   1.544   2.396
 6202SOL    HW219506   3.802   1.401   2.419
 6203SOL     OW19507   7.019   6.114   2.482
 6203SOL    HW119508   0.034   6.024   2.468
 6203SOL    HW219509   0.037   6.180   2.421
 6204SOL     OW19510   0.672   4.811   4.587
 6204SOL    HW119511   0.650   4.908   4.590
 6204SOL    HW219512   0.660   4.777   4.493
 6205SOL     OW19513   6.392   5.639   0.131
 6205SOL    HW119514   6.355   5.556   0.090
 6205SOL    HW219515   6.371   5.717   0.073
 6206SOL     OW19516   6.081   1.885   3.420
 6206SOL    HW119517   6.000   1.887   3.361
 6206SOL    HW219518   6.130   1.799   3.407
 6207SOL     OW19519   0.367   4.793   4.896
 6207SOL    HW119520   0.414   4.729   4.957
 6207SOL    HW219521   0.385   4.768   4.801
 6208SOL     OW19522   5.347   2.403   5.816
 6208SOL    HW119523   5.333   2.501   5.808
 6208SOL    HW219524   5.367   2.364   5.726
 6209SOL     OW19525   4.051   5.786   6.465
 6209SOL    HW119526   4.139   5.785   6.513
 6209SOL    HW219527   3.996   5.863   6.499
 6210SOL     OW19528   5.497   3.472   3.815
 6210SOL    HW119529   5.495   3.407   3.739
 6210SOL    HW219530   5.481   3.424   3.901
 6211SOL     OW19531   2.977   6.420   5.720
 6211SOL    HW119532   2.937   6.511   5.706
 6211SOL    HW219533   3.000   6.380   5.631
 6212SOL     OW19534   2.181   5.376   4.355
 6212SOL    HW119535   2.190   5.431   4.438
 6212SOL    HW219536   2.270   5.337   4.331
 6213SOL     OW19537   6.601   0.494   0.422
 6213SOL    HW119538   6.585   0.533   0.513
 6213SOL    HW219539   6.699   0.490   0.404
 6214SOL     OW19540   4.457   4.918   4.250
 6214SOL    HW119541   4.409   4.977   4.316
 6214SOL    HW219542   4.421   4.936   4.158
 6215SOL     OW19543   4.013   2.209   0.353
 6215SOL    HW119544   4.087   2.148   0.380
 6215SOL    HW219545   3.995   2.197   0.255
 6216SOL     OW19546   6.118   1.487   2.151
 6216SOL    HW119547   6.164   1.409   2.192
 6216SOL    HW219548   6.076   1.460   2.064
 6217SOL     OW19549   0.583   3.473   2.565
 6217SOL    HW119550   0.624   3.534   2.633
 6217SOL    HW219551   0.547   3.391   2.611
 6218SOL     OW19552   3.945   6.026   6.925
 6218SOL    HW119553   3.949   5.927   6.912
 6218SOL    HW219554   4.022   6.070   6.880
 6219SOL     OW19555   1.579   2.189   4.389
 6219SOL    HW119556   1.482   2.173   4.409
 6219SOL    HW219557   1.622   2.237   4.465
 6220SOL     OW19558   2.574   1.584   4.466
 6220SOL    HW119559   2.492   1.638   4.481
 6220SOL    HW219560   2.551   1.502   4.413
 6221SOL     OW19561   5.812   5.958   6.938
 6221SOL    HW119562   5.848   5.953   0.004
 6221SOL    HW219563   5.821   5.869   6.894
 6222SOL     OW19564   1.125   6.238   1.717
 6222SOL    HW119565   1.026   6.253   1.718
 6222SOL    HW219566   1.172   6.318   1.754
 6223SOL     OW19567   1.119   4.951   3.915
 6223SOL    HW119568   1.106   4.929   4.012
 6223SOL    HW219569   1.038   4.925   3.864
 6224SOL     OW19570   3.144   1.498   5.856
 6224SOL    HW119571   3.114   1.494   5.951
 6224SOL    HW219572   3.140   1.407   5.815
 6225SOL     OW19573   4.148   3.539   6.879
 6225SOL    HW119574   4.210   3.542   6.800
 6225SOL    HW219575   4.143   3.445   6.914
 6226SOL     OW19576   0.384   1.952   5.715
 6226SOL    HW119577   0.405   2.003   5.632
 6226SOL    HW219578   0.469   1.919   5.756
 6227SOL     OW19579   3.273   5.532   5.208
 6227SOL    HW119580   3.261   5.437   5.235
 6227SOL    HW219581   3.212   5.554   5.132
 6228SOL     OW19582   1.249   3.463   2.255
 6228SOL    HW119583   1.161   3.423   2.282
 6228SOL    HW219584   1.268   3.542   2.314
 6229SOL     OW19585   0.640   2.214   3.448
 6229SOL    HW119586   0.682   2.148   3.511
 6229SOL    HW219587   0.541   2.211   3.457
 6230SOL     OW19588   0.466   1.814   3.247
 6230SOL    HW119589   0.404   1.881   3.288
 6230SOL    HW219590   0.517   1.857   3.172
 6231SOL     OW19591   6.329   6.301   0.589
 6231SOL    HW119592   6.244   6.342   0.557
 6231SOL    HW219593   6.309   6.218   0.641
 6232SOL     OW19594   6.640   1.330   0.726
 6232SOL    HW119595   6.609   1.284   0.643
 6232SOL    HW219596   6.731   1.297   0.751
 6233SOL     OW19597   6.857   1.975   1.104
 6233SOL    HW119598   6.790   1.901   1.110
 6233SOL    HW219599   6.917   1.959   1.026
 6234SOL     OW19600   6.821   1.109   5.537
 6234SOL    HW119601   6.843   1.014   5.518
 6234SOL    HW219602   6.830   1.126   5.636
 6235SOL     OW19603   0.075   6.981   0.997
 6235SOL    HW119604   0.149   6.920   1.026
 6235SOL    HW219605   0.025   7.014   1.077
 6236SOL     OW19606   0.835   4.078   1.084
 6236SOL    HW119607   0.754   4.116   1.128
 6236SOL    HW219608   0.869   4.143   1.016
 6237SOL     OW19609   3.810   0.393   6.157
 6237SOL    HW119610   3.800   0.347   6.069
 6237SOL    HW219611   3.728   0.447   6.175
 6238SOL     OW19612   4.048   5.237   2.607
 6238SOL    HW119613   4.078   5.297   2.533
 6238SOL    HW219614   4.042   5.290   2.692
 6239SOL     OW19615   2.884   0.906   1.608
 6239SOL    HW119616   2.935   0.863   1.533
 6239SOL    HW219617   2.794   0.935   1.575
 6240SOL     OW19618   2.157   3.578   5.510
 6240SOL    HW119619   2.132   3.482   5.494
 6240SOL    HW219620   2.157   3.628   5.424
 6241SOL     OW19621   3.012   0.076   1.679
 6241SOL    HW119622   2.920   0.063   1.643
 6241SOL    HW219623   3.008   0.093   1.777
 6242SOL     OW19624   4.138   0.625   4.300
 6242SOL    HW119625   4.092   0.652   4.215
 6242SOL    HW219626   4.090   0.549   4.342
 6243SOL     OW19627   6.475   6.708   5.234
 6243SOL    HW119628   6.514   6.652   5.161
 6243SOL    HW219629   6.491   6.804   5.214
 6244SOL     OW19630   6.288   2.673   2.559
 6244SOL    HW119631   6.261   2.606   2.490
 6244SOL    HW219632   6.280   2.631   2.650
 6245SOL     OW19633   1.640   4.015   0.270
 6245SOL    HW119634   1.563   4.021   0.206
 6245SOL    HW219635   1.722   3.984   0.221
 6246SOL     OW19636   1.592   2.242   5.600
 6246SOL    HW119637   1.556   2.317   5.545
 6246SOL    HW219638   1.591   2.268   5.697
 6247SOL     OW19639   0.221   5.442   4.312
 6247SOL    HW119640   0.300   5.499   4.290
 6247SOL    HW219641   0.177   5.412   4.228
 6248SOL     OW19642   3.457   3.419   6.934
 6248SOL    HW119643   3.503   3.396   6.848
 6248SOL    HW219644   3.404   3.340   6.965
 6249SOL     OW19645   6.842   4.107   0.426
 6249SOL    HW119646   6.813   4.022   0.383
 6249SOL    HW219647   6.928   4.092   0.476
 6250SOL     OW19648   6.549   0.430   0.051
 6250SOL    HW119649   6.551   0.515   0.103
 6250SOL    HW219650   6.581   0.355   0.109
 6251SOL     OW19651   3.699   6.195   6.140
 6251SOL    HW119652   3.701   6.234   6.048
 6251SOL    HW219653   3.762   6.246   6.199
 6252SOL     OW19654   2.310   6.047   5.342
 6252SOL    HW119655   2.367   6.110   5.395
 6252SOL    HW219656   2.312   5.956   5.383
 6253SOL     OW19657   2.270   5.044   3.835
 6253SOL    HW119658   2.258   5.107   3.912
 6253SOL    HW219659   2.235   5.087   3.752
 6254SOL     OW19660   5.536   1.360   1.407
 6254SOL    HW119661   5.477   1.428   1.451
 6254SOL    HW219662   5.480   1.293   1.360
 6255SOL     OW19663   3.067   0.560   0.625
 6255SOL    HW119664   3.139   0.622   0.592
 6255SOL    HW219665   2.978   0.591   0.591
 6256SOL     OW19666   3.691   5.294   1.488
 6256SOL    HW119667   3.669   5.304   1.585
 6256SOL    HW219668   3.711   5.199   1.467
 6257SOL     OW19669   4.851   2.171   0.940
 6257SOL    HW119670   4.814   2.144   0.851
 6257SOL    HW219671   4.932   2.228   0.927
 6258SOL     OW19672   3.527   0.893   3.513
 6258SOL    HW119673   3.429   0.908   3.496
 6258SOL    HW219674   3.567   0.847   3.434
 6259SOL     OW19675   1.688   2.846   6.938
 6259SOL    HW119676   1.778   2.804   6.928
 6259SOL    HW219677   1.651   2.866   6.847
 6260SOL     OW19678   3.425   5.618   0.372
 6260SOL    HW119679   3.359   5.689   0.397
 6260SOL    HW219680   3.480   5.594   0.453
 6261SOL     OW19681   3.841   1.338   0.114
 6261SOL    HW119682   3.747   1.354   0.145
 6261SOL    HW219683   3.841   1.314   0.017
 6262SOL     OW19684   2.482   6.206   1.777
 6262SOL    HW119685   2.435   6.257   1.704
 6262SOL    HW219686   2.519   6.270   1.844
 6263SOL     OW19687   0.133   0.450   4.685
 6263SOL    HW119688   0.225   0.411   4.692
 6263SOL    HW219689   0.107   0.457   4.588
 6264SOL     OW19690   1.712   0.230   1.871
 6264SOL    HW119691   1.785   0.250   1.806
 6264SOL    HW219692   1.752   0.216   1.962
 6265SOL     OW19693   3.651   3.454   0.610
 6265SOL    HW119694   3.654   3.538   0.664
 6265SOL    HW219695   3.638   3.476   0.514
 6266SOL     OW19696   4.023   0.789   4.097
 6266SOL    HW119697   3.973   0.737   4.028
 6266SOL    HW219698   3.986   0.881   4.102
 6267SOL     OW19699   2.465   6.982   5.803
 6267SOL    HW119700   2.373   7.019   5.791
 6267SOL    HW219701   2.470   6.929   5.888
 6268SOL     OW19702   2.723   0.380   3.293
 6268SOL    HW119703   2.783   0.392   3.214
 6268SOL    HW219704   2.718   0.465   3.345
 6269SOL     OW19705   0.440   6.644   1.939
 6269SOL    HW119706   0.343   6.635   1.919
 6269SOL    HW219707   0.453   6.709   2.014
 6270SOL     OW19708   1.590   0.340   6.181
 6270SOL    HW119709   1.575   0.419   6.240
 6270SOL    HW219710   1.610   0.260   6.237
 6271SOL     OW19711   6.257   2.295   6.533
 6271SOL    HW119712   6.202   2.369   6.573
 6271SOL    HW219713   6.322   2.334   6.468
 6272SOL     OW19714   0.858   2.726   0.126
 6272SOL    HW119715   0.780   2.663   0.120
 6272SOL    HW219716   0.943   2.674   0.117
 6273SOL     OW19717   0.764   6.169   2.832
 6273SOL    HW119718   0.798   6.092   2.778
 6273SOL    HW219719   0.671   6.190   2.804
 6274SOL     OW19720   3.464   6.268   5.884
 6274SOL    HW119721   3.492   6.175   5.862
 6274SOL    HW219722   3.365   6.278   5.868
 6275SOL     OW19723   2.487   6.737   6.350
 6275SOL    HW119724   2.550   6.813   6.362
 6275SOL    HW219725   2.521   6.657   6.399
 6276SOL     OW19726   2.192   4.443   3.767
 6276SOL    HW119727   2.203   4.540   3.744
 6276SOL    HW219728   2.151   4.436   3.858
 6277SOL     OW19729   4.740   3.126   1.042
 6277SOL    HW119730   4.742   3.034   1.083
 6277SOL    HW219731   4.781   3.191   1.105
 6278SOL     OW19732   5.610   6.906   4.640
 6278SOL    HW119733   5.655   6.847   4.572
 6278SOL    HW219734   5.549   6.970   4.593
 6279SOL     OW19735   4.058   6.528   6.824
 6279SOL    HW119736   3.958   6.528   6.814
 6279SOL    HW219737   4.100   6.494   6.739
 6280SOL     OW19738   1.028   1.731   5.070
 6280SOL    HW119739   1.078   1.818   5.074
 6280SOL    HW219740   0.932   1.747   5.093
 6281SOL     OW19741   0.232   4.888   4.373
 6281SOL    HW119742   0.302   4.876   4.303
 6281SOL    HW219743   0.141   4.883   4.330
 6282SOL     OW19744   0.129   5.593   6.027
 6282SOL    HW119745   0.063   5.612   5.954
 6282SOL    HW219746   0.087   5.532   6.095
 6283SOL     OW19747   0.032   3.547   5.054
 6283SOL    HW119748   0.031   3.484   4.976
 6283SOL    HW219749   7.004   3.508   5.129
 6284SOL     OW19750   1.031   5.248   4.725
 6284SOL    HW119751   1.074   5.333   4.757
 6284SOL    HW219752   0.941   5.269   4.686
 6285SOL     OW19753   0.258   3.209   4.592
 6285SOL    HW119754   0.357   3.214   4.604
 6285SOL    HW219755   0.222   3.300   4.576
 6286SOL     OW19756   6.206   1.920   4.256
 6286SOL    HW119757   6.292   1.968   4.270
 6286SOL    HW219758   6.205   1.877   4.166
 6287SOL     OW19759   3.459   4.901   5.057
 6287SOL    HW119760   3.384   4.845   5.021
 6287SOL    HW219761   3.475   4.978   4.995
 6288SOL     OW19762   5.324   4.576   2.400
 6288SOL    HW119763   5.352   4.481   2.386
 6288SOL    HW219764   5.366   4.611   2.483
 6289SOL     OW19765   1.685   4.920   0.627
 6289SOL    HW119766   1.622   4.843   0.628
 6289SOL    HW219767   1.662   4.981   0.552
 6290SOL     OW19768   6.433   5.158   6.063
 6290SOL    HW119769   6.497   5.157   5.986
 6290SOL    HW219770   6.380   5.242   6.061
 6291SOL     OW19771   4.115   3.374   4.090
 6291SOL    HW119772   4.019   3.401   4.086
 6291SOL    HW219773   4.131   3.317   4.171
 6292SOL     OW19774   1.645   1.986   4.780
 6292SOL    HW119775   1.715   2.054   4.762
 6292SOL    HW219776   1.669   1.900   4.735
 6293SOL     OW19777   4.353   1.130   0.934
 6293SOL    HW119778   4.363   1.100   0.839
 6293SOL    HW219779   4.280   1.199   0.939
 6294SOL     OW19780   3.577   6.446   4.141
 6294SOL    HW119781   3.631   6.462   4.059
 6294SOL    HW219782   3.482   6.472   4.125
 6295SOL     OW19783   5.751   4.553   5.474
 6295SOL    HW119784   5.750   4.462   5.517
 6295SOL    HW219785   5.664   4.568   5.427
 6296SOL     OW19786   0.600   6.107   5.965
 6296SOL    HW119787   0.632   6.197   5.935
 6296SOL    HW219788   0.626   6.092   6.060
 6297SOL     OW19789   5.424   0.727   4.498
 6297SOL    HW119790   5.434   0.775   4.585
 6297SOL    HW219791   5.346   0.665   4.502
 6298SOL     OW19792   1.641   3.673   6.739
 6298SOL    HW119793   1.674   3.764   6.713
 6298SOL    HW219794   1.553   3.681   6.785
 6299SOL     OW19795   6.209   2.056   1.102
 6299SOL    HW119796   6.195   2.143   1.150
 6299SOL    HW219797   6.121   2.014   1.084
 6300SOL     OW19798   6.410   1.128   0.154
 6300SOL    HW119799   6.326   1.083   0.125
 6300SOL    HW219800   6.388   1.214   0.200
 6301SOL     OW19801   4.182   6.935   0.454
 6301SOL    HW119802   4.205   0.005   0.458
 6301SOL    HW219803   4.263   6.883   0.427
 6302SOL     OW19804   1.272   0.482   3.616
 6302SOL    HW119805   1.335   0.404   3.613
 6302SOL    HW219806   1.299   0.544   3.689
 6303SOL     OW19807   1.779   1.125   3.713
 6303SOL    HW119808   1.813   1.208   3.669
 6303SOL    HW219809   1.856   1.070   3.743
 6304SOL     OW19810   2.421   1.431   1.108
 6304SOL    HW119811   2.520   1.448   1.102
 6304SOL    HW219812   2.405   1.352   1.166
 6305SOL     OW19813   6.270   6.820   0.898
 6305SOL    HW119814   6.176   6.798   0.922
 6305SOL    HW219815   6.332   6.778   0.966
 6306SOL     OW19816   0.393   4.163   4.375
 6306SOL    HW119817   0.451   4.092   4.335
 6306SOL    HW219818   0.416   4.252   4.335
 6307SOL     OW19819   3.678   4.168   4.636
 6307SOL    HW119820   3.765   4.140   4.676
 6307SOL    HW219821   3.669   4.268   4.642
 6308SOL     OW19822   2.231   1.992   4.616
 6308SOL    HW119823   2.201   2.049   4.539
 6308SOL    HW219824   2.241   2.049   4.698
 6309SOL     OW19825   5.987   4.630   5.228
 6309SOL    HW119826   5.988   4.690   5.308
 6309SOL    HW219827   5.928   4.551   5.247
 6310SOL     OW19828   2.543   5.895   2.793
 6310SOL    HW119829   2.545   5.994   2.812
 6310SOL    HW219830   2.460   5.856   2.833
 6311SOL     OW19831   5.057   1.246   5.657
 6311SOL    HW119832   5.140   1.194   5.638
 6311SOL    HW219833   5.074   1.309   5.733
 6312SOL     OW19834   6.594   6.649   5.615
 6312SOL    HW119835   6.517   6.713   5.616
 6312SOL    HW219836   6.668   6.684   5.672
 6313SOL     OW19837   6.639   5.913   4.190
 6313SOL    HW119838   6.605   5.975   4.260
 6313SOL    HW219839   6.739   5.912   4.191
 6314SOL     OW19840   3.894   6.969   1.631
 6314SOL    HW119841   3.806   6.925   1.645
 6314SOL    HW219842   3.965   6.921   1.682
 6315SOL     OW19843   2.249   2.555   5.320
 6315SOL    HW119844   2.297   2.536   5.406
 6315SOL    HW219845   2.312   2.601   5.257
 6316SOL     OW19846   5.087   2.011   6.718
 6316SOL    HW119847   5.023   2.054   6.655
 6316SOL    HW219848   5.048   2.010   6.810
 6317SOL     OW19849   4.408   5.157   1.318
 6317SOL    HW119850   4.438   5.081   1.376
 6317SOL    HW219851   4.312   5.178   1.338
 6318SOL     OW19852   3.868   6.927   5.717
 6318SOL    HW119853   3.884   6.978   5.632
 6318SOL    HW219854   3.948   6.935   5.776
 6319SOL     OW19855   6.602   1.759   4.652
 6319SOL    HW119856   6.695   1.797   4.654
 6319SOL    HW219857   6.547   1.810   4.586
 6320SOL     OW19858   6.469   6.333   5.373
 6320SOL    HW119859   6.522   6.342   5.289
 6320SOL    HW219860   6.376   6.365   5.357
 6321SOL     OW19861   3.961   4.208   0.788
 6321SOL    HW119862   4.009   4.153   0.856
 6321SOL    HW219863   3.904   4.149   0.730
 6322SOL     OW19864   2.218   2.907   0.598
 6322SOL    HW119865   2.161   2.848   0.540
 6322SOL    HW219866   2.200   2.886   0.694
 6323SOL     OW19867   2.404   2.460   1.462
 6323SOL    HW119868   2.345   2.474   1.382
 6323SOL    HW219869   2.388   2.368   1.499
 6324SOL     OW19870   4.903   0.800   0.655
 6324SOL    HW119871   4.946   0.814   0.743
 6324SOL    HW219872   4.804   0.792   0.667
 6325SOL     OW19873   2.134   3.025   2.554
 6325SOL    HW119874   2.164   2.930   2.544
 6325SOL    HW219875   2.045   3.036   2.509
 6326SOL     OW19876   5.045   4.735   1.594
 6326SOL    HW119877   4.966   4.761   1.649
 6326SOL    HW219878   5.016   4.674   1.520
 6327SOL     OW19879   0.690   1.274   4.982
 6327SOL    HW119880   0.608   1.254   5.035
 6327SOL    HW219881   0.719   1.368   4.998
 6328SOL     OW19882   3.401   3.588   0.344
 6328SOL    HW119883   3.327   3.521   0.336
 6328SOL    HW219884   3.486   3.548   0.308
 6329SOL     OW19885   1.554   2.644   3.127
 6329SOL    HW119886   1.484   2.611   3.064
 6329SOL    HW219887   1.517   2.720   3.181
 6330SOL     OW19888   5.473   0.338   1.621
 6330SOL    HW119889   5.388   0.300   1.585
 6330SOL    HW219890   5.516   0.396   1.552
 6331SOL     OW19891   6.164   2.418   5.447
 6331SOL    HW119892   6.194   2.482   5.517
 6331SOL    HW219893   6.065   2.418   5.440
 6332SOL     OW19894   0.272   3.017   0.621
 6332SOL    HW119895   0.261   3.044   0.717
 6332SOL    HW219896   0.248   2.920   0.611
 6333SOL     OW19897   4.850   5.996   5.099
 6333SOL    HW119898   4.821   6.062   5.029
 6333SOL    HW219899   4.770   5.945   5.132
 6334SOL     OW19900   2.823   1.297   2.308
 6334SOL    HW119901   2.737   1.282   2.356
 6334SOL    HW219902   2.805   1.328   2.215
 6335SOL     OW19903   4.465   0.608   0.615
 6335SOL    HW119904   4.475   0.511   0.594
 6335SOL    HW219905   4.374   0.638   0.589
 6336SOL     OW19906   1.055   2.690   6.506
 6336SOL    HW119907   0.963   2.675   6.544
 6336SOL    HW219908   1.056   2.776   6.456
 6337SOL     OW19909   5.054   4.623   5.085
 6337SOL    HW119910   5.129   4.663   5.032
 6337SOL    HW219911   5.048   4.525   5.065
 6338SOL     OW19912   3.434   2.056   4.060
 6338SOL    HW119913   3.391   2.014   4.141
 6338SOL    HW219914   3.383   2.140   4.036
 6339SOL     OW19915   0.750   3.808   3.328
 6339SOL    HW119916   0.745   3.906   3.349
 6339SOL    HW219917   0.835   3.789   3.280
 6340SOL     OW19918   1.766   5.203   1.820
 6340SOL    HW119919   1.722   5.118   1.791
 6340SOL    HW219920   1.722   5.237   1.903
 6341SOL     OW19921   0.053   3.803   4.499
 6341SOL    HW119922   0.007   3.754   4.573
 6341SOL    HW219923   0.086   3.891   4.533
 6342SOL     OW19924   2.066   0.984   2.036
 6342SOL    HW119925   2.072   0.908   1.972
 6342SOL    HW219926   2.008   1.056   1.997
 6343SOL     OW19927   4.533   1.595   6.526
 6343SOL    HW119928   4.523   1.498   6.549
 6343SOL    HW219929   4.574   1.643   6.604
 6344SOL     OW19930   5.303   2.073   4.529
 6344SOL    HW119931   5.215   2.048   4.487
 6344SOL    HW219932   5.286   2.129   4.610
 6345SOL     OW19933   5.892   3.003   2.654
 6345SOL    HW119934   5.856   3.022   2.745
 6345SOL    HW219935   5.905   2.905   2.643
 6346SOL     OW19936   6.902   5.547   4.255
 6346SOL    HW119937   6.948   5.550   4.344
 6346SOL    HW219938   6.804   5.562   4.267
 6347SOL     OW19939   1.749   0.967   1.100
 6347SOL    HW119940   1.711   1.059   1.093
 6347SOL    HW219941   1.848   0.970   1.083
 6348SOL     OW19942   1.853   2.919   6.136
 6348SOL    HW119943   1.944   2.887   6.163
 6348SOL    HW219944   1.829   3.001   6.187
 6349SOL     OW19945   2.374   0.740   1.383
 6349SOL    HW119946   2.291   0.686   1.396
 6349SOL    HW219947   2.445   0.709   1.446
 6350SOL     OW19948   0.674   5.299   4.153
 6350SOL    HW119949   0.626   5.384   4.131
 6350SOL    HW219950   0.739   5.316   4.228
 6351SOL     OW19951   6.264   3.408   3.883
 6351SOL    HW119952   6.237   3.391   3.977
 6351SOL    HW219953   6.286   3.505   3.871
 6352SOL     OW19954   3.482   6.611   4.687
 6352SOL    HW119955   3.468   6.653   4.597
 6352SOL    HW219956   3.515   6.681   4.751
 6353SOL     OW19957   1.329   6.918   6.060
 6353SOL    HW119958   1.374   7.007   6.059
 6353SOL    HW219959   1.258   6.916   5.989
 6354SOL     OW19960   2.669   5.163   2.933
 6354SOL    HW119961   2.700   5.110   3.012
 6354SOL    HW219962   2.710   5.125   2.850
 6355SOL     OW19963   1.056   5.098   6.890
 6355SOL    HW119964   1.143   5.145   6.875
 6355SOL    HW219965   0.996   5.155   6.946
 6356SOL     OW19966   4.953   5.801   1.695
 6356SOL    HW119967   5.045   5.766   1.711
 6356SOL    HW219968   4.930   5.867   1.767
 6357SOL     OW19969   6.136   3.686   2.711
 6357SOL    HW119970   6.108   3.742   2.789
 6357SOL    HW219971   6.215   3.729   2.667
 6358SOL     OW19972   0.384   2.471   6.834
 6358SOL    HW119973   0.462   2.410   6.835
 6358SOL    HW219974   0.315   2.439   6.899
 6359SOL     OW19975   6.320   0.516   0.367
 6359SOL    HW119976   6.419   0.525   0.352
 6359SOL    HW219977   6.303   0.499   0.464
 6360SOL     OW19978   1.207   4.551   4.364
 6360SOL    HW119979   1.271   4.540   4.288
 6360SOL    HW219980   1.192   4.463   4.408
 6361SOL     OW19981   1.072   6.809   0.873
 6361SOL    HW119982   1.161   6.855   0.868
 6361SOL    HW219983   1.033   6.802   0.781
 6362SOL     OW19984   6.821   6.089   6.913
 6362SOL    HW119985   6.722   6.083   6.904
 6362SOL    HW219986   6.845   6.121   7.004
 6363SOL     OW19987   1.855   5.313   3.816
 6363SOL    HW119988   1.849   5.222   3.773
 6363SOL    HW219989   1.936   5.361   3.781
 6364SOL     OW19990   2.504   1.850   5.338
 6364SOL    HW119991   2.515   1.760   5.297
 6364SOL    HW219992   2.411   1.885   5.321
 6365SOL     OW19993   5.805   0.109   4.021
 6365SOL    HW119994   5.767   0.050   3.950
 6365SOL    HW219995   5.878   0.166   3.983
 6366SOL     OW19996   1.206   5.883   5.559
 6366SOL    HW119997   1.221   5.951   5.630
 6366SOL    HW219998   1.137   5.817   5.589
 6367SOL     OW19999   3.662   1.312   4.775
 6367SOL    HW120000   3.624   1.379   4.838
 6367SOL    HW220001   3.700   1.358   4.695
 6368SOL     OW20002   3.451   5.212   3.456
 6368SOL    HW120003   3.413   5.129   3.416
 6368SOL    HW220004   3.447   5.286   3.388
 6369SOL     OW20005   2.483   6.393   4.499
 6369SOL    HW120006   2.537   6.469   4.536
 6369SOL    HW220007   2.522   6.364   4.411
 6370SOL     OW20008   0.230   3.362   3.464
 6370SOL    HW120009   0.256   3.267   3.450
 6370SOL    HW220010   0.216   3.406   3.376
 6371SOL     OW20011   4.636   4.690   2.958
 6371SOL    HW120012   4.614   4.669   2.863
 6371SOL    HW220013   4.683   4.778   2.963
 6372SOL     OW20014   1.513   1.003   1.715
 6372SOL    HW120015   1.448   0.953   1.658
 6372SOL    HW220016   1.516   1.099   1.687
 6373SOL     OW20017   4.731   4.175   2.474
 6373SOL    HW120018   4.762   4.111   2.544
 6373SOL    HW220019   4.751   4.138   2.383
 6374SOL     OW20020   4.124   3.649   2.910
 6374SOL    HW120021   4.090   3.569   2.860
 6374SOL    HW220022   4.058   3.723   2.904
 6375SOL     OW20023   0.122   1.676   3.387
 6375SOL    HW120024   0.221   1.660   3.395
 6375SOL    HW220025   0.085   1.698   3.477
 6376SOL     OW20026   5.282   2.519   5.026
 6376SOL    HW120027   5.380   2.526   5.009
 6376SOL    HW220028   5.256   2.583   5.098
 6377SOL     OW20029   0.076   1.536   5.231
 6377SOL    HW120030   0.174   1.535   5.213
 6377SOL    HW220031   0.029   1.482   5.161
 6378SOL     OW20032   4.569   4.633   3.845
 6378SOL    HW120033   4.532   4.611   3.935
 6378SOL    HW220034   4.654   4.583   3.830
 6379SOL     OW20035   1.448   4.233   4.698
 6379SOL    HW120036   1.536   4.276   4.679
 6379SOL    HW220037   1.375   4.300   4.685
 6380SOL     OW20038   0.616   1.722   5.154
 6380SOL    HW120039   0.691   1.788   5.163
 6380SOL    HW220040   0.577   1.728   5.062
 6381SOL     OW20041   3.978   2.947   1.816
 6381SOL    HW120042   3.916   2.943   1.894
 6381SOL    HW220043   4.022   2.858   1.804
 6382SOL     OW20044   2.476   2.118   0.707
 6382SOL    HW120045   2.382   2.094   0.729
 6382SOL    HW220046   2.478   2.171   0.622
 6383SOL     OW20047   2.134   2.539   2.887
 6383SOL    HW120048   2.159   2.533   2.984
 6383SOL    HW220049   2.090   2.627   2.870
 6384SOL     OW20050   6.167   3.963   2.939
 6384SOL    HW120051   6.084   3.908   2.932
 6384SOL    HW220052   6.245   3.910   2.905
 6385SOL     OW20053   0.098   3.776   3.293
 6385SOL    HW120054   0.079   3.819   3.205
 6385SOL    HW220055   0.013   3.755   3.340
 6386SOL     OW20056   2.012   4.459   5.955
 6386SOL    HW120057   1.984   4.461   5.859
 6386SOL    HW220058   2.107   4.429   5.961
 6387SOL     OW20059   6.707   1.511   6.373
 6387SOL    HW120060   6.650   1.541   6.298
 6387SOL    HW220061   6.654   1.453   6.435
 6388SOL     OW20062   3.886   6.612   2.063
 6388SOL    HW120063   3.963   6.673   2.045
 6388SOL    HW220064   3.822   6.614   1.986
 6389SOL     OW20065   6.974   5.484   2.228
 6389SOL    HW120066   0.009   5.408   2.247
 6389SOL    HW220067   6.892   5.476   2.284
 6390SOL     OW20068   0.377   0.963   5.801
 6390SOL    HW120069   0.303   0.899   5.822
 6390SOL    HW220070   0.339   1.050   5.772
 6391SOL     OW20071   2.607   0.320   5.914
 6391SOL    HW120072   2.605   0.357   6.007
 6391SOL    HW220073   2.548   0.238   5.910
 6392SOL     OW20074   2.781   5.463   2.630
 6392SOL    HW120075   2.794   5.412   2.715
 6392SOL    HW220076   2.740   5.552   2.650
 6393SOL     OW20077   7.014   6.467   2.024
 6393SOL    HW120078   6.971   6.433   2.108
 6393SOL    HW220079   0.027   6.390   1.974
 6394SOL     OW20080   2.276   5.507   0.820
 6394SOL    HW120081   2.226   5.483   0.737
 6394SOL    HW220082   2.224   5.477   0.900
 6395SOL     OW20083   0.028   2.805   1.882
 6395SOL    HW120084   6.986   2.735   1.865
 6395SOL    HW220085   7.015   2.895   1.864
 6396SOL     OW20086   5.439   3.425   6.711
 6396SOL    HW120087   5.342   3.442   6.729
 6396SOL    HW220088   5.473   3.493   6.646
 6397SOL     OW20089   6.214   1.641   1.119
 6397SOL    HW120090   6.137   1.700   1.144
 6397SOL    HW220091   6.199   1.550   1.158
 6398SOL     OW20092   2.699   6.721   1.687
 6398SOL    HW120093   2.697   6.693   1.783
 6398SOL    HW220094   2.763   6.664   1.636
 6399SOL     OW20095   1.987   6.551   6.626
 6399SOL    HW120096   1.906   6.611   6.632
 6399SOL    HW220097   2.016   6.545   6.531
 6400SOL     OW20098   2.738   5.620   1.786
 6400SOL    HW120099   2.834   5.635   1.808
 6400SOL    HW220100   2.680   5.662   1.856
 6401SOL     OW20101   5.434   5.951   3.470
 6401SOL    HW120102   5.366   5.879   3.475
 6401SOL    HW220103   5.524   5.911   3.449
 6402SOL     OW20104   2.836   2.289   3.160
 6402SOL    HW120105   2.865   2.277   3.255
 6402SOL    HW220106   2.741   2.322   3.158
 6403SOL     OW20107   6.848   5.783   6.388
 6403SOL    HW120108   6.792   5.760   6.467
 6403SOL    HW220109   6.935   5.735   6.393
 6404SOL     OW20110   4.375   0.568   2.368
 6404SOL    HW120111   4.307   0.582   2.440
 6404SOL    HW220112   4.388   0.653   2.318
 6405SOL     OW20113   3.470   0.106   3.753
 6405SOL    HW120114   3.379   0.129   3.789
 6405SOL    HW220115   3.466   0.018   3.706
 6406SOL     OW20116   0.842   2.872   2.630
 6406SOL    HW120117   0.887   2.800   2.684
 6406SOL    HW220118   0.832   2.841   2.535
 6407SOL     OW20119   2.906   6.590   4.013
 6407SOL    HW120120   2.877   6.495   4.000
 6407SOL    HW220121   2.832   6.651   3.986
 6408SOL     OW20122   5.584   1.111   0.381
 6408SOL    HW120123   5.641   1.176   0.331
 6408SOL    HW220124   5.587   1.133   0.479
 6409SOL     OW20125   6.600   4.386   3.620
 6409SOL    HW120126   6.641   4.446   3.689
 6409SOL    HW220127   6.666   4.368   3.548
 6410SOL     OW20128   2.019   1.245   6.979
 6410SOL    HW120129   2.080   1.276   0.025
 6410SOL    HW220130   1.933   1.214   7.019
 6411SOL     OW20131   0.794   2.925   3.172
 6411SOL    HW120132   0.716   2.953   3.117
 6411SOL    HW220133   0.770   2.931   3.269
 6412SOL     OW20134   0.991   1.925   4.786
 6412SOL    HW120135   1.041   1.890   4.708
 6412SOL    HW220136   0.896   1.892   4.783
 6413SOL     OW20137   3.601   4.917   3.673
 6413SOL    HW120138   3.663   4.870   3.737
 6413SOL    HW220139   3.596   5.014   3.697
 6414SOL     OW20140   5.762   0.864   0.008
 6414SOL    HW120141   5.720   0.779   7.004
 6414SOL    HW220142   5.772   0.863   0.108
 6415SOL     OW20143   1.980   3.462   2.947
 6415SOL    HW120144   2.057   3.448   2.886
 6415SOL    HW220145   1.918   3.383   2.942
 6416SOL     OW20146   1.128   1.061   6.817
 6416SOL    HW120147   1.076   0.989   6.863
 6416SOL    HW220148   1.067   1.138   6.796
 6417SOL     OW20149   5.836   5.145   0.421
 6417SOL    HW120150   5.900   5.117   0.350
 6417SOL    HW220151   5.875   5.220   0.474
 6418SOL     OW20152   5.010   3.904   2.192
 6418SOL    HW120153   4.981   3.992   2.228
 6418SOL    HW220154   5.007   3.906   2.092
 6419SOL     OW20155   1.798   4.563   3.334
 6419SOL    HW120156   1.730   4.520   3.393
 6419SOL    HW220157   1.890   4.543   3.369
 6420SOL     OW20158   2.538   5.984   4.469
 6420SOL    HW120159   2.598   6.064   4.472
 6420SOL    HW220160   2.453   6.007   4.421
 6421SOL     OW20161   5.120   0.165   3.206
 6421SOL    HW120162   5.081   0.253   3.180
 6421SOL    HW220163   5.060   0.091   3.173
 6422SOL     OW20164   0.248   0.832   4.506
 6422SOL    HW120165   0.169   0.773   4.490
 6422SOL    HW220166   0.216   0.924   4.528
 6423SOL     OW20167   5.150   5.171   3.337
 6423SOL    HW120168   5.061   5.173   3.293
 6423SOL    HW220169   5.186   5.264   3.346
 6424SOL     OW20170   0.279   5.223   5.828
 6424SOL    HW120171   0.357   5.164   5.812
 6424SOL    HW220172   0.194   5.172   5.813
 6425SOL     OW20173   6.525   5.869   3.241
 6425SOL    HW120174   6.528   5.906   3.334
 6425SOL    HW220175   6.430   5.856   3.213
 6426SOL     OW20176   1.481   5.157   3.323
 6426SOL    HW120177   1.524   5.233   3.274
 6426SOL    HW220178   1.427   5.102   3.259
 6427SOL     OW20179   3.476   3.865   4.567
 6427SOL    HW120180   3.426   3.946   4.598
 6427SOL    HW220181   3.521   3.885   4.480
 6428SOL     OW20182   5.720   3.811   5.835
 6428SOL    HW120183   5.636   3.760   5.814
 6428SOL    HW220184   5.696   3.895   5.883
 6429SOL     OW20185   1.413   2.038   5.789
 6429SOL    HW120186   1.341   2.012   5.725
 6429SOL    HW220187   1.474   2.105   5.746
 6430SOL     OW20188   6.060   0.870   3.183
 6430SOL    HW120189   6.091   0.950   3.133
 6430SOL    HW220190   6.063   0.888   3.281
 6431SOL     OW20191   5.042   6.937   4.180
 6431SOL    HW120192   5.091   7.024   4.192
 6431SOL    HW220193   5.008   6.931   4.086
 6432SOL     OW20194   4.639   4.526   6.010
 6432SOL    HW120195   4.628   4.473   5.926
 6432SOL    HW220196   4.553   4.573   6.031
 6433SOL     OW20197   1.375   5.492   6.003
 6433SOL    HW120198   1.361   5.494   5.904
 6433SOL    HW220199   1.348   5.402   6.038
 6434SOL     OW20200   2.633   5.043   6.250
 6434SOL    HW120201   2.612   4.956   6.294
 6434SOL    HW220202   2.707   5.031   6.184
 6435SOL     OW20203   4.776   6.566   0.969
 6435SOL    HW120204   4.723   6.565   1.054
 6435SOL    HW220205   4.837   6.645   0.968
 6436SOL     OW20206   1.431   3.058   2.983
 6436SOL    HW120207   1.507   3.030   2.925
 6436SOL    HW220208   1.345   3.045   2.934
 6437SOL     OW20209   2.436   0.970   0.540
 6437SOL    HW120210   2.445   1.042   0.610
 6437SOL    HW220211   2.522   0.960   0.491
 6438SOL     OW20212   6.258   4.229   5.446
 6438SOL    HW120213   6.258   4.271   5.355
 6438SOL    HW220214   6.202   4.147   5.444
 6439SOL     OW20215   5.629   1.451   1.774
 6439SOL    HW120216   5.536   1.486   1.761
 6439SOL    HW220217   5.669   1.427   1.686
 6440SOL     OW20218   2.313   1.607   6.037
 6440SOL    HW120219   2.321   1.699   6.077
 6440SOL    HW220220   2.382   1.596   5.965
 6441SOL     OW20221   6.819   6.646   1.897
 6441SOL    HW120222   6.871   6.587   1.960
 6441SOL    HW220223   6.860   6.737   1.895
 6442SOL     OW20224   2.580   1.422   4.707
 6442SOL    HW120225   2.662   1.416   4.650
 6442SOL    HW220226   2.499   1.413   4.650
 6443SOL     OW20227   3.703   2.370   5.608
 6443SOL    HW120228   3.714   2.456   5.558
 6443SOL    HW220229   3.618   2.326   5.580
 6444SOL     OW20230   5.620   2.748   4.654
 6444SOL    HW120231   5.564   2.666   4.659
 6444SOL    HW220232   5.573   2.818   4.600
 6445SOL     OW20233   4.152   3.323   4.723
 6445SOL    HW120234   4.235   3.318   4.778
 6445SOL    HW220235   4.110   3.232   4.719
 6446SOL     OW20236   1.226   1.223   0.284
 6446SOL    HW120237   1.244   1.276   0.367
 6446SOL    HW220238   1.127   1.216   0.270
 6447SOL     OW20239   5.332   4.981   3.726
 6447SOL    HW120240   5.349   4.946   3.817
 6447SOL    HW220241   5.238   4.958   3.698
 6448SOL     OW20242   4.241   5.836   2.098
 6448SOL    HW120243   4.168   5.786   2.144
 6448SOL    HW220244   4.204   5.886   2.020
 6449SOL     OW20245   3.702   6.265   1.309
 6449SOL    HW120246   3.793   6.226   1.324
 6449SOL    HW220247   3.650   6.262   1.394
 6450SOL     OW20248   0.487   3.762   1.034
 6450SOL    HW120249   0.494   3.861   1.023
 6450SOL    HW220250   0.453   3.741   1.126
 6451SOL     OW20251   2.111   0.884   4.756
 6451SOL    HW120252   2.073   0.971   4.726
 6451SOL    HW220253   2.130   0.826   4.677
 6452SOL     OW20254   4.720   5.492   4.155
 6452SOL    HW120255   4.808   5.521   4.192
 6452SOL    HW220256   4.729   5.398   4.120
 6453SOL     OW20257   2.313   6.265   1.569
 6453SOL    HW120258   2.361   6.225   1.491
 6453SOL    HW220259   2.232   6.210   1.590
 6454SOL     OW20260   1.080   2.202   2.789
 6454SOL    HW120261   1.051   2.124   2.844
 6454SOL    HW220262   1.141   2.261   2.843
 6455SOL     OW20263   6.491   3.414   3.553
 6455SOL    HW120264   6.521   3.395   3.647
 6455SOL    HW220265   6.393   3.433   3.552
 6456SOL     OW20266   1.163   0.677   3.428
 6456SOL    HW120267   1.149   0.578   3.440
 6456SOL    HW220268   1.074   0.722   3.421
 6457SOL     OW20269   5.178   1.675   1.359
 6457SOL    HW120270   5.100   1.731   1.331
 6457SOL    HW220271   5.222   1.718   1.438
 6458SOL     OW20272   0.994   6.340   4.529
 6458SOL    HW120273   0.964   6.403   4.600
 6458SOL    HW220274   1.019   6.391   4.447
 6459SOL     OW20275   6.410   3.158   1.436
 6459SOL    HW120276   6.323   3.180   1.479
 6459SOL    HW220277   6.426   3.219   1.358
 6460SOL     OW20278   5.761   6.418   6.235
 6460SOL    HW120279   5.721   6.500   6.275
 6460SOL    HW220280   5.691   6.348   6.225
 6461SOL     OW20281   2.028   4.717   6.037
 6461SOL    HW120282   1.940   4.764   6.030
 6461SOL    HW220283   2.017   4.622   6.009
 6462SOL     OW20284   2.399   2.485   4.345
 6462SOL    HW120285   2.369   2.574   4.382
 6462SOL    HW220286   2.376   2.480   4.248
 6463SOL     OW20287   5.971   2.627   7.004
 6463SOL    HW120288   6.048   2.568   0.001
 6463SOL    HW220289   5.997   2.687   6.928
 6464SOL     OW20290   1.027   5.218   5.216
 6464SOL    HW120291   0.956   5.221   5.147
 6464SOL    HW220292   1.117   5.216   5.172
 6465SOL     OW20293   7.009   2.947   2.886
 6465SOL    HW120294   0.008   2.995   2.802
 6465SOL    HW220295   0.043   2.976   2.960
 6466SOL     OW20296   0.720   1.286   6.189
 6466SOL    HW120297   0.740   1.324   6.099
 6466SOL    HW220298   0.713   1.186   6.182
 6467SOL     OW20299   3.363   1.870   0.305
 6467SOL    HW120300   3.396   1.850   0.212
 6467SOL    HW220301   3.302   1.796   0.334
 6468SOL     OW20302   2.949   6.503   0.393
 6468SOL    HW120303   2.934   6.502   0.492
 6468SOL    HW220304   3.047   6.500   0.374
 6469SOL     OW20305   4.471   1.427   4.714
 6469SOL    HW120306   4.434   1.365   4.644
 6469SOL    HW220307   4.560   1.461   4.684
 6470SOL     OW20308   6.043   2.756   0.507
 6470SOL    HW120309   6.002   2.745   0.416
 6470SOL    HW220310   5.982   2.812   0.564
 6471SOL     OW20311   6.670   6.725   6.110
 6471SOL    HW120312   6.710   6.693   6.024
 6471SOL    HW220313   6.665   6.825   6.110
 6472SOL     OW20314   0.116   5.379   1.956
 6472SOL    HW120315   0.177   5.383   1.877
 6472SOL    HW220316   0.171   5.383   2.040
 6473SOL     OW20317   3.015   1.416   4.220
 6473SOL    HW120318   3.038   1.437   4.124
 6473SOL    HW220319   2.920   1.387   4.226
 6474SOL     OW20320   2.800   4.249   5.604
 6474SOL    HW120321   2.733   4.282   5.538
 6474SOL    HW220322   2.864   4.187   5.559
 6475SOL     OW20323   5.682   5.384   3.994
 6475SOL    HW120324   5.700   5.386   4.093
 6475SOL    HW220325   5.587   5.408   3.977
 6476SOL     OW20326   4.120   3.354   1.385
 6476SOL    HW120327   4.182   3.364   1.464
 6476SOL    HW220328   4.137   3.429   1.321
 6477SOL     OW20329   5.793   4.994   1.031
 6477SOL    HW120330   5.868   4.932   1.057
 6477SOL    HW220331   5.734   4.948   0.964
 6478SOL     OW20332   3.412   0.469   1.683
 6478SOL    HW120333   3.343   0.539   1.702
 6478SOL    HW220334   3.381   0.381   1.719
 6479SOL     OW20335   4.438   5.475   3.611
 6479SOL    HW120336   4.453   5.573   3.607
 6479SOL    HW220337   4.525   5.428   3.626
 6480SOL     OW20338   2.960   1.353   6.138
 6480SOL    HW120339   2.986   1.259   6.115
 6480SOL    HW220340   2.861   1.359   6.146
 6481SOL     OW20341   3.530   2.062   2.124
 6481SOL    HW120342   3.451   2.104   2.169
 6481SOL    HW220343   3.570   2.126   2.059
 6482SOL     OW20344   6.633   0.843   6.323
 6482SOL    HW120345   6.692   0.923   6.336
 6482SOL    HW220346   6.661   0.771   6.388
 6483SOL     OW20347   0.879   6.612   2.858
 6483SOL    HW120348   0.898   6.527   2.809
 6483SOL    HW220349   0.780   6.627   2.861
 6484SOL     OW20350   3.276   6.980   1.253
 6484SOL    HW120351   3.209   0.024   1.274
 6484SOL    HW220352   3.299   6.984   1.156
 6485SOL     OW20353   1.800   5.058   3.695
 6485SOL    HW120354   1.793   4.968   3.739
 6485SOL    HW220355   1.828   5.047   3.600
 6486SOL     OW20356   2.306   4.674   3.645
 6486SOL    HW120357   2.271   4.739   3.578
 6486SOL    HW220358   2.390   4.710   3.687
 6487SOL     OW20359   0.359   6.628   5.191
 6487SOL    HW120360   0.407   6.565   5.253
 6487SOL    HW220361   0.338   6.713   5.238
 6488SOL     OW20362   3.652   5.668   4.243
 6488SOL    HW120363   3.648   5.757   4.289
 6488SOL    HW220364   3.732   5.665   4.183
 6489SOL     OW20365   3.227   2.592   5.980
 6489SOL    HW120366   3.189   2.685   5.984
 6489SOL    HW220367   3.205   2.543   6.065
 6490SOL     OW20368   4.222   0.569   6.871
 6490SOL    HW120369   4.260   0.658   6.846
 6490SOL    HW220370   4.283   0.497   6.840
 6491SOL     OW20371   4.236   0.792   0.887
 6491SOL    HW120372   4.237   0.692   0.876
 6491SOL    HW220373   4.221   0.814   0.983
 6492SOL     OW20374   3.862   4.733   6.670
 6492SOL    HW120375   3.944   4.780   6.701
 6492SOL    HW220376   3.857   4.736   6.570
 6493SOL     OW20377   1.070   4.596   5.109
 6493SOL    HW120378   1.051   4.675   5.051
 6493SOL    HW220379   1.131   4.622   5.183
 6494SOL     OW20380   0.227   0.235   3.923
 6494SOL    HW120381   0.168   0.232   3.842
 6494SOL    HW220382   0.299   0.303   3.909
 6495SOL     OW20383   5.889   0.151   4.795
 6495SOL    HW120384   5.929   0.229   4.748
 6495SOL    HW220385   5.791   0.166   4.808
 6496SOL     OW20386   6.554   0.550   2.854
 6496SOL    HW120387   6.635   0.513   2.899
 6496SOL    HW220388   6.551   0.649   2.869
 6497SOL     OW20389   1.240   1.550   0.676
 6497SOL    HW120390   1.218   1.463   0.720
 6497SOL    HW220391   1.275   1.614   0.744
 6498SOL     OW20392   1.629   3.013   3.875
 6498SOL    HW120393   1.704   3.021   3.940
 6498SOL    HW220394   1.634   3.088   3.809
 6499SOL     OW20395   5.375   3.264   5.487
 6499SOL    HW120396   5.417   3.355   5.476
 6499SOL    HW220397   5.447   3.196   5.501
 6500SOL     OW20398   0.220   3.678   4.300
 6500SOL    HW120399   0.148   3.692   4.368
 6500SOL    HW220400   0.309   3.685   4.345
 6501SOL     OW20401   6.876   1.700   6.512
 6501SOL    HW120402   6.854   1.736   6.603
 6501SOL    HW220403   6.812   1.628   6.488
 6502SOL     OW20404   6.852   1.884   1.834
 6502SOL    HW120405   6.809   1.936   1.760
 6502SOL    HW220406   6.803   1.902   1.920
 6503SOL     OW20407   5.393   0.760   3.266
 6503SOL    HW120408   5.323   0.696   3.296
 6503SOL    HW220409   5.435   0.803   3.346
 6504SOL     OW20410   4.372   5.963   5.404
 6504SOL    HW120411   4.430   6.023   5.459
 6504SOL    HW220412   4.311   6.019   5.348
 6505SOL     OW20413   5.204   5.989   0.407
 6505SOL    HW120414   5.180   6.041   0.488
 6505SOL    HW220415   5.143   5.910   0.398
 6506SOL     OW20416   6.745   2.521   2.741
 6506SOL    HW120417   6.665   2.580   2.751
 6506SOL    HW220418   6.828   2.574   2.761
 6507SOL     OW20419   1.334   4.926   5.404
 6507SOL    HW120420   1.350   4.993   5.331
 6507SOL    HW220421   1.422   4.896   5.441
 6508SOL     OW20422   1.763   0.513   2.714
 6508SOL    HW120423   1.764   0.476   2.621
 6508SOL    HW220424   1.675   0.494   2.756
 6509SOL     OW20425   3.682   2.135   4.305
 6509SOL    HW120426   3.686   2.126   4.206
 6509SOL    HW220427   3.587   2.148   4.334
 6510SOL     OW20428   6.195   5.436   0.021
 6510SOL    HW120429   6.110   5.469   7.008
 6510SOL    HW220430   6.238   5.370   6.986
 6511SOL     OW20431   4.141   1.738   4.443
 6511SOL    HW120432   4.094   1.790   4.372
 6511SOL    HW220433   4.199   1.799   4.496
 6512SOL     OW20434   4.246   6.831   2.309
 6512SOL    HW120435   4.336   6.867   2.333
 6512SOL    HW220436   4.176   6.878   2.362
 6513SOL     OW20437   2.719   5.036   2.702
 6513SOL    HW120438   2.707   5.035   2.603
 6513SOL    HW220439   2.809   5.000   2.725
 6514SOL     OW20440   6.499   0.825   3.691
 6514SOL    HW120441   6.537   0.839   3.600
 6514SOL    HW220442   6.559   0.763   3.743
 6515SOL     OW20443   7.018   4.736   4.417
 6515SOL    HW120444   6.994   4.796   4.494
 6515SOL    HW220445   7.003   4.641   4.443
 6516SOL     OW20446   0.268   3.524   1.498
 6516SOL    HW120447   0.295   3.442   1.548
 6516SOL    HW220448   0.180   3.556   1.531
 6517SOL     OW20449   6.397   1.038   1.078
 6517SOL    HW120450   6.344   1.098   1.018
 6517SOL    HW220451   6.438   1.093   1.152
 6518SOL     OW20452   0.108   0.953   0.128
 6518SOL    HW120453   0.081   0.859   0.107
 6518SOL    HW220454   0.041   0.994   0.190
 6519SOL     OW20455   1.156   2.041   3.550
 6519SOL    HW120456   1.152   2.141   3.543
 6519SOL    HW220457   1.247   2.009   3.526
 6520SOL     OW20458   5.817   5.903   1.903
 6520SOL    HW120459   5.838   5.830   1.838
 6520SOL    HW220460   5.789   5.985   1.853
 6521SOL     OW20461   1.845   2.542   3.807
 6521SOL    HW120462   1.803   2.502   3.726
 6521SOL    HW220463   1.825   2.484   3.886
 6522SOL     OW20464   3.191   5.279   6.118
 6522SOL    HW120465   3.191   5.309   6.022
 6522SOL    HW220466   3.104   5.235   6.139
 6523SOL     OW20467   3.994   1.355   6.489
 6523SOL    HW120468   4.086   1.394   6.490
 6523SOL    HW220469   3.982   1.298   6.407
 6524SOL     OW20470   3.550   3.650   1.607
 6524SOL    HW120471   3.501   3.586   1.666
 6524SOL    HW220472   3.491   3.677   1.531
 6525SOL     OW20473   2.763   5.048   2.441
 6525SOL    HW120474   2.797   5.141   2.427
 6525SOL    HW220475   2.837   4.982   2.423
 6526SOL     OW20476   2.087   0.378   6.844
 6526SOL    HW120477   2.106   0.461   6.896
 6526SOL    HW220478   2.144   0.376   6.762
 6527SOL     OW20479   0.587   2.149   4.585
 6527SOL    HW120480   0.626   2.138   4.677
 6527SOL    HW220481   0.659   2.142   4.517
 6528SOL     OW20482   0.087   0.914   5.712
 6528SOL    HW120483   0.103   1.013   5.704
 6528SOL    HW220484   0.119   0.869   5.629
 6529SOL     OW20485   1.557   0.819   2.728
 6529SOL    HW120486   1.647   0.789   2.760
 6529SOL    HW220487   1.519   0.885   2.793
 6530SOL     OW20488   6.796   3.774   0.416
 6530SOL    HW120489   6.699   3.781   0.392
 6530SOL    HW220490   6.816   3.680   0.444
 6531SOL     OW20491   5.556   3.099   5.018
 6531SOL    HW120492   5.652   3.121   5.037
 6531SOL    HW220493   5.505   3.095   5.104
 6532SOL     OW20494   0.145   1.303   1.083
 6532SOL    HW120495   0.062   1.252   1.104
 6532SOL    HW220496   0.137   1.396   1.118
 6533SOL     OW20497   4.568   6.801   1.251
 6533SOL    HW120498   4.609   6.727   1.305
 6533SOL    HW220499   4.503   6.762   1.186
 6534SOL     OW20500   3.718   4.611   1.397
 6534SOL    HW120501   3.771   4.685   1.354
 6534SOL    HW220502   3.730   4.615   1.496
 6535SOL     OW20503   6.161   3.979   4.097
 6535SOL    HW120504   6.158   3.933   4.008
 6535SOL    HW220505   6.083   4.041   4.105
 6536SOL     OW20506   1.227   1.067   5.696
 6536SOL    HW120507   1.188   1.005   5.764
 6536SOL    HW220508   1.240   1.158   5.736
 6537SOL     OW20509   6.781   5.402   0.108
 6537SOL    HW120510   6.779   5.502   0.105
 6537SOL    HW220511   6.834   5.372   0.187
 6538SOL     OW20512   2.463   3.980   6.526
 6538SOL    HW120513   2.476   4.043   6.450
 6538SOL    HW220514   2.542   3.984   6.587
 6539SOL     OW20515   4.226   0.201   5.793
 6539SOL    HW120516   4.226   0.285   5.846
 6539SOL    HW220517   4.215   0.222   5.696
 6540SOL     OW20518   4.766   1.980   5.968
 6540SOL    HW120519   4.697   2.052   5.976
 6540SOL    HW220520   4.721   1.891   5.960
 6541SOL     OW20521   4.888   2.552   5.147
 6541SOL    HW120522   4.933   2.621   5.091
 6541SOL    HW220523   4.796   2.582   5.170
 6542SOL     OW20524   6.309   3.684   3.793
 6542SOL    HW120525   6.216   3.721   3.784
 6542SOL    HW220526   6.369   3.730   3.728
 6543SOL     OW20527   5.325   2.947   5.852
 6543SOL    HW120528   5.391   3.010   5.811
 6543SOL    HW220529   5.232   2.980   5.836
 6544SOL     OW20530   1.011   6.303   3.112
 6544SOL    HW120531   0.966   6.328   3.026
 6544SOL    HW220532   1.095   6.356   3.121
 6545SOL     OW20533   3.840   2.560   0.596
 6545SOL    HW120534   3.813   2.501   0.520
 6545SOL    HW220535   3.768   2.628   0.612
 6546SOL     OW20536   2.729   4.546   0.487
 6546SOL    HW120537   2.805   4.490   0.516
 6546SOL    HW220538   2.737   4.566   0.389
 6547SOL     OW20539   4.628   1.105   5.596
 6547SOL    HW120540   4.715   1.121   5.550
 6547SOL    HW220541   4.608   1.007   5.596
 6548SOL     OW20542   0.812   4.404   0.299
 6548SOL    HW120543   0.754   4.365   0.227
 6548SOL    HW220544   0.880   4.465   0.258
 6549SOL     OW20545   4.855   0.879   1.646
 6549SOL    HW120546   4.902   0.806   1.597
 6549SOL    HW220547   4.914   0.960   1.648
 6550SOL     OW20548   0.216   6.434   4.193
 6550SOL    HW120549   0.153   6.360   4.170
 6550SOL    HW220550   0.179   6.521   4.162
 6551SOL     OW20551   1.824   5.203   2.496
 6551SOL    HW120552   1.900   5.266   2.515
 6551SOL    HW220553   1.740   5.255   2.481
 6552SOL     OW20554   2.075   6.756   6.884
 6552SOL    HW120555   2.038   6.746   6.792
 6552SOL    HW220556   2.159   6.701   6.892
 6553SOL     OW20557   0.048   1.937   3.225
 6553SOL    HW120558   0.009   1.851   3.257
 6553SOL    HW220559   0.090   1.923   3.135
 6554SOL     OW20560   0.641   1.031   4.550
 6554SOL    HW120561   0.658   1.083   4.466
 6554SOL    HW220562   0.726   0.989   4.581
 6555SOL     OW20563   5.981   2.107   2.569
 6555SOL    HW120564   5.953   2.019   2.608
 6555SOL    HW220565   5.930   2.181   2.614
 6556SOL     OW20566   5.302   4.583   4.901
 6556SOL    HW120567   5.344   4.580   4.991
 6556SOL    HW220568   5.274   4.677   4.880
 6557SOL     OW20569   3.343   6.954   2.494
 6557SOL    HW120570   3.321   6.952   2.397
 6557SOL    HW220571   3.415   7.022   2.511
 6558SOL     OW20572   7.007   4.875   6.662
 6558SOL    HW120573   6.946   4.837   6.732
 6558SOL    HW220574   6.997   4.975   6.661
 6559SOL     OW20575   0.491   3.355   6.145
 6559SOL    HW120576   0.495   3.366   6.244
 6559SOL    HW220577   0.396   3.353   6.115
 6560SOL     OW20578   4.497   5.398   1.391
 6560SOL    HW120579   4.439   5.470   1.351
 6560SOL    HW220580   4.476   5.311   1.348
 6561SOL     OW20581   3.188   3.721   1.685
 6561SOL    HW120582   3.239   3.687   1.606
 6561SOL    HW220583   3.236   3.799   1.724
 6562SOL     OW20584   5.958   3.299   1.259
 6562SOL    HW120585   5.971   3.378   1.199
 6562SOL    HW220586   5.950   3.216   1.204
 6563SOL     OW20587   5.594   6.530   0.304
 6563SOL    HW120588   5.618   6.601   0.239
 6563SOL    HW220589   5.520   6.474   0.267
 6564SOL     OW20590   6.520   4.393   3.064
 6564SOL    HW120591   6.552   4.366   3.155
 6564SOL    HW220592   6.596   4.394   3.000
 6565SOL     OW20593   5.989   1.867   3.740
 6565SOL    HW120594   6.006   1.898   3.647
 6565SOL    HW220595   5.971   1.769   3.741
 6566SOL     OW20596   3.431   6.122   2.815
 6566SOL    HW120597   3.449   6.213   2.779
 6566SOL    HW220598   3.470   6.053   2.754
 6567SOL     OW20599   4.146   1.148   2.174
 6567SOL    HW120600   4.067   1.191   2.130
 6567SOL    HW220601   4.230   1.192   2.143
 6568SOL     OW20602   3.827   1.077   3.533
 6568SOL    HW120603   3.864   0.988   3.559
 6568SOL    HW220604   3.761   1.065   3.459
 6569SOL     OW20605   3.174   3.420   6.178
 6569SOL    HW120606   3.185   3.321   6.191
 6569SOL    HW220607   3.076   3.442   6.172
 6570SOL     OW20608   3.750   0.856   2.116
 6570SOL    HW120609   3.829   0.804   2.085
 6570SOL    HW220610   3.771   0.897   2.205
 6571SOL     OW20611   2.911   5.669   1.502
 6571SOL    HW120612   2.857   5.586   1.518
 6571SOL    HW220613   2.961   5.692   1.586
 6572SOL     OW20614   6.257   5.130   5.793
 6572SOL    HW120615   6.299   5.094   5.876
 6572SOL    HW220616   6.239   5.228   5.804
 6573SOL     OW20617   2.037   1.571   2.328
 6573SOL    HW120618   2.062   1.604   2.236
 6573SOL    HW220619   1.960   1.508   2.321
 6574SOL     OW20620   3.357   5.648   2.909
 6574SOL    HW120621   3.305   5.562   2.914
 6574SOL    HW220622   3.347   5.688   2.818
 6575SOL     OW20623   0.978   6.864   2.977
 6575SOL    HW120624   0.905   6.906   3.031
 6575SOL    HW220625   0.942   6.783   2.931
 6576SOL     OW20626   2.156   5.985   6.431
 6576SOL    HW120627   2.064   5.963   6.463
 6576SOL    HW220628   2.202   5.901   6.401
 6577SOL     OW20629   0.899   1.243   4.385
 6577SOL    HW120630   0.828   1.301   4.425
 6577SOL    HW220631   0.857   1.178   4.322
 6578SOL     OW20632   1.236   5.139   3.463
 6578SOL    HW120633   1.325   5.166   3.426
 6578SOL    HW220634   1.238   5.042   3.487
 6579SOL     OW20635   6.553   3.780   4.803
 6579SOL    HW120636   6.518   3.731   4.883
 6579SOL    HW220637   6.615   3.853   4.833
 6580SOL     OW20638   0.770   2.534   0.381
 6580SOL    HW120639   0.736   2.454   0.431
 6580SOL    HW220640   0.864   2.518   0.352
 6581SOL     OW20641   2.757   0.558   6.926
 6581SOL    HW120642   2.684   0.587   6.988
 6581SOL    HW220643   2.830   0.515   6.978
 6582SOL     OW20644   0.752   1.528   1.919
 6582SOL    HW120645   0.745   1.467   1.840
 6582SOL    HW220646   0.663   1.536   1.963
 6583SOL     OW20647   4.085   0.886   5.156
 6583SOL    HW120648   4.030   0.969   5.161
 6583SOL    HW220649   4.030   0.808   5.186
 6584SOL     OW20650   4.736   2.428   0.897
 6584SOL    HW120651   4.719   2.481   0.980
 6584SOL    HW220652   4.768   2.336   0.922
 6585SOL     OW20653   5.392   6.856   0.232
 6585SOL    HW120654   5.339   6.771   0.221
 6585SOL    HW220655   5.415   6.893   0.142
 6586SOL     OW20656   0.580   2.037   5.356
 6586SOL    HW120657   0.677   2.058   5.364
 6586SOL    HW220658   0.568   1.948   5.310
 6587SOL     OW20659   1.836   6.858   4.615
 6587SOL    HW120660   1.885   6.918   4.552
 6587SOL    HW220661   1.737   6.864   4.598
 6588SOL     OW20662   1.005   3.713   1.690
 6588SOL    HW120663   1.046   3.634   1.644
 6588SOL    HW220664   0.916   3.688   1.727
 6589SOL     OW20665   5.194   1.156   0.019
 6589SOL    HW120666   5.268   1.113   6.994
 6589SOL    HW220667   5.113   1.163   6.988
 6590SOL     OW20668   1.311   0.394   6.149
 6590SOL    HW120669   1.337   0.355   6.238
 6590SOL    HW220670   1.254   0.328   6.100
 6591SOL     OW20671   5.203   5.395   2.170
 6591SOL    HW120672   5.287   5.445   2.153
 6591SOL    HW220673   5.199   5.369   2.267
 6592SOL     OW20674   6.028   0.447   3.623
 6592SOL    HW120675   6.101   0.380   3.612
 6592SOL    HW220676   6.022   0.505   3.541
 6593SOL     OW20677   2.082   2.170   2.455
 6593SOL    HW120678   2.103   2.124   2.541
 6593SOL    HW220679   2.166   2.184   2.403
 6594SOL     OW20680   3.442   1.840   0.019
 6594SOL    HW120681   3.390   1.922   7.021
 6594SOL    HW220682   3.419   1.766   6.983
 6595SOL     OW20683   0.540   3.888   0.082
 6595SOL    HW120684   0.627   3.928   0.052
 6595SOL    HW220685   0.548   3.789   0.084
 6596SOL     OW20686   3.262   6.310   4.403
 6596SOL    HW120687   3.357   6.298   4.434
 6596SOL    HW220688   3.253   6.277   4.309
 6597SOL     OW20689   1.877   5.430   1.393
 6597SOL    HW120690   1.785   5.469   1.386
 6597SOL    HW220691   1.892   5.396   1.485
 6598SOL     OW20692   1.455   6.270   4.726
 6598SOL    HW120693   1.392   6.195   4.744
 6598SOL    HW220694   1.539   6.256   4.779
 6599SOL     OW20695   4.513   6.411   5.985
 6599SOL    HW120696   4.440   6.475   6.008
 6599SOL    HW220697   4.533   6.352   6.063
 6600SOL     OW20698   4.930   4.858   5.210
 6600SOL    HW120699   4.938   4.767   5.168
 6600SOL    HW220700   5.005   4.916   5.178
 6601SOL     OW20701   1.233   1.798   5.492
 6601SOL    HW120702   1.211   1.876   5.550
 6601SOL    HW220703   1.159   1.783   5.427
 6602SOL     OW20704   0.651   0.993   2.234
 6602SOL    HW120705   0.567   1.021   2.281
 6602SOL    HW220706   0.727   1.049   2.267
 6603SOL     OW20707   6.701   2.683   3.904
 6603SOL    HW120708   6.670   2.601   3.952
 6603SOL    HW220709   6.723   2.754   3.970
 6604SOL     OW20710   2.224   0.249   0.850
 6604SOL    HW120711   2.166   0.330   0.851
 6604SOL    HW220712   2.233   0.214   0.757
 6605SOL     OW20713   5.553   3.620   1.716
 6605SOL    HW120714   5.512   3.698   1.669
 6605SOL    HW220715   5.652   3.623   1.708
 6606SOL     OW20716   6.687   6.120   1.519
 6606SOL    HW120717   6.740   6.036   1.517
 6606SOL    HW220718   6.741   6.195   1.482
 6607SOL     OW20719   1.737   3.311   2.278
 6607SOL    HW120720   1.710   3.275   2.189
 6607SOL    HW220721   1.657   3.320   2.336
 6608SOL     OW20722   5.963   6.022   1.093
 6608SOL    HW120723   5.884   6.072   1.058
 6608SOL    HW220724   6.016   6.081   1.154
 6609SOL     OW20725   4.602   0.808   5.552
 6609SOL    HW120726   4.511   0.773   5.532
 6609SOL    HW220727   4.636   0.766   5.636
 6610SOL     OW20728   3.208   7.008   6.968
 6610SOL    HW120729   3.112   0.011   6.967
 6610SOL    HW220730   3.267   0.059   6.991
 6611SOL     OW20731   5.190   3.017   3.519
 6611SOL    HW120732   5.238   3.075   3.452
 6611SOL    HW220733   5.258   2.970   3.576
 6612SOL     OW20734   6.135   2.030   6.307
 6612SOL    HW120735   6.053   2.042   6.252
 6612SOL    HW220736   6.111   2.034   6.404
 6613SOL     OW20737   6.609   6.117   4.939
 6613SOL    HW120738   6.628   6.162   4.851
 6613SOL    HW220739   6.681   6.051   4.959
 6614SOL     OW20740   5.415   0.069   0.629
 6614SOL    HW120741   5.501   0.038   0.586
 6614SOL    HW220742   5.341   0.063   0.562
 6615SOL     OW20743   1.153   5.328   2.503
 6615SOL    HW120744   1.198   5.328   2.413
 6615SOL    HW220745   1.068   5.380   2.497
 6616SOL     OW20746   4.302   1.114   5.797
 6616SOL    HW120747   4.281   1.209   5.820
 6616SOL    HW220748   4.227   1.075   5.744
 6617SOL     OW20749   4.378   4.964   3.083
 6617SOL    HW120750   4.370   4.966   2.983
 6617SOL    HW220751   4.374   5.058   3.118
 6618SOL     OW20752   1.292   2.457   2.350
 6618SOL    HW120753   1.337   2.382   2.398
 6618SOL    HW220754   1.354   2.494   2.281
 6619SOL     OW20755   6.513   6.922   4.056
 6619SOL    HW120756   6.543   6.975   3.977
 6619SOL    HW220757   6.593   6.881   4.100
 6620SOL     OW20758   1.571   3.211   4.929
 6620SOL    HW120759   1.555   3.163   5.015
 6620SOL    HW220760   1.552   3.309   4.940
 6621SOL     OW20761   3.145   2.823   6.096
 6621SOL    HW120762   3.129   2.919   6.116
 6621SOL    HW220763   3.120   2.767   6.175
 6622SOL     OW20764   5.677   6.943   0.996
 6622SOL    HW120765   5.616   7.015   0.965
 6622SOL    HW220766   5.725   6.903   0.918
 6623SOL     OW20767   3.306   3.331   5.586
 6623SOL    HW120768   3.215   3.322   5.547
 6623SOL    HW220769   3.302   3.321   5.685
 6624SOL     OW20770   0.591   4.997   6.199
 6624SOL    HW120771   0.560   4.973   6.291
 6624SOL    HW220772   0.524   4.964   6.132
 6625SOL     OW20773   5.023   1.996   5.364
 6625SOL    HW120774   4.970   2.023   5.444
 6625SOL    HW220775   4.967   1.938   5.305
 6626SOL     OW20776   5.057   5.010   5.463
 6626SOL    HW120777   5.031   4.926   5.511
 6626SOL    HW220778   5.002   5.018   5.379
 6627SOL     OW20779   2.187   6.651   4.942
 6627SOL    HW120780   2.240   6.608   4.868
 6627SOL    HW220781   2.100   6.684   4.905
 6628SOL     OW20782   4.608   4.445   4.963
 6628SOL    HW120783   4.675   4.425   5.035
 6628SOL    HW220784   4.520   4.467   5.005
 6629SOL     OW20785   4.460   5.925   0.113
 6629SOL    HW120786   4.377   5.977   0.094
 6629SOL    HW220787   4.436   5.830   0.136
 6630SOL     OW20788   3.725   1.088   1.733
 6630SOL    HW120789   3.797   1.024   1.758
 6630SOL    HW220790   3.641   1.065   1.782
 6631SOL     OW20791   2.719   5.537   3.545
 6631SOL    HW120792   2.735   5.616   3.486
 6631SOL    HW220793   2.805   5.505   3.584
 6632SOL     OW20794   0.160   6.815   1.432
 6632SOL    HW120795   0.164   6.800   1.333
 6632SOL    HW220796   0.137   6.911   1.450
 6633SOL     OW20797   0.600   4.476   6.225
 6633SOL    HW120798   0.688   4.495   6.181
 6633SOL    HW220799   0.527   4.485   6.158
 6634SOL     OW20800   5.169   2.056   4.140
 6634SOL    HW120801   5.136   2.050   4.234
 6634SOL    HW220802   5.247   2.117   4.135
 6635SOL     OW20803   4.356   4.649   3.004
 6635SOL    HW120804   4.332   4.663   3.100
 6635SOL    HW220805   4.455   4.634   2.996
 6636SOL     OW20806   5.000   2.641   5.851
 6636SOL    HW120807   4.955   2.670   5.936
 6636SOL    HW220808   5.098   2.661   5.857
 6637SOL     OW20809   1.473   0.320   6.547
 6637SOL    HW120810   1.540   0.390   6.569
 6637SOL    HW220811   1.417   0.301   6.628
 6638SOL     OW20812   3.223   3.506   3.927
 6638SOL    HW120813   3.288   3.471   3.994
 6638SOL    HW220814   3.262   3.585   3.880
 6639SOL     OW20815   5.264   4.624   6.816
 6639SOL    HW120816   5.214   4.548   6.775
 6639SOL    HW220817   5.336   4.589   6.876
 6640SOL     OW20818   1.757   1.703   5.074
 6640SOL    HW120819   1.832   1.769   5.079
 6640SOL    HW220820   1.680   1.743   5.024
 6641SOL     OW20821   2.034   1.984   6.461
 6641SOL    HW120822   2.019   1.896   6.506
 6641SOL    HW220823   2.129   1.991   6.431
 6642SOL     OW20824   2.375   5.591   6.883
 6642SOL    HW120825   2.329   5.537   6.812
 6642SOL    HW220826   2.448   5.537   6.924
 6643SOL     OW20827   6.000   5.099   0.220
 6643SOL    HW120828   5.973   5.099   0.124
 6643SOL    HW220829   6.090   5.056   0.230
 6644SOL     OW20830   2.388   5.336   1.944
 6644SOL    HW120831   2.454   5.329   1.869
 6644SOL    HW220832   2.435   5.323   2.031
 6645SOL     OW20833   6.425   5.018   0.658
 6645SOL    HW120834   6.498   5.014   0.726
 6645SOL    HW220835   6.392   5.112   0.650
 6646SOL     OW20836   4.328   0.147   4.813
 6646SOL    HW120837   4.349   0.195   4.898
 6646SOL    HW220838   4.232   0.118   4.814
 6647SOL     OW20839   4.983   1.119   1.589
 6647SOL    HW120840   5.041   1.141   1.511
 6647SOL    HW220841   5.034   1.134   1.674
 6648SOL     OW20842   4.483   6.618   3.597
 6648SOL    HW120843   4.579   6.642   3.613
 6648SOL    HW220844   4.466   6.526   3.632
 6649SOL     OW20845   4.817   0.876   6.706
 6649SOL    HW120846   4.788   0.900   6.799
 6649SOL    HW220847   4.884   0.801   6.710
 6650SOL     OW20848   3.808   1.480   5.332
 6650SOL    HW120849   3.799   1.382   5.352
 6650SOL    HW220850   3.828   1.491   5.234
 6651SOL     OW20851   2.138   2.012   5.499
 6651SOL    HW120852   2.048   1.991   5.462
 6651SOL    HW220853   2.193   2.059   5.430
 6652SOL     OW20854   0.829   4.495   0.698
 6652SOL    HW120855   0.893   4.432   0.654
 6652SOL    HW220856   0.748   4.446   0.728
 6653SOL     OW20857   2.978   3.354   2.617
 6653SOL    HW120858   2.960   3.291   2.542
 6653SOL    HW220859   2.929   3.440   2.603
 6654SOL     OW20860   1.104   4.683   1.247
 6654SOL    HW120861   1.136   4.649   1.159
 6654SOL    HW220862   1.177   4.673   1.315
 6655SOL     OW20863   0.779   0.005   3.614
 6655SOL    HW120864   0.778   0.105   3.615
 6655SOL    HW220865   0.708   6.999   3.551
 6656SOL     OW20866   5.718   1.682   4.003
 6656SOL    HW120867   5.714   1.774   4.044
 6656SOL    HW220868   5.648   1.625   4.045
 6657SOL     OW20869   5.640   5.535   6.361
 6657SOL    HW120870   5.650   5.438   6.338
 6657SOL    HW220871   5.552   5.550   6.404
 6658SOL     OW20872   6.952   1.164   4.443
 6658SOL    HW120873   6.881   1.199   4.503
 6658SOL    HW220874   6.912   1.136   4.356
 6659SOL     OW20875   2.256   2.624   0.233
 6659SOL    HW120876   2.172   2.573   0.251
 6659SOL    HW220877   2.320   2.611   0.309
 6660SOL     OW20878   1.066   4.938   1.234
 6660SOL    HW120879   1.064   4.838   1.239
 6660SOL    HW220880   1.046   4.976   1.324
 6661SOL     OW20881   0.629   6.570   4.897
 6661SOL    HW120882   0.723   6.588   4.928
 6661SOL    HW220883   0.591   6.494   4.950
 6662SOL     OW20884   0.946   0.506   0.049
 6662SOL    HW120885   0.965   0.540   6.984
 6662SOL    HW220886   0.899   0.576   0.102
 6663SOL     OW20887   6.442   4.773   4.165
 6663SOL    HW120888   6.525   4.718   4.173
 6663SOL    HW220889   6.409   4.772   4.071
 6664SOL     OW20890   2.029   6.293   0.255
 6664SOL    HW120891   2.022   6.387   0.287
 6664SOL    HW220892   1.946   6.243   0.281
 6665SOL     OW20893   2.036   6.239   4.381
 6665SOL    HW120894   2.007   6.228   4.476
 6665SOL    HW220895   2.010   6.159   4.328
 6666SOL     OW20896   6.421   6.963   5.602
 6666SOL    HW120897   6.413   6.889   5.535
 6666SOL    HW220898   6.334   7.013   5.606
 6667SOL     OW20899   6.465   6.087   6.503
 6667SOL    HW120900   6.454   6.178   6.462
 6667SOL    HW220901   6.465   6.018   6.430
 6668SOL     OW20902   0.101   5.326   1.362
 6668SOL    HW120903   0.119   5.311   1.459
 6668SOL    HW220904   0.149   5.257   1.308
 6669SOL     OW20905   1.641   2.751   3.492
 6669SOL    HW120906   1.680   2.781   3.406
 6669SOL    HW220907   1.684   2.799   3.568
 6670SOL     OW20908   3.205   2.107   5.359
 6670SOL    HW120909   3.194   2.206   5.354
 6670SOL    HW220910   3.296   2.082   5.327
 6671SOL     OW20911   6.196   6.079   0.718
 6671SOL    HW120912   6.220   6.104   0.812
 6671SOL    HW220913   6.098   6.093   0.704
 6672SOL     OW20914   6.603   1.988   6.338
 6672SOL    HW120915   6.538   2.006   6.264
 6672SOL    HW220916   6.553   1.953   6.417
 6673SOL     OW20917   5.157   5.392   4.738
 6673SOL    HW120918   5.247   5.377   4.698
 6673SOL    HW220919   5.123   5.481   4.709
 6674SOL     OW20920   0.385   4.846   6.085
 6674SOL    HW120921   0.395   4.787   6.006
 6674SOL    HW220922   0.335   4.798   6.158
 6675SOL     OW20923   5.059   3.922   1.893
 6675SOL    HW120924   5.084   3.826   1.894
 6675SOL    HW220925   4.969   3.934   1.853
 6676SOL     OW20926   7.006   3.474   5.500
 6676SOL    HW120927   0.080   3.471   5.503
 6676SOL    HW220928   6.969   3.451   5.589
 6677SOL     OW20929   1.387   1.498   6.698
 6677SOL    HW120930   1.342   1.411   6.722
 6677SOL    HW220931   1.486   1.488   6.706
 6678SOL     OW20932   3.310   3.182   6.524
 6678SOL    HW120933   3.269   3.116   6.461
 6678SOL    HW220934   3.316   3.272   6.479
 6679SOL     OW20935   3.062   1.106   4.205
 6679SOL    HW120936   3.119   1.181   4.240
 6679SOL    HW220937   3.047   1.118   4.107
 6680SOL     OW20938   4.919   6.981   6.797
 6680SOL    HW120939   4.838   7.011   6.745
 6680SOL    HW220940   4.918   6.881   6.805
 6681SOL     OW20941   3.942   6.280   1.527
 6681SOL    HW120942   3.916   6.324   1.614
 6681SOL    HW220943   3.972   6.350   1.462
 6682SOL     OW20944   0.087   4.671   2.646
 6682SOL    HW120945   0.082   4.768   2.623
 6682SOL    HW220946   0.181   4.647   2.669
 6683SOL     OW20947   5.752   3.028   5.371
 6683SOL    HW120948   5.739   3.117   5.327
 6683SOL    HW220949   5.826   2.979   5.325
 6684SOL     OW20950   2.751   0.446   1.521
 6684SOL    HW120951   2.833   0.497   1.545
 6684SOL    HW220952   2.733   0.377   1.591
 6685SOL     OW20953   6.906   3.742   5.626
 6685SOL    HW120954   6.808   3.725   5.622
 6685SOL    HW220955   6.954   3.674   5.570
 6686SOL     OW20956   5.543   5.896   4.140
 6686SOL    HW120957   5.528   5.813   4.194
 6686SOL    HW220958   5.493   5.889   4.054
 6687SOL     OW20959   1.043   3.485   7.017
 6687SOL    HW120960   1.081   3.574   0.016
 6687SOL    HW220961   1.086   3.453   6.933
 6688SOL     OW20962   0.358   3.962   2.827
 6688SOL    HW120963   0.268   3.993   2.797
 6688SOL    HW220964   0.429   4.006   2.772
 6689SOL     OW20965   4.388   2.893   0.308
 6689SOL    HW120966   4.384   2.975   0.364
 6689SOL    HW220967   4.479   2.850   0.316
 6690SOL     OW20968   2.050   1.058   0.663
 6690SOL    HW120969   2.039   1.145   0.614
 6690SOL    HW220970   1.960   1.018   0.681
 6691SOL     OW20971   2.514   6.483   1.668
 6691SOL    HW120972   2.480   6.574   1.691
 6691SOL    HW220973   2.446   6.435   1.613
 6692SOL     OW20974   4.000   4.086   5.154
 6692SOL    HW120975   4.053   4.169   5.165
 6692SOL    HW220976   3.908   4.109   5.121
 6693SOL     OW20977   4.101   3.711   4.725
 6693SOL    HW120978   4.188   3.673   4.692
 6693SOL    HW220979   4.043   3.638   4.760
 6694SOL     OW20980   3.795   6.047   1.079
 6694SOL    HW120981   3.867   6.116   1.073
 6694SOL    HW220982   3.836   5.956   1.079
 6695SOL     OW20983   3.227   1.687   0.440
 6695SOL    HW120984   3.233   1.706   0.539
 6695SOL    HW220985   3.136   1.711   0.407
 6696SOL     OW20986   2.246   3.094   5.591
 6696SOL    HW120987   2.178   3.025   5.615
 6696SOL    HW220988   2.284   3.073   5.501
 6697SOL     OW20989   4.420   2.414   2.681
 6697SOL    HW120990   4.467   2.430   2.768
 6697SOL    HW220991   4.336   2.362   2.697
 6698SOL     OW20992   2.734   2.485   1.503
 6698SOL    HW120993   2.637   2.511   1.510
 6698SOL    HW220994   2.757   2.468   1.407
 6699SOL     OW20995   2.376   5.270   6.274
 6699SOL    HW120996   2.289   5.223   6.284
 6699SOL    HW220997   2.435   5.249   6.352
 6700SOL     OW20998   6.690   6.580   1.332
 6700SOL    HW120999   6.687   6.588   1.233
 6700SOL    HW221000   6.621   6.641   1.372
 6701SOL     OW21001   5.477   3.117   1.726
 6701SOL    HW121002   5.447   3.034   1.774
 6701SOL    HW221003   5.533   3.172   1.787
 6702SOL     OW21004   3.244   1.801   1.925
 6702SOL    HW121005   3.211   1.739   1.854
 6702SOL    HW221006   3.271   1.748   2.005
 6703SOL     OW21007   6.421   2.053   6.807
 6703SOL    HW121008   6.436   2.076   6.710
 6703SOL    HW221009   6.452   2.128   6.865
 6704SOL     OW21010   3.516   1.846   3.482
 6704SOL    HW121011   3.507   1.910   3.407
 6704SOL    HW221012   3.426   1.806   3.504
 6705SOL     OW21013   6.588   2.917   1.685
 6705SOL    HW121014   6.525   2.979   1.638
 6705SOL    HW221015   6.579   2.825   1.646
 6706SOL     OW21016   1.329   4.208   2.030
 6706SOL    HW121017   1.356   4.122   1.986
 6706SOL    HW221018   1.397   4.233   2.099
 6707SOL     OW21019   6.708   5.613   3.436
 6707SOL    HW121020   6.668   5.703   3.421
 6707SOL    HW221021   6.636   5.544   3.434
 6708SOL     OW21022   6.314   5.127   1.887
 6708SOL    HW121023   6.350   5.163   1.801
 6708SOL    HW221024   6.290   5.203   1.947
 6709SOL     OW21025   2.587   6.676   3.233
 6709SOL    HW121026   2.614   6.767   3.200
 6709SOL    HW221027   2.666   6.616   3.234
 6710SOL     OW21028   3.734   1.127   6.104
 6710SOL    HW121029   3.654   1.106   6.160
 6710SOL    HW221030   3.812   1.147   6.163
 6711SOL     OW21031   4.601   5.324   6.289
 6711SOL    HW121032   4.691   5.310   6.331
 6711SOL    HW221033   4.596   5.275   6.203
 6712SOL     OW21034   5.473   4.203   6.923
 6712SOL    HW121035   5.541   4.213   6.995
 6712SOL    HW221036   5.388   4.247   6.951
 6713SOL     OW21037   2.105   0.474   2.514
 6713SOL    HW121038   2.072   0.519   2.431
 6713SOL    HW221039   2.063   0.517   2.594
 6714SOL     OW21040   6.456   1.189   6.172
 6714SOL    HW121041   6.493   1.273   6.133
 6714SOL    HW221042   6.496   1.110   6.124
 6715SOL     OW21043   0.590   0.236   6.897
 6715SOL    HW121044   0.505   0.266   6.942
 6715SOL    HW221045   0.576   0.145   6.857
 6716SOL     OW21046   0.516   5.862   1.359
 6716SOL    HW121047   0.442   5.825   1.415
 6716SOL    HW221048   0.478   5.897   1.274
 6717SOL     OW21049   4.364   2.685   6.662
 6717SOL    HW121050   4.440   2.720   6.608
 6717SOL    HW221051   4.278   2.701   6.613
 6718SOL     OW21052   4.826   0.640   0.269
 6718SOL    HW121053   4.765   0.710   0.305
 6718SOL    HW221054   4.836   0.567   0.337
 6719SOL     OW21055   2.561   0.259   6.835
 6719SOL    HW121056   2.469   0.290   6.860
 6719SOL    HW221057   2.605   0.327   6.777
 6720SOL     OW21058   0.901   6.842   4.154
 6720SOL    HW121059   0.905   6.870   4.058
 6720SOL    HW221060   0.882   6.744   4.159
 6721SOL     OW21061   6.487   0.394   6.069
 6721SOL    HW121062   6.432   0.436   6.142
 6721SOL    HW221063   6.431   0.386   5.986
 6722SOL     OW21064   6.892   2.794   1.212
 6722SOL    HW121065   6.989   2.772   1.219
 6722SOL    HW221066   6.856   2.818   1.302
 6723SOL     OW21067   2.325   6.767   3.225
 6723SOL    HW121068   2.338   6.866   3.218
 6723SOL    HW221069   2.409   6.719   3.201
 6724SOL     OW21070   1.666   3.710   5.649
 6724SOL    HW121071   1.619   3.658   5.577
 6724SOL    HW221072   1.761   3.725   5.621
 6725SOL     OW21073   0.381   3.855   1.478
 6725SOL    HW121074   0.375   3.889   1.572
 6725SOL    HW221075   0.465   3.890   1.436
 6726SOL     OW21076   0.659   2.109   5.011
 6726SOL    HW121077   0.651   2.195   5.061
 6726SOL    HW221078   0.723   2.120   4.935
 6727SOL     OW21079   6.524   4.117   5.311
 6727SOL    HW121080   6.444   4.135   5.368
 6727SOL    HW221081   6.601   4.090   5.369
 6728SOL     OW21082   4.150   1.523   3.325
 6728SOL    HW121083   4.130   1.569   3.238
 6728SOL    HW221084   4.096   1.566   3.398
 6729SOL     OW21085   6.753   1.097   2.581
 6729SOL    HW121086   6.734   1.144   2.667
 6729SOL    HW221087   6.744   0.999   2.594
 6730SOL     OW21088   2.580   6.762   0.113
 6730SOL    HW121089   2.605   6.687   0.051
 6730SOL    HW221090   2.482   6.779   0.106
 6731SOL     OW21091   0.967   6.013   2.111
 6731SOL    HW121092   0.952   5.919   2.082
 6731SOL    HW221093   0.906   6.074   2.061
 6732SOL     OW21094   5.632   5.251   5.526
 6732SOL    HW121095   5.609   5.291   5.615
 6732SOL    HW221096   5.612   5.153   5.529
 6733SOL     OW21097   3.992   5.012   0.101
 6733SOL    HW121098   3.929   5.044   0.031
 6733SOL    HW221099   4.012   5.087   0.164
 6734SOL     OW21100   6.589   2.118   5.123
 6734SOL    HW121101   6.576   2.185   5.195
 6734SOL    HW221102   6.562   2.157   5.035
 6735SOL     OW21103   6.975   4.244   4.611
 6735SOL    HW121104   6.914   4.212   4.683
 6735SOL    HW221105   0.022   4.178   4.597
 6736SOL     OW21106   3.364   3.772   6.884
 6736SOL    HW121107   3.305   3.727   6.952
 6736SOL    HW221108   3.327   3.756   6.792
 6737SOL     OW21109   2.122   2.502   0.486
 6737SOL    HW121110   2.121   2.410   0.446
 6737SOL    HW221111   2.216   2.534   0.493
 6738SOL     OW21112   1.506   5.090   2.509
 6738SOL    HW121113   1.593   5.079   2.556
 6738SOL    HW221114   1.523   5.103   2.411
 6739SOL     OW21115   3.687   5.991   5.581
 6739SOL    HW121116   3.731   5.920   5.527
 6739SOL    HW221117   3.590   5.970   5.591
 6740SOL     OW21118   1.719   0.907   4.034
 6740SOL    HW121119   1.814   0.938   4.043
 6740SOL    HW221120   1.676   0.905   4.124
 6741SOL     OW21121   4.151   1.168   5.409
 6741SOL    HW121122   4.136   1.265   5.392
 6741SOL    HW221123   4.249   1.149   5.409
 6742SOL     OW21124   6.200   5.519   2.952
 6742SOL    HW121125   6.223   5.502   3.048
 6742SOL    HW221126   6.228   5.441   2.897
 6743SOL     OW21127   4.092   4.716   0.465
 6743SOL    HW121128   4.091   4.737   0.367
 6743SOL    HW221129   3.999   4.696   0.496
 6744SOL     OW21130   5.418   4.560   6.567
 6744SOL    HW121131   5.502   4.506   6.561
 6744SOL    HW221132   5.442   4.657   6.573
 6745SOL     OW21133   0.090   0.080   3.117
 6745SOL    HW121134   0.074   0.176   3.141
 6745SOL    HW221135   0.176   0.073   3.067
 6746SOL     OW21136   1.300   1.130   3.180
 6746SOL    HW121137   1.387   1.086   3.201
 6746SOL    HW221138   1.237   1.062   3.142
 6747SOL     OW21139   5.818   0.974   4.968
 6747SOL    HW121140   5.773   1.030   5.038
 6747SOL    HW221141   5.902   0.935   5.005
 6748SOL     OW21142   1.538   0.860   3.458
 6748SOL    HW121143   1.486   0.886   3.539
 6748SOL    HW221144   1.512   0.768   3.430
 6749SOL     OW21145   2.683   6.236   0.615
 6749SOL    HW121146   2.752   6.238   0.543
 6749SOL    HW221147   2.604   6.182   0.585
 6750SOL     OW21148   4.114   2.133   5.251
 6750SOL    HW121149   4.152   2.057   5.302
 6750SOL    HW221150   4.014   2.134   5.260
 6751SOL     OW21151   4.448   0.199   3.665
 6751SOL    HW121152   4.461   0.114   3.717
 6751SOL    HW221153   4.467   0.182   3.568
 6752SOL     OW21154   0.451   2.349   2.867
 6752SOL    HW121155   0.405   2.320   2.951
 6752SOL    HW221156   0.405   2.307   2.788
 6753SOL     OW21157   4.316   0.929   6.330
 6753SOL    HW121158   4.324   0.935   6.430
 6753SOL    HW221159   4.366   1.004   6.288
 6754SOL     OW21160   0.251   1.460   0.001
 6754SOL    HW121161   0.237   1.365   6.999
 6754SOL    HW221162   0.227   1.469   0.098
 6755SOL     OW21163   4.118   0.557   3.314
 6755SOL    HW121164   4.116   0.555   3.214
 6755SOL    HW221165   4.138   0.649   3.346
 6756SOL     OW21166   3.978   5.460   5.226
 6756SOL    HW121167   3.884   5.467   5.191
 6756SOL    HW221168   3.995   5.367   5.258
 6757SOL     OW21169   4.464   0.214   1.713
 6757SOL    HW121170   4.437   0.209   1.809
 6757SOL    HW221171   4.383   0.236   1.658
 6758SOL     OW21172   0.227   2.472   1.546
 6758SOL    HW121173   0.148   2.533   1.556
 6758SOL    HW221174   0.244   2.424   1.632
 6759SOL     OW21175   0.794   4.423   4.069
 6759SOL    HW121176   0.794   4.516   4.032
 6759SOL    HW221177   0.812   4.358   3.996
 6760SOL     OW21178   6.796   4.470   3.459
 6760SOL    HW121179   6.810   4.559   3.416
 6760SOL    HW221180   6.868   4.407   3.430
 6761SOL     OW21181   6.400   2.081   6.136
 6761SOL    HW121182   6.438   2.103   6.047
 6761SOL    HW221183   6.338   2.003   6.128
 6762SOL     OW21184   0.192   5.251   3.559
 6762SOL    HW121185   0.274   5.307   3.571
 6762SOL    HW221186   0.127   5.299   3.501
 6763SOL     OW21187   0.212   4.793   3.069
 6763SOL    HW121188   0.175   4.862   3.006
 6763SOL    HW221189   0.159   4.794   3.154
 6764SOL     OW21190   2.625   5.116   6.717
 6764SOL    HW121191   2.706   5.134   6.773
 6764SOL    HW221192   2.548   5.169   6.753
 6765SOL     OW21193   4.943   4.973   4.058
 6765SOL    HW121194   4.995   4.892   4.031
 6765SOL    HW221195   4.887   4.951   4.139
 6766SOL     OW21196   4.988   6.381   6.140
 6766SOL    HW121197   5.063   6.346   6.197
 6766SOL    HW221198   5.014   6.374   6.044
 6767SOL     OW21199   1.232   2.475   0.489
 6767SOL    HW121200   1.214   2.405   0.558
 6767SOL    HW221201   1.331   2.487   0.480
 6768SOL     OW21202   0.964   6.439   3.368
 6768SOL    HW121203   0.926   6.390   3.289
 6768SOL    HW221204   1.061   6.415   3.378
 6769SOL     OW21205   2.890   0.104   5.880
 6769SOL    HW121206   2.851   0.186   5.838
 6769SOL    HW221207   2.989   0.115   5.888
 6770SOL     OW21208   5.602   1.839   3.310
 6770SOL    HW121209   5.589   1.751   3.356
 6770SOL    HW221210   5.517   1.865   3.264
 6771SOL     OW21211   3.954   1.192   1.916
 6771SOL    HW121212   3.868   1.242   1.924
 6771SOL    HW221213   3.938   1.095   1.937
 6772SOL     OW21214   4.621   2.226   2.567
 6772SOL    HW121215   4.692   2.295   2.551
 6772SOL    HW221216   4.548   2.266   2.623
 6773SOL     OW21217   0.168   6.645   1.897
 6773SOL    HW121218   0.120   6.571   1.943
 6773SOL    HW221219   0.109   6.725   1.892
 6774SOL     OW21220   1.326   3.291   4.781
 6774SOL    HW121221   1.369   3.381   4.787
 6774SOL    HW221222   1.389   3.221   4.814
 6775SOL     OW21223   0.941   2.164   3.140
 6775SOL    HW121224   0.848   2.201   3.147
 6775SOL    HW221225   1.007   2.236   3.165
 6776SOL     OW21226   4.385   3.727   1.364
 6776SOL    HW121227   4.315   3.660   1.340
 6776SOL    HW221228   4.460   3.723   1.298
 6777SOL     OW21229   4.315   5.694   0.708
 6777SOL    HW121230   4.273   5.644   0.632
 6777SOL    HW221231   4.259   5.773   0.731
 6778SOL     OW21232   6.110   3.735   2.074
 6778SOL    HW121233   6.023   3.767   2.036
 6778SOL    HW221234   6.186   3.778   2.025
 6779SOL     OW21235   5.197   4.598   6.423
 6779SOL    HW121236   5.209   4.682   6.371
 6779SOL    HW221237   5.286   4.566   6.457
 6780SOL     OW21238   0.799   3.439   3.141
 6780SOL    HW121239   0.747   3.490   3.210
 6780SOL    HW221240   0.739   3.373   3.096
 6781SOL     OW21241   6.831   1.950   3.949
 6781SOL    HW121242   6.733   1.966   3.962
 6781SOL    HW221243   6.877   2.037   3.931
 6782SOL     OW21244   0.540   1.453   3.148
 6782SOL    HW121245   0.545   1.468   3.049
 6782SOL    HW221246   0.616   1.499   3.193
 6783SOL     OW21247   1.248   3.010   6.117
 6783SOL    HW121248   1.207   3.056   6.038
 6783SOL    HW221249   1.219   2.914   6.118
 6784SOL     OW21250   2.279   3.917   0.869
 6784SOL    HW121251   2.235   3.972   0.941
 6784SOL    HW221252   2.351   3.972   0.826
 6785SOL     OW21253   5.961   5.174   5.509
 6785SOL    HW121254   5.862   5.158   5.506
 6785SOL    HW221255   6.006   5.095   5.552
 6786SOL     OW21256   0.784   3.066   6.638
 6786SOL    HW121257   0.810   3.041   6.731
 6786SOL    HW221258   0.820   3.157   6.617
 6787SOL     OW21259   3.243   2.080   1.202
 6787SOL    HW121260   3.230   2.105   1.298
 6787SOL    HW221261   3.309   2.142   1.161
 6788SOL     OW21262   0.459   4.559   2.223
 6788SOL    HW121263   0.512   4.480   2.252
 6788SOL    HW221264   0.499   4.642   2.262
 6789SOL     OW21265   0.129   4.389   4.133
 6789SOL    HW121266   0.206   4.451   4.121
 6789SOL    HW221267   0.155   4.297   4.101
 6790SOL     OW21268   0.561   4.282   6.925
 6790SOL    HW121269   0.661   4.280   6.921
 6790SOL    HW221270   0.530   4.214   6.992
 6791SOL     OW21271   4.167   2.238   2.405
 6791SOL    HW121272   4.231   2.279   2.340
 6791SOL    HW221273   4.074   2.259   2.377
 6792SOL     OW21274   5.367   0.030   5.538
 6792SOL    HW121275   5.376   7.020   5.631
 6792SOL    HW221276   5.272   0.054   5.520
 6793SOL     OW21277   3.499   0.604   6.891
 6793SOL    HW121278   3.457   0.515   6.911
 6793SOL    HW221279   3.573   0.621   6.956
 6794SOL     OW21280   5.290   1.370   5.441
 6794SOL    HW121281   5.312   1.277   5.469
 6794SOL    HW221282   5.201   1.372   5.396
 6795SOL     OW21283   0.860   6.186   0.235
 6795SOL    HW121284   0.838   6.282   0.222
 6795SOL    HW221285   0.797   6.129   0.182
 6796SOL     OW21286   6.062   0.199   2.328
 6796SOL    HW121287   6.069   0.272   2.397
 6796SOL    HW221288   6.057   0.240   2.237
 6797SOL     OW21289   6.451   1.806   0.750
 6797SOL    HW121290   6.475   1.902   0.750
 6797SOL    HW221291   6.505   1.757   0.681
 6798SOL     OW21292   6.449   0.468   1.653
 6798SOL    HW121293   6.476   0.443   1.746
 6798SOL    HW221294   6.391   0.549   1.656
 6799SOL     OW21295   5.983   6.973   2.289
 6799SOL    HW121296   6.016   0.035   2.320
 6799SOL    HW221297   5.918   6.936   2.356
 6800SOL     OW21298   2.392   2.576   2.108
 6800SOL    HW121299   2.482   2.535   2.093
 6800SOL    HW221300   2.346   2.528   2.183
 6801SOL     OW21301   0.821   6.762   3.664
 6801SOL    HW121302   0.794   6.837   3.604
 6801SOL    HW221303   0.914   6.733   3.642
 6802SOL     OW21304   3.627   6.259   1.571
 6802SOL    HW121305   3.669   6.192   1.633
 6802SOL    HW221306   3.675   6.346   1.580
 6803SOL     OW21307   4.026   4.383   6.654
 6803SOL    HW121308   4.076   4.300   6.681
 6803SOL    HW221309   3.966   4.412   6.728
 6804SOL     OW21310   3.746   5.198   3.012
 6804SOL    HW121311   3.676   5.137   3.048
 6804SOL    HW221312   3.737   5.205   2.913
 6805SOL     OW21313   0.394   5.443   6.839
 6805SOL    HW121314   0.458   5.412   6.768
 6805SOL    HW221315   0.413   5.395   6.925
 6806SOL     OW21316   7.001   0.743   4.376
 6806SOL    HW121317   6.929   0.740   4.306
 6806SOL    HW221318   7.000   0.832   4.421
 6807SOL     OW21319   3.865   3.777   2.878
 6807SOL    HW121320   3.870   3.707   2.807
 6807SOL    HW221321   3.786   3.836   2.862
 6808SOL     OW21322   6.732   1.185   5.174
 6808SOL    HW121323   6.830   1.166   5.174
 6808SOL    HW221324   6.683   1.103   5.142
 6809SOL     OW21325   6.570   3.436   0.637
 6809SOL    HW121326   6.598   3.356   0.690
 6809SOL    HW221327   6.512   3.407   0.561
 6810SOL     OW21328   3.017   0.934   2.539
 6810SOL    HW121329   3.098   0.976   2.500
 6810SOL    HW221330   3.008   0.840   2.504
 6811SOL     OW21331   6.316   3.146   2.337
 6811SOL    HW121332   6.302   3.049   2.316
 6811SOL    HW221333   6.363   3.155   2.424
 6812SOL     OW21334   3.738   4.172   5.119
 6812SOL    HW121335   3.736   4.075   5.145
 6812SOL    HW221336   3.696   4.183   5.029
 6813SOL     OW21337   5.836   3.247   2.516
 6813SOL    HW121338   5.865   3.169   2.571
 6813SOL    HW221339   5.912   3.276   2.458
 6814SOL     OW21340   4.427   1.898   6.747
 6814SOL    HW121341   4.370   1.822   6.778
 6814SOL    HW221342   4.403   1.981   6.797
 6815SOL     OW21343   2.490   6.389   6.750
 6815SOL    HW121344   2.445   6.319   6.694
 6815SOL    HW221345   2.559   6.345   6.808
 6816SOL     OW21346   0.038   1.410   5.607
 6816SOL    HW121347   6.985   1.415   5.667
 6816SOL    HW221348   0.016   1.357   5.525
 6817SOL     OW21349   2.576   2.490   3.874
 6817SOL    HW121350   2.609   2.495   3.780
 6817SOL    HW221351   2.498   2.552   3.886
 6818SOL     OW21352   2.032   6.583   0.307
 6818SOL    HW121353   2.015   6.658   0.243
 6818SOL    HW221354   1.952   6.573   0.367
 6819SOL     OW21355   4.741   1.453   2.936
 6819SOL    HW121356   4.777   1.544   2.911
 6819SOL    HW221357   4.806   1.408   2.997
 6820SOL     OW21358   1.359   5.949   1.586
 6820SOL    HW121359   1.446   5.922   1.546
 6820SOL    HW221360   1.314   5.870   1.626
 6821SOL     OW21361   4.314   2.684   5.341
 6821SOL    HW121362   4.274   2.707   5.429
 6821SOL    HW221363   4.258   2.614   5.296
 6822SOL     OW21364   6.040   2.542   5.843
 6822SOL    HW121365   6.110   2.503   5.903
 6822SOL    HW221366   5.986   2.468   5.803
 6823SOL     OW21367   5.829   4.284   6.146
 6823SOL    HW121368   5.909   4.252   6.196
 6823SOL    HW221369   5.855   4.359   6.085
 6824SOL     OW21370   1.806   1.424   0.269
 6824SOL    HW121371   1.742   1.487   0.225
 6824SOL    HW221372   1.865   1.474   0.332
 6825SOL     OW21373   5.996   0.156   0.202
 6825SOL    HW121374   5.979   0.188   0.109
 6825SOL    HW221375   6.094   0.144   0.216
 6826SOL     OW21376   1.717   3.746   3.263
 6826SOL    HW121377   1.646   3.678   3.280
 6826SOL    HW221378   1.790   3.705   3.208
 6827SOL     OW21379   5.233   5.412   6.202
 6827SOL    HW121380   5.159   5.420   6.269
 6827SOL    HW221381   5.223   5.484   6.133
 6828SOL     OW21382   3.775   1.628   2.760
 6828SOL    HW121383   3.739   1.635   2.853
 6828SOL    HW221384   3.700   1.611   2.696
 6829SOL     OW21385   5.630   6.374   5.148
 6829SOL    HW121386   5.646   6.447   5.082
 6829SOL    HW221387   5.635   6.412   5.241
 6830SOL     OW21388   5.382   0.474   3.487
 6830SOL    HW121389   5.402   0.429   3.400
 6830SOL    HW221390   5.312   0.422   3.536
 6831SOL     OW21391   2.024   1.202   5.477
 6831SOL    HW121392   2.069   1.116   5.500
 6831SOL    HW221393   1.936   1.183   5.432
 6832SOL     OW21394   2.513   4.064   0.788
 6832SOL    HW121395   2.506   4.164   0.786
 6832SOL    HW221396   2.552   4.032   0.702
 6833SOL     OW21397   2.317   4.613   6.237
 6833SOL    HW121398   2.223   4.627   6.208
 6833SOL    HW221399   2.377   4.679   6.192
 6834SOL     OW21400   6.089   6.953   0.689
 6834SOL    HW121401   6.090   0.023   0.666
 6834SOL    HW221402   6.156   6.935   0.761
 6835SOL     OW21403   3.416   1.574   4.395
 6835SOL    HW121404   3.489   1.533   4.340
 6835SOL    HW221405   3.336   1.590   4.338
 6836SOL     OW21406   2.546   4.035   6.088
 6836SOL    HW121407   2.583   3.946   6.117
 6836SOL    HW221408   2.603   4.072   6.015
 6837SOL     OW21409   0.786   1.742   2.905
 6837SOL    HW121410   0.879   1.721   2.933
 6837SOL    HW221411   0.787   1.815   2.837
 6838SOL     OW21412   2.797   4.174   6.243
 6838SOL    HW121413   2.703   4.151   6.266
 6838SOL    HW221414   2.839   4.098   6.193
 6839SOL     OW21415   5.165   1.330   5.137
 6839SOL    HW121416   5.157   1.426   5.113
 6839SOL    HW221417   5.073   1.289   5.142
 6840SOL     OW21418   3.076   6.687   5.324
 6840SOL    HW121419   3.009   6.760   5.336
 6840SOL    HW221420   3.100   6.649   5.413
 6841SOL     OW21421   3.983   5.041   0.826
 6841SOL    HW121422   3.936   5.004   0.745
 6841SOL    HW221423   3.916   5.084   0.886
 6842SOL     OW21424   2.678   2.633   0.133
 6842SOL    HW121425   2.703   2.701   0.064
 6842SOL    HW221426   2.582   2.607   0.120
 6843SOL     OW21427   5.461   0.338   2.092
 6843SOL    HW121428   5.438   0.432   2.067
 6843SOL    HW221429   5.561   0.326   2.086
 6844SOL     OW21430   6.149   6.244   3.803
 6844SOL    HW121431   6.168   6.150   3.832
 6844SOL    HW221432   6.175   6.307   3.875
 6845SOL     OW21433   5.360   4.306   2.407
 6845SOL    HW121434   5.430   4.289   2.477
 6845SOL    HW221435   5.358   4.230   2.342
 6846SOL     OW21436   4.182   3.027   1.563
 6846SOL    HW121437   4.187   2.970   1.481
 6846SOL    HW221438   4.273   3.034   1.604
 6847SOL     OW21439   6.882   4.191   1.973
 6847SOL    HW121440   6.900   4.281   1.934
 6847SOL    HW221441   6.857   4.127   1.900
 6848SOL     OW21442   3.150   6.567   3.637
 6848SOL    HW121443   3.192   6.590   3.550
 6848SOL    HW221444   3.171   6.472   3.661
 6849SOL     OW21445   3.072   5.607   4.659
 6849SOL    HW121446   3.164   5.586   4.689
 6849SOL    HW221447   3.075   5.667   4.579
 6850SOL     OW21448   5.222   3.225   2.479
 6850SOL    HW121449   5.305   3.274   2.508
 6850SOL    HW221450   5.204   3.151   2.543
 6851SOL     OW21451   1.404   2.860   3.864
 6851SOL    HW121452   1.337   2.879   3.937
 6851SOL    HW221453   1.495   2.891   3.894
 6852SOL     OW21454   1.596   4.777   1.184
 6852SOL    HW121455   1.503   4.813   1.173
 6852SOL    HW221456   1.629   4.743   1.096
 6853SOL     OW21457   6.751   3.717   6.577
 6853SOL    HW121458   6.836   3.753   6.615
 6853SOL    HW221459   6.708   3.787   6.520
 6854SOL     OW21460   6.367   2.012   5.746
 6854SOL    HW121461   6.466   2.009   5.756
 6854SOL    HW221462   6.325   1.944   5.805
 6855SOL     OW21463   3.252   5.732   2.672
 6855SOL    HW121464   3.244   5.769   2.580
 6855SOL    HW221465   3.198   5.649   2.681
 6856SOL     OW21466   5.391   4.892   5.662
 6856SOL    HW121467   5.333   4.938   5.729
 6856SOL    HW221468   5.430   4.810   5.701
 6857SOL     OW21469   3.279   1.547   0.137
 6857SOL    HW121470   3.303   1.554   0.234
 6857SOL    HW221471   3.234   1.632   0.108
 6858SOL     OW21472   3.855   3.308   4.069
 6858SOL    HW121473   3.756   3.296   4.074
 6858SOL    HW221474   3.899   3.261   4.146
 6859SOL     OW21475   1.342   6.844   1.284
 6859SOL    HW121476   1.381   6.794   1.361
 6859SOL    HW221477   1.245   6.861   1.299
 6860SOL     OW21478   5.972   5.492   1.402
 6860SOL    HW121479   5.994   5.394   1.400
 6860SOL    HW221480   5.914   5.512   1.481
 6861SOL     OW21481   5.824   4.394   0.484
 6861SOL    HW121482   5.792   4.489   0.482
 6861SOL    HW221483   5.746   4.332   0.485
 6862SOL     OW21484   2.150   4.580   4.733
 6862SOL    HW121485   2.212   4.522   4.786
 6862SOL    HW221486   2.143   4.670   4.775
 6863SOL     OW21487   5.740   1.483   4.981
 6863SOL    HW121488   5.782   1.407   4.932
 6863SOL    HW221489   5.768   1.569   4.939
 6864SOL     OW21490   3.612   5.746   3.793
 6864SOL    HW121491   3.635   5.705   3.704
 6864SOL    HW221492   3.515   5.771   3.794
 6865SOL     OW21493   6.745   5.425   2.867
 6865SOL    HW121494   6.687   5.448   2.945
 6865SOL    HW221495   6.805   5.502   2.846
 6866SOL     OW21496   6.387   4.402   2.200
 6866SOL    HW121497   6.424   4.375   2.288
 6866SOL    HW221498   6.462   4.426   2.138
 6867SOL     OW21499   1.615   4.745   1.467
 6867SOL    HW121500   1.712   4.732   1.486
 6867SOL    HW221501   1.599   4.734   1.369
 6868SOL     OW21502   1.036   5.447   5.886
 6868SOL    HW121503   1.059   5.502   5.967
 6868SOL    HW221504   0.944   5.471   5.856
 6869SOL     OW21505   6.077   1.166   5.237
 6869SOL    HW121506   6.126   1.108   5.302
 6869SOL    HW221507   6.062   1.256   5.278
 6870SOL     OW21508   6.737   5.242   2.235
 6870SOL    HW121509   6.651   5.232   2.184
 6870SOL    HW221510   6.751   5.161   2.292
 6871SOL     OW21511   5.552   4.384   2.090
 6871SOL    HW121512   5.573   4.289   2.066
 6871SOL    HW221513   5.543   4.392   2.189
 6872SOL     OW21514   1.030   3.613   0.906
 6872SOL    HW121515   0.981   3.597   0.991
 6872SOL    HW221516   1.124   3.642   0.925
 6873SOL     OW21517   6.345   3.987   4.898
 6873SOL    HW121518   6.247   3.980   4.879
 6873SOL    HW221519   6.376   4.080   4.878
 6874SOL     OW21520   1.009   4.817   2.874
 6874SOL    HW121521   1.005   4.810   2.974
 6874SOL    HW221522   1.030   4.911   2.847
 6875SOL     OW21523   1.034   2.588   3.543
 6875SOL    HW121524   1.133   2.589   3.530
 6875SOL    HW221525   1.001   2.494   3.532
 6876SOL     OW21526   4.414   6.339   5.012
 6876SOL    HW121527   4.482   6.318   5.083
 6876SOL    HW221528   4.438   6.291   4.928
 6877SOL     OW21529   2.782   4.212   6.534
 6877SOL    HW121530   2.722   4.279   6.577
 6877SOL    HW221531   2.772   4.219   6.434
 6878SOL     OW21532   2.650   2.598   5.246
 6878SOL    HW121533   2.735   2.561   5.283
 6878SOL    HW221534   2.644   2.576   5.149
 6879SOL     OW21535   1.162   2.196   0.167
 6879SOL    HW121536   1.109   2.272   0.130
 6879SOL    HW221537   1.258   2.222   0.176
 6880SOL     OW21538   1.790   3.626   5.399
 6880SOL    HW121539   1.869   3.634   5.461
 6880SOL    HW221540   1.775   3.530   5.376
 6881SOL     OW21541   0.504   4.066   2.572
 6881SOL    HW121542   0.456   4.008   2.507
 6881SOL    HW221543   0.580   4.015   2.613
 6882SOL     OW21544   3.263   0.569   5.927
 6882SOL    HW121545   3.322   0.569   5.846
 6882SOL    HW221546   3.181   0.624   5.907
 6883SOL     OW21547   3.968   1.935   0.930
 6883SOL    HW121548   3.897   1.945   0.999
 6883SOL    HW221549   3.941   1.984   0.847
 6884SOL     OW21550   1.899   4.103   4.522
 6884SOL    HW121551   1.851   4.122   4.607
 6884SOL    HW221552   1.995   4.131   4.531
 6885SOL     OW21553   4.044   5.794   4.843
 6885SOL    HW121554   3.945   5.800   4.857
 6885SOL    HW221555   4.063   5.766   4.749
 6886SOL     OW21556   6.932   0.648   3.891
 6886SOL    HW121557   7.025   0.644   3.855
 6886SOL    HW221558   6.870   0.602   3.827
 6887SOL     OW21559   5.229   6.576   5.629
 6887SOL    HW121560   5.194   6.571   5.535
 6887SOL    HW221561   5.270   6.488   5.654
 6888SOL     OW21562   5.072   6.630   6.874
 6888SOL    HW121563   5.130   6.554   6.845
 6888SOL    HW221564   4.978   6.614   6.845
 6889SOL     OW21565   1.938   2.720   5.180
 6889SOL    HW121566   1.953   2.760   5.089
 6889SOL    HW221567   1.991   2.636   5.189
 6890SOL     OW21568   3.558   6.783   1.216
 6890SOL    HW121569   3.546   6.824   1.126
 6890SOL    HW221570   3.468   6.767   1.258
 6891SOL     OW21571   2.348   4.319   4.254
 6891SOL    HW121572   2.363   4.266   4.337
 6891SOL    HW221573   2.251   4.340   4.244
 6892SOL     OW21574   3.430   1.350   3.305
 6892SOL    HW121575   3.497   1.309   3.244
 6892SOL    HW221576   3.426   1.449   3.289
 6893SOL     OW21577   5.519   5.156   6.893
 6893SOL    HW121578   5.506   5.230   6.826
 6893SOL    HW221579   5.502   5.192   6.985
 6894SOL     OW21580   6.221   4.995   0.407
 6894SOL    HW121581   6.173   4.976   0.492
 6894SOL    HW221582   6.318   4.975   0.418
 6895SOL     OW21583   2.415   5.666   6.470
 6895SOL    HW121584   2.425   5.763   6.449
 6895SOL    HW221585   2.434   5.612   6.388
 6896SOL     OW21586   2.185   6.636   3.627
 6896SOL    HW121587   2.120   6.620   3.701
 6896SOL    HW221588   2.273   6.664   3.665
 6897SOL     OW21589   2.900   3.733   0.124
 6897SOL    HW121590   2.925   3.640   0.151
 6897SOL    HW221591   2.824   3.765   0.180
 6898SOL     OW21592   3.794   1.744   2.362
 6898SOL    HW121593   3.727   1.681   2.402
 6898SOL    HW221594   3.755   1.836   2.358
 6899SOL     OW21595   5.129   6.689   1.188
 6899SOL    HW121596   5.172   6.753   1.252
 6899SOL    HW221597   5.199   6.629   1.149
 6900SOL     OW21598   6.291   0.561   5.682
 6900SOL    HW121599   6.291   0.467   5.715
 6900SOL    HW221600   6.288   0.561   5.582
 6901SOL     OW21601   0.502   0.011   5.844
 6901SOL    HW121602   0.449   0.024   5.760
 6901SOL    HW221603   0.561   0.090   5.859
 6902SOL     OW21604   5.741   6.709   0.498
 6902SOL    HW121605   5.835   6.680   0.480
 6902SOL    HW221606   5.677   6.645   0.455
 6903SOL     OW21607   3.982   5.234   4.757
 6903SOL    HW121608   4.025   5.225   4.847
 6903SOL    HW221609   4.051   5.227   4.686
 6904SOL     OW21610   5.854   1.910   4.142
 6904SOL    HW121611   5.922   1.847   4.105
 6904SOL    HW221612   5.805   1.954   4.067
 6905SOL     OW21613   5.792   6.532   6.846
 6905SOL    HW121614   5.723   6.479   6.896
 6905SOL    HW221615   5.868   6.553   6.908
 6906SOL     OW21616   4.344   0.982   4.430
 6906SOL    HW121617   4.328   1.050   4.358
 6906SOL    HW221618   4.255   0.948   4.463
 6907SOL     OW21619   5.029   2.020   1.140
 6907SOL    HW121620   4.997   1.941   1.192
 6907SOL    HW221621   4.954   2.085   1.128
 6908SOL     OW21622   1.279   6.448   5.994
 6908SOL    HW121623   1.298   6.356   6.027
 6908SOL    HW221624   1.198   6.484   6.040
 6909SOL     OW21625   5.908   4.195   1.892
 6909SOL    HW121626   5.921   4.289   1.926
 6909SOL    HW221627   5.963   4.132   1.947
 6910SOL     OW21628   0.239   2.374   3.908
 6910SOL    HW121629   0.336   2.352   3.923
 6910SOL    HW221630   0.199   2.305   3.848
 6911SOL     OW21631   5.179   6.638   3.745
 6911SOL    HW121632   5.170   6.554   3.800
 6911SOL    HW221633   5.214   6.614   3.655
 6912SOL     OW21634   4.001   5.023   0.408
 6912SOL    HW121635   3.923   5.044   0.467
 6912SOL    HW221636   4.057   4.953   0.452
 6913SOL     OW21637   5.265   5.084   5.808
 6913SOL    HW121638   5.203   5.134   5.748
 6913SOL    HW221639   5.215   5.049   5.887
 6914SOL     OW21640   5.184   4.546   0.070
 6914SOL    HW121641   5.190   4.619   0.002
 6914SOL    HW221642   5.122   4.573   0.143
 6915SOL     OW21643   6.228   4.005   1.663
 6915SOL    HW121644   6.233   4.069   1.739
 6915SOL    HW221645   6.210   4.055   1.578
 6916SOL     OW21646   6.207   3.644   6.766
 6916SOL    HW121647   6.231   3.730   6.809
 6916SOL    HW221648   6.109   3.643   6.745
 6917SOL     OW21649   3.402   5.687   0.847
 6917SOL    HW121650   3.498   5.714   0.838
 6917SOL    HW221651   3.377   5.687   0.944
 6918SOL     OW21652   0.509   3.076   4.323
 6918SOL    HW121653   0.594   3.128   4.310
 6918SOL    HW221654   0.485   3.075   4.419
 6919SOL     OW21655   0.351   6.139   2.999
 6919SOL    HW121656   0.343   6.205   3.073
 6919SOL    HW221657   0.281   6.158   2.930
 6920SOL     OW21658   4.269   5.495   5.340
 6920SOL    HW121659   4.318   5.409   5.353
 6920SOL    HW221660   4.191   5.499   5.403
 6921SOL     OW21661   5.151   6.342   3.542
 6921SOL    HW121662   5.204   6.424   3.519
 6921SOL    HW221663   5.196   6.261   3.506
 6922SOL     OW21664   2.246   5.526   6.637
 6922SOL    HW121665   2.169   5.492   6.583
 6922SOL    HW221666   2.303   5.586   6.580
 6923SOL     OW21667   4.768   5.283   3.450
 6923SOL    HW121668   4.705   5.208   3.429
 6923SOL    HW221669   4.849   5.276   3.392
 6924SOL     OW21670   1.098   4.280   6.655
 6924SOL    HW121671   1.190   4.298   6.620
 6924SOL    HW221672   1.104   4.236   6.744
 6925SOL     OW21673   3.790   6.025   4.665
 6925SOL    HW121674   3.858   6.098   4.649
 6925SOL    HW221675   3.708   6.065   4.705
 6926SOL     OW21676   2.997   3.342   2.149
 6926SOL    HW121677   2.937   3.420   2.126
 6926SOL    HW221678   3.020   3.293   2.065
 6927SOL     OW21679   5.444   3.066   6.369
 6927SOL    HW121680   5.382   3.021   6.305
 6927SOL    HW221681   5.463   3.159   6.338
 6928SOL     OW21682   6.572   5.936   0.794
 6928SOL    HW121683   6.582   5.991   0.712
 6928SOL    HW221684   6.501   5.867   0.779
 6929SOL     OW21685   4.765   5.318   1.389
 6929SOL    HW121686   4.676   5.313   1.434
 6929SOL    HW221687   4.756   5.366   1.301
 6930SOL     OW21688   6.726   0.172   2.505
 6930SOL    HW121689   6.806   0.124   2.541
 6930SOL    HW221690   6.655   0.105   2.483
 6931SOL     OW21691   1.796   0.380   2.483
 6931SOL    HW121692   1.832   0.371   2.390
 6931SOL    HW221693   1.765   0.291   2.516
 6932SOL     OW21694   3.852   0.065   0.813
 6932SOL    HW121695   3.842   0.026   0.721
 6932SOL    HW221696   3.767   0.112   0.838
 6933SOL     OW21697   3.238   6.008   5.066
 6933SOL    HW121698   3.196   5.922   5.036
 6933SOL    HW221699   3.218   6.080   4.999
 6934SOL     OW21700   4.891   4.295   5.936
 6934SOL    HW121701   4.823   4.269   6.004
 6934SOL    HW221702   4.982   4.297   5.978
 6935SOL     OW21703   4.615   6.075   3.321
 6935SOL    HW121704   4.543   6.145   3.318
 6935SOL    HW221705   4.651   6.069   3.414
 6936SOL     OW21706   6.571   2.629   3.149
 6936SOL    HW121707   6.595   2.660   3.241
 6936SOL    HW221708   6.479   2.591   3.149
 6937SOL     OW21709   6.655   6.092   0.182
 6937SOL    HW121710   6.578   6.051   0.230
 6937SOL    HW221711   6.625   6.124   0.092
 6938SOL     OW21712   4.953   3.398   5.862
 6938SOL    HW121713   4.945   3.314   5.916
 6938SOL    HW221714   5.049   3.412   5.837
 6939SOL     OW21715   0.024   4.298   1.168
 6939SOL    HW121716   0.061   4.222   1.114
 6939SOL    HW221717   0.082   4.379   1.157
 6940SOL     OW21718   4.575   1.349   0.572
 6940SOL    HW121719   4.570   1.312   0.480
 6940SOL    HW221720   4.483   1.364   0.608
 6941SOL     OW21721   3.304   2.946   3.160
 6941SOL    HW121722   3.394   2.913   3.188
 6941SOL    HW221723   3.289   2.924   3.064
 6942SOL     OW21724   6.306   2.687   1.130
 6942SOL    HW121725   6.376   2.703   1.200
 6942SOL    HW221726   6.251   2.770   1.119
 6943SOL     OW21727   4.981   6.089   6.530
 6943SOL    HW121728   4.917   6.129   6.464
 6943SOL    HW221729   4.956   5.994   6.547
 6944SOL     OW21730   1.682   4.007   6.351
 6944SOL    HW121731   1.665   3.955   6.268
 6944SOL    HW221732   1.777   4.040   6.351
 6945SOL     OW21733   5.875   3.423   5.899
 6945SOL    HW121734   5.874   3.360   5.977
 6945SOL    HW221735   5.890   3.517   5.932
 6946SOL     OW21736   6.133   6.597   1.435
 6946SOL    HW121737   6.209   6.633   1.380
 6946SOL    HW221738   6.169   6.557   1.520
 6947SOL     OW21739   3.478   6.721   5.775
 6947SOL    HW121740   3.499   6.818   5.770
 6947SOL    HW221741   3.428   6.701   5.860
 6948SOL     OW21742   5.826   0.507   6.333
 6948SOL    HW121743   5.902   0.572   6.335
 6948SOL    HW221744   5.827   0.451   6.416
 6949SOL     OW21745   4.967   0.036   3.924
 6949SOL    HW121746   4.908   0.073   3.852
 6949SOL    HW221747   5.039   0.103   3.945
 6950SOL     OW21748   2.091   0.164   3.758
 6950SOL    HW121749   2.161   0.110   3.710
 6950SOL    HW221750   2.135   0.237   3.810
 6951SOL     OW21751   6.506   6.322   6.054
 6951SOL    HW121752   6.495   6.390   5.981
 6951SOL    HW221753   6.601   6.290   6.055
 6952SOL     OW21754   6.970   5.742   4.056
 6952SOL    HW121755   6.976   5.660   4.113
 6952SOL    HW221756   0.013   5.739   3.985
 6953SOL     OW21757   5.143   0.472   0.031
 6953SOL    HW121758   5.157   0.441   6.963
 6953SOL    HW221759   5.197   0.555   0.047
 6954SOL     OW21760   0.497   3.737   4.378
 6954SOL    HW121761   0.550   3.803   4.432
 6954SOL    HW221762   0.529   3.738   4.284
 6955SOL     OW21763   6.241   0.533   1.967
 6955SOL    HW121764   6.338   0.510   1.964
 6955SOL    HW221765   6.191   0.460   2.014
 6956SOL     OW21766   4.880   6.206   3.224
 6956SOL    HW121767   4.783   6.195   3.200
 6956SOL    HW221768   4.898   6.162   3.312
 6957SOL     OW21769   5.922   5.187   0.802
 6957SOL    HW121770   5.926   5.203   0.901
 6957SOL    HW221771   5.903   5.274   0.756
 6958SOL     OW21772   3.062   4.077   4.831
 6958SOL    HW121773   3.042   4.004   4.766
 6958SOL    HW221774   2.993   4.149   4.823
 6959SOL     OW21775   2.400   1.307   4.975
 6959SOL    HW121776   2.445   1.324   4.887
 6959SOL    HW221777   2.466   1.270   5.040
 6960SOL     OW21778   1.512   5.732   1.209
 6960SOL    HW121779   1.522   5.831   1.219
 6960SOL    HW221780   1.569   5.687   1.278
 6961SOL     OW21781   6.647   2.450   4.042
 6961SOL    HW121782   6.711   2.439   4.118
 6961SOL    HW221783   6.611   2.360   4.015
 6962SOL     OW21784   5.869   6.234   2.111
 6962SOL    HW121785   5.931   6.155   2.103
 6962SOL    HW221786   5.808   6.220   2.188
 6963SOL     OW21787   6.385   5.310   0.943
 6963SOL    HW121788   6.322   5.232   0.941
 6963SOL    HW221789   6.352   5.380   0.879
 6964SOL     OW21790   3.678   6.352   4.938
 6964SOL    HW121791   3.643   6.282   4.876
 6964SOL    HW221792   3.602   6.405   4.976
 6965SOL     OW21793   0.143   3.419   6.910
 6965SOL    HW121794   0.177   3.513   6.918
 6965SOL    HW221795   0.215   3.355   6.938
 6966SOL     OW21796   6.783   2.177   3.480
 6966SOL    HW121797   6.737   2.152   3.565
 6966SOL    HW221798   6.864   2.120   3.468
 6967SOL     OW21799   1.493   0.370   5.275
 6967SOL    HW121800   1.522   0.379   5.180
 6967SOL    HW221801   1.550   0.302   5.322
 6968SOL     OW21802   4.521   6.571   2.837
 6968SOL    HW121803   4.512   6.564   2.937
 6968SOL    HW221804   4.505   6.481   2.796
 6969SOL     OW21805   2.849   2.417   1.272
 6969SOL    HW121806   2.882   2.326   1.296
 6969SOL    HW221807   2.898   2.451   1.192
 6970SOL     OW21808   3.364   4.197   6.750
 6970SOL    HW121809   3.390   4.285   6.710
 6970SOL    HW221810   3.446   4.139   6.759
 6971SOL     OW21811   6.341   4.347   1.163
 6971SOL    HW121812   6.390   4.269   1.204
 6971SOL    HW221813   6.251   4.356   1.206
 6972SOL     OW21814   5.695   4.629   3.385
 6972SOL    HW121815   5.602   4.667   3.378
 6972SOL    HW221816   5.695   4.535   3.350
 6973SOL     OW21817   0.920   3.263   5.593
 6973SOL    HW121818   0.884   3.274   5.500
 6973SOL    HW221819   0.992   3.331   5.609
 6974SOL     OW21820   3.257   2.921   2.905
 6974SOL    HW121821   3.199   2.906   2.825
 6974SOL    HW221822   3.352   2.926   2.877
 6975SOL     OW21823   1.937   5.880   6.552
 6975SOL    HW121824   1.914   5.904   6.646
 6975SOL    HW221825   1.862   5.908   6.491
 6976SOL     OW21826   4.419   5.251   5.015
 6976SOL    HW121827   4.451   5.199   4.935
 6976SOL    HW221828   4.332   5.295   4.993
 6977SOL     OW21829   4.255   2.382   1.719
 6977SOL    HW121830   4.186   2.310   1.724
 6977SOL    HW221831   4.250   2.426   1.629
 6978SOL     OW21832   4.647   1.771   2.305
 6978SOL    HW121833   4.598   1.694   2.348
 6978SOL    HW221834   4.609   1.857   2.340
 6979SOL     OW21835   1.392   4.169   0.803
 6979SOL    HW121836   1.450   4.177   0.884
 6979SOL    HW221837   1.323   4.098   0.819
 6980SOL     OW21838   1.146   1.239   3.384
 6980SOL    HW121839   1.161   1.338   3.375
 6980SOL    HW221840   1.207   1.191   3.321
 6981SOL     OW21841   3.697   3.315   6.349
 6981SOL    HW121842   3.755   3.258   6.407
 6981SOL    HW221843   3.711   3.291   6.253
 6982SOL     OW21844   1.683   0.614   4.284
 6982SOL    HW121845   1.616   0.611   4.210
 6982SOL    HW221846   1.647   0.671   4.358
 6983SOL     OW21847   4.354   2.018   4.282
 6983SOL    HW121848   4.276   2.055   4.232
 6983SOL    HW221849   4.350   1.918   4.282
 6984SOL     OW21850   2.376   1.612   4.076
 6984SOL    HW121851   2.288   1.607   4.027
 6984SOL    HW221852   2.377   1.693   4.134
 6985SOL     OW21853   4.064   6.049   1.610
 6985SOL    HW121854   4.091   6.138   1.574
 6985SOL    HW221855   4.055   5.984   1.535
 6986SOL     OW21856   2.508   6.491   6.164
 6986SOL    HW121857   2.492   6.581   6.204
 6986SOL    HW221858   2.454   6.482   6.081
 6987SOL     OW21859   0.493   2.328   6.162
 6987SOL    HW121860   0.532   2.237   6.176
 6987SOL    HW221861   0.400   2.320   6.127
 6988SOL     OW21862   6.771   1.190   5.811
 6988SOL    HW121863   6.816   1.190   5.900
 6988SOL    HW221864   6.792   1.276   5.764
 6989SOL     OW21865   0.735   3.392   4.113
 6989SOL    HW121866   0.641   3.391   4.080
 6989SOL    HW221867   0.760   3.485   4.142
 6990SOL     OW21868   5.182   2.394   1.620
 6990SOL    HW121869   5.111   2.332   1.655
 6990SOL    HW221870   5.191   2.473   1.682
 6991SOL     OW21871   3.052   5.038   4.221
 6991SOL    HW121872   3.021   4.969   4.286
 6991SOL    HW221873   3.015   5.127   4.246
 6992SOL     OW21874   5.597   6.470   5.398
 6992SOL    HW121875   5.546   6.401   5.448
 6992SOL    HW221876   5.564   6.561   5.422
 6993SOL     OW21877   6.712   0.790   3.038
 6993SOL    HW121878   6.802   0.749   3.022
 6993SOL    HW221879   6.711   0.836   3.127
 6994SOL     OW21880   0.510   2.772   4.687
 6994SOL    HW121881   0.554   2.690   4.723
 6994SOL    HW221882   0.495   2.762   4.589
 6995SOL     OW21883   6.822   4.561   5.672
 6995SOL    HW121884   6.838   4.592   5.766
 6995SOL    HW221885   6.902   4.580   5.616
 6996SOL     OW21886   2.546   0.615   0.079
 6996SOL    HW121887   2.520   0.525   0.114
 6996SOL    HW221888   2.499   0.686   0.132
 6997SOL     OW21889   6.207   6.276   5.282
 6997SOL    HW121890   6.199   6.368   5.245
 6997SOL    HW221891   6.150   6.214   5.229
 6998SOL     OW21892   1.415   2.141   1.174
 6998SOL    HW121893   1.316   2.140   1.189
 6998SOL    HW221894   1.455   2.057   1.212
 6999SOL     OW21895   2.644   2.705   5.886
 6999SOL    HW121896   2.651   2.760   5.802
 6999SOL    HW221897   2.549   2.707   5.918
 7000SOL     OW21898   6.188   5.982   1.693
 7000SOL    HW121899   6.230   6.041   1.624
 7000SOL    HW221900   6.150   6.039   1.766
 7001SOL     OW21901   2.311   3.001   5.364
 7001SOL    HW121902   2.390   3.020   5.305
 7001SOL    HW221903   2.255   2.929   5.322
 7002SOL     OW21904   2.622   4.849   3.565
 7002SOL    HW121905   2.571   4.830   3.648
 7002SOL    HW221906   2.640   4.947   3.558
 7003SOL     OW21907   3.815   5.560   6.765
 7003SOL    HW121908   3.802   5.504   6.683
 7003SOL    HW221909   3.899   5.533   6.812
 7004SOL     OW21910   1.438   4.846   1.975
 7004SOL    HW121911   1.503   4.847   2.051
 7004SOL    HW221912   1.357   4.794   2.001
 7005SOL     OW21913   1.467   6.975   0.249
 7005SOL    HW121914   1.400   7.011   0.314
 7005SOL    HW221915   1.557   6.971   0.293
 7006SOL     OW21916   4.620   4.655   4.267
 7006SOL    HW121917   4.630   4.562   4.302
 7006SOL    HW221918   4.545   4.701   4.316
 7007SOL     OW21919   4.638   7.003   4.058
 7007SOL    HW121920   4.602   6.917   4.025
 7007SOL    HW221921   4.705   6.986   4.130
 7008SOL     OW21922   1.106   4.389   4.870
 7008SOL    HW121923   1.074   4.299   4.900
 7008SOL    HW221924   1.111   4.451   4.949
 7009SOL     OW21925   6.287   5.876   2.546
 7009SOL    HW121926   6.254   5.782   2.556
 7009SOL    HW221927   6.374   5.886   2.595
 7010SOL     OW21928   5.123   4.584   5.358
 7010SOL    HW121929   5.046   4.528   5.390
 7010SOL    HW221930   5.110   4.604   5.261
 7011SOL     OW21931   3.954   6.870   6.393
 7011SOL    HW121932   3.932   6.774   6.373
 7011SOL    HW221933   3.960   6.922   6.308
 7012SOL     OW21934   1.566   1.573   1.964
 7012SOL    HW121935   1.660   1.604   1.981
 7012SOL    HW221936   1.505   1.613   2.032
 7013SOL     OW21937   0.807   0.496   0.588
 7013SOL    HW121938   0.780   0.442   0.509
 7013SOL    HW221939   0.861   0.439   0.651
 7014SOL     OW21940   4.177   2.912   1.304
 7014SOL    HW121941   4.203   2.956   1.218
 7014SOL    HW221942   4.081   2.886   1.301
 7015SOL     OW21943   5.731   4.521   1.895
 7015SOL    HW121944   5.807   4.474   1.941
 7015SOL    HW221945   5.650   4.516   1.952
 7016SOL     OW21946   3.437   4.836   1.644
 7016SOL    HW121947   3.451   4.772   1.720
 7016SOL    HW221948   3.375   4.909   1.673
 7017SOL     OW21949   2.488   5.971   2.098
 7017SOL    HW121950   2.522   6.055   2.055
 7017SOL    HW221951   2.465   5.989   2.194
 7018SOL     OW21952   6.101   4.465   3.908
 7018SOL    HW121953   6.181   4.479   3.851
 7018SOL    HW221954   6.019   4.494   3.858
 7019SOL     OW21955   2.396   4.094   6.810
 7019SOL    HW121956   2.404   3.998   6.837
 7019SOL    HW221957   2.378   4.099   6.712
 7020SOL     OW21958   5.567   0.088   6.787
 7020SOL    HW121959   5.489   0.032   6.761
 7020SOL    HW221960   5.598   0.061   6.878
 7021SOL     OW21961   1.466   1.294   6.287
 7021SOL    HW121962   1.530   1.218   6.300
 7021SOL    HW221963   1.501   1.375   6.335
 7022SOL     OW21964   4.586   6.105   0.285
 7022SOL    HW121965   4.556   6.112   0.380
 7022SOL    HW221966   4.541   6.026   0.241
 7023SOL     OW21967   0.581   1.567   2.891
 7023SOL    HW121968   0.650   1.639   2.897
 7023SOL    HW221969   0.497   1.604   2.852
 7024SOL     OW21970   1.633   4.576   5.430
 7024SOL    HW121971   1.728   4.574   5.463
 7024SOL    HW221972   1.632   4.604   5.334
 7025SOL     OW21973   2.595   0.836   6.844
 7025SOL    HW121974   2.496   0.826   6.851
 7025SOL    HW221975   2.627   0.790   6.761
 7026SOL     OW21976   3.488   1.938   1.863
 7026SOL    HW121977   3.490   1.994   1.946
 7026SOL    HW221978   3.407   1.878   1.865
 7027SOL     OW21979   2.267   5.209   4.039
 7027SOL    HW121980   2.191   5.267   4.068
 7027SOL    HW221981   2.352   5.262   4.040
 7028SOL     OW21982   4.663   0.212   4.161
 7028SOL    HW121983   4.656   0.138   4.094
 7028SOL    HW221984   4.572   0.247   4.182
 7029SOL     OW21985   5.153   4.908   6.416
 7029SOL    HW121986   5.175   4.975   6.346
 7029SOL    HW221987   5.059   4.875   6.403
 7030SOL     OW21988   0.636   1.509   5.304
 7030SOL    HW121989   0.551   1.459   5.320
 7030SOL    HW221990   0.616   1.595   5.256
 7031SOL     OW21991   2.031   6.700   5.191
 7031SOL    HW121992   2.083   6.738   5.267
 7031SOL    HW221993   2.095   6.668   5.121
 7032SOL     OW21994   3.524   0.550   2.655
 7032SOL    HW121995   3.527   0.630   2.715
 7032SOL    HW221996   3.455   0.563   2.584
 7033SOL     OW21997   1.280   2.603   3.310
 7033SOL    HW121998   1.283   2.658   3.393
 7033SOL    HW221999   1.250   2.659   3.233
 7034SOL     OW22000   6.293   0.560   3.000
 7034SOL    HW122001   6.297   0.658   2.982
 7034SOL    HW222002   6.371   0.532   3.056
 7035SOL     OW22003   2.038   6.664   1.696
 7035SOL    HW122004   1.994   6.743   1.654
 7035SOL    HW222005   2.121   6.641   1.645
 7036SOL     OW22006   0.700   0.685   2.782
 7036SOL    HW122007   0.648   0.732   2.853
 7036SOL    HW222008   0.636   0.639   2.719
 7037SOL     OW22009   1.869   0.938   6.395
 7037SOL    HW122010   1.899   0.896   6.310
 7037SOL    HW222011   1.783   0.987   6.379
 7038SOL     OW22012   1.677   3.741   4.381
 7038SOL    HW122013   1.670   3.663   4.320
 7038SOL    HW222014   1.600   3.741   4.445
 7039SOL     OW22015   2.810   4.737   1.401
 7039SOL    HW122016   2.881   4.807   1.393
 7039SOL    HW222017   2.767   4.744   1.491
 7040SOL     OW22018   6.718   2.172   4.756
 7040SOL    HW122019   6.654   2.204   4.826
 7040SOL    HW222020   6.811   2.190   4.786
 7041SOL     OW22021   0.349   2.407   1.835
 7041SOL    HW122022   0.277   2.340   1.853
 7041SOL    HW222023   0.417   2.368   1.773
 7042SOL     OW22024   5.472   5.273   5.769
 7042SOL    HW122025   5.406   5.200   5.788
 7042SOL    HW222026   5.538   5.278   5.843
 7043SOL     OW22027   1.964   3.462   2.313
 7043SOL    HW122028   1.977   3.493   2.407
 7043SOL    HW222029   1.881   3.407   2.307
 7044SOL     OW22030   4.548   5.090   3.426
 7044SOL    HW122031   4.584   5.037   3.349
 7044SOL    HW222032   4.454   5.063   3.444
 7045SOL     OW22033   5.456   5.472   3.174
 7045SOL    HW122034   5.356   5.475   3.175
 7045SOL    HW222035   5.490   5.524   3.095
 7046SOL     OW22036   3.227   1.479   3.107
 7046SOL    HW122037   3.127   1.485   3.103
 7046SOL    HW222038   3.264   1.564   3.144
 7047SOL     OW22039   0.776   2.731   2.399
 7047SOL    HW122040   0.815   2.718   2.308
 7047SOL    HW222041   0.821   2.670   2.464
 7048SOL     OW22042   6.460   6.061   2.890
 7048SOL    HW122043   6.377   6.069   2.834
 7048SOL    HW222044   6.442   6.102   2.980
 7049SOL     OW22045   3.227   1.297   1.154
 7049SOL    HW122046   3.243   1.386   1.111
 7049SOL    HW222047   3.183   1.236   1.089
 7050SOL     OW22048   3.878   3.957   1.793
 7050SOL    HW122049   3.857   3.861   1.775
 7050SOL    HW222050   3.804   3.998   1.846
 7051SOL     OW22051   6.974   0.685   1.405
 7051SOL    HW122052   0.013   0.715   1.336
 7051SOL    HW222053   6.886   0.729   1.388
 7052SOL     OW22054   5.418   2.816   3.959
 7052SOL    HW122055   5.437   2.718   3.947
 7052SOL    HW222056   5.496   2.860   4.002
 7053SOL     OW22057   0.691   3.242   4.841
 7053SOL    HW122058   0.761   3.174   4.819
 7053SOL    HW222059   0.646   3.217   4.927
 7054SOL     OW22060   0.463   6.708   0.797
 7054SOL    HW122061   0.451   6.807   0.798
 7054SOL    HW222062   0.373   6.664   0.793
 7055SOL     OW22063   3.624   6.567   5.379
 7055SOL    HW122064   3.697   6.517   5.332
 7055SOL    HW222065   3.606   6.524   5.468
 7056SOL     OW22066   6.280   6.105   2.055
 7056SOL    HW122067   6.187   6.073   2.077
 7056SOL    HW222068   6.339   6.091   2.135
 7057SOL     OW22069   1.139   5.927   3.903
 7057SOL    HW122070   1.154   6.021   3.872
 7057SOL    HW222071   1.226   5.889   3.936
 7058SOL     OW22072   6.630   5.658   6.203
 7058SOL    HW122073   6.656   5.652   6.299
 7058SOL    HW222074   6.535   5.687   6.196
 7059SOL     OW22075   6.607   0.863   4.133
 7059SOL    HW122076   6.569   0.924   4.063
 7059SOL    HW222077   6.534   0.809   4.174
 7060SOL     OW22078   4.083   6.801   1.804
 7060SOL    HW122079   4.046   6.814   1.896
 7060SOL    HW222080   4.160   6.863   1.790
 7061SOL     OW22081   1.545   3.331   3.538
 7061SOL    HW122082   1.499   3.358   3.454
 7061SOL    HW222083   1.479   3.327   3.613
 7062SOL     OW22084   4.791   0.989   5.092
 7062SOL    HW122085   4.881   1.029   5.109
 7062SOL    HW222086   4.763   0.934   5.170
 7063SOL     OW22087   0.685   0.625   1.934
 7063SOL    HW122088   0.782   0.644   1.952
 7063SOL    HW222089   0.677   0.569   1.853
 7064SOL     OW22090   3.803   2.384   1.230
 7064SOL    HW122091   3.861   2.407   1.308
 7064SOL    HW222092   3.744   2.306   1.253
 7065SOL     OW22093   3.731   3.833   6.238
 7065SOL    HW122094   3.817   3.858   6.193
 7065SOL    HW222095   3.680   3.916   6.261
 7066SOL     OW22096   4.550   6.940   0.345
 7066SOL    HW122097   4.587   6.895   0.427
 7066SOL    HW222098   4.624   6.989   0.299
 7067SOL     OW22099   1.990   1.886   5.045
 7067SOL    HW122100   2.003   1.912   5.141
 7067SOL    HW222101   2.027   1.957   4.986
 7068SOL     OW22102   0.091   4.320   3.831
 7068SOL    HW122103   0.013   4.359   3.879
 7068SOL    HW222104   0.137   4.254   3.889
 7069SOL     OW22105   5.586   1.390   4.733
 7069SOL    HW122106   5.619   1.437   4.815
 7069SOL    HW222107   5.652   1.403   4.658
 7070SOL     OW22108   6.771   6.141   5.263
 7070SOL    HW122109   6.750   6.079   5.339
 7070SOL    HW222110   6.699   6.134   5.194
 7071SOL     OW22111   2.214   6.377   6.706
 7071SOL    HW122112   2.294   6.421   6.746
 7071SOL    HW222113   2.136   6.440   6.711
 7072SOL     OW22114   1.349   6.149   6.908
 7072SOL    HW122115   1.357   6.248   6.894
 7072SOL    HW222116   1.286   6.132   6.984
 7073SOL     OW22117   4.735   7.025   4.357
 7073SOL    HW122118   4.667   0.068   4.332
 7073SOL    HW222119   4.780   0.026   4.442
 7074SOL     OW22120   4.540   2.269   2.046
 7074SOL    HW122121   4.501   2.305   1.961
 7074SOL    HW222122   4.567   2.174   2.032
 7075SOL     OW22123   2.045   4.568   5.028
 7075SOL    HW122124   2.055   4.504   5.104
 7075SOL    HW222125   1.963   4.546   4.976
 7076SOL     OW22126   5.582   1.717   6.696
 7076SOL    HW122127   5.572   1.804   6.649
 7076SOL    HW222128   5.501   1.699   6.752
 7077SOL     OW22129   2.408   4.583   4.202
 7077SOL    HW122130   2.422   4.486   4.222
 7077SOL    HW222131   2.467   4.610   4.126
 7078SOL     OW22132   0.141   0.493   1.751
 7078SOL    HW122133   0.223   0.486   1.808
 7078SOL    HW222134   0.081   0.563   1.788
 7079SOL     OW22135   6.639   6.192   4.642
 7079SOL    HW122136   6.620   6.290   4.646
 7079SOL    HW222137   6.619   6.157   4.550
 7080SOL     OW22138   2.889   2.142   3.821
 7080SOL    HW122139   2.821   2.127   3.749
 7080SOL    HW222140   2.867   2.227   3.870
 7081SOL     OW22141   3.278   0.483   0.120
 7081SOL    HW122142   3.288   0.583   0.127
 7081SOL    HW222143   3.199   0.462   0.062
 7082SOL     OW22144   6.711   4.406   6.538
 7082SOL    HW122145   6.711   4.383   6.635
 7082SOL    HW222146   6.693   4.503   6.526
 7083SOL     OW22147   2.984   0.041   0.556
 7083SOL    HW122148   2.918   0.094   0.609
 7083SOL    HW222149   2.994   0.081   0.465
 7084SOL     OW22150   0.329   6.262   6.240
 7084SOL    HW122151   0.371   6.305   6.159
 7084SOL    HW222152   0.231   6.250   6.224
 7085SOL     OW22153   0.741   1.834   1.700
 7085SOL    HW122154   0.702   1.870   1.785
 7085SOL    HW222155   0.832   1.798   1.717
 7086SOL     OW22156   5.143   0.805   5.375
 7086SOL    HW122157   5.151   0.860   5.293
 7086SOL    HW222158   5.228   0.810   5.428
 7087SOL     OW22159   6.003   3.018   3.829
 7087SOL    HW122160   5.943   3.006   3.908
 7087SOL    HW222161   6.002   2.935   3.774
 7088SOL     OW22162   5.575   3.116   3.475
 7088SOL    HW122163   5.575   3.088   3.379
 7088SOL    HW222164   5.657   3.080   3.520
 7089SOL     OW22165   3.027   2.120   4.847
 7089SOL    HW122166   3.081   2.161   4.921
 7089SOL    HW222167   3.074   2.135   4.760
 7090SOL     OW22168   3.028   0.409   7.020
 7090SOL    HW122169   2.970   0.363   0.061
 7090SOL    HW222170   3.057   0.343   6.951
 7091SOL     OW22171   0.557   1.454   6.910
 7091SOL    HW122172   0.470   1.503   6.895
 7091SOL    HW222173   0.581   1.404   6.827
 7092SOL     OW22174   4.628   2.934   5.845
 7092SOL    HW122175   4.659   2.853   5.794
 7092SOL    HW222176   4.553   2.978   5.796
 7093SOL     OW22177   3.134   3.673   3.312
 7093SOL    HW122178   3.107   3.672   3.408
 7093SOL    HW222179   3.056   3.698   3.255
 7094SOL     OW22180   0.005   5.736   5.441
 7094SOL    HW122181   7.003   5.641   5.436
 7094SOL    HW222182   6.967   5.787   5.498
 7095SOL     OW22183   3.434   3.791   6.117
 7095SOL    HW122184   3.530   3.814   6.100
 7095SOL    HW222185   3.387   3.870   6.156
 7096SOL     OW22186   6.605   0.645   3.875
 7096SOL    HW122187   6.696   0.639   3.915
 7096SOL    HW222188   6.538   0.601   3.936
 7097SOL     OW22189   5.798   1.382   0.847
 7097SOL    HW122190   5.774   1.473   0.814
 7097SOL    HW222191   5.870   1.343   0.790
 7098SOL     OW22192   1.678   0.034   5.138
 7098SOL    HW122193   1.693   0.105   5.207
 7098SOL    HW222194   1.719   6.975   5.170
 7099SOL     OW22195   3.270   1.306   5.336
 7099SOL    HW122196   3.278   1.367   5.416
 7099SOL    HW222197   3.211   1.349   5.268
 7100SOL     OW22198   5.225   2.567   0.954
 7100SOL    HW122199   5.132   2.566   0.919
 7100SOL    HW222200   5.277   2.492   0.912
 7101SOL     OW22201   2.123   1.158   4.617
 7101SOL    HW122202   2.123   1.134   4.714
 7101SOL    HW222203   2.087   1.250   4.605
 7102SOL     OW22204   5.133   6.757   0.734
 7102SOL    HW122205   5.104   6.849   0.708
 7102SOL    HW222206   5.151   6.703   0.652
 7103SOL     OW22207   4.503   4.758   1.714
 7103SOL    HW122208   4.489   4.754   1.813
 7103SOL    HW222209   4.532   4.669   1.681
 7104SOL     OW22210   0.349   2.803   3.988
 7104SOL    HW122211   0.287   2.856   4.045
 7104SOL    HW222212   0.443   2.835   4.003
 7105SOL     OW22213   3.088   2.997   5.291
 7105SOL    HW122214   3.119   3.088   5.318
 7105SOL    HW222215   3.144   2.928   5.338
 7106SOL     OW22216   3.605   3.945   2.903
 7106SOL    HW122217   3.558   3.965   2.816
 7106SOL    HW222218   3.598   4.024   2.963
 7107SOL     OW22219   3.729   1.460   0.631
 7107SOL    HW122220   3.703   1.424   0.541
 7107SOL    HW222221   3.691   1.402   0.703
 7108SOL     OW22222   5.134   5.712   3.323
 7108SOL    HW122223   5.108   5.676   3.412
 7108SOL    HW222224   5.060   5.768   3.287
 7109SOL     OW22225   2.909   0.581   5.881
 7109SOL    HW122226   2.962   0.649   5.831
 7109SOL    HW222227   2.828   0.624   5.921
 7110SOL     OW22228   2.975   6.003   4.567
 7110SOL    HW122229   3.026   6.088   4.580
 7110SOL    HW222230   2.905   5.995   4.638
 7111SOL     OW22231   1.313   1.992   4.316
 7111SOL    HW122232   1.309   2.032   4.408
 7111SOL    HW222233   1.235   2.025   4.262
 7112SOL     OW22234   1.224   5.496   4.723
 7112SOL    HW122235   1.322   5.481   4.733
 7112SOL    HW222236   1.191   5.554   4.797
 7113SOL     OW22237   3.960   3.836   4.545
 7113SOL    HW122238   3.947   3.754   4.489
 7113SOL    HW222239   4.038   3.823   4.606
 7114SOL     OW22240   3.485   0.091   2.110
 7114SOL    HW122241   3.401   0.143   2.092
 7114SOL    HW222242   3.514   0.046   2.026
 7115SOL     OW22243   5.441   2.818   1.574
 7115SOL    HW122244   5.454   2.727   1.533
 7115SOL    HW222245   5.469   2.888   1.507
 7116SOL     OW22246   6.128   4.322   3.469
 7116SOL    HW122247   6.152   4.343   3.374
 7116SOL    HW222248   6.211   4.298   3.520
 7117SOL     OW22249   0.239   6.493   5.570
 7117SOL    HW122250   0.178   6.521   5.496
 7117SOL    HW222251   0.323   6.454   5.531
 7118SOL     OW22252   2.770   3.620   1.522
 7118SOL    HW122253   2.869   3.625   1.529
 7118SOL    HW222254   2.732   3.577   1.604
 7119SOL     OW22255   4.998   2.098   2.969
 7119SOL    HW122256   4.951   2.178   3.009
 7119SOL    HW222257   5.090   2.091   3.007
 7120SOL     OW22258   3.571   1.578   2.589
 7120SOL    HW122259   3.580   1.486   2.551
 7120SOL    HW222260   3.474   1.602   2.597
 7121SOL     OW22261   1.396   6.589   3.314
 7121SOL    HW122262   1.401   6.578   3.215
 7121SOL    HW222263   1.482   6.560   3.356
 7122SOL     OW22264   0.716   0.335   6.028
 7122SOL    HW122265   0.652   0.411   6.017
 7122SOL    HW222266   0.726   0.286   5.941
 7123SOL     OW22267   2.193   4.692   3.008
 7123SOL    HW122268   2.291   4.704   3.020
 7123SOL    HW222269   2.175   4.603   2.966
 7124SOL     OW22270   0.052   2.295   1.295
 7124SOL    HW122271   0.098   2.376   1.259
 7124SOL    HW222272   0.104   2.259   1.372
 7125SOL     OW22273   7.020   0.012   1.269
 7125SOL    HW122274   6.940   6.999   1.314
 7125SOL    HW222275   7.013   0.112   1.271
 7126SOL     OW22276   3.223   5.311   0.104
 7126SOL    HW122277   3.247   5.365   0.185
 7126SOL    HW222278   3.240   5.365   0.021
 7127SOL     OW22279   1.522   5.414   5.470
 7127SOL    HW122280   1.471   5.335   5.504
 7127SOL    HW222281   1.465   5.496   5.474
 7128SOL     OW22282   3.043   4.934   0.452
 7128SOL    HW122283   3.049   5.000   0.376
 7128SOL    HW222284   2.963   4.876   0.439
 7129SOL     OW22285   1.985   1.782   6.627
 7129SOL    HW122286   1.891   1.795   6.657
 7129SOL    HW222287   2.047   1.807   6.702
 7130SOL     OW22288   3.977   5.985   5.144
 7130SOL    HW122289   4.029   6.030   5.071
 7130SOL    HW222290   3.885   5.965   5.111
 7131SOL     OW22291   2.681   0.778   1.294
 7131SOL    HW122292   2.601   0.719   1.286
 7131SOL    HW222293   2.763   0.722   1.299
 7132SOL     OW22294   3.347   4.425   7.004
 7132SOL    HW122295   3.271   4.389   6.950
 7132SOL    HW222296   3.386   4.504   6.958
 7133SOL     OW22297   5.105   5.525   5.994
 7133SOL    HW122298   5.152   5.505   5.909
 7133SOL    HW222299   5.067   5.618   5.991
 7134SOL     OW22300   5.553   6.949   2.225
 7134SOL    HW122301   5.612   6.893   2.167
 7134SOL    HW222302   5.554   6.913   2.319
 7135SOL     OW22303   1.544   3.452   3.186
 7135SOL    HW122304   1.501   3.504   3.260
 7135SOL    HW222305   1.639   3.431   3.210
 7136SOL     OW22306   2.331   2.938   1.054
 7136SOL    HW122307   2.402   3.006   1.036
 7136SOL    HW222308   2.349   2.892   1.141
 7137SOL     OW22309   3.632   0.050   6.903
 7137SOL    HW122310   3.555   7.013   6.895
 7137SOL    HW222311   3.642   0.079   6.998
 7138SOL     OW22312   1.327   2.557   6.469
 7138SOL    HW122313   1.254   2.626   6.476
 7138SOL    HW222314   1.360   2.534   6.560
 7139SOL     OW22315   5.880   4.037   1.194
 7139SOL    HW122316   5.891   3.942   1.222
 7139SOL    HW222317   5.954   4.062   1.131
 7140SOL     OW22318   5.850   4.128   3.350
 7140SOL    HW122319   5.917   4.086   3.289
 7140SOL    HW222320   5.786   4.058   3.382
 7141SOL     OW22321   3.644   5.895   1.476
 7141SOL    HW122322   3.672   5.990   1.462
 7141SOL    HW222323   3.545   5.887   1.465
 7142SOL     OW22324   4.185   0.293   3.692
 7142SOL    HW122325   4.279   0.263   3.671
 7142SOL    HW222326   4.148   0.341   3.613
 7143SOL     OW22327   1.767   2.597   5.848
 7143SOL    HW122328   1.758   2.509   5.896
 7143SOL    HW222329   1.681   2.619   5.803
 7144SOL     OW22330   2.032   2.471   2.057
 7144SOL    HW122331   2.019   2.471   2.156
 7144SOL    HW222332   2.101   2.404   2.032
 7145SOL     OW22333   4.758   0.070   0.225
 7145SOL    HW122334   4.798   0.143   0.280
 7145SOL    HW222335   4.779   0.084   0.129
 7146SOL     OW22336   2.295   0.219   1.184
 7146SOL    HW122337   2.209   0.200   1.136
 7146SOL    HW222338   2.372   0.211   1.120
 7147SOL     OW22339   0.413   0.388   3.444
 7147SOL    HW122340   0.413   0.332   3.360
 7147SOL    HW222341   0.461   0.338   3.516
 7148SOL     OW22342   0.951   5.843   0.643
 7148SOL    HW122343   0.922   5.896   0.722
 7148SOL    HW222344   0.878   5.843   0.574
 7149SOL     OW22345   6.274   6.701   2.799
 7149SOL    HW122346   6.310   6.613   2.829
 7149SOL    HW222347   6.283   6.709   2.700
 7150SOL     OW22348   2.971   2.160   2.252
 7150SOL    HW122349   3.029   2.102   2.196
 7150SOL    HW222350   2.920   2.223   2.193
 7151SOL     OW22351   1.994   6.200   0.976
 7151SOL    HW122352   2.073   6.261   0.988
 7151SOL    HW222353   1.940   6.199   1.060
 7152SOL     OW22354   1.175   0.687   5.230
 7152SOL    HW122355   1.271   0.708   5.208
 7152SOL    HW222356   1.115   0.733   5.164
 7153SOL     OW22357   3.564   5.669   2.001
 7153SOL    HW122358   3.571   5.669   1.901
 7153SOL    HW222359   3.469   5.654   2.028
 7154SOL     OW22360   3.585   0.247   3.210
 7154SOL    HW122361   3.668   0.192   3.205
 7154SOL    HW222362   3.608   0.340   3.239
 7155SOL     OW22363   1.773   3.583   1.180
 7155SOL    HW122364   1.845   3.629   1.233
 7155SOL    HW222365   1.804   3.491   1.156
 7156SOL     OW22366   0.234   3.622   3.908
 7156SOL    HW122367   0.259   3.548   3.847
 7156SOL    HW222368   0.216   3.586   4.000
 7157SOL     OW22369   0.122   4.236   1.751
 7157SOL    HW122370   0.095   4.160   1.691
 7157SOL    HW222371   0.051   4.307   1.749
 7158SOL     OW22372   0.931   6.934   3.893
 7158SOL    HW122373   1.010   6.877   3.871
 7158SOL    HW222374   0.862   6.923   3.822
 7159SOL     OW22375   0.751   4.984   2.786
 7159SOL    HW122376   0.713   5.055   2.845
 7159SOL    HW222377   0.849   4.974   2.805
 7160SOL     OW22378   5.813   0.201   2.816
 7160SOL    HW122379   5.813   0.283   2.759
 7160SOL    HW222380   5.791   0.226   2.910
 7161SOL     OW22381   3.027   3.845   4.169
 7161SOL    HW122382   3.069   3.890   4.248
 7161SOL    HW222383   2.982   3.760   4.199
 7162SOL     OW22384   1.365   5.638   6.250
 7162SOL    HW122385   1.346   5.610   6.156
 7162SOL    HW222386   1.391   5.734   6.251
 7163SOL     OW22387   2.816   6.545   3.079
 7163SOL    HW122388   2.766   6.576   2.998
 7163SOL    HW222389   2.904   6.507   3.051
 7164SOL     OW22390   2.142   0.626   3.445
 7164SOL    HW122391   2.131   0.634   3.346
 7164SOL    HW222392   2.054   0.608   3.487
 7165SOL     OW22393   6.713   1.207   2.174
 7165SOL    HW122394   6.736   1.260   2.256
 7165SOL    HW222395   6.618   1.176   2.181
 7166SOL     OW22396   6.147   2.392   0.597
 7166SOL    HW122397   6.118   2.309   0.645
 7166SOL    HW222398   6.224   2.433   0.645
 7167SOL     OW22399   5.399   3.378   4.104
 7167SOL    HW122400   5.334   3.454   4.100
 7167SOL    HW222401   5.351   3.292   4.084
 7168SOL     OW22402   1.478   2.407   3.352
 7168SOL    HW122403   1.425   2.491   3.353
 7168SOL    HW222404   1.572   2.426   3.379
 7169SOL     OW22405   6.974   2.259   4.825
 7169SOL    HW122406   6.965   2.305   4.913
 7169SOL    HW222407   0.023   2.195   4.828
 7170SOL     OW22408   4.826   6.764   4.226
 7170SOL    HW122409   4.902   6.786   4.165
 7170SOL    HW222410   4.798   6.846   4.276
 7171SOL     OW22411   5.507   3.782   0.037
 7171SOL    HW122412   5.590   3.831   0.062
 7171SOL    HW222413   5.468   3.822   6.981
 7172SOL     OW22414   1.490   0.399   4.985
 7172SOL    HW122415   1.567   0.425   4.926
 7172SOL    HW222416   1.433   0.332   4.937
 7173SOL     OW22417   6.567   4.512   5.880
 7173SOL    HW122418   6.642   4.454   5.909
 7173SOL    HW222419   6.602   4.603   5.858
 7174SOL     OW22420   0.528   4.650   6.958
 7174SOL    HW122421   0.509   4.555   6.983
 7174SOL    HW222422   0.609   4.682   7.007
 7175SOL     OW22423   5.691   2.450   6.744
 7175SOL    HW122424   5.659   2.390   6.816
 7175SOL    HW222425   5.774   2.411   6.702
 7176SOL     OW22426   0.655   0.312   2.950
 7176SOL    HW122427   0.585   0.360   2.897
 7176SOL    HW222428   0.722   0.377   2.985
 7177SOL     OW22429   1.501   5.416   4.803
 7177SOL    HW122430   1.538   5.333   4.762
 7177SOL    HW222431   1.560   5.494   4.781
 7178SOL     OW22432   2.322   1.904   6.087
 7178SOL    HW122433   2.412   1.939   6.061
 7178SOL    HW222434   2.254   1.976   6.076
 7179SOL     OW22435   2.012   3.526   4.733
 7179SOL    HW122436   1.916   3.503   4.750
 7179SOL    HW222437   2.066   3.504   4.815
 7180SOL     OW22438   3.012   5.574   0.282
 7180SOL    HW122439   3.046   5.667   0.294
 7180SOL    HW222440   2.959   5.547   0.363
 7181SOL     OW22441   2.271   6.541   0.152
 7181SOL    HW122442   2.214   6.574   0.227
 7181SOL    HW222443   2.315   6.618   0.107
 7182SOL     OW22444   0.929   2.680   4.732
 7182SOL    HW122445   0.906   2.746   4.804
 7182SOL    HW222446   0.889   2.592   4.754
 7183SOL     OW22447   1.971   6.171   6.980
 7183SOL    HW122448   2.009   6.114   0.026
 7183SOL    HW222449   2.014   6.261   6.982
 7184SOL     OW22450   6.743   0.796   3.494
 7184SOL    HW122451   6.677   0.761   3.428
 7184SOL    HW222452   6.813   0.727   3.513
 7185SOL     OW22453   5.663   0.543   5.318
 7185SOL    HW122454   5.680   0.640   5.302
 7185SOL    HW222455   5.700   0.517   5.407
 7186SOL     OW22456   6.708   1.410   0.099
 7186SOL    HW122457   6.783   1.466   0.063
 7186SOL    HW222458   6.731   1.313   0.090
 7187SOL     OW22459   3.551   5.125   6.382
 7187SOL    HW122460   3.488   5.073   6.325
 7187SOL    HW222461   3.619   5.169   6.324
 7188SOL     OW22462   6.258   1.211   0.902
 7188SOL    HW122463   6.166   1.201   0.864
 7188SOL    HW222464   6.301   1.293   0.866
 7189SOL     OW22465   0.575   2.059   6.195
 7189SOL    HW122466   0.663   2.012   6.189
 7189SOL    HW222467   0.504   1.993   6.217
 7190SOL     OW22468   0.035   3.676   2.970
 7190SOL    HW122469   7.012   3.662   2.885
 7190SOL    HW222470   0.129   3.705   2.951
 7191SOL     OW22471   0.785   4.343   2.687
 7191SOL    HW122472   0.747   4.311   2.774
 7191SOL    HW222473   0.861   4.405   2.705
 7192SOL     OW22474   3.072   4.656   5.695
 7192SOL    HW122475   3.006   4.640   5.768
 7192SOL    HW222476   3.142   4.584   5.697
 7193SOL     OW22477   1.328   2.656   1.912
 7193SOL    HW122478   1.253   2.598   1.879
 7193SOL    HW222479   1.413   2.604   1.910
 7194SOL     OW22480   2.554   1.885   0.481
 7194SOL    HW122481   2.611   1.919   0.406
 7194SOL    HW222482   2.458   1.895   0.456
 7195SOL     OW22483   0.073   4.359   0.026
 7195SOL    HW122484   0.164   4.368   7.011
 7195SOL    HW222485   0.045   4.263   0.024
 7196SOL     OW22486   3.412   4.141   1.006
 7196SOL    HW122487   3.496   4.104   0.966
 7196SOL    HW222488   3.368   4.203   0.942
 7197SOL     OW22489   0.735   2.617   5.839
 7197SOL    HW122490   0.746   2.697   5.780
 7197SOL    HW222491   0.806   2.616   5.908
 7198SOL     OW22492   0.223   0.426   0.498
 7198SOL    HW122493   0.295   0.488   0.467
 7198SOL    HW222494   0.141   0.479   0.523
 7199SOL     OW22495   2.178   0.848   2.441
 7199SOL    HW122496   2.120   0.776   2.402
 7199SOL    HW222497   2.123   0.906   2.501
 7200SOL     OW22498   2.511   1.940   0.194
 7200SOL    HW122499   2.413   1.934   0.178
 7200SOL    HW222500   2.547   2.024   0.153
 7201SOL     OW22501   0.666   5.713   4.778
 7201SOL    HW122502   0.751   5.752   4.814
 7201SOL    HW222503   0.601   5.702   4.853
 7202SOL     OW22504   4.550   0.251   6.164
 7202SOL    HW122505   4.557   0.319   6.238
 7202SOL    HW222506   4.561   0.297   6.076
 7203SOL     OW22507   0.641   1.725   1.096
 7203SOL    HW122508   0.676   1.632   1.102
 7203SOL    HW222509   0.592   1.748   1.180
 7204SOL     OW22510   0.949   0.298   5.433
 7204SOL    HW122511   1.021   0.316   5.500
 7204SOL    HW222512   0.989   0.265   5.348
 7205SOL     OW22513   1.062   5.501   4.266
 7205SOL    HW122514   0.968   5.469   4.281
 7205SOL    HW222515   1.073   5.593   4.306
 7206SOL     OW22516   1.638   6.916   1.712
 7206SOL    HW122517   1.594   6.953   1.793
 7206SOL    HW222518   1.656   6.819   1.724
 7207SOL     OW22519   3.846   0.140   2.704
 7207SOL    HW122520   3.916   0.073   2.683
 7207SOL    HW222521   3.886   0.232   2.703
 7208SOL     OW22522   4.278   6.849   3.103
 7208SOL    HW122523   4.334   6.835   3.185
 7208SOL    HW222524   4.326   6.910   3.040
 7209SOL     OW22525   2.957   3.759   1.975
 7209SOL    HW122526   2.976   3.684   1.912
 7209SOL    HW222527   3.000   3.843   1.941
 7210SOL     OW22528   4.754   0.947   3.845
 7210SOL    HW122529   4.743   0.850   3.867
 7210SOL    HW222530   4.799   0.956   3.756
 7211SOL     OW22531   2.929   6.284   3.910
 7211SOL    HW122532   2.866   6.272   3.987
 7211SOL    HW222533   2.921   6.206   3.848
 7212SOL     OW22534   0.426   6.372   5.027
 7212SOL    HW122535   0.360   6.447   5.020
 7212SOL    HW222536   0.382   6.286   5.002
 7213SOL     OW22537   5.403   6.397   0.520
 7213SOL    HW122538   5.503   6.400   0.522
 7213SOL    HW222539   5.366   6.489   0.522
 7214SOL     OW22540   6.954   5.444   5.429
 7214SOL    HW122541   6.865   5.476   5.462
 7214SOL    HW222542   6.983   5.365   5.483
 7215SOL     OW22543   6.710   3.775   5.046
 7215SOL    HW122544   6.703   3.738   5.139
 7215SOL    HW222545   6.769   3.715   4.991
 7216SOL     OW22546   3.819   6.552   6.664
 7216SOL    HW122547   3.788   6.632   6.715
 7216SOL    HW222548   3.741   6.499   6.633
 7217SOL     OW22549   2.818   4.721   2.603
 7217SOL    HW122550   2.731   4.674   2.622
 7217SOL    HW222551   2.841   4.779   2.681
 7218SOL     OW22552   5.188   3.030   5.032
 7218SOL    HW122553   5.117   3.092   4.997
 7218SOL    HW222554   5.205   3.050   5.128
 7219SOL     OW22555   4.775   0.450   3.880
 7219SOL    HW122556   4.810   0.366   3.923
 7219SOL    HW222557   4.687   0.430   3.835
 7220SOL     OW22558   0.389   5.431   4.979
 7220SOL    HW122559   0.319   5.369   4.945
 7220SOL    HW222560   0.396   5.510   4.919
 7221SOL     OW22561   3.560   6.137   4.742
 7221SOL    HW122562   3.537   6.190   4.660
 7221SOL    HW222563   3.477   6.103   4.785
 7222SOL     OW22564   5.925   0.478   3.219
 7222SOL    HW122565   5.952   0.503   3.126
 7222SOL    HW222566   5.844   0.420   3.216
 7223SOL     OW22567   2.895   1.653   1.775
 7223SOL    HW122568   2.872   1.701   1.691
 7223SOL    HW222569   2.926   1.560   1.754
 7224SOL     OW22570   5.066   2.006   3.883
 7224SOL    HW122571   5.151   1.987   3.833
 7224SOL    HW222572   5.089   2.042   3.973
 7225SOL     OW22573   0.533   5.603   0.366
 7225SOL    HW122574   0.544   5.670   0.294
 7225SOL    HW222575   0.617   5.597   0.420
 7226SOL     OW22576   6.224   0.843   0.784
 7226SOL    HW122577   6.309   0.858   0.835
 7226SOL    HW222578   6.244   0.845   0.686
 7227SOL     OW22579   1.811   1.344   0.809
 7227SOL    HW122580   1.761   1.420   0.768
 7227SOL    HW222581   1.884   1.315   0.747
 7228SOL     OW22582   0.680   1.698   2.563
 7228SOL    HW122583   0.758   1.754   2.534
 7228SOL    HW222584   0.607   1.757   2.597
 7229SOL     OW22585   1.779   6.104   6.118
 7229SOL    HW122586   1.786   6.136   6.024
 7229SOL    HW222587   1.693   6.135   6.159
 7230SOL     OW22588   4.651   5.182   4.338
 7230SOL    HW122589   4.672   5.277   4.316
 7230SOL    HW222590   4.659   5.167   4.436
 7231SOL     OW22591   4.645   0.789   0.731
 7231SOL    HW122592   4.595   0.869   0.701
 7231SOL    HW222593   4.586   0.708   0.724
 7232SOL     OW22594   5.049   5.145   2.993
 7232SOL    HW122595   5.047   5.185   2.902
 7232SOL    HW222596   5.143   5.134   3.023
 7233SOL     OW22597   6.911   1.528   4.012
 7233SOL    HW122598   6.927   1.593   4.086
 7233SOL    HW222599   6.854   1.571   3.942
 7234SOL     OW22600   5.518   3.353   3.583
 7234SOL    HW122601   5.594   3.401   3.540
 7234SOL    HW222602   5.510   3.261   3.544
 7235SOL     OW22603   6.625   4.044   1.944
 7235SOL    HW122604   6.673   4.065   2.029
 7235SOL    HW222605   6.663   4.100   1.870
 7236SOL     OW22606   2.300   1.867   1.923
 7236SOL    HW122607   2.377   1.897   1.979
 7236SOL    HW222608   2.236   1.814   1.980
 7237SOL     OW22609   4.918   0.971   4.555
 7237SOL    HW122610   4.994   0.984   4.492
 7237SOL    HW222611   4.934   0.890   4.611
 7238SOL     OW22612   2.957   1.381   0.813
 7238SOL    HW122613   2.982   1.327   0.894
 7238SOL    HW222614   2.932   1.473   0.840
 7239SOL     OW22615   1.681   2.601   2.295
 7239SOL    HW122616   1.734   2.675   2.336
 7239SOL    HW222617   1.610   2.640   2.236
 7240SOL     OW22618   2.771   5.200   5.921
 7240SOL    HW122619   2.756   5.199   5.823
 7240SOL    HW222620   2.705   5.260   5.965
 7241SOL     OW22621   1.988   0.750   0.909
 7241SOL    HW122622   1.913   0.816   0.897
 7241SOL    HW222623   2.070   0.786   0.865
 7242SOL     OW22624   6.616   6.046   0.538
 7242SOL    HW122625   6.706   6.079   0.507
 7242SOL    HW222626   6.544   6.097   0.491
 7243SOL     OW22627   6.541   4.743   6.062
 7243SOL    HW122628   6.516   4.816   6.125
 7243SOL    HW222629   6.487   4.752   5.978
 7244SOL     OW22630   5.756   0.683   1.813
 7244SOL    HW122631   5.807   0.623   1.751
 7244SOL    HW222632   5.658   0.668   1.801
 7245SOL     OW22633   0.775   2.111   4.775
 7245SOL    HW122634   0.766   2.012   4.778
 7245SOL    HW222635   0.858   2.135   4.725
 7246SOL     OW22636   6.437   0.462   4.050
 7246SOL    HW122637   6.359   0.399   4.059
 7246SOL    HW222638   6.486   0.467   4.137
 7247SOL     OW22639   3.228   0.249   3.827
 7247SOL    HW122640   3.167   0.322   3.860
 7247SOL    HW222641   3.177   0.162   3.826
 7248SOL     OW22642   3.052   1.531   3.787
 7248SOL    HW122643   2.983   1.464   3.814
 7248SOL    HW222644   3.053   1.540   3.688
 7249SOL     OW22645   6.337   4.126   1.996
 7249SOL    HW122646   6.435   4.107   1.985
 7249SOL    HW222647   6.320   4.222   1.978
 7250SOL     OW22648   4.028   6.927   6.106
 7250SOL    HW122649   4.126   6.938   6.093
 7250SOL    HW222650   4.000   6.837   6.071
 7251SOL     OW22651   0.759   0.142   5.821
 7251SOL    HW122652   0.754   0.172   5.726
 7251SOL    HW222653   0.809   0.055   5.826
 7252SOL     OW22654   3.159   3.268   2.823
 7252SOL    HW122655   3.106   3.206   2.880
 7252SOL    HW222656   3.099   3.307   2.752
 7253SOL     OW22657   2.759   6.346   6.172
 7253SOL    HW122658   2.659   6.348   6.173
 7253SOL    HW222659   2.795   6.435   6.143
 7254SOL     OW22660   4.099   5.196   4.037
 7254SOL    HW122661   4.179   5.139   4.019
 7254SOL    HW222662   4.025   5.138   4.071
 7255SOL     OW22663   3.399   3.972   0.745
 7255SOL    HW122664   3.491   3.949   0.776
 7255SOL    HW222665   3.377   3.920   0.663
 7256SOL     OW22666   3.882   4.899   4.324
 7256SOL    HW122667   3.849   4.927   4.414
 7256SOL    HW222668   3.854   4.966   4.255
 7257SOL     OW22669   4.775   2.950   3.890
 7257SOL    HW122670   4.742   3.044   3.881
 7257SOL    HW222671   4.862   2.940   3.842
 7258SOL     OW22672   4.179   0.878   3.011
 7258SOL    HW122673   4.250   0.859   3.078
 7258SOL    HW222674   4.194   0.968   2.970
 7259SOL     OW22675   3.277   3.354   1.069
 7259SOL    HW122676   3.197   3.300   1.043
 7259SOL    HW222677   3.333   3.301   1.133
 7260SOL     OW22678   3.283   1.884   2.943
 7260SOL    HW122679   3.206   1.832   2.905
 7260SOL    HW222680   3.368   1.836   2.923
 7261SOL     OW22681   1.483   3.381   1.380
 7261SOL    HW122682   1.525   3.422   1.461
 7261SOL    HW222683   1.389   3.354   1.401
 7262SOL     OW22684   5.007   1.551   5.524
 7262SOL    HW122685   5.023   1.459   5.560
 7262SOL    HW222686   5.064   1.617   5.574
 7263SOL     OW22687   0.638   6.268   1.273
 7263SOL    HW122688   0.557   6.309   1.232
 7263SOL    HW222689   0.719   6.320   1.246
 7264SOL     OW22690   5.579   1.310   6.287
 7264SOL    HW122691   5.567   1.237   6.220
 7264SOL    HW222692   5.512   1.301   6.360
 7265SOL     OW22693   5.405   5.319   6.391
 7265SOL    HW122694   5.408   5.220   6.385
 7265SOL    HW222695   5.356   5.356   6.312
 7266SOL     OW22696   5.262   0.234   1.434
 7266SOL    HW122697   5.184   0.276   1.389
 7266SOL    HW222698   5.306   0.170   1.372
 7267SOL     OW22699   6.924   6.371   5.668
 7267SOL    HW122700   6.848   6.354   5.605
 7267SOL    HW222701   6.996   6.304   5.652
 7268SOL     OW22702   4.658   4.965   3.202
 7268SOL    HW122703   4.731   4.926   3.146
 7268SOL    HW222704   4.571   4.956   3.154
 7269SOL     OW22705   6.896   6.172   1.157
 7269SOL    HW122706   6.867   6.080   1.129
 7269SOL    HW222707   6.850   6.240   1.101
 7270SOL     OW22708   0.828   3.315   5.335
 7270SOL    HW122709   0.750   3.375   5.321
 7270SOL    HW222710   0.804   3.222   5.308
 7271SOL     OW22711   0.408   5.849   4.113
 7271SOL    HW122712   0.494   5.860   4.164
 7271SOL    HW222713   0.351   5.781   4.158
 7272SOL     OW22714   5.308   4.905   2.223
 7272SOL    HW122715   5.304   4.808   2.197
 7272SOL    HW222716   5.291   4.962   2.143
 7273SOL     OW22717   5.466   4.435   1.584
 7273SOL    HW122718   5.404   4.513   1.581
 7273SOL    HW222719   5.561   4.467   1.581
 7274SOL     OW22720   1.088   6.187   6.793
 7274SOL    HW122721   1.080   6.200   6.694
 7274SOL    HW222722   1.097   6.090   6.813
 7275SOL     OW22723   6.689   0.846   2.641
 7275SOL    HW122724   6.632   0.863   2.721
 7275SOL    HW222725   6.751   0.771   2.659
 7276SOL     OW22726   3.730   1.387   3.111
 7276SOL    HW122727   3.684   1.299   3.097
 7276SOL    HW222728   3.708   1.423   3.201
 7277SOL     OW22729   4.274   0.920   4.041
 7277SOL    HW122730   4.345   0.867   4.087
 7277SOL    HW222731   4.186   0.874   4.051
 7278SOL     OW22732   3.551   2.134   1.700
 7278SOL    HW122733   3.573   2.209   1.763
 7278SOL    HW222734   3.548   2.048   1.751
 7279SOL     OW22735   4.405   3.099   6.421
 7279SOL    HW122736   4.325   3.159   6.415
 7279SOL    HW222737   4.425   3.062   6.330
 7280SOL     OW22738   0.258   1.893   4.229
 7280SOL    HW122739   0.169   1.922   4.263
 7280SOL    HW222740   0.280   1.942   4.145
 7281SOL     OW22741   1.814   0.525   0.156
 7281SOL    HW122742   1.718   0.525   0.181
 7281SOL    HW222743   1.869   0.559   0.232
 7282SOL     OW22744   5.843   6.820   0.770
 7282SOL    HW122745   5.925   6.875   0.752
 7282SOL    HW222746   5.865   6.750   0.838
 7283SOL     OW22747   3.369   0.229   1.842
 7283SOL    HW122748   3.354   0.134   1.817
 7283SOL    HW222749   3.320   0.249   1.927
 7284SOL     OW22750   6.856   2.491   4.674
 7284SOL    HW122751   6.924   2.419   4.691
 7284SOL    HW222752   6.804   2.508   4.757
 7285SOL     OW22753   5.926   3.854   1.532
 7285SOL    HW122754   5.923   3.769   1.586
 7285SOL    HW222755   5.962   3.835   1.441
 7286SOL     OW22756   0.581   0.146   1.507
 7286SOL    HW122757   0.487   0.113   1.515
 7286SOL    HW222758   0.635   0.113   1.585
 7287SOL     OW22759   6.583   3.025   4.700
 7287SOL    HW122760   6.505   3.037   4.639
 7287SOL    HW222761   6.585   2.930   4.732
 7288SOL     OW22762   1.082   2.016   2.042
 7288SOL    HW122763   1.124   1.928   2.018
 7288SOL    HW222764   1.126   2.089   1.989
 7289SOL     OW22765   6.227   1.485   3.313
 7289SOL    HW122766   6.203   1.388   3.311
 7289SOL    HW222767   6.321   1.495   3.345
 7290SOL     OW22768   2.712   0.870   5.370
 7290SOL    HW122769   2.790   0.833   5.420
 7290SOL    HW222770   2.710   0.832   5.278
 7291SOL     OW22771   2.505   0.480   1.179
 7291SOL    HW122772   2.431   0.460   1.242
 7291SOL    HW222773   2.476   0.462   1.085
 7292SOL     OW22774   2.971   6.692   2.339
 7292SOL    HW122775   2.975   6.594   2.320
 7292SOL    HW222776   2.908   6.735   2.275
 7293SOL     OW22777   1.785   1.485   5.889
 7293SOL    HW122778   1.705   1.427   5.903
 7293SOL    HW222779   1.842   1.446   5.817
 7294SOL     OW22780   3.416   4.229   0.510
 7294SOL    HW122781   3.446   4.233   0.415
 7294SOL    HW222782   3.342   4.163   0.520
 7295SOL     OW22783   6.863   4.592   1.104
 7295SOL    HW122784   6.944   4.533   1.109
 7295SOL    HW222785   6.890   4.687   1.121
 7296SOL     OW22786   4.600   5.309   2.566
 7296SOL    HW122787   4.517   5.262   2.536
 7296SOL    HW222788   4.629   5.272   2.655
 7297SOL     OW22789   2.501   7.025   1.931
 7297SOL    HW122790   2.428   7.000   1.867
 7297SOL    HW222791   2.589   7.021   1.884
 7298SOL     OW22792   5.249   5.179   6.855
 7298SOL    HW122793   5.227   5.139   6.766
 7298SOL    HW222794   5.344   5.159   6.878
 7299SOL     OW22795   0.696   1.920   0.923
 7299SOL    HW122796   0.749   1.877   0.850
 7299SOL    HW222797   0.664   1.850   0.987
 7300SOL     OW22798   0.540   6.202   2.654
 7300SOL    HW122799   0.537   6.273   2.583
 7300SOL    HW222800   0.606   6.132   2.629
 7301SOL     OW22801   6.583   2.294   5.683
 7301SOL    HW122802   6.490   2.306   5.718
 7301SOL    HW222803   6.584   2.222   5.614
 7302SOL     OW22804   0.395   2.625   6.084
 7302SOL    HW122805   0.318   2.581   6.130
 7302SOL    HW222806   0.388   2.724   6.094
 7303SOL     OW22807   3.603   0.874   6.839
 7303SOL    HW122808   3.576   0.778   6.834
 7303SOL    HW222809   3.670   0.887   6.911
 7304SOL     OW22810   2.981   5.648   1.914
 7304SOL    HW122811   3.016   5.624   2.004
 7304SOL    HW222812   3.035   5.602   1.844
 7305SOL     OW22813   5.439   1.996   1.342
 7305SOL    HW122814   5.437   2.088   1.381
 7305SOL    HW222815   5.357   1.982   1.287
 7306SOL     OW22816   3.648   1.741   1.701
 7306SOL    HW122817   3.597   1.711   1.620
 7306SOL    HW222818   3.611   1.828   1.733
 7307SOL     OW22819   4.442   6.963   2.434
 7307SOL    HW122820   4.452   0.030   2.466
 7307SOL    HW222821   4.532   6.924   2.413
 7308SOL     OW22822   6.616   1.497   3.939
 7308SOL    HW122823   6.666   1.577   3.906
 7308SOL    HW222824   6.557   1.523   4.015
 7309SOL     OW22825   3.259   6.760   1.424
 7309SOL    HW122826   3.169   6.724   1.452
 7309SOL    HW222827   3.251   6.805   1.335
 7310SOL     OW22828   2.267   3.608   0.176
 7310SOL    HW122829   2.260   3.705   0.201
 7310SOL    HW222830   2.287   3.554   0.258
 7311SOL     OW22831   1.470   0.575   0.366
 7311SOL    HW122832   1.403   0.588   0.294
 7311SOL    HW222833   1.474   0.478   0.391
 7312SOL     OW22834   1.151   1.642   4.857
 7312SOL    HW122835   1.155   1.731   4.812
 7312SOL    HW222836   1.094   1.648   4.939
 7313SOL     OW22837   2.075   1.529   0.858
 7313SOL    HW122838   2.172   1.528   0.832
 7313SOL    HW222839   2.031   1.610   0.821
 7314SOL     OW22840   6.936   4.073   6.302
 7314SOL    HW122841   6.847   4.117   6.286
 7314SOL    HW222842   6.958   4.015   6.224
 7315SOL     OW22843   5.178   5.824   2.084
 7315SOL    HW122844   5.196   5.733   2.046
 7315SOL    HW222845   5.129   5.814   2.171
 7316SOL     OW22846   2.873   3.017   6.488
 7316SOL    HW122847   2.866   3.087   6.416
 7316SOL    HW222848   2.801   2.949   6.476
 7317SOL     OW22849   3.852   1.815   1.903
 7317SOL    HW122850   3.819   1.769   1.821
 7317SOL    HW222851   3.824   1.764   1.984
 7318SOL     OW22852   3.134   6.879   3.341
 7318SOL    HW122853   3.075   6.847   3.267
 7318SOL    HW222854   3.219   6.915   3.303
 7319SOL     OW22855   5.681   3.081   6.776
 7319SOL    HW122856   5.582   3.092   6.762
 7319SOL    HW222857   5.722   3.041   6.695
 7320SOL     OW22858   0.540   3.222   0.854
 7320SOL    HW122859   0.605   3.197   0.783
 7320SOL    HW222860   0.449   3.187   0.831
 7321SOL     OW22861   2.291   7.008   6.301
 7321SOL    HW122862   2.384   7.019   6.267
 7321SOL    HW222863   2.294   6.992   6.400
 7322SOL     OW22864   0.106   2.384   2.949
 7322SOL    HW122865   0.134   2.460   2.891
 7322SOL    HW222866   0.078   2.306   2.893
 7323SOL     OW22867   2.558   2.867   1.740
 7323SOL    HW122868   2.482   2.878   1.675
 7323SOL    HW222869   2.572   2.770   1.758
 7324SOL     OW22870   5.675   4.577   2.357
 7324SOL    HW122871   5.618   4.644   2.405
 7324SOL    HW222872   5.662   4.487   2.398
 7325SOL     OW22873   3.087   0.252   5.452
 7325SOL    HW122874   3.170   0.260   5.397
 7325SOL    HW222875   3.064   0.342   5.491
 7326SOL     OW22876   3.500   6.815   6.200
 7326SOL    HW122877   3.474   6.911   6.201
 7326SOL    HW222878   3.524   6.785   6.292
 7327SOL     OW22879   5.948   2.540   4.095
 7327SOL    HW122880   5.944   2.639   4.089
 7327SOL    HW222881   5.983   2.513   4.185
 7328SOL     OW22882   4.682   6.363   5.411
 7328SOL    HW122883   4.616   6.336   5.481
 7328SOL    HW222884   4.775   6.340   5.441
 7329SOL     OW22885   1.240   3.366   0.516
 7329SOL    HW122886   1.194   3.422   0.585
 7329SOL    HW222887   1.259   3.276   0.553
 7330SOL     OW22888   2.376   3.187   1.328
 7330SOL    HW122889   2.471   3.157   1.333
 7330SOL    HW222890   2.322   3.138   1.396
 7331SOL     OW22891   5.591   6.522   1.811
 7331SOL    HW122892   5.559   6.428   1.800
 7331SOL    HW222893   5.539   6.582   1.751
 7332SOL     OW22894   3.027   4.141   6.658
 7332SOL    HW122895   2.948   4.174   6.605
 7332SOL    HW222896   3.001   4.061   6.711
 7333SOL     OW22897   6.404   3.303   2.674
 7333SOL    HW122898   6.493   3.283   2.634
 7333SOL    HW222899   6.344   3.224   2.661
 7334SOL     OW22900   2.651   5.833   6.155
 7334SOL    HW122901   2.671   5.924   6.117
 7334SOL    HW222902   2.631   5.841   6.252
 7335SOL     OW22903   0.060   2.830   3.573
 7335SOL    HW122904   0.060   2.879   3.659
 7335SOL    HW222905   7.017   2.868   3.512
 7336SOL     OW22906   2.467   6.782   1.544
 7336SOL    HW122907   2.564   6.779   1.565
 7336SOL    HW222908   2.450   6.849   1.472
 7337SOL     OW22909   2.291   3.020   1.538
 7337SOL    HW122910   2.302   2.924   1.560
 7337SOL    HW222911   2.312   3.076   1.619
 7338SOL     OW22912   5.245   1.786   1.634
 7338SOL    HW122913   5.313   1.791   1.707
 7338SOL    HW222914   5.161   1.833   1.664
 7339SOL     OW22915   6.812   0.653   5.231
 7339SOL    HW122916   6.776   0.739   5.196
 7339SOL    HW222917   6.739   0.603   5.277
 7340SOL     OW22918   3.573   1.375   0.145
 7340SOL    HW122919   3.488   1.328   0.170
 7340SOL    HW222920   3.553   1.471   0.125
 7341SOL     OW22921   1.103   5.030   4.840
 7341SOL    HW122922   1.070   5.115   4.799
 7341SOL    HW222923   1.188   5.003   4.796
 7342SOL     OW22924   6.508   6.562   0.038
 7342SOL    HW122925   6.426   6.523   0.080
 7342SOL    HW222926   6.589   6.515   0.073
 7343SOL     OW22927   5.378   3.494   1.505
 7343SOL    HW122928   5.459   3.493   1.564
 7343SOL    HW222929   5.335   3.404   1.505
 7344SOL     OW22930   2.325   0.408   6.232
 7344SOL    HW122931   2.324   0.506   6.251
 7344SOL    HW222932   2.373   0.360   6.306
 7345SOL     OW22933   5.376   6.360   5.684
 7345SOL    HW122934   5.373   6.300   5.603
 7345SOL    HW222935   5.469   6.362   5.720
 7346SOL     OW22936   3.490   4.696   1.257
 7346SOL    HW122937   3.560   4.629   1.280
 7346SOL    HW222938   3.399   4.659   1.278
 7347SOL     OW22939   6.862   3.246   0.588
 7347SOL    HW122940   6.944   3.230   0.532
 7347SOL    HW222941   6.829   3.159   0.624
 7348SOL     OW22942   1.715   3.247   3.748
 7348SOL    HW122943   1.682   3.291   3.664
 7348SOL    HW222944   1.761   3.314   3.805
 7349SOL     OW22945   4.239   1.616   1.125
 7349SOL    HW122946   4.184   1.608   1.208
 7349SOL    HW222947   4.181   1.649   1.050
 7350SOL     OW22948   1.587   3.837   4.121
 7350SOL    HW122949   1.603   3.797   4.211
 7350SOL    HW222950   1.601   3.936   4.124
 7351SOL     OW22951   4.458   5.704   5.354
 7351SOL    HW122952   4.387   5.636   5.332
 7351SOL    HW222953   4.415   5.791   5.379
 7352SOL     OW22954   1.577   3.322   2.521
 7352SOL    HW122955   1.497   3.276   2.561
 7352SOL    HW222956   1.661   3.280   2.555
 7353SOL     OW22957   0.092   0.705   5.896
 7353SOL    HW122958   0.186   0.706   5.929
 7353SOL    HW222959   0.071   0.792   5.851
 7354SOL     OW22960   0.856   1.604   6.846
 7354SOL    HW122961   0.777   1.552   6.813
 7354SOL    HW222962   0.850   1.698   6.812
 7355SOL     OW22963   1.605   1.240   0.375
 7355SOL    HW122964   1.675   1.293   0.328
 7355SOL    HW222965   1.553   1.300   0.436
 7356SOL     OW22966   4.837   2.840   6.672
 7356SOL    HW122967   4.892   2.789   6.606
 7356SOL    HW222968   4.816   2.931   6.634
 7357SOL     OW22969   4.213   0.869   1.414
 7357SOL    HW122970   4.208   0.774   1.443
 7357SOL    HW222971   4.281   0.917   1.470
 7358SOL     OW22972   1.466   2.710   2.140
 7358SOL    HW122973   1.405   2.772   2.189
 7358SOL    HW222974   1.434   2.700   2.045
 7359SOL     OW22975   2.874   2.892   0.456
 7359SOL    HW122976   2.807   2.939   0.513
 7359SOL    HW222977   2.966   2.909   0.490
 7360SOL     OW22978   3.104   3.068   5.632
 7360SOL    HW122979   3.089   2.969   5.636
 7360SOL    HW222980   3.033   3.110   5.574
 7361SOL     OW22981   4.312   0.499   2.101
 7361SOL    HW122982   4.361   0.428   2.049
 7361SOL    HW222983   4.334   0.491   2.198
 7362SOL     OW22984   0.665   6.396   4.495
 7362SOL    HW122985   0.614   6.436   4.570
 7362SOL    HW222986   0.644   6.444   4.410
 7363SOL     OW22987   3.838   1.674   1.066
 7363SOL    HW122988   3.795   1.761   1.041
 7363SOL    HW222989   3.907   1.651   0.998
 7364SOL     OW22990   4.377   0.244   1.354
 7364SOL    HW122991   4.450   0.192   1.311
 7364SOL    HW222992   4.309   0.270   1.285
 7365SOL     OW22993   1.682   5.997   1.853
 7365SOL    HW122994   1.589   5.969   1.873
 7365SOL    HW222995   1.684   6.095   1.833
 7366SOL     OW22996   2.067   5.448   0.619
 7366SOL    HW122997   1.975   5.483   0.603
 7366SOL    HW222998   2.125   5.468   0.540
 7367SOL     OW22999   4.859   4.165   1.327
 7367SOL    HW123000   4.935   4.123   1.378
 7367SOL    HW223001   4.868   4.264   1.331
 7368SOL     OW23002   3.872   2.974   3.739
 7368SOL    HW123003   3.824   2.909   3.798
 7368SOL    HW223004   3.885   3.060   3.788
 7369SOL     OW23005   4.557   3.284   0.364
 7369SOL    HW123006   4.485   3.222   0.397
 7369SOL    HW223007   4.647   3.243   0.381
 7370SOL     OW23008   2.588   0.769   5.136
 7370SOL    HW123009   2.618   0.769   5.040
 7370SOL    HW223010   2.580   0.675   5.168
 7371SOL     OW23011   1.967   6.006   4.266
 7371SOL    HW123012   1.929   5.916   4.291
 7371SOL    HW223013   1.937   6.030   4.173
 7372SOL     OW23014   2.934   1.398   5.558
 7372SOL    HW123015   2.881   1.483   5.569
 7372SOL    HW223016   2.899   1.347   5.480
 7373SOL     OW23017   5.589   1.091   4.250
 7373SOL    HW123018   5.626   1.082   4.342
 7373SOL    HW223019   5.658   1.061   4.184
 7374SOL     OW23020   2.892   2.257   5.554
 7374SOL    HW123021   2.978   2.295   5.521
 7374SOL    HW223022   2.820   2.326   5.548
 7375SOL     OW23023   2.051   2.822   2.801
 7375SOL    HW123024   1.973   2.872   2.838
 7375SOL    HW223025   2.134   2.850   2.847
 7376SOL     OW23026   3.833   1.713   6.612
 7376SOL    HW123027   3.839   1.813   6.615
 7376SOL    HW223028   3.802   1.685   6.521
 7377SOL     OW23029   5.272   5.200   1.806
 7377SOL    HW123030   5.189   5.235   1.850
 7377SOL    HW223031   5.347   5.265   1.820
 7378SOL     OW23032   0.345   1.468   5.573
 7378SOL    HW123033   0.247   1.488   5.568
 7378SOL    HW223034   0.373   1.419   5.490
 7379SOL     OW23035   3.595   2.055   3.028
 7379SOL    HW123036   3.689   2.073   3.000
 7379SOL    HW223037   3.543   2.140   3.027
 7380SOL     OW23038   6.728   3.226   5.066
 7380SOL    HW123039   6.820   3.256   5.090
 7380SOL    HW223040   6.688   3.292   5.002
 7381SOL     OW23041   5.405   4.015   2.207
 7381SOL    HW123042   5.385   4.043   2.113
 7381SOL    HW223043   5.331   3.957   2.241
 7382SOL     OW23044   0.289   5.824   6.048
 7382SOL    HW123045   0.214   5.758   6.036
 7382SOL    HW223046   0.373   5.786   6.011
 7383SOL     OW23047   0.824   6.456   1.174
 7383SOL    HW123048   0.796   6.527   1.110
 7383SOL    HW223049   0.858   6.377   1.123
 7384SOL     OW23050   5.945   0.712   2.192
 7384SOL    HW123051   5.851   0.693   2.164
 7384SOL    HW223052   6.001   0.730   2.111
 7385SOL     OW23053   4.084   5.978   2.375
 7385SOL    HW123054   4.090   5.943   2.468
 7385SOL    HW223055   4.139   6.061   2.367
 7386SOL     OW23056   0.260   1.864   5.374
 7386SOL    HW123057   0.232   1.821   5.460
 7386SOL    HW223058   0.310   1.948   5.393
 7387SOL     OW23059   4.454   6.409   4.139
 7387SOL    HW123060   4.497   6.419   4.050
 7387SOL    HW223061   4.481   6.485   4.198
 7388SOL     OW23062   0.165   4.994   2.728
 7388SOL    HW123063   0.133   5.028   2.816
 7388SOL    HW223064   0.087   4.983   2.666
 7389SOL     OW23065   0.844   4.163   6.403
 7389SOL    HW123066   0.808   4.256   6.400
 7389SOL    HW223067   0.828   4.118   6.315
 7390SOL     OW23068   2.272   1.226   6.843
 7390SOL    HW123069   2.172   1.228   6.851
 7390SOL    HW223070   2.312   1.289   6.910
 7391SOL     OW23071   5.065   4.358   5.073
 7391SOL    HW123072   5.158   4.355   5.110
 7391SOL    HW223073   5.057   4.295   4.996
 7392SOL     OW23074   2.807   5.938   7.002
 7392SOL    HW123075   2.748   5.952   0.055
 7392SOL    HW223076   2.753   5.901   6.927
 7393SOL     OW23077   5.610   4.766   1.336
 7393SOL    HW123078   5.585   4.847   1.388
 7393SOL    HW223079   5.696   4.728   1.372
 7394SOL     OW23080   2.991   2.782   5.769
 7394SOL    HW123081   2.898   2.817   5.763
 7394SOL    HW223082   3.008   2.747   5.861
 7395SOL     OW23083   2.446   1.626   0.224
 7395SOL    HW123084   2.475   1.695   0.158
 7395SOL    HW223085   2.491   1.539   0.203
 7396SOL     OW23086   0.495   6.687   0.331
 7396SOL    HW123087   0.516   6.685   0.429
 7396SOL    HW223088   0.457   6.599   0.303
 7397SOL     OW23089   4.705   5.035   5.094
 7397SOL    HW123090   4.765   5.001   5.167
 7397SOL    HW223091   4.692   4.963   5.026
 7398SOL     OW23092   2.945   5.223   4.409
 7398SOL    HW123093   2.922   5.318   4.433
 7398SOL    HW223094   2.986   5.178   4.488
 7399SOL     OW23095   1.376   2.934   5.823
 7399SOL    HW123096   1.463   2.924   5.871
 7399SOL    HW223097   1.392   2.932   5.724
 7400SOL     OW23098   3.520   3.395   5.905
 7400SOL    HW123099   3.514   3.437   5.814
 7400SOL    HW223100   3.467   3.450   5.970
 7401SOL     OW23101   1.136   0.868   3.974
 7401SOL    HW123102   1.230   0.900   3.987
 7401SOL    HW223103   1.088   0.871   4.062
 7402SOL     OW23104   2.864   5.546   5.932
 7402SOL    HW123105   2.842   5.505   5.843
 7402SOL    HW223106   2.782   5.546   5.989
 7403SOL     OW23107   1.769   4.134   2.893
 7403SOL    HW123108   1.789   4.225   2.929
 7403SOL    HW223109   1.764   4.069   2.968
 7404SOL     OW23110   2.865   4.966   1.209
 7404SOL    HW123111   2.898   5.016   1.128
 7404SOL    HW223112   2.789   4.908   1.183
 7405SOL     OW23113   2.924   4.848   4.396
 7405SOL    HW123114   2.947   4.757   4.363
 7405SOL    HW223115   2.826   4.853   4.416
 7406SOL     OW23116   0.729   2.973   3.431
 7406SOL    HW123117   0.712   3.071   3.445
 7406SOL    HW223118   0.770   2.935   3.514
 7407SOL     OW23119   0.206   6.350   4.799
 7407SOL    HW123120   0.164   6.293   4.870
 7407SOL    HW223121   0.137   6.372   4.730
 7408SOL     OW23122   1.396   3.212   6.217
 7408SOL    HW123123   1.344   3.131   6.192
 7408SOL    HW223124   1.452   3.241   6.139
 7409SOL     OW23125   0.744   1.515   5.717
 7409SOL    HW123126   0.687   1.433   5.715
 7409SOL    HW223127   0.803   1.516   5.636
 7410SOL     OW23128   0.464   5.119   1.361
 7410SOL    HW123129   0.454   5.021   1.345
 7410SOL    HW223130   0.385   5.152   1.413
 7411SOL     OW23131   2.656   6.660   4.290
 7411SOL    HW123132   2.637   6.740   4.347
 7411SOL    HW223133   2.743   6.619   4.318
 7412SOL     OW23134   4.338   0.098   2.946
 7412SOL    HW123135   4.423   0.069   2.902
 7412SOL    HW223136   4.275   0.134   2.878
 7413SOL     OW23137   5.028   5.413   5.351
 7413SOL    HW123138   5.058   5.366   5.434
 7413SOL    HW223139   5.008   5.508   5.373
 7414SOL     OW23140   0.256   6.828   4.175
 7414SOL    HW123141   0.350   6.807   4.152
 7414SOL    HW223142   0.249   6.849   4.273
 7415SOL     OW23143   1.112   3.509   2.928
 7415SOL    HW123144   1.059   3.457   2.994
 7415SOL    HW223145   1.210   3.497   2.947
 7416SOL     OW23146   3.254   1.217   3.743
 7416SOL    HW123147   3.311   1.292   3.709
 7416SOL    HW223148   3.294   1.180   3.827
 7417SOL     OW23149   2.068   0.858   5.983
 7417SOL    HW123150   2.042   0.790   6.052
 7417SOL    HW223151   1.999   0.930   5.981
 7418SOL     OW23152   3.596   5.585   0.594
 7418SOL    HW123153   3.623   5.639   0.673
 7418SOL    HW223154   3.674   5.531   0.561
 7419SOL     OW23155   6.322   2.410   5.212
 7419SOL    HW123156   6.273   2.443   5.292
 7419SOL    HW223157   6.419   2.433   5.220
 7420SOL     OW23158   0.172   0.047   1.897
 7420SOL    HW123159   0.247   0.110   1.876
 7420SOL    HW223160   0.190   0.002   1.985
 7421SOL     OW23161   3.538   3.552   1.035
 7421SOL    HW123162   3.480   3.481   0.996
 7421SOL    HW223163   3.615   3.509   1.083
 7422SOL     OW23164   0.307   3.013   2.580
 7422SOL    HW123165   0.342   2.991   2.489
 7422SOL    HW223166   0.346   2.950   2.647
 7423SOL     OW23167   6.639   4.289   5.553
 7423SOL    HW123168   6.588   4.330   5.477
 7423SOL    HW223169   6.659   4.358   5.621
 7424SOL     OW23170   0.176   0.596   4.999
 7424SOL    HW123171   0.190   0.545   4.915
 7424SOL    HW223172   0.264   0.611   5.045
 7425SOL     OW23173   4.975   5.758   6.245
 7425SOL    HW123174   4.933   5.752   6.155
 7425SOL    HW223175   5.038   5.836   6.248
 7426SOL     OW23176   1.669   1.467   6.715
 7426SOL    HW123177   1.671   1.401   6.790
 7426SOL    HW223178   1.762   1.480   6.680
 7427SOL     OW23179   3.339   6.548   4.096
 7427SOL    HW123180   3.280   6.494   4.035
 7427SOL    HW223181   3.305   6.642   4.101
 7428SOL     OW23182   3.824   1.454   5.829
 7428SOL    HW123183   3.875   1.442   5.914
 7428SOL    HW223184   3.730   1.481   5.850
 7429SOL     OW23185   6.486   6.613   3.280
 7429SOL    HW123186   6.536   6.659   3.207
 7429SOL    HW223187   6.395   6.654   3.290
 7430SOL     OW23188   0.142   4.016   6.488
 7430SOL    HW123189   0.107   4.060   6.405
 7430SOL    HW223190   0.232   4.055   6.511
 7431SOL     OW23191   0.320   3.132   3.001
 7431SOL    HW123192   0.252   3.097   3.066
 7431SOL    HW223193   0.277   3.200   2.942
 7432SOL     OW23194   0.031   0.001   3.363
 7432SOL    HW123195   0.102   6.962   3.391
 7432SOL    HW223196   0.048   0.030   3.269
 7433SOL     OW23197   5.220   4.942   0.072
 7433SOL    HW123198   5.300   4.886   0.050
 7433SOL    HW223199   5.189   4.989   7.016
 7434SOL     OW23200   4.684   0.370   5.899
 7434SOL    HW123201   4.761   0.362   5.962
 7434SOL    HW223202   4.704   0.318   5.816
 7435SOL     OW23203   4.117   5.677   0.496
 7435SOL    HW123204   4.162   5.744   0.437
 7435SOL    HW223205   4.047   5.629   0.443
 7436SOL     OW23206   5.818   3.089   6.398
 7436SOL    HW123207   5.784   3.177   6.430
 7436SOL    HW223208   5.784   3.016   6.458
 7437SOL     OW23209   0.239   6.195   0.271
 7437SOL    HW123210   0.192   6.128   0.328
 7437SOL    HW223211   0.217   6.288   0.302
 7438SOL     OW23212   0.589   5.407   0.107
 7438SOL    HW123213   0.677   5.454   0.119
 7438SOL    HW223214   0.552   5.383   0.197
 7439SOL     OW23215   1.279   6.087   5.100
 7439SOL    HW123216   1.376   6.085   5.122
 7439SOL    HW223217   1.233   6.010   5.144
 7440SOL     OW23218   0.523   3.220   4.617
 7440SOL    HW123219   0.584   3.236   4.695
 7440SOL    HW223220   0.546   3.283   4.543
 7441SOL     OW23221   4.632   5.872   4.757
 7441SOL    HW123222   4.678   5.924   4.685
 7441SOL    HW223223   4.693   5.863   4.836
 7442SOL     OW23224   0.946   0.945   6.120
 7442SOL    HW123225   0.853   0.975   6.142
 7442SOL    HW223226   1.012   1.009   6.160
 7443SOL     OW23227   0.398   0.576   2.167
 7443SOL    HW123228   0.382   0.559   2.264
 7443SOL    HW223229   0.452   0.659   2.156
 7444SOL     OW23230   6.374   3.148   4.865
 7444SOL    HW123231   6.340   3.111   4.951
 7444SOL    HW223232   6.460   3.104   4.841
 7445SOL     OW23233   2.982   1.009   1.272
 7445SOL    HW123234   3.034   0.957   1.339
 7445SOL    HW223235   3.031   1.008   1.184
 7446SOL     OW23236   5.479   3.852   1.055
 7446SOL    HW123237   5.401   3.903   1.090
 7446SOL    HW223238   5.478   3.853   0.955
 7447SOL     OW23239   1.102   3.121   5.889
 7447SOL    HW123240   1.174   3.129   5.820
 7447SOL    HW223241   1.024   3.072   5.850
 7448SOL     OW23242   6.341   6.686   5.529
 7448SOL    HW123243   6.261   6.634   5.555
 7448SOL    HW223244   6.393   6.634   5.460
 7449SOL     OW23245   6.713   2.803   1.894
 7449SOL    HW123246   6.669   2.852   1.818
 7449SOL    HW223247   6.691   2.848   1.980
 7450SOL     OW23248   5.238   1.677   4.401
 7450SOL    HW123249   5.179   1.628   4.336
 7450SOL    HW223250   5.329   1.637   4.400
 7451SOL     OW23251   0.793   6.720   3.298
 7451SOL    HW123252   0.859   6.667   3.351
 7451SOL    HW223253   0.726   6.658   3.256
 7452SOL     OW23254   0.363   6.204   5.318
 7452SOL    HW123255   0.431   6.203   5.244
 7452SOL    HW223256   0.405   6.239   5.402
 7453SOL     OW23257   4.702   5.825   5.762
 7453SOL    HW123258   4.742   5.910   5.797
 7453SOL    HW223259   4.620   5.847   5.709
 7454SOL     OW23260   1.216   2.191   1.874
 7454SOL    HW123261   1.231   2.162   1.779
 7454SOL    HW223262   1.211   2.290   1.878
 7455SOL     OW23263   0.158   1.993   2.348
 7455SOL    HW123264   0.067   1.994   2.308
 7455SOL    HW223265   0.177   2.082   2.390
 7456SOL     OW23266   0.734   2.333   4.115
 7456SOL    HW123267   0.809   2.375   4.065
 7456SOL    HW223268   0.654   2.393   4.112
 7457SOL     OW23269   3.790   0.910   5.103
 7457SOL    HW123270   3.845   0.987   5.070
 7457SOL    HW223271   3.747   0.864   5.025
 7458SOL     OW23272   2.307   6.945   6.587
 7458SOL    HW123273   2.209   6.937   6.605
 7458SOL    HW223274   2.356   6.873   6.634
 7459SOL     OW23275   4.812   0.579   1.593
 7459SOL    HW123276   4.872   0.519   1.645
 7459SOL    HW223277   4.748   0.624   1.656
 7460SOL     OW23278   1.976   4.800   0.809
 7460SOL    HW123279   1.914   4.874   0.783
 7460SOL    HW223280   2.069   4.835   0.816
 7461SOL     OW23281   6.542   1.650   5.782
 7461SOL    HW123282   6.541   1.660   5.683
 7461SOL    HW223283   6.464   1.699   5.821
 7462SOL     OW23284   1.166   4.155   2.908
 7462SOL    HW123285   1.138   4.060   2.901
 7462SOL    HW223286   1.251   4.161   2.961
 7463SOL     OW23287   2.941   5.074   0.940
 7463SOL    HW123288   2.966   4.988   0.896
 7463SOL    HW223289   2.883   5.128   0.879
 7464SOL     OW23290   4.592   0.435   6.539
 7464SOL    HW123291   4.600   0.517   6.595
 7464SOL    HW223292   4.682   0.407   6.507
 7465SOL     OW23293   1.287   6.756   0.205
 7465SOL    HW123294   1.374   6.800   0.181
 7465SOL    HW223295   1.302   6.693   0.282
 7466SOL     OW23296   0.381   0.702   6.031
 7466SOL    HW123297   0.469   0.724   5.988
 7466SOL    HW223298   0.380   0.605   6.055
 7467SOL     OW23299   6.921   1.606   0.138
 7467SOL    HW123300   7.001   1.652   0.179
 7467SOL    HW223301   6.847   1.672   0.126
 7468SOL     OW23302   6.830   2.578   3.043
 7468SOL    HW123303   6.731   2.575   3.062
 7468SOL    HW223304   6.864   2.485   3.032
 7469SOL     OW23305   7.012   0.563   0.534
 7469SOL    HW123306   0.045   0.643   0.523
 7469SOL    HW223307   6.969   0.541   0.447
 7470SOL     OW23308   0.001   2.950   3.796
 7470SOL    HW123309   6.972   2.932   3.877
 7470SOL    HW223310   6.970   2.987   3.723
 7471SOL     OW23311   6.522   6.525   5.856
 7471SOL    HW123312   6.619   6.534   5.833
 7471SOL    HW223313   6.482   6.616   5.869
 7472SOL     OW23314   6.328   6.905   4.266
 7472SOL    HW123315   6.399   6.898   4.196
 7472SOL    HW223316   6.319   7.001   4.295
 7473SOL     OW23317   6.671   4.535   2.674
 7473SOL    HW123318   6.670   4.437   2.654
 7473SOL    HW223319   6.584   4.576   2.647
 7474SOL     OW23320   2.266   1.582   5.222
 7474SOL    HW123321   2.273   1.678   5.252
 7474SOL    HW223322   2.358   1.545   5.210
 7475SOL     OW23323   3.960   0.860   2.778
 7475SOL    HW123324   4.005   0.867   2.867
 7475SOL    HW223325   4.008   0.917   2.711
 7476SOL     OW23326   3.141   5.324   3.931
 7476SOL    HW123327   3.043   5.314   3.910
 7476SOL    HW223328   3.156   5.413   3.974
 7477SOL     OW23329   6.887   1.237   4.846
 7477SOL    HW123330   6.849   1.149   4.875
 7477SOL    HW223331   6.847   1.263   4.759
 7478SOL     OW23332   4.423   4.692   6.532
 7478SOL    HW123333   4.338   4.659   6.575
 7478SOL    HW223334   4.488   4.718   6.604
 7479SOL     OW23335   3.972   2.427   1.428
 7479SOL    HW123336   4.063   2.469   1.431
 7479SOL    HW223337   3.929   2.434   1.518
 7480SOL     OW23338   7.005   3.939   1.715
 7480SOL    HW123339   6.907   3.922   1.704
 7480SOL    HW223340   0.029   3.855   1.694
 7481SOL     OW23341   6.231   5.531   1.577
 7481SOL    HW123342   6.184   5.554   1.662
 7481SOL    HW223343   6.164   5.522   1.503
 7482SOL     OW23344   4.639   2.282   3.490
 7482SOL    HW123345   4.562   2.344   3.500
 7482SOL    HW223346   4.721   2.334   3.468
 7483SOL     OW23347   4.941   2.727   4.926
 7483SOL    HW123348   4.877   2.791   4.883
 7483SOL    HW223349   4.984   2.671   4.856
 7484SOL     OW23350   0.963   1.054   3.486
 7484SOL    HW123351   1.032   1.126   3.475
 7484SOL    HW223352   0.980   1.003   3.570
 7485SOL     OW23353   3.340   0.262   4.668
 7485SOL    HW123354   3.247   0.244   4.637
 7485SOL    HW223355   3.391   0.308   4.595
 7486SOL     OW23356   2.831   0.349   5.764
 7486SOL    HW123357   2.893   0.426   5.778
 7486SOL    HW223358   2.748   0.363   5.818
 7487SOL     OW23359   2.482   6.027   2.374
 7487SOL    HW123360   2.547   6.091   2.335
 7487SOL    HW223361   2.389   6.060   2.358
 7488SOL     OW23362   1.945   6.619   4.478
 7488SOL    HW123363   1.879   6.595   4.407
 7488SOL    HW223364   1.908   6.695   4.533
 7489SOL     OW23365   5.498   2.197   4.855
 7489SOL    HW123366   5.597   2.191   4.841
 7489SOL    HW223367   5.479   2.237   4.944
 7490SOL     OW23368   0.623   0.775   1.511
 7490SOL    HW123369   0.636   0.737   1.419
 7490SOL    HW223370   0.579   0.864   1.504
 7491SOL     OW23371   6.112   3.611   5.664
 7491SOL    HW123372   6.093   3.673   5.741
 7491SOL    HW223373   6.084   3.518   5.689
 7492SOL     OW23374   2.180   0.668   3.740
 7492SOL    HW123375   2.204   0.617   3.657
 7492SOL    HW223376   2.094   0.717   3.724
 7493SOL     OW23377   6.622   3.918   6.958
 7493SOL    HW123378   6.574   3.842   6.913
 7493SOL    HW223379   6.645   3.988   6.891
 7494SOL     OW23380   5.337   0.684   2.842
 7494SOL    HW123381   5.372   0.590   2.834
 7494SOL    HW223382   5.376   0.740   2.769
 7495SOL     OW23383   1.818   0.905   0.676
 7495SOL    HW123384   1.767   0.918   0.590
 7495SOL    HW223385   1.760   0.854   0.740
 7496SOL     OW23386   0.140   3.299   5.736
 7496SOL    HW123387   0.237   3.311   5.756
 7496SOL    HW223388   0.089   3.379   5.767
 7497SOL     OW23389   2.365   4.582   0.562
 7497SOL    HW123390   2.372   4.681   0.578
 7497SOL    HW223391   2.397   4.533   0.643
 7498SOL     OW23392   2.490   1.433   5.491
 7498SOL    HW123393   2.403   1.421   5.443
 7498SOL    HW223394   2.509   1.352   5.546
 7499SOL     OW23395   3.839   2.068   2.851
 7499SOL    HW123396   3.918   2.130   2.853
 7499SOL    HW223397   3.858   1.992   2.788
 7500SOL     OW23398   3.459   5.190   4.427
 7500SOL    HW123399   3.531   5.198   4.497
 7500SOL    HW223400   3.447   5.094   4.403
 7501SOL     OW23401   5.547   4.048   3.713
 7501SOL    HW123402   5.587   4.121   3.659
 7501SOL    HW223403   5.586   3.960   3.686
 7502SOL     OW23404   1.548   6.980   4.588
 7502SOL    HW123405   1.602   0.026   4.544
 7502SOL    HW223406   1.459   7.018   4.614
 7503SOL     OW23407   2.773   1.878   0.705
 7503SOL    HW123408   2.746   1.939   0.780
 7503SOL    HW223409   2.696   1.868   0.642
 7504SOL     OW23410   1.978   6.992   2.825
 7504SOL    HW123411   2.064   6.941   2.820
 7504SOL    HW223412   1.979   0.039   2.757
 7505SOL     OW23413   2.522   2.181   5.686
 7505SOL    HW123414   2.429   2.216   5.673
 7505SOL    HW223415   2.551   2.131   5.604
 7506SOL     OW23416   4.798   0.235   3.425
 7506SOL    HW123417   4.829   0.287   3.504
 7506SOL    HW223418   4.753   0.151   3.456
 7507SOL     OW23419   0.710   0.561   2.348
 7507SOL    HW123420   0.740   0.655   2.337
 7507SOL    HW223421   0.789   0.501   2.362
 7508SOL     OW23422   0.457   6.320   2.183
 7508SOL    HW123423   0.489   6.357   2.096
 7508SOL    HW223424   0.361   6.293   2.174
 7509SOL     OW23425   5.622   4.206   0.418
 7509SOL    HW123426   5.592   4.114   0.392
 7509SOL    HW223427   5.562   4.274   0.375
 7510SOL     OW23428   3.829   4.504   5.400
 7510SOL    HW123429   3.874   4.415   5.399
 7510SOL    HW223430   3.736   4.495   5.364
 7511SOL     OW23431   1.992   6.976   3.576
 7511SOL    HW123432   1.962   0.011   3.503
 7511SOL    HW223433   2.072   6.925   3.546
 7512SOL     OW23434   2.849   5.470   0.042
 7512SOL    HW123435   2.903   5.507   0.118
 7512SOL    HW223436   2.898   5.393   0.001
 7513SOL     OW23437   1.918   1.171   1.887
 7513SOL    HW123438   1.890   1.115   1.809
 7513SOL    HW223439   1.924   1.267   1.859
 7514SOL     OW23440   2.286   5.754   1.198
 7514SOL    HW123441   2.323   5.726   1.109
 7514SOL    HW223442   2.220   5.685   1.229
 7515SOL     OW23443   0.425   4.658   1.970
 7515SOL    HW123444   0.478   4.743   1.979
 7515SOL    HW223445   0.412   4.617   2.060
 7516SOL     OW23446   6.610   5.794   5.699
 7516SOL    HW123447   6.628   5.878   5.750
 7516SOL    HW223448   6.618   5.811   5.601
 7517SOL     OW23449   6.815   3.050   0.831
 7517SOL    HW123450   6.907   3.048   0.792
 7517SOL    HW223451   6.820   3.066   0.929
 7518SOL     OW23452   4.285   5.238   3.180
 7518SOL    HW123453   4.192   5.208   3.200
 7518SOL    HW223454   4.303   5.325   3.226
 7519SOL     OW23455   6.704   6.793   4.190
 7519SOL    HW123456   6.801   6.795   4.215
 7519SOL    HW223457   6.661   6.713   4.231
 7520SOL     OW23458   3.895   0.442   2.105
 7520SOL    HW123459   3.817   0.493   2.143
 7520SOL    HW223460   3.867   0.396   2.021
 7521SOL     OW23461   4.748   4.417   6.219
 7521SOL    HW123462   4.701   4.461   6.143
 7521SOL    HW223463   4.691   4.423   6.301
 7522SOL     OW23464   2.277   0.567   6.642
 7522SOL    HW123465   2.344   0.586   6.714
 7522SOL    HW223466   2.258   0.651   6.591
 7523SOL     OW23467   5.852   0.107   5.892
 7523SOL    HW123468   5.920   0.165   5.937
 7523SOL    HW223469   5.787   0.073   5.960
 7524SOL     OW23470   1.749   1.763   5.875
 7524SOL    HW123471   1.767   1.665   5.865
 7524SOL    HW223472   1.833   1.809   5.904
 7525SOL     OW23473   3.382   0.774   6.116
 7525SOL    HW123474   3.370   0.729   6.028
 7525SOL    HW223475   3.359   0.871   6.107
 7526SOL     OW23476   3.105   3.255   1.589
 7526SOL    HW123477   3.190   3.204   1.603
 7526SOL    HW223478   3.030   3.192   1.572
 7527SOL     OW23479   4.146   5.814   2.817
 7527SOL    HW123480   4.108   5.904   2.794
 7527SOL    HW223481   4.084   5.743   2.783
 7528SOL     OW23482   5.578   1.715   0.118
 7528SOL    HW123483   5.674   1.687   0.128
 7528SOL    HW223484   5.518   1.637   0.130
 7529SOL     OW23485   5.696   0.335   4.345
 7529SOL    HW123486   5.608   0.376   4.321
 7529SOL    HW223487   5.768   0.403   4.331
 7530SOL     OW23488   0.428   3.567   2.371
 7530SOL    HW123489   0.481   3.533   2.448
 7530SOL    HW223490   0.393   3.659   2.392
 7531SOL     OW23491   4.370   2.369   4.402
 7531SOL    HW123492   4.451   2.319   4.371
 7531SOL    HW223493   4.372   2.378   4.501
 7532SOL     OW23494   5.658   4.601   0.963
 7532SOL    HW123495   5.635   4.515   0.918
 7532SOL    HW223496   5.644   4.592   1.062
 7533SOL     OW23497   2.222   2.251   2.017
 7533SOL    HW123498   2.164   2.169   2.017
 7533SOL    HW223499   2.316   2.225   2.037
 7534SOL     OW23500   4.457   5.816   5.655
 7534SOL    HW123501   4.403   5.811   5.571
 7534SOL    HW223502   4.436   5.737   5.713
 7535SOL     OW23503   2.293   0.441   5.967
 7535SOL    HW123504   2.321   0.451   6.062
 7535SOL    HW223505   2.275   0.344   5.947
 7536SOL     OW23506   4.698   4.361   4.734
 7536SOL    HW123507   4.766   4.294   4.763
 7536SOL    HW223508   4.642   4.387   4.812
 7537SOL     OW23509   3.433   5.323   2.637
 7537SOL    HW123510   3.414   5.328   2.735
 7537SOL    HW223511   3.356   5.360   2.585
 7538SOL     OW23512   2.907   3.065   1.539
 7538SOL    HW123513   2.892   2.966   1.536
 7538SOL    HW223514   2.823   3.112   1.509
 7539SOL     OW23515   0.897   2.953   4.198
 7539SOL    HW123516   0.884   2.887   4.124
 7539SOL    HW223517   0.934   3.038   4.161
 7540SOL     OW23518   4.502   0.180   5.297
 7540SOL    HW123519   4.580   0.216   5.349
 7540SOL    HW223520   4.498   0.081   5.307
 7541SOL     OW23521   6.907   4.457   4.090
 7541SOL    HW123522   6.998   4.433   4.123
 7541SOL    HW223523   6.838   4.411   4.146
 7542SOL     OW23524   0.604   5.792   6.841
 7542SOL    HW123525   0.674   5.723   6.825
 7542SOL    HW223526   0.520   5.767   6.794
 7543SOL     OW23527   3.491   2.431   0.310
 7543SOL    HW123528   3.451   2.509   0.357
 7543SOL    HW223529   3.428   2.353   0.317
 7544SOL     OW23530   0.431   1.908   2.784
 7544SOL    HW123531   0.448   1.910   2.883
 7544SOL    HW223532   0.384   1.992   2.756
 7545SOL     OW23533   6.455   5.872   1.678
 7545SOL    HW123534   6.359   5.900   1.678
 7545SOL    HW223535   6.477   5.826   1.591
 7546SOL     OW23536   3.129   1.838   2.233
 7546SOL    HW123537   3.061   1.882   2.175
 7546SOL    HW223538   3.095   1.750   2.266
 7547SOL     OW23539   4.847   1.292   0.357
 7547SOL    HW123540   4.790   1.217   0.390
 7547SOL    HW223541   4.798   1.344   0.288
 7548SOL     OW23542   3.911   2.062   0.026
 7548SOL    HW123543   3.936   2.155   0.001
 7548SOL    HW223544   3.991   2.002   0.015
 7549SOL     OW23545   5.754   2.065   0.911
 7549SOL    HW123546   5.751   2.004   0.832
 7549SOL    HW223547   5.681   2.040   0.975
 7550SOL     OW23548   2.515   4.624   2.395
 7550SOL    HW123549   2.502   4.723   2.409
 7550SOL    HW223550   2.560   4.609   2.308
 7551SOL     OW23551   4.796   3.549   6.414
 7551SOL    HW123552   4.708   3.509   6.436
 7551SOL    HW223553   4.822   3.614   6.486
 7552SOL     OW23554   0.968   5.232   3.034
 7552SOL    HW123555   0.928   5.209   3.123
 7552SOL    HW223556   0.896   5.265   2.973
 7553SOL     OW23557   4.393   5.938   5.071
 7553SOL    HW123558   4.337   6.020   5.055
 7553SOL    HW223559   4.457   5.955   5.145
 7554SOL     OW23560   4.370   1.727   1.484
 7554SOL    HW123561   4.342   1.635   1.511
 7554SOL    HW223562   4.394   1.727   1.387
 7555SOL     OW23563   1.753   5.371   5.704
 7555SOL    HW123564   1.737   5.277   5.734
 7555SOL    HW223565   1.699   5.389   5.622
 7556SOL     OW23566   0.803   2.670   6.608
 7556SOL    HW123567   0.806   2.732   6.686
 7556SOL    HW223568   0.710   2.667   6.572
 7557SOL     OW23569   5.260   2.330   6.054
 7557SOL    HW123570   5.182   2.388   6.076
 7557SOL    HW223571   5.324   2.380   5.995
 7558SOL     OW23572   1.855   2.514   4.443
 7558SOL    HW123573   1.798   2.530   4.363
 7558SOL    HW223574   1.835   2.584   4.512
 7559SOL     OW23575   5.956   4.402   6.589
 7559SOL    HW123576   6.006   4.396   6.503
 7559SOL    HW223577   5.990   4.332   6.652
 7560SOL     OW23578   4.995   6.585   1.430
 7560SOL    HW123579   4.975   6.669   1.479
 7560SOL    HW223580   5.053   6.606   1.351
 7561SOL     OW23581   1.148   3.362   6.811
 7561SOL    HW123582   1.161   3.411   6.725
 7561SOL    HW223583   1.177   3.267   6.800
 7562SOL     OW23584   6.028   6.308   4.226
 7562SOL    HW123585   6.037   6.377   4.297
 7562SOL    HW223586   6.034   6.217   4.267
 7563SOL     OW23587   2.062   6.886   0.801
 7563SOL    HW123588   2.048   6.915   0.896
 7563SOL    HW223589   2.025   6.794   0.788
 7564SOL     OW23590   4.756   0.865   2.998
 7564SOL    HW123591   4.657   0.849   2.991
 7564SOL    HW223592   4.784   0.930   2.928
 7565SOL     OW23593   6.066   3.461   0.395
 7565SOL    HW123594   6.028   3.465   0.487
 7565SOL    HW223595   6.165   3.452   0.399
 7566SOL     OW23596   6.380   4.595   2.937
 7566SOL    HW123597   6.435   4.520   2.973
 7566SOL    HW223598   6.390   4.600   2.838
 7567SOL     OW23599   1.655   2.459   5.225
 7567SOL    HW123600   1.667   2.542   5.278
 7567SOL    HW223601   1.577   2.470   5.163
 7568SOL     OW23602   5.691   6.501   2.850
 7568SOL    HW123603   5.706   6.449   2.935
 7568SOL    HW223604   5.763   6.569   2.840
 7569SOL     OW23605   3.921   6.319   6.250
 7569SOL    HW123606   3.963   6.326   6.159
 7569SOL    HW223607   3.933   6.226   6.285
 7570SOL     OW23608   5.447   4.569   5.114
 7570SOL    HW123609   5.457   4.603   5.208
 7570SOL    HW223610   5.538   4.555   5.074
 7571SOL     OW23611   5.497   5.618   3.702
 7571SOL    HW123612   5.452   5.529   3.712
 7571SOL    HW223613   5.517   5.634   3.605
 7572SOL     OW23614   4.128   0.924   1.675
 7572SOL    HW123615   4.100   0.917   1.579
 7572SOL    HW223616   4.161   1.016   1.694
 7573SOL     OW23617   0.057   6.547   5.007
 7573SOL    HW123618   0.006   6.462   5.001
 7573SOL    HW223619   0.073   6.583   4.915
 7574SOL     OW23620   6.413   0.884   4.378
 7574SOL    HW123621   6.344   0.954   4.391
 7574SOL    HW223622   6.399   0.840   4.289
 7575SOL     OW23623   4.450   0.089   5.943
 7575SOL    HW123624   4.356   0.122   5.932
 7575SOL    HW223625   4.498   0.147   6.009
 7576SOL     OW23626   4.809   4.569   6.580
 7576SOL    HW123627   4.806   4.647   6.518
 7576SOL    HW223628   4.872   4.501   6.545
 7577SOL     OW23629   0.065   6.942   6.703
 7577SOL    HW123630   0.087   0.012   6.692
 7577SOL    HW223631   0.095   6.892   6.621
 7578SOL     OW23632   2.369   5.900   1.843
 7578SOL    HW123633   2.439   5.868   1.908
 7578SOL    HW223634   2.408   5.971   1.785
 7579SOL     OW23635   6.255   1.468   1.727
 7579SOL    HW123636   6.201   1.434   1.651
 7579SOL    HW223637   6.234   1.565   1.743
 7580SOL     OW23638   1.022   3.667   3.551
 7580SOL    HW123639   1.078   3.593   3.589
 7580SOL    HW223640   1.072   3.753   3.557
 7581SOL     OW23641   6.458   0.795   0.988
 7581SOL    HW123642   6.412   0.875   1.025
 7581SOL    HW223643   6.414   0.712   1.021
 7582SOL     OW23644   2.921   1.237   1.062
 7582SOL    HW123645   2.945   1.322   1.110
 7582SOL    HW223646   2.891   1.169   1.129
 7583SOL     OW23647   6.507   2.923   1.057
 7583SOL    HW123648   6.520   2.856   1.130
 7583SOL    HW223649   6.458   3.002   1.093
 7584SOL     OW23650   2.721   6.998   1.794
 7584SOL    HW123651   2.734   0.011   1.703
 7584SOL    HW223652   2.733   6.899   1.789
 7585SOL     OW23653   1.730   2.653   6.258
 7585SOL    HW123654   1.795   2.728   6.261
 7585SOL    HW223655   1.647   2.679   6.309
 7586SOL     OW23656   3.311   0.953   3.875
 7586SOL    HW123657   3.336   0.929   3.969
 7586SOL    HW223658   3.393   0.982   3.826
 7587SOL     OW23659   2.188   1.956   6.744
 7587SOL    HW123660   2.169   2.054   6.746
 7587SOL    HW223661   2.248   1.935   6.667
 7588SOL     OW23662   1.325   3.065   2.498
 7588SOL    HW123663   1.414   3.061   2.543
 7588SOL    HW223664   1.269   3.135   2.542
 7589SOL     OW23665   0.770   6.968   2.215
 7589SOL    HW123666   0.731   0.021   2.168
 7589SOL    HW223667   0.869   6.978   2.221
 7590SOL     OW23668   4.704   1.826   6.704
 7590SOL    HW123669   4.746   1.916   6.691
 7590SOL    HW223670   4.607   1.837   6.726
 7591SOL     OW23671   6.912   3.855   0.166
 7591SOL    HW123672   6.844   3.838   0.237
 7591SOL    HW223673   6.968   3.774   0.153
 7592SOL     OW23674   6.974   3.949   6.045
 7592SOL    HW123675   0.038   3.983   6.018
 7592SOL    HW223676   6.922   3.924   5.963
 7593SOL     OW23677   6.085   3.159   1.435
 7593SOL    HW123678   6.078   3.072   1.388
 7593SOL    HW223679   6.042   3.231   1.380
 7594SOL     OW23680   0.837   5.269   2.637
 7594SOL    HW123681   0.897   5.194   2.666
 7594SOL    HW223682   0.873   5.309   2.553
 7595SOL     OW23683   0.257   2.294   5.742
 7595SOL    HW123684   0.253   2.195   5.725
 7595SOL    HW223685   0.235   2.343   5.658
 7596SOL     OW23686   4.605   5.661   3.960
 7596SOL    HW123687   4.599   5.567   3.994
 7596SOL    HW223688   4.515   5.690   3.927
 7597SOL     OW23689   3.738   6.194   3.050
 7597SOL    HW123690   3.725   6.097   3.028
 7597SOL    HW223691   3.807   6.202   3.122
 7598SOL     OW23692   6.392   1.262   2.770
 7598SOL    HW123693   6.338   1.207   2.833
 7598SOL    HW223694   6.490   1.250   2.790
 7599SOL     OW23695   5.310   1.639   2.513
 7599SOL    HW123696   5.306   1.706   2.587
 7599SOL    HW223697   5.380   1.570   2.534
 7600SOL     OW23698   2.209   1.488   2.544
 7600SOL    HW123699   2.170   1.418   2.604
 7600SOL    HW223700   2.143   1.509   2.471
 7601SOL     OW23701   1.962   5.359   3.059
 7601SOL    HW123702   1.990   5.313   3.143
 7601SOL    HW223703   2.040   5.409   3.021
 7602SOL     OW23704   0.511   4.526   5.954
 7602SOL    HW123705   0.529   4.586   5.876
 7602SOL    HW223706   0.423   4.480   5.941
 7603SOL     OW23707   1.710   5.650   6.002
 7603SOL    HW123708   1.646   5.573   6.008
 7603SOL    HW223709   1.724   5.688   6.094
 7604SOL     OW23710   1.579   4.920   4.397
 7604SOL    HW123711   1.660   4.966   4.435
 7604SOL    HW223712   1.525   4.882   4.472
 7605SOL     OW23713   0.476   6.981   1.266
 7605SOL    HW123714   0.574   6.962   1.261
 7605SOL    HW223715   0.437   6.936   1.346
 7606SOL     OW23716   5.935   3.463   4.654
 7606SOL    HW123717   6.014   3.517   4.626
 7606SOL    HW223718   5.932   3.457   4.754
 7607SOL     OW23719   3.614   4.659   0.055
 7607SOL    HW123720   3.555   4.691   0.129
 7607SOL    HW223721   3.562   4.657   6.996
 7608SOL     OW23722   3.838   3.648   2.614
 7608SOL    HW123723   3.888   3.608   2.536
 7608SOL    HW223724   3.740   3.650   2.592
 7609SOL     OW23725   1.335   3.398   4.291
 7609SOL    HW123726   1.314   3.369   4.385
 7609SOL    HW223727   1.327   3.319   4.230
 7610SOL     OW23728   5.374   6.236   6.918
 7610SOL    HW123729   5.298   6.208   6.859
 7610SOL    HW223730   5.431   6.157   6.938
 7611SOL     OW23731   0.372   2.101   0.847
 7611SOL    HW123732   0.281   2.132   0.820
 7611SOL    HW223733   0.366   2.047   0.931
 7612SOL     OW23734   5.244   3.191   3.999
 7612SOL    HW123735   5.309   3.142   3.940
 7612SOL    HW223736   5.197   3.125   4.058
 7613SOL     OW23737   6.404   3.376   1.261
 7613SOL    HW123738   6.410   3.458   1.318
 7613SOL    HW223739   6.445   3.395   1.171
 7614SOL     OW23740   4.864   3.223   0.499
 7614SOL    HW123741   4.929   3.151   0.525
 7614SOL    HW223742   4.888   3.259   0.409
 7615SOL     OW23743   3.372   4.904   6.954
 7615SOL    HW123744   3.435   4.930   0.001
 7615SOL    HW223745   3.330   4.986   6.915
 7616SOL     OW23746   5.981   4.956   5.071
 7616SOL    HW123747   6.021   5.020   5.006
 7616SOL    HW223748   6.040   4.876   5.079
 7617SOL     OW23749   3.865   5.035   2.530
 7617SOL    HW123750   3.934   5.097   2.568
 7617SOL    HW223751   3.780   5.086   2.515
 7618SOL     OW23752   0.495   1.652   5.723
 7618SOL    HW123753   0.591   1.623   5.717
 7618SOL    HW223754   0.436   1.581   5.684
 7619SOL     OW23755   5.722   2.781   5.129
 7619SOL    HW123756   5.799   2.785   5.064
 7619SOL    HW223757   5.637   2.797   5.080
 7620SOL     OW23758   4.152   5.806   1.024
 7620SOL    HW123759   4.180   5.862   0.947
 7620SOL    HW223760   4.187   5.712   1.012
 7621SOL     OW23761   0.116   1.950   1.228
 7621SOL    HW123762   0.051   1.946   1.304
 7621SOL    HW223763   0.066   1.938   1.142
 7622SOL     OW23764   4.633   5.917   1.478
 7622SOL    HW123765   4.707   5.963   1.526
 7622SOL    HW223766   4.628   5.822   1.508
 7623SOL     OW23767   4.643   4.647   6.766
 7623SOL    HW123768   4.577   4.577   6.794
 7623SOL    HW223769   4.705   4.609   6.697
 7624SOL     OW23770   0.284   3.656   5.192
 7624SOL    HW123771   0.240   3.647   5.282
 7624SOL    HW223772   0.226   3.712   5.133
 7625SOL     OW23773   4.469   0.850   1.522
 7625SOL    HW123774   4.478   0.789   1.601
 7625SOL    HW223775   4.550   0.908   1.516
 7626SOL     OW23776   5.822   0.063   4.296
 7626SOL    HW123777   5.815   0.066   4.197
 7626SOL    HW223778   5.767   0.137   4.336
 7627SOL     OW23779   5.353   2.274   0.548
 7627SOL    HW123780   5.366   2.344   0.477
 7627SOL    HW223781   5.441   2.236   0.575
 7628SOL     OW23782   3.811   1.084   2.877
 7628SOL    HW123783   3.838   1.149   2.806
 7628SOL    HW223784   3.816   0.991   2.841
 7629SOL     OW23785   6.797   6.259   3.354
 7629SOL    HW123786   6.846   6.273   3.441
 7629SOL    HW223787   6.713   6.208   3.371
 7630SOL     OW23788   6.812   6.921   1.410
 7630SOL    HW123789   6.798   6.843   1.470
 7630SOL    HW223790   6.779   7.004   1.455
 7631SOL     OW23791   1.206   1.403   6.260
 7631SOL    HW123792   1.205   1.442   6.167
 7631SOL    HW223793   1.298   1.369   6.280
 7632SOL     OW23794   3.050   2.942   1.843
 7632SOL    HW123795   3.064   2.843   1.850
 7632SOL    HW223796   2.973   2.960   1.782
 7633SOL     OW23797   5.285   0.687   1.141
 7633SOL    HW123798   5.228   0.606   1.123
 7633SOL    HW223799   5.361   0.689   1.077
 7634SOL     OW23800   1.453   2.331   2.526
 7634SOL    HW123801   1.538   2.354   2.573
 7634SOL    HW223802   1.396   2.275   2.587
 7635SOL     OW23803   3.535   5.347   4.839
 7635SOL    HW123804   3.605   5.297   4.891
 7635SOL    HW223805   3.534   5.443   4.867
 7636SOL     OW23806   1.041   2.698   3.816
 7636SOL    HW123807   1.022   2.688   3.719
 7636SOL    HW223808   1.087   2.616   3.849
 7637SOL     OW23809   2.320   5.114   2.435
 7637SOL    HW123810   2.357   5.194   2.481
 7637SOL    HW223811   2.233   5.089   2.477
 7638SOL     OW23812   3.196   6.163   1.024
 7638SOL    HW123813   3.178   6.122   0.935
 7638SOL    HW223814   3.295   6.177   1.035
 7639SOL     OW23815   1.462   2.544   0.695
 7639SOL    HW123816   1.488   2.640   0.699
 7639SOL    HW223817   1.364   2.535   0.715
 7640SOL     OW23818   2.835   2.124   6.186
 7640SOL    HW123819   2.894   2.173   6.122
 7640SOL    HW223820   2.851   2.158   6.279
 7641SOL     OW23821   1.246   5.220   2.204
 7641SOL    HW123822   1.296   5.252   2.124
 7641SOL    HW223823   1.228   5.122   2.196
 7642SOL     OW23824   3.976   0.378   2.637
 7642SOL    HW123825   3.935   0.468   2.654
 7642SOL    HW223826   3.950   0.346   2.546
 7643SOL     OW23827   4.946   2.860   4.121
 7643SOL    HW123828   5.044   2.875   4.122
 7643SOL    HW223829   4.905   2.913   4.047
 7644SOL     OW23830   6.206   2.516   2.315
 7644SOL    HW123831   6.176   2.574   2.240
 7644SOL    HW223832   6.127   2.491   2.371
 7645SOL     OW23833   4.118   4.207   5.619
 7645SOL    HW123834   4.146   4.116   5.650
 7645SOL    HW223835   4.023   4.203   5.587
 7646SOL     OW23836   1.167   3.823   2.893
 7646SOL    HW123837   1.267   3.829   2.899
 7646SOL    HW223838   1.141   3.797   2.800
 7647SOL     OW23839   6.366   3.768   2.892
 7647SOL    HW123840   6.382   3.670   2.880
 7647SOL    HW223841   6.406   3.818   2.815
 7648SOL     OW23842   2.479   1.442   2.644
 7648SOL    HW123843   2.476   1.491   2.731
 7648SOL    HW223844   2.387   1.434   2.607
 7649SOL     OW23845   0.938   0.788   2.590
 7649SOL    HW123846   0.975   0.696   2.597
 7649SOL    HW223847   0.885   0.809   2.672
 7650SOL     OW23848   4.599   2.016   1.076
 7650SOL    HW123849   4.630   1.971   0.992
 7650SOL    HW223850   4.526   1.963   1.118
 7651SOL     OW23851   2.497   0.718   4.028
 7651SOL    HW123852   2.443   0.638   4.055
 7651SOL    HW223853   2.448   0.768   3.956
 7652SOL     OW23854   5.712   3.573   4.953
 7652SOL    HW123855   5.688   3.661   4.912
 7652SOL    HW223856   5.797   3.582   5.005
 7653SOL     OW23857   1.233   2.276   6.809
 7653SOL    HW123858   1.206   2.179   6.812
 7653SOL    HW223859   1.220   2.311   6.717
 7654SOL     OW23860   5.012   2.940   3.745
 7654SOL    HW123861   5.091   2.985   3.702
 7654SOL    HW223862   5.040   2.850   3.779
 7655SOL     OW23863   4.780   0.281   3.079
 7655SOL    HW123864   4.787   0.223   3.160
 7655SOL    HW223865   4.867   0.327   3.063
 7656SOL     OW23866   2.734   4.114   5.877
 7656SOL    HW123867   2.711   4.175   5.801
 7656SOL    HW223868   2.833   4.111   5.889
 7657SOL     OW23869   1.502   2.934   4.537
 7657SOL    HW123870   1.537   3.010   4.592
 7657SOL    HW223871   1.550   2.850   4.563
 7658SOL     OW23872   3.809   6.655   5.726
 7658SOL    HW123873   3.818   6.754   5.720
 7658SOL    HW223874   3.846   6.613   5.642
 7659SOL     OW23875   5.414   5.533   6.566
 7659SOL    HW123876   5.331   5.538   6.623
 7659SOL    HW223877   5.406   5.456   6.503
 7660SOL     OW23878   0.675   5.897   4.250
 7660SOL    HW123879   0.640   5.989   4.236
 7660SOL    HW223880   0.660   5.869   4.345
 7661SOL     OW23881   6.262   2.412   4.240
 7661SOL    HW123882   6.181   2.415   4.299
 7661SOL    HW223883   6.257   2.334   4.179
 7662SOL     OW23884   1.201   3.499   2.655
 7662SOL    HW123885   1.163   3.526   2.744
 7662SOL    HW223886   1.255   3.416   2.666
 7663SOL     OW23887   1.026   5.712   5.719
 7663SOL    HW123888   1.075   5.627   5.737
 7663SOL    HW223889   0.928   5.699   5.737
 7664SOL     OW23890   3.644   6.864   1.659
 7664SOL    HW123891   3.634   6.766   1.638
 7664SOL    HW223892   3.582   6.917   1.602
 7665SOL     OW23893   5.493   6.761   4.856
 7665SOL    HW123894   5.569   6.705   4.888
 7665SOL    HW223895   5.526   6.824   4.786
 7666SOL     OW23896   0.370   5.778   1.783
 7666SOL    HW123897   0.286   5.741   1.824
 7666SOL    HW223898   0.441   5.782   1.853
 7667SOL     OW23899   5.247   6.302   2.300
 7667SOL    HW123900   5.307   6.232   2.338
 7667SOL    HW223901   5.271   6.391   2.339
 7668SOL     OW23902   3.165   4.602   0.096
 7668SOL    HW123903   3.208   4.520   0.061
 7668SOL    HW223904   3.170   4.602   0.196
 7669SOL     OW23905   5.120   1.729   5.719
 7669SOL    HW123906   5.087   1.822   5.735
 7669SOL    HW223907   5.216   1.732   5.692
 7670SOL     OW23908   0.997   5.141   6.391
 7670SOL    HW123909   1.018   5.190   6.306
 7670SOL    HW223910   1.080   5.096   6.424
 7671SOL     OW23911   4.499   0.920   2.832
 7671SOL    HW123912   4.543   0.882   2.751
 7671SOL    HW223913   4.509   1.020   2.831
 7672SOL     OW23914   0.454   6.992   3.249
 7672SOL    HW123915   0.507   0.051   3.242
 7672SOL    HW223916   0.414   6.971   3.160
 7673SOL     OW23917   1.434   5.551   0.027
 7673SOL    HW123918   1.512   5.611   0.044
 7673SOL    HW223919   1.460   5.456   0.043
 7674SOL     OW23920   5.553   1.185   3.337
 7674SOL    HW123921   5.586   1.203   3.245
 7674SOL    HW223922   5.463   1.228   3.349
 7675SOL     OW23923   6.295   6.621   2.286
 7675SOL    HW123924   6.200   6.631   2.257
 7675SOL    HW223925   6.335   6.542   2.240
 7676SOL     OW23926   1.978   1.605   0.419
 7676SOL    HW123927   2.077   1.595   0.433
 7676SOL    HW223928   1.938   1.649   0.499
 7677SOL     OW23929   0.563   4.877   1.951
 7677SOL    HW123930   0.546   4.956   2.010
 7677SOL    HW223931   0.627   4.903   1.878
 7678SOL     OW23932   2.292   2.696   4.516
 7678SOL    HW123933   2.260   2.781   4.474
 7678SOL    HW223934   2.260   2.692   4.611
 7679SOL     OW23935   2.966   5.546   6.521
 7679SOL    HW123936   2.875   5.538   6.482
 7679SOL    HW223937   2.977   5.636   6.562
 7680SOL     OW23938   1.491   1.390   0.901
 7680SOL    HW123939   1.455   1.478   0.869
 7680SOL    HW223940   1.430   1.352   0.971
 7681SOL     OW23941   2.034   0.476   0.864
 7681SOL    HW123942   2.036   0.576   0.870
 7681SOL    HW223943   2.021   0.449   0.768
 7682SOL     OW23944   3.559   0.088   2.515
 7682SOL    HW123945   3.606   0.172   2.489
 7682SOL    HW223946   3.625   0.013   2.519
 7683SOL     OW23947   5.260   1.364   4.138
 7683SOL    HW123948   5.225   1.305   4.065
 7683SOL    HW223949   5.283   1.308   4.218
 7684SOL     OW23950   3.551   2.018   1.460
 7684SOL    HW123951   3.578   2.069   1.542
 7684SOL    HW223952   3.532   1.923   1.485
 7685SOL     OW23953   3.104   2.140   6.506
 7685SOL    HW123954   3.167   2.090   6.566
 7685SOL    HW223955   3.139   2.138   6.412
 7686SOL     OW23956   0.115   6.842   3.067
 7686SOL    HW123957   0.101   6.940   3.083
 7686SOL    HW223958   0.026   6.796   3.064
 7687SOL     OW23959   5.718   5.188   4.241
 7687SOL    HW123960   5.655   5.116   4.212
 7687SOL    HW223961   5.686   5.228   4.327
 7688SOL     OW23962   1.529   6.208   6.225
 7688SOL    HW123963   1.444   6.162   6.199
 7688SOL    HW223964   1.529   6.224   6.324
 7689SOL     OW23965   5.889   6.313   2.684
 7689SOL    HW123966   5.951   6.392   2.678
 7689SOL    HW223967   5.795   6.343   2.670
 7690SOL     OW23968   5.494   4.693   0.412
 7690SOL    HW123969   5.439   4.775   0.401
 7690SOL    HW223970   5.487   4.660   0.506
 7691SOL     OW23971   5.300   3.370   5.129
 7691SOL    HW123972   5.228   3.402   5.190
 7691SOL    HW223973   5.258   3.338   5.043
 7692SOL     OW23974   0.230   6.182   2.119
 7692SOL    HW123975   0.256   6.089   2.095
 7692SOL    HW223976   0.166   6.181   2.196
 7693SOL     OW23977   4.031   6.902   1.282
 7693SOL    HW123978   4.100   6.857   1.226
 7693SOL    HW223979   3.982   6.970   1.226
 7694SOL     OW23980   0.199   4.462   4.960
 7694SOL    HW123981   0.237   4.423   4.876
 7694SOL    HW223982   0.135   4.398   5.001
 7695SOL     OW23983   4.730   0.276   1.178
 7695SOL    HW123984   4.804   0.333   1.141
 7695SOL    HW223985   4.765   0.183   1.193
 7696SOL     OW23986   6.923   0.955   5.145
 7696SOL    HW123987   6.830   0.938   5.110
 7696SOL    HW223988   6.990   0.920   5.079
 7697SOL     OW23989   2.914   6.444   2.203
 7697SOL    HW123990   2.839   6.494   2.160
 7697SOL    HW223991   2.962   6.391   2.133
 7698SOL     OW23992   6.456   1.368   3.759
 7698SOL    HW123993   6.404   1.286   3.783
 7698SOL    HW223994   6.491   1.411   3.842
 7699SOL     OW23995   3.720   6.040   0.023
 7699SOL    HW123996   3.804   6.018   7.000
 7699SOL    HW223997   3.704   6.139   0.021
 7700SOL     OW23998   5.239   6.003   3.865
 7700SOL    HW123999   5.330   6.025   3.900
 7700SOL    HW224000   5.170   6.026   3.933
 7701SOL     OW24001   6.772   1.787   6.766
 7701SOL    HW124002   6.802   1.701   6.806
 7701SOL    HW224003   6.803   1.863   6.824
 7702SOL     OW24004   3.333   6.821   5.337
 7702SOL    HW124005   3.238   6.791   5.352
 7702SOL    HW224006   3.383   6.749   5.288
 7703SOL     OW24007   6.113   0.233   6.116
 7703SOL    HW124008   6.202   0.195   6.143
 7703SOL    HW224009   6.044   0.206   6.183
 7704SOL     OW24010   5.926   5.518   4.802
 7704SOL    HW124011   5.917   5.605   4.850
 7704SOL    HW224012   5.847   5.460   4.821
 7705SOL     OW24013   3.842   5.420   6.526
 7705SOL    HW124014   3.792   5.339   6.553
 7705SOL    HW224015   3.794   5.466   6.452
 7706SOL     OW24016   4.542   3.112   5.419
 7706SOL    HW124017   4.612   3.182   5.409
 7706SOL    HW224018   4.576   3.025   5.383
 7707SOL     OW24019   7.025   5.292   6.193
 7707SOL    HW124020   0.061   5.214   6.186
 7707SOL    HW224021   6.956   5.273   6.263
 7708SOL     OW24022   0.071   0.542   5.583
 7708SOL    HW124023   0.121   0.625   5.556
 7708SOL    HW224024   0.133   0.482   5.633
 7709SOL     OW24025   6.165   4.896   1.892
 7709SOL    HW124026   6.208   4.985   1.904
 7709SOL    HW224027   6.225   4.837   1.837
 7710SOL     OW24028   2.675   1.072   0.378
 7710SOL    HW124029   2.713   1.090   0.468
 7710SOL    HW224030   2.748   1.038   0.318
 7711SOL     OW24031   6.218   6.745   5.973
 7711SOL    HW124032   6.299   6.776   5.923
 7711SOL    HW224033   6.201   6.807   6.050
 7712SOL     OW24034   6.050   5.349   1.971
 7712SOL    HW124035   6.002   5.268   1.940
 7712SOL    HW224036   6.096   5.329   2.058
 7713SOL     OW24037   1.341   3.968   0.372
 7713SOL    HW124038   1.417   3.995   0.430
 7713SOL    HW224039   1.285   3.899   0.418
 7714SOL     OW24040   5.852   4.082   5.638
 7714SOL    HW124041   5.948   4.088   5.668
 7714SOL    HW224042   5.826   3.986   5.629
 7715SOL     OW24043   3.772   2.343   0.427
 7715SOL    HW124044   3.715   2.350   0.346
 7715SOL    HW224045   3.855   2.290   0.405
 7716SOL     OW24046   5.933   4.358   2.905
 7716SOL    HW124047   6.019   4.397   2.872
 7716SOL    HW224048   5.925   4.264   2.874
 7717SOL     OW24049   1.804   0.904   4.854
 7717SOL    HW124050   1.862   0.846   4.911
 7717SOL    HW224051   1.771   0.852   4.775
 7718SOL     OW24052   1.180   3.072   3.308
 7718SOL    HW124053   1.127   3.052   3.391
 7718SOL    HW224054   1.133   3.033   3.229
 7719SOL     OW24055   6.823   4.511   4.965
 7719SOL    HW124056   6.851   4.563   5.046
 7719SOL    HW224057   6.863   4.419   4.969
 7720SOL     OW24058   6.866   1.189   0.047
 7720SOL    HW124059   6.884   1.136   6.991
 7720SOL    HW224060   6.854   1.127   0.125
 7721SOL     OW24061   0.220   5.444   2.720
 7721SOL    HW124062   0.162   5.364   2.734
 7721SOL    HW224063   0.164   5.526   2.719
 7722SOL     OW24064   1.393   4.918   3.643
 7722SOL    HW124065   1.461   4.992   3.640
 7722SOL    HW224066   1.334   4.930   3.723
 7723SOL     OW24067   4.462   3.484   0.206
 7723SOL    HW124068   4.517   3.415   0.254
 7723SOL    HW224069   4.384   3.439   0.163
 7724SOL     OW24070   2.974   3.995   0.863
 7724SOL    HW124071   2.961   3.936   0.784
 7724SOL    HW224072   3.059   3.971   0.909
 7725SOL     OW24073   6.481   1.598   3.359
 7725SOL    HW124074   6.491   1.645   3.272
 7725SOL    HW224075   6.483   1.664   3.434
 7726SOL     OW24076   1.785   5.621   5.321
 7726SOL    HW124077   1.778   5.536   5.373
 7726SOL    HW224078   1.701   5.634   5.268
 7727SOL     OW24079   0.220   0.790   2.851
 7727SOL    HW124080   0.211   0.889   2.860
 7727SOL    HW224081   0.171   0.760   2.770
 7728SOL     OW24082   1.408   4.585   3.718
 7728SOL    HW124083   1.356   4.626   3.643
 7728SOL    HW224084   1.373   4.619   3.806
 7729SOL     OW24085   5.573   3.030   0.784
 7729SOL    HW124086   5.521   3.115   0.783
 7729SOL    HW224087   5.527   2.961   0.728
 7730SOL     OW24088   5.959   5.765   0.539
 7730SOL    HW124089   6.034   5.699   0.527
 7730SOL    HW224090   5.943   5.780   0.636
 7731SOL     OW24091   6.645   1.207   0.466
 7731SOL    HW124092   6.711   1.151   0.415
 7731SOL    HW224093   6.553   1.169   0.455
 7732SOL     OW24094   4.740   6.606   0.541
 7732SOL    HW124095   4.687   6.522   0.526
 7732SOL    HW224096   4.803   6.620   0.465
 7733SOL     OW24097   5.020   6.347   2.776
 7733SOL    HW124098   5.072   6.286   2.717
 7733SOL    HW224099   5.057   6.440   2.768
 7734SOL     OW24100   2.779   4.746   3.025
 7734SOL    HW124101   2.686   4.753   3.062
 7734SOL    HW224102   2.844   4.743   3.101
 7735SOL     OW24103   4.481   0.155   6.526
 7735SOL    HW124104   4.519   0.247   6.513
 7735SOL    HW224105   4.420   0.133   6.449
 7736SOL     OW24106   3.537   3.564   6.600
 7736SOL    HW124107   3.564   3.492   6.663
 7736SOL    HW224108   3.502   3.524   6.516
 7737SOL     OW24109   3.074   6.895   2.497
 7737SOL    HW124110   3.173   6.902   2.485
 7737SOL    HW224111   3.042   6.807   2.464
 7738SOL     OW24112   2.977   6.189   6.894
 7738SOL    HW124113   2.945   6.129   6.967
 7738SOL    HW224114   2.969   6.141   6.806
 7739SOL     OW24115   0.460   2.650   1.208
 7739SOL    HW124116   0.501   2.705   1.281
 7739SOL    HW224117   0.379   2.604   1.244
 7740SOL     OW24118   2.388   1.145   2.360
 7740SOL    HW124119   2.297   1.123   2.326
 7740SOL    HW224120   2.452   1.152   2.283
 7741SOL     OW24121   1.107   5.109   5.909
 7741SOL    HW124122   1.100   5.206   5.933
 7741SOL    HW224123   1.031   5.085   5.849
 7742SOL     OW24124   4.352   2.354   3.496
 7742SOL    HW124125   4.292   2.355   3.575
 7742SOL    HW224126   4.347   2.264   3.452
 7743SOL     OW24127   5.942   1.444   6.563
 7743SOL    HW124128   5.981   1.354   6.542
 7743SOL    HW224129   5.993   1.514   6.513
 7744SOL     OW24130   0.994   6.403   4.071
 7744SOL    HW124131   0.920   6.463   4.100
 7744SOL    HW224132   0.963   6.343   3.998
 7745SOL     OW24133   3.759   1.262   6.857
 7745SOL    HW124134   3.666   1.226   6.866
 7745SOL    HW224135   3.758   1.341   6.796
 7746SOL     OW24136   1.648   0.177   0.409
 7746SOL    HW124137   1.743   0.188   0.438
 7746SOL    HW224138   1.637   0.214   0.317
 7747SOL     OW24139   5.421   5.761   0.911
 7747SOL    HW124140   5.426   5.664   0.886
 7747SOL    HW224141   5.391   5.814   0.833
 7748SOL     OW24142   3.417   4.077   5.072
 7748SOL    HW124143   3.324   4.041   5.075
 7748SOL    HW224144   3.432   4.137   5.151
 7749SOL     OW24145   2.453   2.982   6.094
 7749SOL    HW124146   2.545   2.946   6.109
 7749SOL    HW224147   2.401   2.917   6.037
 7750SOL     OW24148   0.100   6.278   1.893
 7750SOL    HW124149   0.180   6.263   1.834
 7750SOL    HW224150   0.114   6.231   1.980
 7751SOL     OW24151   1.562   2.383   2.145
 7751SOL    HW124152   1.542   2.438   2.064
 7751SOL    HW224153   1.604   2.440   2.215
 7752SOL     OW24154   5.665   6.744   5.189
 7752SOL    HW124155   5.570   6.772   5.174
 7752SOL    HW224156   5.675   6.706   5.281
 7753SOL     OW24157   2.783   0.992   3.869
 7753SOL    HW124158   2.704   0.930   3.873
 7753SOL    HW224159   2.806   1.009   3.773
 7754SOL     OW24160   3.360   6.230   1.656
 7754SOL    HW124161   3.310   6.213   1.572
 7754SOL    HW224162   3.454   6.197   1.647
 7755SOL     OW24163   2.231   2.347   5.546
 7755SOL    HW124164   2.137   2.354   5.578
 7755SOL    HW224165   2.234   2.288   5.465
 7756SOL     OW24166   2.715   6.056   2.618
 7756SOL    HW124167   2.645   5.995   2.657
 7756SOL    HW224168   2.797   6.052   2.674
 7757SOL     OW24169   5.283   4.869   0.331
 7757SOL    HW124170   5.272   4.900   0.236
 7757SOL    HW224171   5.209   4.906   0.387
 7758SOL     OW24172   2.242   0.631   5.614
 7758SOL    HW124173   2.328   0.658   5.571
 7758SOL    HW224174   2.204   0.709   5.665
 7759SOL     OW24175   1.969   2.316   5.565
 7759SOL    HW124176   1.932   2.254   5.634
 7759SOL    HW224177   1.927   2.296   5.476
 7760SOL     OW24178   5.801   3.615   2.563
 7760SOL    HW124179   5.768   3.586   2.473
 7760SOL    HW224180   5.741   3.577   2.634
 7761SOL     OW24181   6.858   0.149   4.648
 7761SOL    HW124182   6.949   0.157   4.689
 7761SOL    HW224183   6.798   0.220   4.684
 7762SOL     OW24184   2.304   0.175   4.076
 7762SOL    HW124185   2.239   0.100   4.066
 7762SOL    HW224186   2.274   0.252   4.019
 7763SOL     OW24187   2.319   0.258   6.959
 7763SOL    HW124188   2.225   0.289   6.943
 7763SOL    HW224189   2.353   0.299   0.018
 7764SOL     OW24190   3.610   3.452   5.026
 7764SOL    HW124191   3.567   3.542   5.030
 7764SOL    HW224192   3.635   3.431   4.932
 7765SOL     OW24193   5.720   4.223   5.312
 7765SOL    HW124194   5.813   4.190   5.329
 7765SOL    HW224195   5.724   4.307   5.258
 7766SOL     OW24196   6.815   4.035   6.794
 7766SOL    HW124197   6.822   4.079   6.705
 7766SOL    HW224198   6.886   3.964   6.802
 7767SOL     OW24199   5.097   5.893   2.610
 7767SOL    HW124200   5.119   5.869   2.515
 7767SOL    HW224201   5.113   5.991   2.625
 7768SOL     OW24202   4.499   4.653   3.381
 7768SOL    HW124203   4.431   4.721   3.355
 7768SOL    HW224204   4.457   4.585   3.441
 7769SOL     OW24205   4.535   1.663   3.719
 7769SOL    HW124206   4.549   1.569   3.753
 7769SOL    HW224207   4.469   1.662   3.645
 7770SOL     OW24208   1.816   4.242   4.290
 7770SOL    HW124209   1.721   4.210   4.291
 7770SOL    HW224210   1.861   4.216   4.375
 7771SOL     OW24211   3.596   1.944   5.314
 7771SOL    HW124212   3.685   1.918   5.277
 7771SOL    HW224213   3.552   1.864   5.355
 7772SOL     OW24214   4.383   0.111   2.056
 7772SOL    HW124215   4.345   0.125   2.148
 7772SOL    HW224216   4.465   0.167   2.045
 7773SOL     OW24217   2.473   5.386   5.162
 7773SOL    HW124218   2.538   5.409   5.235
 7773SOL    HW224219   2.458   5.466   5.105
 7774SOL     OW24220   5.003   1.802   4.574
 7774SOL    HW124221   5.055   1.757   4.647
 7774SOL    HW224222   5.061   1.810   4.492
 7775SOL     OW24223   4.822   6.194   0.492
 7775SOL    HW124224   4.811   6.176   0.394
 7775SOL    HW224225   4.770   6.276   0.516
 7776SOL     OW24226   0.309   6.028   6.722
 7776SOL    HW124227   0.315   5.928   6.714
 7776SOL    HW224228   0.343   6.070   6.638
 7777SOL     OW24229   5.963   5.794   3.656
 7777SOL    HW124230   5.876   5.772   3.700
 7777SOL    HW224231   6.009   5.709   3.629
 7778SOL     OW24232   5.533   3.855   0.791
 7778SOL    HW124233   5.630   3.862   0.768
 7778SOL    HW224234   5.492   3.780   0.739
 7779SOL     OW24235   2.526   2.064   1.624
 7779SOL    HW124236   2.509   1.977   1.671
 7779SOL    HW224237   2.447   2.087   1.567
 7780SOL     OW24238   0.638   5.226   5.390
 7780SOL    HW124239   0.632   5.291   5.314
 7780SOL    HW224240   0.637   5.133   5.354
 7781SOL     OW24241   2.193   4.201   1.353
 7781SOL    HW124242   2.195   4.172   1.449
 7781SOL    HW224243   2.101   4.233   1.329
 7782SOL     OW24244   5.470   4.959   4.798
 7782SOL    HW124245   5.378   4.994   4.779
 7782SOL    HW224246   5.480   4.868   4.757
 7783SOL     OW24247   0.869   6.890   5.736
 7783SOL    HW124248   0.933   6.850   5.670
 7783SOL    HW224249   0.776   6.858   5.716
 7784SOL     OW24250   3.617   2.807   2.060
 7784SOL    HW124251   3.570   2.883   2.105
 7784SOL    HW224252   3.617   2.728   2.121
 7785SOL     OW24253   1.848   6.268   5.111
 7785SOL    HW124254   1.889   6.188   5.154
 7785SOL    HW224255   1.908   6.302   5.038
 7786SOL     OW24256   3.805   6.716   0.839
 7786SOL    HW124257   3.786   6.777   0.916
 7786SOL    HW224258   3.898   6.680   0.847
 7787SOL     OW24259   2.471   3.094   6.962
 7787SOL    HW124260   2.465   3.000   6.997
 7787SOL    HW224261   2.563   3.112   6.929
 7788SOL     OW24262   1.784   5.107   1.438
 7788SOL    HW124263   1.820   5.030   1.386
 7788SOL    HW224264   1.854   5.179   1.445
 7789SOL     OW24265   2.481   0.130   6.559
 7789SOL    HW124266   2.418   0.054   6.573
 7789SOL    HW224267   2.543   0.137   6.637
 7790SOL     OW24268   5.299   5.426   2.645
 7790SOL    HW124269   5.251   5.504   2.685
 7790SOL    HW224270   5.245   5.389   2.569
 7791SOL     OW24271   2.234   5.296   2.700
 7791SOL    HW124272   2.234   5.335   2.792
 7791SOL    HW224273   2.153   5.327   2.650
 7792SOL     OW24274   2.057   5.488   4.814
 7792SOL    HW124275   2.050   5.394   4.779
 7792SOL    HW224276   2.102   5.545   4.746
 7793SOL     OW24277   3.830   0.998   0.377
 7793SOL    HW124278   3.896   0.969   0.446
 7793SOL    HW224279   3.795   1.089   0.400
 7794SOL     OW24280   6.396   4.079   2.272
 7794SOL    HW124281   6.334   4.001   2.274
 7794SOL    HW224282   6.394   4.121   2.181
 7795SOL     OW24283   1.897   4.559   5.326
 7795SOL    HW124284   1.880   4.495   5.251
 7795SOL    HW224285   1.849   4.645   5.308
 7796SOL     OW24286   3.611   2.915   5.010
 7796SOL    HW124287   3.538   2.911   5.077
 7796SOL    HW224288   3.576   2.951   4.924
 7797SOL     OW24289   1.662   6.629   1.488
 7797SOL    HW124290   1.726   6.652   1.414
 7797SOL    HW224291   1.647   6.531   1.489
 7798SOL     OW24292   1.038   3.072   3.579
 7798SOL    HW124293   1.114   3.069   3.645
 7798SOL    HW224294   0.992   2.983   3.578
 7799SOL     OW24295   1.397   5.468   2.558
 7799SOL    HW124296   1.310   5.420   2.553
 7799SOL    HW224297   1.461   5.427   2.493
 7800SOL     OW24298   0.658   5.699   3.189
 7800SOL    HW124299   0.743   5.657   3.157
 7800SOL    HW224300   0.641   5.783   3.137
 7801SOL     OW24301   1.979   1.783   1.531
 7801SOL    HW124302   2.013   1.729   1.607
 7801SOL    HW224303   2.048   1.787   1.459
 7802SOL     OW24304   6.529   2.750   1.285
 7802SOL    HW124305   6.539   2.837   1.332
 7802SOL    HW224306   6.564   2.676   1.343
 7803SOL     OW24307   4.104   2.365   6.400
 7803SOL    HW124308   4.074   2.459   6.415
 7803SOL    HW224309   4.195   2.352   6.439
 7804SOL     OW24310   4.536   2.419   5.164
 7804SOL    HW124311   4.539   2.510   5.205
 7804SOL    HW224312   4.597   2.357   5.215
 7805SOL     OW24313   5.329   3.194   1.517
 7805SOL    HW124314   5.393   3.164   1.588
 7805SOL    HW224315   5.236   3.170   1.543
 7806SOL     OW24316   6.062   1.382   6.075
 7806SOL    HW124317   5.978   1.414   6.120
 7806SOL    HW224318   6.139   1.393   6.138
 7807SOL     OW24319   1.061   4.282   6.248
 7807SOL    HW124320   1.021   4.254   6.336
 7807SOL    HW224321   1.057   4.205   6.184
 7808SOL     OW24322   5.921   3.075   4.108
 7808SOL    HW124323   5.829   3.114   4.094
 7808SOL    HW224324   5.986   3.148   4.125
 7809SOL     OW24325   4.751   4.739   4.987
 7809SOL    HW124326   4.808   4.677   4.933
 7809SOL    HW224327   4.687   4.786   4.927
 7810SOL     OW24328   3.475   6.681   5.152
 7810SOL    HW124329   3.523   6.665   5.066
 7810SOL    HW224330   3.499   6.609   5.218
 7811SOL     OW24331   1.342   5.128   1.391
 7811SOL    HW124332   1.251   5.099   1.419
 7811SOL    HW224333   1.411   5.075   1.439
 7812SOL     OW24334   0.803   2.878   4.439
 7812SOL    HW124335   0.768   2.789   4.411
 7812SOL    HW224336   0.844   2.924   4.360
 7813SOL     OW24337   4.238   2.019   0.912
 7813SOL    HW124338   4.149   1.974   0.904
 7813SOL    HW224339   4.240   2.073   0.997
 7814SOL     OW24340   6.518   3.286   3.245
 7814SOL    HW124341   6.448   3.353   3.222
 7814SOL    HW224342   6.608   3.329   3.240
 7815SOL     OW24343   5.670   1.769   4.280
 7815SOL    HW124344   5.601   1.836   4.305
 7815SOL    HW224345   5.731   1.807   4.211
 7816SOL     OW24346   1.769   2.219   6.229
 7816SOL    HW124347   1.747   2.127   6.195
 7816SOL    HW224348   1.776   2.282   6.152
 7817SOL     OW24349   4.674   4.365   4.375
 7817SOL    HW124350   4.748   4.326   4.431
 7817SOL    HW224351   4.621   4.290   4.334
 7818SOL     OW24352   5.222   0.214   2.524
 7818SOL    HW124353   5.248   0.215   2.621
 7818SOL    HW224354   5.302   0.188   2.469
 7819SOL     OW24355   0.001   3.738   3.804
 7819SOL    HW124356   0.090   3.704   3.834
 7819SOL    HW224357   7.016   3.833   3.834
 7820SOL     OW24358   1.485   1.378   5.658
 7820SOL    HW124359   1.523   1.326   5.735
 7820SOL    HW224360   1.559   1.426   5.611
 7821SOL     OW24361   5.404   5.159   0.127
 7821SOL    HW124362   5.352   5.077   0.102
 7821SOL    HW224363   5.478   5.134   0.189
 7822SOL     OW24364   0.874   1.089   0.045
 7822SOL    HW124365   0.880   1.151   0.124
 7822SOL    HW224366   0.792   1.032   0.055
 7823SOL     OW24367   3.147   3.544   5.851
 7823SOL    HW124368   3.121   3.567   5.945
 7823SOL    HW224369   3.065   3.531   5.796
 7824SOL     OW24370   6.010   0.883   3.820
 7824SOL    HW124371   6.070   0.844   3.750
 7824SOL    HW224372   5.922   0.835   3.819
 7825SOL     OW24373   1.230   3.181   0.964
 7825SOL    HW124374   1.132   3.181   0.945
 7825SOL    HW224375   1.251   3.108   1.029
 7826SOL     OW24376   6.326   1.808   6.474
 7826SOL    HW124377   6.402   1.817   6.538
 7826SOL    HW224378   6.272   1.892   6.474
 7827SOL     OW24379   2.859   4.198   0.990
 7827SOL    HW124380   2.879   4.118   0.933
 7827SOL    HW224381   2.785   4.176   1.053
 7828SOL     OW24382   0.768   5.281   0.459
 7828SOL    HW124383   0.774   5.195   0.509
 7828SOL    HW224384   0.679   5.287   0.413
 7829SOL     OW24385   2.269   3.254   0.042
 7829SOL    HW124386   2.212   3.288   6.993
 7829SOL    HW224387   2.359   3.229   0.008
 7830SOL     OW24388   4.195   3.564   5.873
 7830SOL    HW124389   4.119   3.614   5.915
 7830SOL    HW224390   4.260   3.628   5.832
 7831SOL     OW24391   1.307   5.764   0.964
 7831SOL    HW124392   1.222   5.725   0.929
 7831SOL    HW224393   1.330   5.722   1.052
 7832SOL     OW24394   3.609   1.444   4.274
 7832SOL    HW124395   3.692   1.420   4.324
 7832SOL    HW224396   3.634   1.480   4.184
 7833SOL     OW24397   0.680   0.844   0.040
 7833SOL    HW124398   0.587   0.878   0.057
 7833SOL    HW224399   0.678   0.774   6.996
 7834SOL     OW24400   0.325   1.165   3.820
 7834SOL    HW124401   0.272   1.241   3.856
 7834SOL    HW224402   0.267   1.083   3.814
 7835SOL     OW24403   2.349   2.253   4.765
 7835SOL    HW124404   2.380   2.295   4.679
 7835SOL    HW224405   2.353   2.321   4.838
 7836SOL     OW24406   3.444   2.894   5.238
 7836SOL    HW124407   3.372   2.829   5.215
 7836SOL    HW224408   3.506   2.853   5.306
 7837SOL     OW24409   6.891   5.619   1.394
 7837SOL    HW124410   6.833   5.694   1.361
 7837SOL    HW224411   6.898   5.550   1.323
 7838SOL     OW24412   4.172   6.131   0.494
 7838SOL    HW124413   4.116   6.184   0.430
 7838SOL    HW224414   4.138   6.145   0.587
 7839SOL     OW24415   6.053   4.693   4.967
 7839SOL    HW124416   6.004   4.654   5.045
 7839SOL    HW224417   6.150   4.674   4.975
 7840SOL     OW24418   5.044   2.847   4.570
 7840SOL    HW124419   5.077   2.904   4.645
 7840SOL    HW224420   4.946   2.831   4.580
 7841SOL     OW24421   4.655   1.477   6.910
 7841SOL    HW124422   4.639   1.381   6.890
 7841SOL    HW224423   4.753   1.494   6.920
 7842SOL     OW24424   1.906   1.492   2.599
 7842SOL    HW124425   1.908   1.492   2.698
 7842SOL    HW224426   1.912   1.585   2.564
 7843SOL     OW24427   4.722   4.674   1.951
 7843SOL    HW124428   4.653   4.623   1.900
 7843SOL    HW224429   4.776   4.610   2.006
 7844SOL     OW24430   4.572   6.871   3.343
 7844SOL    HW124431   4.560   6.967   3.368
 7844SOL    HW224432   4.488   6.821   3.364
 7845SOL     OW24433   5.864   1.598   4.342
 7845SOL    HW124434   5.916   1.640   4.267
 7845SOL    HW224435   5.770   1.631   4.339
 7846SOL     OW24436   1.098   1.465   2.024
 7846SOL    HW124437   1.111   1.369   2.049
 7846SOL    HW224438   1.040   1.470   1.942
 7847SOL     OW24439   6.312   1.835   2.422
 7847SOL    HW124440   6.251   1.798   2.492
 7847SOL    HW224441   6.407   1.817   2.447
 7848SOL     OW24442   2.856   3.092   0.882
 7848SOL    HW124443   2.828   3.060   0.973
 7848SOL    HW224444   2.787   3.156   0.847
 7849SOL     OW24445   5.024   3.778   3.361
 7849SOL    HW124446   5.121   3.774   3.336
 7849SOL    HW224447   4.994   3.687   3.390
 7850SOL     OW24448   1.108   1.634   3.783
 7850SOL    HW124449   1.074   1.603   3.872
 7850SOL    HW224450   1.127   1.554   3.726
 7851SOL     OW24451   6.419   0.533   1.085
 7851SOL    HW124452   6.419   0.533   1.185
 7851SOL    HW224453   6.393   0.443   1.052
 7852SOL     OW24454   2.665   0.524   5.590
 7852SOL    HW124455   2.638   0.547   5.684
 7852SOL    HW224456   2.689   0.427   5.585
 7853SOL     OW24457   4.166   1.378   1.896
 7853SOL    HW124458   4.104   1.300   1.891
 7853SOL    HW224459   4.122   1.453   1.946
 7854SOL     OW24460   2.897   3.240   0.292
 7854SOL    HW124461   2.830   3.171   0.265
 7854SOL    HW224462   2.988   3.198   0.297
 7855SOL     OW24463   3.045   5.772   5.824
 7855SOL    HW124464   3.079   5.737   5.737
 7855SOL    HW224465   2.994   5.700   5.872
 7856SOL     OW24466   5.683   4.946   5.026
 7856SOL    HW124467   5.639   4.925   4.939
 7856SOL    HW224468   5.781   4.932   5.018
 7857SOL     OW24469   6.149   2.728   5.419
 7857SOL    HW124470   6.101   2.760   5.500
 7857SOL    HW224471   6.228   2.786   5.402
 7858SOL     OW24472   5.113   5.047   3.578
 7858SOL    HW124473   5.049   5.093   3.639
 7858SOL    HW224474   5.112   5.092   3.489
 7859SOL     OW24475   6.061   3.326   5.715
 7859SOL    HW124476   6.018   3.264   5.650
 7859SOL    HW224477   5.992   3.361   5.778
 7860SOL     OW24478   4.706   7.022   2.659
 7860SOL    HW124479   4.703   0.057   2.580
 7860SOL    HW224480   4.671   6.933   2.632
 7861SOL     OW24481   4.069   5.223   1.728
 7861SOL    HW124482   4.063   5.303   1.669
 7861SOL    HW224483   4.145   5.235   1.792
 7862SOL     OW24484   3.082   4.324   1.701
 7862SOL    HW124485   3.031   4.289   1.622
 7862SOL    HW224486   3.019   4.369   1.764
 7863SOL     OW24487   6.769   6.011   3.739
 7863SOL    HW124488   6.750   5.934   3.800
 7863SOL    HW224489   6.730   6.095   3.777
 7864SOL     OW24490   0.274   6.774   5.617
 7864SOL    HW124491   0.290   6.826   5.533
 7864SOL    HW224492   0.284   6.677   5.599
 7865SOL     OW24493   5.481   0.071   4.512
 7865SOL    HW124494   5.384   0.093   4.516
 7865SOL    HW224495   5.513   0.076   4.418
 7866SOL     OW24496   2.119   2.531   6.915
 7866SOL    HW124497   2.209   2.570   6.931
 7866SOL    HW224498   2.092   2.476   6.993
 7867SOL     OW24499   5.523   6.797   2.584
 7867SOL    HW124500   5.545   6.882   2.632
 7867SOL    HW224501   5.462   6.742   2.641
 7868SOL     OW24502   5.875   6.499   2.159
 7868SOL    HW124503   5.905   6.406   2.138
 7868SOL    HW224504   5.798   6.523   2.100
 7869SOL     OW24505   5.436   3.124   6.655
 7869SOL    HW124506   5.430   3.092   6.560
 7869SOL    HW224507   5.444   3.224   6.656
 7870SOL     OW24508   4.248   5.069   4.352
 7870SOL    HW124509   4.262   5.120   4.436
 7870SOL    HW224510   4.266   5.128   4.273
 7871SOL     OW24511   5.442   3.381   2.545
 7871SOL    HW124512   5.499   3.314   2.498
 7871SOL    HW224513   5.498   3.460   2.570
 7872SOL     OW24514   2.369   4.342   2.873
 7872SOL    HW124515   2.379   4.397   2.790
 7872SOL    HW224516   2.424   4.382   2.946
 7873SOL     OW24517   5.751   0.825   5.249
 7873SOL    HW124518   5.819   0.842   5.177
 7873SOL    HW224519   5.750   0.901   5.313
 7874SOL     OW24520   5.229   1.591   0.784
 7874SOL    HW124521   5.183   1.617   0.698
 7874SOL    HW224522   5.168   1.609   0.861
 7875SOL     OW24523   4.729   2.481   6.487
 7875SOL    HW124524   4.707   2.390   6.452
 7875SOL    HW224525   4.760   2.538   6.411
 7876SOL     OW24526   0.078   0.039   5.440
 7876SOL    HW124527   0.029   6.984   5.408
 7876SOL    HW224528   0.030   0.077   5.519
 7877SOL     OW24529   6.757   2.891   2.990
 7877SOL    HW124530   6.719   2.815   2.936
 7877SOL    HW224531   6.854   2.903   2.966
 7878SOL     OW24532   5.237   5.060   4.102
 7878SOL    HW124533   5.230   5.153   4.065
 7878SOL    HW224534   5.156   5.008   4.077
 7879SOL     OW24535   4.342   5.737   3.318
 7879SOL    HW124536   4.394   5.781   3.245
 7879SOL    HW224537   4.384   5.758   3.407
 7880SOL     OW24538   2.318   5.435   1.315
 7880SOL    HW124539   2.324   5.337   1.295
 7880SOL    HW224540   2.409   5.469   1.341
 7881SOL     OW24541   5.340   3.982   4.896
 7881SOL    HW124542   5.358   3.952   4.802
 7881SOL    HW224543   5.371   4.077   4.907
 7882SOL     OW24544   1.317   3.646   2.442
 7882SOL    HW124545   1.278   3.593   2.517
 7882SOL    HW224546   1.342   3.737   2.475
 7883SOL     OW24547   1.413   6.713   1.058
 7883SOL    HW124548   1.371   6.773   0.990
 7883SOL    HW224549   1.387   6.743   1.150
 7884SOL     OW24550   1.990   3.701   4.041
 7884SOL    HW124551   2.021   3.650   4.121
 7884SOL    HW224552   2.023   3.657   3.958
 7885SOL     OW24553   5.950   6.325   1.508
 7885SOL    HW124554   5.984   6.385   1.580
 7885SOL    HW224555   5.878   6.266   1.545
 7886SOL     OW24556   3.892   5.409   1.356
 7886SOL    HW124557   3.869   5.426   1.260
 7886SOL    HW224558   3.813   5.373   1.404
 7887SOL     OW24559   3.237   2.695   5.271
 7887SOL    HW124560   3.225   2.689   5.370
 7887SOL    HW224561   3.255   2.603   5.234
 7888SOL     OW24562   6.937   0.573   4.968
 7888SOL    HW124563   0.006   0.561   4.997
 7888SOL    HW224564   6.885   0.615   5.042
 7889SOL     OW24565   0.744   4.985   7.024
 7889SOL    HW124566   0.726   4.936   6.938
 7889SOL    HW224567   0.805   5.062   7.006
 7890SOL     OW24568   0.275   3.089   3.398
 7890SOL    HW124569   0.327   3.015   3.440
 7890SOL    HW224570   0.222   3.054   3.321
 7891SOL     OW24571   2.074   4.385   4.538
 7891SOL    HW124572   2.084   4.406   4.635
 7891SOL    HW224573   2.050   4.469   4.488
 7892SOL     OW24574   1.938   1.742   4.156
 7892SOL    HW124575   2.000   1.800   4.208
 7892SOL    HW224576   1.990   1.689   4.089
 7893SOL     OW24577   6.349   6.762   1.863
 7893SOL    HW124578   6.419   6.692   1.861
 7893SOL    HW224579   6.268   6.728   1.912
 7894SOL     OW24580   3.185   0.692   0.944
 7894SOL    HW124581   3.166   0.603   0.902
 7894SOL    HW224582   3.188   0.762   0.873
 7895SOL     OW24583   4.951   0.716   4.678
 7895SOL    HW124584   4.993   0.703   4.768
 7895SOL    HW224585   4.863   0.669   4.675
 7896SOL     OW24586   4.414   2.708   1.026
 7896SOL    HW124587   4.513   2.705   1.038
 7896SOL    HW224588   4.383   2.623   0.983
 7897SOL     OW24589   3.282   2.189   1.506
 7897SOL    HW124590   3.248   2.209   1.598
 7897SOL    HW224591   3.377   2.156   1.512
 7898SOL     OW24592   3.910   7.000   3.906
 7898SOL    HW124593   3.828   7.008   3.849
 7898SOL    HW224594   3.991   7.016   3.851
 7899SOL     OW24595   5.803   0.063   1.203
 7899SOL    HW124596   5.881   0.100   1.153
 7899SOL    HW224597   5.745   0.012   1.139
 7900SOL     OW24598   1.157   5.614   1.468
 7900SOL    HW124599   1.137   5.519   1.494
 7900SOL    HW224600   1.078   5.671   1.487
 7901SOL     OW24601   3.944   0.752   6.724
 7901SOL    HW124602   4.024   0.748   6.664
 7901SOL    HW224603   3.926   0.847   6.749
 7902SOL     OW24604   6.350   6.304   1.886
 7902SOL    HW124605   6.295   6.227   1.919
 7902SOL    HW224606   6.413   6.273   1.815
 7903SOL     OW24607   4.788   1.732   2.937
 7903SOL    HW124608   4.772   1.747   2.840
 7903SOL    HW224609   4.700   1.729   2.985
 7904SOL     OW24610   6.022   6.487   2.452
 7904SOL    HW124611   6.030   6.564   2.390
 7904SOL    HW224612   5.926   6.470   2.472
 7905SOL     OW24613   5.923   2.459   0.822
 7905SOL    HW124614   5.875   2.414   0.746
 7905SOL    HW224615   5.957   2.389   0.885
 7906SOL     OW24616   0.502   4.917   0.675
 7906SOL    HW124617   0.530   4.824   0.649
 7906SOL    HW224618   0.580   4.979   0.667
 7907SOL     OW24619   5.767   1.976   3.889
 7907SOL    HW124620   5.753   2.074   3.881
 7907SOL    HW224621   5.841   1.947   3.829
 7908SOL     OW24622   1.905   0.867   5.653
 7908SOL    HW124623   1.880   0.892   5.746
 7908SOL    HW224624   1.825   0.880   5.593
 7909SOL     OW24625   5.048   4.447   4.037
 7909SOL    HW124626   5.014   4.429   4.130
 7909SOL    HW224627   5.061   4.546   4.026
 7910SOL     OW24628   2.644   3.539   0.285
 7910SOL    HW124629   2.742   3.534   0.267
 7910SOL    HW224630   2.594   3.496   0.210
 7911SOL     OW24631   0.753   4.622   0.108
 7911SOL    HW124632   0.764   4.692   0.179
 7911SOL    HW224633   0.834   4.620   0.050
 7912SOL     OW24634   6.074   4.336   1.341
 7912SOL    HW124635   5.983   4.294   1.341
 7912SOL    HW224636   6.066   4.432   1.365
 7913SOL     OW24637   1.248   4.441   1.599
 7913SOL    HW124638   1.220   4.383   1.676
 7913SOL    HW224639   1.247   4.386   1.515
 7914SOL     OW24640   0.000   4.740   0.461
 7914SOL    HW124641   0.044   4.703   0.543
 7914SOL    HW224642   6.954   4.803   0.488
 7915SOL     OW24643   4.870   2.302   1.667
 7915SOL    HW124644   4.862   2.324   1.764
 7915SOL    HW224645   4.788   2.332   1.619
 7916SOL     OW24646   0.035   6.720   6.034
 7916SOL    HW124647   0.047   6.645   5.969
 7916SOL    HW224648   6.993   6.694   6.103
 7917SOL     OW24649   3.402   3.168   5.231
 7917SOL    HW124650   3.406   3.068   5.230
 7917SOL    HW224651   3.487   3.204   5.269
 7918SOL     OW24652   6.721   1.271   4.545
 7918SOL    HW124653   6.675   1.360   4.540
 7918SOL    HW224654   6.654   1.198   4.539
 7919SOL     OW24655   1.286   4.599   3.287
 7919SOL    HW124656   1.198   4.565   3.253
 7919SOL    HW224657   1.351   4.523   3.291
 7920SOL     OW24658   6.800   0.260   0.168
 7920SOL    HW124659   6.737   0.213   0.230
 7920SOL    HW224660   6.841   0.194   0.106
 7921SOL     OW24661   6.009   6.166   1.812
 7921SOL    HW124662   5.922   6.206   1.844
 7921SOL    HW224663   6.074   6.240   1.792
 7922SOL     OW24664   0.370   6.121   0.790
 7922SOL    HW124665   0.383   6.218   0.769
 7922SOL    HW224666   0.320   6.112   0.876
 7923SOL     OW24667   4.123   0.666   6.552
 7923SOL    HW124668   4.114   0.584   6.607
 7923SOL    HW224669   4.220   0.684   6.535
 7924SOL     OW24670   5.217   0.193   2.032
 7924SOL    HW124671   5.283   0.258   2.069
 7924SOL    HW224672   5.139   0.243   1.994
 7925SOL     OW24673   0.801   0.305   0.386
 7925SOL    HW124674   0.712   0.304   0.340
 7925SOL    HW224675   0.874   0.293   0.318
 7926SOL     OW24676   4.080   1.943   6.619
 7926SOL    HW124677   4.136   1.981   6.692
 7926SOL    HW224678   3.985   1.938   6.649
 7927SOL     OW24679   4.341   5.928   2.954
 7927SOL    HW124680   4.278   5.870   2.902
 7927SOL    HW224681   4.323   6.024   2.934
 7928SOL     OW24682   1.469   1.770   3.889
 7928SOL    HW124683   1.568   1.758   3.882
 7928SOL    HW224684   1.426   1.682   3.912
 7929SOL     OW24685   4.097   4.008   5.407
 7929SOL    HW124686   4.158   3.929   5.403
 7929SOL    HW224687   4.050   4.018   5.319
 7930SOL     OW24688   4.256   5.053   5.180
 7930SOL    HW124689   4.244   4.965   5.135
 7930SOL    HW224690   4.338   5.099   5.145
 7931SOL     OW24691   2.979   3.048   6.745
 7931SOL    HW124692   2.982   3.148   6.750
 7931SOL    HW224693   2.939   3.020   6.658
 7932SOL     OW24694   1.192   6.463   6.522
 7932SOL    HW124695   1.192   6.507   6.612
 7932SOL    HW224696   1.286   6.448   6.492
 7933SOL     OW24697   6.843   6.889   6.553
 7933SOL    HW124698   6.802   6.919   6.467
 7933SOL    HW224699   6.898   6.963   6.592
 7934SOL     OW24700   1.450   4.962   6.226
 7934SOL    HW124701   1.386   5.023   6.273
 7934SOL    HW224702   1.535   4.957   6.278
 7935SOL     OW24703   5.732   6.163   0.966
 7935SOL    HW124704   5.692   6.124   0.883
 7935SOL    HW224705   5.663   6.164   1.039
 7936SOL     OW24706   3.265   5.731   1.800
 7936SOL    HW124707   3.275   5.709   1.703
 7936SOL    HW224708   3.195   5.803   1.811
 7937SOL     OW24709   6.714   5.776   3.932
 7937SOL    HW124710   6.798   5.755   3.981
 7937SOL    HW224711   6.650   5.821   3.994
 7938SOL     OW24712   6.236   6.009   3.940
 7938SOL    HW124713   6.311   5.949   3.965
 7938SOL    HW224714   6.152   5.955   3.927
 7939SOL     OW24715   1.721   2.320   4.583
 7939SOL    HW124716   1.751   2.408   4.546
 7939SOL    HW224717   1.800   2.260   4.597
 7940SOL     OW24718   1.452   3.960   2.055
 7940SOL    HW124719   1.441   4.006   2.144
 7940SOL    HW224720   1.536   3.991   2.011
 7941SOL     OW24721   6.083   6.779   1.228
 7941SOL    HW124722   6.175   6.743   1.242
 7941SOL    HW224723   6.026   6.754   1.306
 7942SOL     OW24724   6.793   5.001   2.400
 7942SOL    HW124725   6.722   4.932   2.387
 7942SOL    HW224726   6.861   4.993   2.327
 7943SOL     OW24727   0.521   3.942   6.477
 7943SOL    HW124728   0.459   4.021   6.483
 7943SOL    HW224729   0.516   3.903   6.385
 7944SOL     OW24730   0.913   2.545   0.663
 7944SOL    HW124731   0.861   2.487   0.601
 7944SOL    HW224732   0.891   2.641   0.645
 7945SOL     OW24733   6.506   5.369   1.172
 7945SOL    HW124734   6.448   5.428   1.228
 7945SOL    HW224735   6.461   5.351   1.085
 7946SOL     OW24736   3.871   0.242   5.795
 7946SOL    HW124737   3.959   0.204   5.765
 7946SOL    HW224738   3.834   0.185   5.868
 7947SOL     OW24739   3.391   1.320   5.681
 7947SOL    HW124740   3.491   1.311   5.680
 7947SOL    HW224741   3.349   1.232   5.659
 7948SOL     OW24742   1.114   6.599   1.079
 7948SOL    HW124743   1.097   6.502   1.060
 7948SOL    HW224744   1.092   6.654   0.999
 7949SOL     OW24745   4.937   4.291   5.475
 7949SOL    HW124746   4.976   4.223   5.413
 7949SOL    HW224747   4.917   4.248   5.563
 7950SOL     OW24748   5.016   5.340   3.830
 7950SOL    HW124749   4.964   5.261   3.800
 7950SOL    HW224750   5.108   5.312   3.857
 7951SOL     OW24751   2.048   5.028   2.522
 7951SOL    HW124752   1.955   5.067   2.525
 7951SOL    HW224753   2.062   4.969   2.601
 7952SOL     OW24754   0.039   3.518   6.643
 7952SOL    HW124755   0.001   3.444   6.589
 7952SOL    HW224756   6.992   3.577   6.677
 7953SOL     OW24757   3.477   2.083   3.305
 7953SOL    HW124758   3.416   2.159   3.328
 7953SOL    HW224759   3.557   2.117   3.257
 7954SOL     OW24760   3.528   4.628   5.921
 7954SOL    HW124761   3.619   4.643   5.958
 7954SOL    HW224762   3.465   4.605   5.995
 7955SOL     OW24763   3.115   1.056   6.674
 7955SOL    HW124764   3.046   1.078   6.743
 7955SOL    HW224765   3.201   1.032   6.719
 7956SOL     OW24766   4.542   6.348   2.127
 7956SOL    HW124767   4.580   6.255   2.127
 7956SOL    HW224768   4.449   6.346   2.162
 7957SOL     OW24769   0.954   0.489   1.507
 7957SOL    HW124770   0.979   0.417   1.572
 7957SOL    HW224771   0.948   0.450   1.415
 7958SOL     OW24772   3.926   4.873   5.119
 7958SOL    HW124773   3.893   4.909   5.032
 7958SOL    HW224774   4.017   4.834   5.106
 7959SOL     OW24775   4.973   5.448   0.935
 7959SOL    HW124776   5.071   5.429   0.935
 7959SOL    HW224777   4.935   5.425   0.845
 7960SOL     OW24778   2.520   1.555   5.878
 7960SOL    HW124779   2.598   1.494   5.867
 7960SOL    HW224780   2.517   1.619   5.801
 7961SOL     OW24781   0.054   1.304   0.694
 7961SOL    HW124782   7.020   1.266   0.764
 7961SOL    HW224783   0.135   1.342   0.737
 7962SOL     OW24784   1.651   0.922   5.549
 7962SOL    HW124785   1.635   0.958   5.641
 7962SOL    HW224786   1.596   0.840   5.535
 7963SOL     OW24787   6.562   6.842   4.715
 7963SOL    HW124788   6.631   6.779   4.681
 7963SOL    HW224789   6.525   6.895   4.640
 7964SOL     OW24790   0.092   4.076   2.730
 7964SOL    HW124791   0.012   4.017   2.741
 7964SOL    HW224792   0.083   4.130   2.647
 7965SOL     OW24793   4.140   2.378   6.110
 7965SOL    HW124794   4.137   2.399   6.208
 7965SOL    HW224795   4.060   2.419   6.065
 7966SOL     OW24796   2.310   2.765   5.805
 7966SOL    HW124797   2.248   2.818   5.748
 7966SOL    HW224798   2.329   2.677   5.761
 7967SOL     OW24799   3.753   6.455   2.575
 7967SOL    HW124800   3.833   6.431   2.519
 7967SOL    HW224801   3.728   6.550   2.559
 7968SOL     OW24802   1.143   2.426   3.762
 7968SOL    HW124803   1.229   2.399   3.806
 7968SOL    HW224804   1.131   2.374   3.678
 7969SOL     OW24805   4.804   5.867   0.664
 7969SOL    HW124806   4.815   5.859   0.763
 7969SOL    HW224807   4.762   5.955   0.642
 7970SOL     OW24808   6.713   2.978   2.269
 7970SOL    HW124809   6.652   2.951   2.344
 7970SOL    HW224810   6.808   2.968   2.298
 7971SOL     OW24811   2.992   2.261   1.026
 7971SOL    HW124812   3.008   2.214   1.112
 7971SOL    HW224813   2.979   2.194   0.953
 7972SOL     OW24814   2.094   3.145   0.247
 7972SOL    HW124815   2.160   3.137   0.172
 7972SOL    HW224816   2.016   3.201   0.217
 7973SOL     OW24817   4.247   4.943   4.751
 7973SOL    HW124818   4.326   4.884   4.738
 7973SOL    HW224819   4.168   4.905   4.702
 7974SOL     OW24820   6.000   0.829   5.115
 7974SOL    HW124821   6.077   0.840   5.053
 7974SOL    HW224822   6.034   0.827   5.210
 7975SOL     OW24823   5.967   1.407   1.876
 7975SOL    HW124824   5.924   1.474   1.816
 7975SOL    HW224825   6.000   1.330   1.822
 7976SOL     OW24826   0.499   0.454   6.180
 7976SOL    HW124827   0.496   0.356   6.202
 7976SOL    HW224828   0.581   0.494   6.222
 7977SOL     OW24829   4.927   5.748   3.062
 7977SOL    HW124830   4.969   5.661   3.035
 7977SOL    HW224831   4.876   5.785   2.984
 7978SOL     OW24832   6.134   2.987   6.101
 7978SOL    HW124833   6.103   3.009   6.194
 7978SOL    HW224834   6.063   2.934   6.054
 7979SOL     OW24835   4.105   6.187   5.717
 7979SOL    HW124836   4.099   6.218   5.622
 7979SOL    HW224837   4.028   6.127   5.738
 7980SOL     OW24838   3.159   5.789   0.087
 7980SOL    HW124839   3.244   5.739   0.073
 7980SOL    HW224840   3.097   5.772   0.010
 7981SOL     OW24841   0.931   5.034   2.151
 7981SOL    HW124842   0.888   5.124   2.148
 7981SOL    HW224843   0.907   4.989   2.237
 7982SOL     OW24844   2.144   1.331   0.169
 7982SOL    HW124845   2.198   1.393   0.226
 7982SOL    HW224846   2.110   1.255   0.225
 7983SOL     OW24847   6.785   2.033   1.599
 7983SOL    HW124848   6.689   2.014   1.579
 7983SOL    HW224849   6.826   2.081   1.521
 7984SOL     OW24850   1.059   1.303   0.968
 7984SOL    HW124851   1.051   1.378   1.034
 7984SOL    HW224852   1.028   1.218   1.011
 7985SOL     OW24853   3.373   0.763   4.545
 7985SOL    HW124854   3.353   0.777   4.642
 7985SOL    HW224855   3.413   0.847   4.507
 7986SOL     OW24856   2.989   1.077   6.245
 7986SOL    HW124857   2.938   1.129   6.313
 7986SOL    HW224858   2.977   0.979   6.260
 7987SOL     OW24859   1.756   2.394   6.967
 7987SOL    HW124860   1.756   2.470   0.006
 7987SOL    HW224861   1.774   2.429   6.876
 7988SOL     OW24862   0.377   2.240   3.436
 7988SOL    HW124863   0.330   2.170   3.382
 7988SOL    HW224864   0.310   2.289   3.492
 7989SOL     OW24865   2.973   3.470   6.885
 7989SOL    HW124866   2.984   3.550   6.826
 7989SOL    HW224867   3.052   3.410   6.875
 7990SOL     OW24868   0.778   4.729   4.274
 7990SOL    HW124869   0.717   4.710   4.197
 7990SOL    HW224870   0.775   4.652   4.338
 7991SOL     OW24871   5.614   0.067   3.314
 7991SOL    HW124872   5.545   0.139   3.307
 7991SOL    HW224873   5.673   0.069   3.234
 7992SOL     OW24874   0.751   6.902   0.887
 7992SOL    HW124875   0.690   6.964   0.937
 7992SOL    HW224876   0.795   6.951   0.812
 7993SOL     OW24877   0.424   6.953   0.785
 7993SOL    HW124878   0.466   7.010   0.856
 7993SOL    HW224879   0.343   7.000   0.749
 7994SOL     OW24880   4.090   6.734   3.474
 7994SOL    HW124881   4.167   6.725   3.538
 7994SOL    HW224882   4.037   6.815   3.496
 7995SOL     OW24883   5.623   6.162   3.558
 7995SOL    HW124884   5.626   6.164   3.458
 7995SOL    HW224885   5.528   6.173   3.588
 7996SOL     OW24886   2.570   0.175   4.933
 7996SOL    HW124887   2.490   0.188   4.874
 7996SOL    HW224888   2.553   0.100   4.997
 7997SOL     OW24889   0.201   1.316   1.369
 7997SOL    HW124890   0.200   1.356   1.460
 7997SOL    HW224891   0.150   1.230   1.370
 7998SOL     OW24892   2.886   0.288   0.178
 7998SOL    HW124893   2.819   0.354   0.213
 7998SOL    HW224894   2.881   0.204   0.232
 7999SOL     OW24895   0.864   0.681   6.045
 7999SOL    HW124896   0.926   0.626   6.101
 7999SOL    HW224897   0.891   0.778   6.052
 8000SOL     OW24898   4.891   0.114   7.019
 8000SOL    HW124899   4.985   0.120   0.024
 8000SOL    HW224900   4.881   0.039   6.954
 8001SOL     OW24901   4.626   6.294   1.561
 8001SOL    HW124902   4.620   6.296   1.661
 8001SOL    HW224903   4.543   6.252   1.524
 8002SOL     OW24904   2.010   1.228   6.237
 8002SOL    HW124905   1.947   1.301   6.210
 8002SOL    HW224906   1.977   1.185   6.321
 8003SOL     OW24907   2.853   5.382   2.000
 8003SOL    HW124908   2.932   5.389   1.939
 8003SOL    HW224909   2.858   5.295   2.050
 8004SOL     OW24910   2.316   2.797   2.571
 8004SOL    HW124911   2.343   2.883   2.528
 8004SOL    HW224912   2.230   2.765   2.532
 8005SOL     OW24913   3.077   1.255   2.785
 8005SOL    HW124914   3.068   1.250   2.685
 8005SOL    HW224915   2.998   1.212   2.827
 8006SOL     OW24916   1.843   6.511   5.734
 8006SOL    HW124917   1.922   6.467   5.777
 8006SOL    HW224918   1.759   6.471   5.771
 8007SOL     OW24919   6.486   0.962   5.542
 8007SOL    HW124920   6.530   1.043   5.505
 8007SOL    HW224921   6.389   0.962   5.518
 8008SOL     OW24922   4.552   5.874   6.475
 8008SOL    HW124923   4.607   5.806   6.427
 8008SOL    HW224924   4.466   5.833   6.504
 8009SOL     OW24925   5.944   0.581   1.625
 8009SOL    HW124926   5.994   0.608   1.543
 8009SOL    HW224927   5.884   0.503   1.604
 8010SOL     OW24928   1.849   1.403   5.643
 8010SOL    HW124929   1.774   1.437   5.586
 8010SOL    HW224930   1.932   1.455   5.623
 8011SOL     OW24931   3.098   2.767   0.779
 8011SOL    HW124932   3.005   2.788   0.748
 8011SOL    HW224933   3.104   2.669   0.798
 8012SOL     OW24934   1.920   4.283   0.432
 8012SOL    HW124935   1.855   4.286   0.356
 8012SOL    HW224936   1.898   4.356   0.497
 8013SOL     OW24937   1.555   5.138   3.611
 8013SOL    HW124938   1.639   5.114   3.661
 8013SOL    HW224939   1.568   5.121   3.514
 8014SOL     OW24940   1.103   6.219   4.955
 8014SOL    HW124941   1.017   6.217   5.005
 8014SOL    HW224942   1.172   6.167   5.006
 8015SOL     OW24943   3.364   0.504   6.237
 8015SOL    HW124944   3.462   0.521   6.247
 8015SOL    HW224945   3.320   0.586   6.200
 8016SOL     OW24946   4.930   0.405   5.666
 8016SOL    HW124947   5.030   0.406   5.673
 8016SOL    HW224948   4.903   0.443   5.577
 8017SOL     OW24949   5.886   0.222   0.599
 8017SOL    HW124950   5.963   0.158   0.602
 8017SOL    HW224951   5.906   0.295   0.534
 8018SOL     OW24952   3.264   1.969   6.697
 8018SOL    HW124953   3.354   2.011   6.708
 8018SOL    HW224954   3.270   1.896   6.629
 8019SOL     OW24955   2.461   4.586   0.287
 8019SOL    HW124956   2.446   4.673   0.334
 8019SOL    HW224957   2.397   4.518   0.321
 8020SOL     OW24958   6.076   0.409   0.398
 8020SOL    HW124959   6.057   0.326   0.346
 8020SOL    HW224960   6.162   0.450   0.365
 8021SOL     OW24961   1.560   2.804   0.643
 8021SOL    HW124962   1.655   2.827   0.666
 8021SOL    HW224963   1.501   2.831   0.719
 8022SOL     OW24964   6.027   0.035   2.781
 8022SOL    HW124965   6.103   0.096   2.760
 8022SOL    HW224966   5.941   0.084   2.769
 8023SOL     OW24967   5.325   5.241   2.857
 8023SOL    HW124968   5.401   5.259   2.920
 8023SOL    HW224969   5.325   5.311   2.785
 8024SOL     OW24970   1.224   4.425   6.051
 8024SOL    HW124971   1.255   4.503   6.104
 8024SOL    HW224972   1.199   4.350   6.113
 8025SOL     OW24973   2.035   5.779   6.941
 8025SOL    HW124974   2.104   5.751   6.875
 8025SOL    HW224975   1.960   5.824   6.893
 8026SOL     OW24976   6.762   4.193   0.101
 8026SOL    HW124977   6.805   4.161   0.185
 8026SOL    HW224978   6.804   4.148   0.022
 8027SOL     OW24979   4.706   0.396   4.929
 8027SOL    HW124980   4.801   0.396   4.962
 8027SOL    HW224981   4.656   0.471   4.973
 8028SOL     OW24982   4.084   5.791   5.541
 8028SOL    HW124983   4.106   5.803   5.444
 8028SOL    HW224984   4.059   5.879   5.581
 8029SOL     OW24985   4.726   2.715   1.040
 8029SOL    HW124986   4.793   2.649   1.075
 8029SOL    HW224987   4.749   2.737   0.945
 8030SOL     OW24988   4.236   4.493   0.356
 8030SOL    HW124989   4.236   4.399   0.390
 8030SOL    HW224990   4.170   4.548   0.408
 8031SOL     OW24991   6.664   6.385   2.523
 8031SOL    HW124992   6.723   6.465   2.513
 8031SOL    HW224993   6.579   6.411   2.569
 8032SOL     OW24994   6.260   4.142   1.424
 8032SOL    HW124995   6.216   4.230   1.405
 8032SOL    HW224996   6.355   4.145   1.393
 8033SOL     OW24997   5.269   1.728   6.094
 8033SOL    HW124998   5.208   1.806   6.109
 8033SOL    HW224999   5.302   1.729   6.000
 8034SOL     OW25000   4.480   0.511   4.498
 8034SOL    HW125001   4.416   0.536   4.571
 8034SOL    HW225002   4.566   0.480   4.539
 8035SOL     OW25003   4.880   1.360   4.363
 8035SOL    HW125004   4.948   1.360   4.436
 8035SOL    HW225005   4.855   1.265   4.341
 8036SOL     OW25006   6.738   3.751   3.886
 8036SOL    HW125007   6.729   3.787   3.793
 8036SOL    HW225008   6.828   3.709   3.896
 8037SOL     OW25009   1.590   3.424   0.211
 8037SOL    HW125010   1.642   3.505   0.238
 8037SOL    HW225011   1.596   3.355   0.284
 8038SOL     OW25012   4.667   6.903   2.301
 8038SOL    HW125013   4.602   6.860   2.238
 8038SOL    HW225014   4.729   6.963   2.250
 8039SOL     OW25015   0.800   1.936   5.160
 8039SOL    HW125016   0.849   1.977   5.237
 8039SOL    HW225017   0.759   2.009   5.105
 8040SOL     OW25018   1.170   5.422   0.079
 8040SOL    HW125019   1.222   5.453   7.025
 8040SOL    HW225020   1.072   5.428   0.060
 8041SOL     OW25021   3.089   1.558   2.833
 8041SOL    HW125022   3.111   1.468   2.797
 8041SOL    HW225023   3.033   1.549   2.915
 8042SOL     OW25024   3.353   3.074   4.278
 8042SOL    HW125025   3.344   3.039   4.371
 8042SOL    HW225026   3.271   3.126   4.254
 8043SOL     OW25027   3.460   6.519   0.926
 8043SOL    HW125028   3.424   6.574   1.001
 8043SOL    HW225029   3.537   6.465   0.959
 8044SOL     OW25030   4.235   2.530   1.488
 8044SOL    HW125031   4.304   2.504   1.421
 8044SOL    HW225032   4.261   2.616   1.532
 8045SOL     OW25033   5.826   1.989   3.018
 8045SOL    HW125034   5.726   1.996   3.010
 8045SOL    HW225035   5.864   2.080   3.033
 8046SOL     OW25036   0.715   4.633   1.804
 8046SOL    HW125037   0.747   4.659   1.894
 8046SOL    HW225038   0.629   4.581   1.812
 8047SOL     OW25039   4.028   5.726   5.280
 8047SOL    HW125040   4.039   5.626   5.276
 8047SOL    HW225041   3.992   5.759   5.194
 8048SOL     OW25042   4.928   1.774   6.343
 8048SOL    HW125043   4.831   1.791   6.364
 8048SOL    HW225044   4.935   1.697   6.280
 8049SOL     OW25045   0.442   0.561   0.392
 8049SOL    HW125046   0.486   0.598   0.474
 8049SOL    HW225047   0.509   0.554   0.318
 8050SOL     OW25048   1.860   3.154   3.349
 8050SOL    HW125049   1.843   3.146   3.447
 8050SOL    HW225050   1.958   3.154   3.331
 8051SOL     OW25051   4.699   5.548   4.484
 8051SOL    HW125052   4.638   5.610   4.434
 8051SOL    HW225053   4.660   5.529   4.574
 8052SOL     OW25054   3.522   1.666   0.709
 8052SOL    HW125055   3.560   1.606   0.639
 8052SOL    HW225056   3.552   1.635   0.800
 8053SOL     OW25057   3.102   3.195   4.212
 8053SOL    HW125058   3.106   3.238   4.302
 8053SOL    HW225059   3.049   3.252   4.149
 8054SOL     OW25060   6.354   5.161   5.078
 8054SOL    HW125061   6.393   5.081   5.124
 8054SOL    HW225062   6.272   5.190   5.125
 8055SOL     OW25063   0.598   0.456   5.219
 8055SOL    HW125064   0.676   0.510   5.251
 8055SOL    HW225065   0.629   0.390   5.150
 8056SOL     OW25066   2.285   1.190   3.620
 8056SOL    HW125067   2.318   1.162   3.710
 8056SOL    HW225068   2.354   1.168   3.551
 8057SOL     OW25069   3.042   2.193   2.971
 8057SOL    HW125070   2.972   2.239   3.025
 8057SOL    HW225071   3.022   2.204   2.873
 8058SOL     OW25072   4.063   0.210   3.407
 8058SOL    HW125073   4.151   0.205   3.360
 8058SOL    HW225074   3.992   0.169   3.350
 8059SOL     OW25075   2.711   1.792   5.088
 8059SOL    HW125076   2.789   1.793   5.025
 8059SOL    HW225077   2.700   1.883   5.129
 8060SOL     OW25078   6.556   2.162   5.938
 8060SOL    HW125079   6.638   2.136   5.990
 8060SOL    HW225080   6.584   2.209   5.854
 8061SOL     OW25081   0.044   0.342   2.499
 8061SOL    HW125082   6.980   0.384   2.485
 8061SOL    HW225083   0.048   0.303   2.591
 8062SOL     OW25084   3.455   4.933   4.579
 8062SOL    HW125085   3.496   4.924   4.488
 8062SOL    HW225086   3.357   4.916   4.573
 8063SOL     OW25087   2.020   2.027   1.991
 8063SOL    HW125088   1.998   2.019   1.893
 8063SOL    HW225089   1.944   2.072   2.038
 8064SOL     OW25090   6.240   2.750   1.512
 8064SOL    HW125091   6.236   2.791   1.603
 8064SOL    HW225092   6.332   2.714   1.496
 8065SOL     OW25093   2.305   5.707   4.366
 8065SOL    HW125094   2.219   5.707   4.315
 8065SOL    HW225095   2.289   5.675   4.459
 8066SOL     OW25096   1.042   1.624   5.358
 8066SOL    HW125097   1.071   1.535   5.394
 8066SOL    HW225098   1.076   1.634   5.264
 8067SOL     OW25099   5.024   2.570   2.455
 8067SOL    HW125100   5.000   2.481   2.417
 8067SOL    HW225101   5.117   2.567   2.490
 8068SOL     OW25102   6.915   4.449   1.435
 8068SOL    HW125103   6.962   4.404   1.359
 8068SOL    HW225104   6.981   4.474   1.506
 8069SOL     OW25105   2.856   5.902   0.888
 8069SOL    HW125106   2.803   5.920   0.971
 8069SOL    HW225107   2.851   5.982   0.828
 8070SOL     OW25108   4.023   3.365   1.081
 8070SOL    HW125109   3.943   3.368   1.022
 8070SOL    HW225110   4.027   3.277   1.129
 8071SOL     OW25111   3.501   6.328   4.552
 8071SOL    HW125112   3.479   6.419   4.589
 8071SOL    HW225113   3.599   6.321   4.536
 8072SOL     OW25114   4.066   1.693   0.904
 8072SOL    HW125115   4.031   1.659   0.816
 8072SOL    HW225116   4.035   1.787   0.917
 8073SOL     OW25117   2.769   5.182   5.062
 8073SOL    HW125118   2.815   5.246   5.001
 8073SOL    HW225119   2.791   5.088   5.033
 8074SOL     OW25120   2.836   2.820   0.737
 8074SOL    HW125121   2.768   2.748   0.754
 8074SOL    HW225122   2.810   2.903   0.786
 8075SOL     OW25123   6.960   7.026   0.528
 8075SOL    HW125124   7.003   7.026   0.438
 8075SOL    HW225125   0.005   7.024   0.599
 8076SOL     OW25126   6.297   0.692   5.221
 8076SOL    HW125127   6.294   0.641   5.135
 8076SOL    HW225128   6.387   0.733   5.232
 8077SOL     OW25129   3.404   6.399   2.719
 8077SOL    HW125130   3.492   6.388   2.766
 8077SOL    HW225131   3.415   6.461   2.641
 8078SOL     OW25132   6.920   2.313   0.789
 8078SOL    HW125133   6.834   2.349   0.755
 8078SOL    HW225134   6.904   2.259   0.872
 8079SOL     OW25135   5.708   1.571   3.732
 8079SOL    HW125136   5.641   1.501   3.753
 8079SOL    HW225137   5.737   1.616   3.817
 8080SOL     OW25138   1.163   2.825   1.644
 8080SOL    HW125139   1.261   2.816   1.625
 8080SOL    HW225140   1.131   2.914   1.613
 8081SOL     OW25141   6.361   5.828   5.585
 8081SOL    HW125142   6.346   5.731   5.569
 8081SOL    HW225143   6.438   5.840   5.648
 8082SOL     OW25144   4.268   6.873   2.618
 8082SOL    HW125145   4.315   6.915   2.540
 8082SOL    HW225146   4.335   6.853   2.690
 8083SOL     OW25147   5.072   2.679   2.843
 8083SOL    HW125148   4.987   2.705   2.888
 8083SOL    HW225149   5.094   2.746   2.772
 8084SOL     OW25150   4.037   6.288   0.300
 8084SOL    HW125151   4.016   6.310   0.204
 8084SOL    HW225152   3.957   6.306   0.357
 8085SOL     OW25153   6.667   6.434   2.146
 8085SOL    HW125154   6.698   6.371   2.218
 8085SOL    HW225155   6.567   6.435   2.144
 8086SOL     OW25156   5.930   0.652   2.694
 8086SOL    HW125157   5.939   0.691   2.602
 8086SOL    HW225158   6.018   0.616   2.723
 8087SOL     OW25159   2.293   0.927   6.825
 8087SOL    HW125160   2.296   1.027   6.828
 8087SOL    HW225161   2.250   0.898   6.739
 8088SOL     OW25162   5.731   1.851   1.650
 8088SOL    HW125163   5.815   1.800   1.670
 8088SOL    HW225164   5.695   1.821   1.561
 8089SOL     OW25165   5.995   2.901   0.895
 8089SOL    HW125166   6.065   2.852   0.843
 8089SOL    HW225167   5.921   2.928   0.833
 8090SOL     OW25168   4.435   2.065   0.229
 8090SOL    HW125169   4.533   2.045   0.235
 8090SOL    HW225170   4.422   2.162   0.205
 8091SOL     OW25171   2.125   3.489   4.982
 8091SOL    HW125172   2.153   3.584   4.974
 8091SOL    HW225173   2.177   3.445   5.056
 8092SOL     OW25174   5.435   2.284   5.101
 8092SOL    HW125175   5.478   2.375   5.102
 8092SOL    HW225176   5.360   2.282   5.167
 8093SOL     OW25177   4.164   4.946   2.653
 8093SOL    HW125178   4.126   5.035   2.629
 8093SOL    HW225179   4.240   4.958   2.718
 8094SOL     OW25180   1.072   3.244   4.930
 8094SOL    HW125181   1.169   3.247   4.905
 8094SOL    HW225182   1.022   3.192   4.861
 8095SOL     OW25183   0.360   4.886   4.138
 8095SOL    HW125184   0.401   4.978   4.136
 8095SOL    HW225185   0.267   4.890   4.101
 8096SOL     OW25186   1.947   6.886   3.255
 8096SOL    HW125187   1.894   6.801   3.256
 8096SOL    HW225188   2.029   6.875   3.312
 8097SOL     OW25189   4.191   6.908   4.178
 8097SOL    HW125190   4.208   6.920   4.276
 8097SOL    HW225191   4.093   6.917   4.161
 8098SOL     OW25192   1.864   6.277   3.205
 8098SOL    HW125193   1.960   6.250   3.210
 8098SOL    HW225194   1.806   6.196   3.216
 8099SOL     OW25195   3.953   6.439   4.921
 8099SOL    HW125196   3.855   6.422   4.927
 8099SOL    HW225197   4.000   6.390   4.995
 8100SOL     OW25198   6.878   1.156   0.815
 8100SOL    HW125199   6.897   1.059   0.825
 8100SOL    HW225200   6.875   1.199   0.906
 8101SOL     OW25201   2.223   6.135   2.332
 8101SOL    HW125202   2.156   6.069   2.367
 8101SOL    HW225203   2.246   6.199   2.405
 8102SOL     OW25204   1.132   4.181   3.547
 8102SOL    HW125205   1.163   4.191   3.453
 8102SOL    HW225206   1.192   4.234   3.608
 8103SOL     OW25207   2.817   6.881   1.213
 8103SOL    HW125208   2.760   6.942   1.268
 8103SOL    HW225209   2.898   6.930   1.182
 8104SOL     OW25210   2.861   0.584   6.238
 8104SOL    HW125211   2.780   0.644   6.239
 8104SOL    HW225212   2.924   0.614   6.310
 8105SOL     OW25213   0.821   2.612   3.228
 8105SOL    HW125214   0.803   2.610   3.327
 8105SOL    HW225215   0.808   2.705   3.194
 8106SOL     OW25216   2.917   6.057   2.798
 8106SOL    HW125217   2.960   5.974   2.835
 8106SOL    HW225218   2.943   6.136   2.855
 8107SOL     OW25219   0.780   5.019   4.275
 8107SOL    HW125220   0.779   4.919   4.285
 8107SOL    HW225221   0.874   5.052   4.286
 8108SOL     OW25222   5.935   2.952   5.709
 8108SOL    HW125223   5.846   2.949   5.664
 8108SOL    HW225224   5.923   2.984   5.803
 8109SOL     OW25225   0.904   3.735   4.661
 8109SOL    HW125226   0.954   3.708   4.579
 8109SOL    HW225227   0.858   3.656   4.700
 8110SOL     OW25228   3.554   5.939   1.193
 8110SOL    HW125229   3.589   5.847   1.181
 8110SOL    HW225230   3.624   6.005   1.166
 8111SOL     OW25231   5.432   0.956   5.125
 8111SOL    HW125232   5.474   0.874   5.084
 8111SOL    HW225233   5.432   1.030   5.058
 8112SOL     OW25234   2.490   2.078   4.229
 8112SOL    HW125235   2.552   2.122   4.294
 8112SOL    HW225236   2.542   2.040   4.153
 8113SOL     OW25237   1.867   3.595   0.310
 8113SOL    HW125238   1.773   3.613   0.338
 8113SOL    HW225239   1.925   3.584   0.391
 8114SOL     OW25240   1.434   3.802   2.866
 8114SOL    HW125241   1.501   3.854   2.812
 8114SOL    HW225242   1.470   3.711   2.885
 8115SOL     OW25243   4.100   0.539   0.311
 8115SOL    HW125244   4.062   0.448   0.327
 8115SOL    HW225245   4.041   0.589   0.248
 8116SOL     OW25246   4.344   5.053   6.224
 8116SOL    HW125247   4.307   5.000   6.147
 8116SOL    HW225248   4.269   5.091   6.277
 8117SOL     OW25249   1.628   0.156   3.168
 8117SOL    HW125250   1.640   0.129   3.263
 8117SOL    HW225251   1.710   0.132   3.116
 8118SOL     OW25252   5.434   4.810   6.078
 8118SOL    HW125253   5.501   4.777   6.012
 8118SOL    HW225254   5.345   4.770   6.059
 8119SOL     OW25255   4.909   5.224   6.423
 8119SOL    HW125256   4.905   5.323   6.438
 8119SOL    HW225257   4.907   5.206   6.324
 8120SOL     OW25258   3.237   5.131   0.709
 8120SOL    HW125259   3.141   5.112   0.730
 8120SOL    HW225260   3.262   5.221   0.745
 8121SOL     OW25261   6.975   5.200   2.023
 8121SOL    HW125262   0.013   5.273   2.004
 8121SOL    HW225263   6.882   5.237   2.024
 8122SOL     OW25264   0.597   5.283   3.145
 8122SOL    HW125265   0.693   5.258   3.135
 8122SOL    HW225266   0.545   5.244   3.069
 8123SOL     OW25267   6.979   1.169   6.608
 8123SOL    HW125268   6.880   1.176   6.607
 8123SOL    HW225269   7.006   1.091   6.666
 8124SOL     OW25270   5.965   6.681   0.992
 8124SOL    HW125271   5.904   6.604   1.008
 8124SOL    HW225272   5.978   6.731   1.078
 8125SOL     OW25273   1.804   1.303   3.059
 8125SOL    HW125274   1.858   1.220   3.074
 8125SOL    HW225275   1.793   1.318   2.961
 8126SOL     OW25276   4.887   4.630   2.531
 8126SOL    HW125277   4.907   4.566   2.606
 8126SOL    HW225278   4.789   4.630   2.512
 8127SOL     OW25279   2.704   4.406   6.013
 8127SOL    HW125280   2.774   4.344   6.051
 8127SOL    HW225281   2.616   4.359   6.010
 8128SOL     OW25282   2.454   1.474   1.614
 8128SOL    HW125283   2.358   1.449   1.611
 8128SOL    HW225284   2.494   1.445   1.700
 8129SOL     OW25285   4.416   0.702   6.463
 8129SOL    HW125286   4.470   0.684   6.545
 8129SOL    HW225287   4.414   0.800   6.444
 8130SOL     OW25288   6.977   3.313   6.470
 8130SOL    HW125289   6.953   3.217   6.483
 8130SOL    HW225290   0.044   3.320   6.435
 8131SOL     OW25291   3.122   2.012   0.803
 8131SOL    HW125292   3.165   2.099   0.825
 8131SOL    HW225293   3.040   2.027   0.749
 8132SOL     OW25294   5.911   6.776   6.090
 8132SOL    HW125295   5.894   6.752   5.994
 8132SOL    HW225296   5.998   6.825   6.097
 8133SOL     OW25297   2.986   4.984   1.445
 8133SOL    HW125298   3.041   5.066   1.457
 8133SOL    HW225299   2.916   5.000   1.375
 8134SOL     OW25300   6.398   2.680   5.695
 8134SOL    HW125301   6.303   2.712   5.703
 8134SOL    HW225302   6.407   2.592   5.740
 8135SOL     OW25303   2.778   6.648   1.409
 8135SOL    HW125304   2.685   6.620   1.384
 8135SOL    HW225305   2.819   6.700   1.333
 8136SOL     OW25306   4.548   5.720   3.563
 8136SOL    HW125307   4.575   5.783   3.636
 8136SOL    HW225308   4.627   5.700   3.506
 8137SOL     OW25309   2.887   2.290   5.182
 8137SOL    HW125310   2.958   2.289   5.112
 8137SOL    HW225311   2.895   2.373   5.237
 8138SOL     OW25312   5.843   1.661   0.091
 8138SOL    HW125313   5.846   1.680   7.020
 8138SOL    HW225314   5.928   1.691   0.133
 8139SOL     OW25315   6.737   1.323   2.435
 8139SOL    HW125316   6.646   1.360   2.453
 8139SOL    HW225317   6.748   1.235   2.482
 8140SOL     OW25318   4.939   0.509   1.122
 8140SOL    HW125319   4.973   0.486   1.031
 8140SOL    HW225320   4.914   0.606   1.126
 8141SOL     OW25321   4.817   6.116   4.825
 8141SOL    HW125322   4.877   6.195   4.844
 8141SOL    HW225323   4.815   6.098   4.727
 8142SOL     OW25324   1.008   5.547   6.911
 8142SOL    HW125325   1.056   5.635   6.917
 8142SOL    HW225326   1.012   5.514   6.817
 8143SOL     OW25327   6.500   4.139   1.293
 8143SOL    HW125328   6.583   4.138   1.349
 8143SOL    HW225329   6.525   4.133   1.196
 8144SOL     OW25330   6.213   6.642   6.313
 8144SOL    HW125331   6.182   6.555   6.274
 8144SOL    HW225332   6.313   6.644   6.314
 8145SOL     OW25333   5.614   5.746   1.540
 8145SOL    HW125334   5.665   5.828   1.513
 8145SOL    HW225335   5.544   5.771   1.607
 8146SOL     OW25336   4.708   0.426   4.641
 8146SOL    HW125337   4.715   0.421   4.741
 8146SOL    HW225338   4.732   0.337   4.602
 8147SOL     OW25339   6.359   2.198   0.897
 8147SOL    HW125340   6.343   2.134   0.973
 8147SOL    HW225341   6.359   2.291   0.932
 8148SOL     OW25342   5.299   4.074   1.138
 8148SOL    HW125343   5.233   4.144   1.111
 8148SOL    HW225344   5.309   4.074   1.238
 8149SOL     OW25345   3.288   6.567   2.497
 8149SOL    HW125346   3.197   6.534   2.470
 8149SOL    HW225347   3.329   6.618   2.422
 8150SOL     OW25348   1.682   3.945   0.970
 8150SOL    HW125349   1.642   3.875   0.910
 8150SOL    HW225350   1.768   3.912   1.008
 8151SOL     OW25351   6.102   2.887   1.303
 8151SOL    HW125352   6.005   2.882   1.326
 8151SOL    HW225353   6.155   2.837   1.371
 8152SOL     OW25354   6.861   2.137   2.638
 8152SOL    HW125355   6.873   2.069   2.565
 8152SOL    HW225356   6.765   2.140   2.664
 8153SOL     OW25357   2.399   6.757   3.752
 8153SOL    HW125358   2.464   6.762   3.676
 8153SOL    HW225359   2.447   6.772   3.838
 8154SOL     OW25360   3.184   5.262   2.244
 8154SOL    HW125361   3.258   5.243   2.180
 8154SOL    HW225362   3.181   5.190   2.314
 8155SOL     OW25363   1.525   4.289   2.224
 8155SOL    HW125364   1.529   4.379   2.267
 8155SOL    HW225365   1.611   4.272   2.175
 8156SOL     OW25366   5.360   0.083   1.243
 8156SOL    HW125367   5.400   7.017   1.244
 8156SOL    HW225368   5.284   0.085   1.179
 8157SOL     OW25369   6.857   5.240   6.411
 8157SOL    HW125370   6.787   5.170   6.397
 8157SOL    HW225371   6.814   5.327   6.434
 8158SOL     OW25372   4.587   5.053   0.864
 8158SOL    HW125373   4.528   5.008   0.932
 8158SOL    HW225374   4.607   5.146   0.895
 8159SOL     OW25375   3.019   5.588   2.548
 8159SOL    HW125376   2.949   5.529   2.587
 8159SOL    HW225377   2.976   5.669   2.508
 8160SOL     OW25378   5.517   0.696   3.595
 8160SOL    HW125379   5.474   0.606   3.590
 8160SOL    HW225380   5.522   0.735   3.503
 8161SOL     OW25381   5.694   1.791   6.275
 8161SOL    HW125382   5.642   1.740   6.206
 8161SOL    HW225383   5.735   1.727   6.340
 8162SOL     OW25384   5.601   6.188   6.178
 8162SOL    HW125385   5.526   6.134   6.217
 8162SOL    HW225386   5.681   6.129   6.167
 8163SOL     OW25387   2.663   3.891   5.297
 8163SOL    HW125388   2.744   3.899   5.238
 8163SOL    HW225389   2.588   3.944   5.259
 8164SOL     OW25390   5.259   3.074   0.537
 8164SOL    HW125391   5.316   3.133   0.594
 8164SOL    HW225392   5.278   3.092   0.441
 8165SOL     OW25393   0.947   3.444   6.378
 8165SOL    HW125394   0.960   3.524   6.319
 8165SOL    HW225395   0.909   3.473   6.466
 8166SOL     OW25396   1.474   0.154   2.677
 8166SOL    HW125397   1.529   0.111   2.749
 8166SOL    HW225398   1.475   0.253   2.690
 8167SOL     OW25399   6.132   0.029   4.649
 8167SOL    HW125400   6.195   0.090   4.697
 8167SOL    HW225401   6.038   0.055   4.671
 8168SOL     OW25402   2.121   1.672   3.641
 8168SOL    HW125403   2.157   1.670   3.548
 8168SOL    HW225404   2.119   1.579   3.678
 8169SOL     OW25405   5.276   1.912   1.089
 8169SOL    HW125406   5.195   1.957   1.126
 8169SOL    HW225407   5.252   1.867   1.002
 8170SOL     OW25408   1.177   5.532   2.910
 8170SOL    HW125409   1.163   5.435   2.928
 8170SOL    HW225410   1.257   5.543   2.850
 8171SOL     OW25411   1.417   1.692   6.494
 8171SOL    HW125412   1.416   1.636   6.577
 8171SOL    HW225413   1.479   1.651   6.427
 8172SOL     OW25414   0.835   2.013   2.180
 8172SOL    HW125415   0.755   1.955   2.164
 8172SOL    HW225416   0.909   1.986   2.119
 8173SOL     OW25417   4.978   0.842   2.030
 8173SOL    HW125418   5.014   0.841   1.937
 8173SOL    HW225419   4.915   0.766   2.043
 8174SOL     OW25420   6.181   3.363   0.954
 8174SOL    HW125421   6.143   3.283   0.907
 8174SOL    HW225422   6.230   3.420   0.888
 8175SOL     OW25423   6.850   2.352   5.737
 8175SOL    HW125424   6.906   2.279   5.777
 8175SOL    HW225425   6.756   2.319   5.725
 8176SOL     OW25426   2.867   5.138   2.139
 8176SOL    HW125427   2.916   5.161   2.224
 8176SOL    HW225428   2.805   5.062   2.157
 8177SOL     OW25429   2.806   6.273   4.211
 8177SOL    HW125430   2.776   6.251   4.304
 8177SOL    HW225431   2.728   6.270   4.149
 8178SOL     OW25432   3.018   5.812   6.677
 8178SOL    HW125433   2.982   5.905   6.673
 8178SOL    HW225434   3.004   5.775   6.769
 8179SOL     OW25435   4.823   2.026   5.576
 8179SOL    HW125436   4.871   1.984   5.653
 8179SOL    HW225437   4.731   1.988   5.568
 8180SOL     OW25438   6.402   0.128   5.071
 8180SOL    HW125439   6.364   0.217   5.098
 8180SOL    HW225440   6.330   0.059   5.071
 8181SOL     OW25441   2.191   1.601   1.130
 8181SOL    HW125442   2.124   1.567   1.064
 8181SOL    HW225443   2.281   1.563   1.108
 8182SOL     OW25444   4.257   3.160   6.129
 8182SOL    HW125445   4.213   3.178   6.217
 8182SOL    HW225446   4.307   3.241   6.100
 8183SOL     OW25447   0.206   2.563   4.351
 8183SOL    HW125448   0.216   2.465   4.368
 8183SOL    HW225449   0.110   2.585   4.337
 8184SOL     OW25450   5.609   1.680   5.842
 8184SOL    HW125451   5.607   1.630   5.929
 8184SOL    HW225452   5.664   1.763   5.852
 8185SOL     OW25453   2.217   6.587   0.576
 8185SOL    HW125454   2.248   6.682   0.581
 8185SOL    HW225455   2.117   6.585   0.579
 8186SOL     OW25456   3.894   6.011   5.749
 8186SOL    HW125457   3.875   5.959   5.832
 8186SOL    HW225458   3.818   6.002   5.685
 8187SOL     OW25459   1.528   2.491   5.508
 8187SOL    HW125460   1.587   2.547   5.449
 8187SOL    HW225461   1.516   2.537   5.596
 8188SOL     OW25462   5.530   3.021   2.591
 8188SOL    HW125463   5.543   3.075   2.508
 8188SOL    HW225464   5.446   2.968   2.584
 8189SOL     OW25465   4.560   4.676   2.691
 8189SOL    HW125466   4.571   4.585   2.650
 8189SOL    HW225467   4.462   4.693   2.707
 8190SOL     OW25468   3.831   5.194   3.855
 8190SOL    HW125469   3.746   5.187   3.801
 8190SOL    HW225470   3.889   5.115   3.835
 8191SOL     OW25471   3.684   6.697   2.488
 8191SOL    HW125472   3.755   6.723   2.423
 8191SOL    HW225473   3.594   6.710   2.446
 8192SOL     OW25474   3.660   5.433   1.073
 8192SOL    HW125475   3.581   5.433   1.011
 8192SOL    HW225476   3.653   5.511   1.135
 8193SOL     OW25477   6.690   6.635   4.597
 8193SOL    HW125478   6.720   6.549   4.640
 8193SOL    HW225479   6.638   6.613   4.514
 8194SOL     OW25480   5.907   2.327   1.225
 8194SOL    HW125481   6.002   2.349   1.246
 8194SOL    HW225482   5.853   2.410   1.226
 8195SOL     OW25483   1.117   0.065   1.543
 8195SOL    HW125484   1.202   0.083   1.591
 8195SOL    HW225485   1.039   0.090   1.601
 8196SOL     OW25486   3.604   6.993   5.772
 8196SOL    HW125487   3.589   0.010   5.861
 8196SOL    HW225488   3.699   6.964   5.765
 8197SOL     OW25489   4.275   1.606   6.216
 8197SOL    HW125490   4.336   1.612   6.137
 8197SOL    HW225491   4.186   1.646   6.193
 8198SOL     OW25492   3.742   6.269   3.491
 8198SOL    HW125493   3.735   6.358   3.446
 8198SOL    HW225494   3.793   6.206   3.432
 8199SOL     OW25495   6.084   3.343   6.120
 8199SOL    HW125496   6.053   3.261   6.167
 8199SOL    HW225497   6.175   3.327   6.081
 8200SOL     OW25498   4.827   3.948   1.761
 8200SOL    HW125499   4.727   3.943   1.757
 8200SOL    HW225500   4.866   3.919   1.674
 8201SOL     OW25501   5.696   0.709   4.096
 8201SOL    HW125502   5.618   0.741   4.043
 8201SOL    HW225503   5.664   0.667   4.181
 8202SOL     OW25504   0.376   5.390   4.626
 8202SOL    HW125505   0.474   5.401   4.611
 8202SOL    HW225506   0.346   5.303   4.585
 8203SOL     OW25507   4.358   2.457   1.002
 8203SOL    HW125508   4.426   2.440   1.073
 8203SOL    HW225509   4.356   2.379   0.939
 8204SOL     OW25510   3.225   5.357   0.368
 8204SOL    HW125511   3.213   5.332   0.464
 8204SOL    HW225512   3.251   5.453   0.361
 8205SOL     OW25513   0.418   4.968   1.059
 8205SOL    HW125514   0.486   5.041   1.070
 8205SOL    HW225515   0.461   4.880   1.081
 8206SOL     OW25516   4.334   2.355   5.933
 8206SOL    HW125517   4.391   2.437   5.927
 8206SOL    HW225518   4.269   2.366   6.009
 8207SOL     OW25519   3.926   3.854   5.553
 8207SOL    HW125520   3.834   3.878   5.521
 8207SOL    HW225521   3.994   3.908   5.504
 8208SOL     OW25522   1.999   6.864   1.502
 8208SOL    HW125523   1.997   6.917   1.587
 8208SOL    HW225524   2.033   6.922   1.428
 8209SOL     OW25525   1.272   1.581   5.701
 8209SOL    HW125526   1.271   1.648   5.627
 8209SOL    HW225527   1.334   1.506   5.677
 8210SOL     OW25528   2.587   1.051   1.238
 8210SOL    HW125529   2.500   1.041   1.191
 8210SOL    HW225530   2.618   0.961   1.271
 8211SOL     OW25531   3.874   3.816   3.176
 8211SOL    HW125532   3.880   3.817   3.076
 8211SOL    HW225533   3.801   3.877   3.205
 8212SOL     OW25534   3.258   1.536   0.982
 8212SOL    HW125535   3.209   1.623   0.982
 8212SOL    HW225536   3.272   1.507   0.887
 8213SOL     OW25537   5.301   4.656   2.088
 8213SOL    HW125538   5.204   4.645   2.064
 8213SOL    HW225539   5.336   4.570   2.124
 8214SOL     OW25540   1.095   5.675   4.520
 8214SOL    HW125541   1.016   5.728   4.489
 8214SOL    HW225542   1.064   5.586   4.552
 8215SOL     OW25543   3.454   5.610   6.430
 8215SOL    HW125544   3.360   5.636   6.453
 8215SOL    HW225545   3.458   5.513   6.410
 8216SOL     OW25546   4.962   6.461   3.192
 8216SOL    HW125547   4.945   6.366   3.222
 8216SOL    HW225548   4.898   6.484   3.119
 8217SOL     OW25549   2.119   3.900   2.327
 8217SOL    HW125550   2.089   3.869   2.417
 8217SOL    HW225551   2.136   3.821   2.268
 8218SOL     OW25552   1.099   6.812   4.659
 8218SOL    HW125553   1.184   6.830   4.709
 8218SOL    HW225554   1.056   6.898   4.633
 8219SOL     OW25555   3.802   3.209   1.797
 8219SOL    HW125556   3.732   3.280   1.800
 8219SOL    HW225557   3.759   3.120   1.782
 8220SOL     OW25558   3.227   3.846   5.216
 8220SOL    HW125559   3.176   3.932   5.210
 8220SOL    HW225560   3.259   3.832   5.310
 8221SOL     OW25561   6.430   5.325   3.468
 8221SOL    HW125562   6.510   5.286   3.514
 8221SOL    HW225563   6.395   5.258   3.402
 8222SOL     OW25564   4.962   2.061   1.544
 8222SOL    HW125565   4.945   2.144   1.598
 8222SOL    HW225566   4.875   2.023   1.513
 8223SOL     OW25567   0.521   4.268   5.738
 8223SOL    HW125568   0.532   4.226   5.829
 8223SOL    HW225569   0.586   4.343   5.728
 8224SOL     OW25570   5.477   2.668   1.929
 8224SOL    HW125571   5.419   2.747   1.909
 8224SOL    HW225572   5.541   2.654   1.854
 8225SOL     OW25573   3.658   1.334   1.606
 8225SOL    HW125574   3.691   1.248   1.643
 8225SOL    HW225575   3.669   1.407   1.675
 8226SOL     OW25576   3.431   0.175   0.549
 8226SOL    HW125577   3.371   0.237   0.497
 8226SOL    HW225578   3.379   0.134   0.624
 8227SOL     OW25579   6.936   1.519   2.477
 8227SOL    HW125580   7.011   1.496   2.416
 8227SOL    HW225581   6.872   1.442   2.481
 8228SOL     OW25582   0.861   1.949   5.761
 8228SOL    HW125583   0.803   1.884   5.713
 8228SOL    HW225584   0.805   2.009   5.819
 8229SOL     OW25585   3.707   4.375   1.252
 8229SOL    HW125586   3.685   4.469   1.279
 8229SOL    HW225587   3.681   4.312   1.325
 8230SOL     OW25588   4.143   6.970   5.823
 8230SOL    HW125589   4.150   0.043   5.824
 8230SOL    HW225590   4.181   6.932   5.907
 8231SOL     OW25591   3.409   2.391   1.694
 8231SOL    HW125592   3.385   2.300   1.726
 8231SOL    HW225593   3.497   2.418   1.733
 8232SOL     OW25594   5.534   1.875   2.064
 8232SOL    HW125595   5.534   1.822   2.149
 8232SOL    HW225596   5.608   1.942   2.066
 8233SOL     OW25597   1.442   6.933   6.336
 8233SOL    HW125598   1.456   6.840   6.303
 8233SOL    HW225599   1.362   6.935   6.397
 8234SOL     OW25600   2.795   4.143   6.913
 8234SOL    HW125601   2.859   4.092   6.971
 8234SOL    HW225602   2.804   4.241   6.931
 8235SOL     OW25603   6.895   3.421   6.967
 8235SOL    HW125604   6.990   3.415   6.937
 8235SOL    HW225605   6.855   3.506   6.933
 8236SOL     OW25606   6.909   4.870   6.389
 8236SOL    HW125607   6.937   4.866   6.485
 8236SOL    HW225608   6.844   4.796   6.370
 8237SOL     OW25609   4.797   6.275   6.359
 8237SOL    HW125610   4.862   6.314   6.293
 8237SOL    HW225611   4.722   6.231   6.310
 8238SOL     OW25612   0.522   6.196   6.810
 8238SOL    HW125613   0.446   6.133   6.795
 8238SOL    HW225614   0.600   6.168   6.753
 8239SOL     OW25615   1.123   1.104   4.654
 8239SOL    HW125616   1.205   1.075   4.604
 8239SOL    HW225617   1.144   1.186   4.706
 8240SOL     OW25618   3.043   3.918   3.204
 8240SOL    HW125619   3.119   3.952   3.149
 8240SOL    HW225620   3.041   3.966   3.291
 8241SOL     OW25621   2.871   4.668   5.891
 8241SOL    HW125622   2.837   4.587   5.845
 8241SOL    HW225623   2.858   4.658   5.990
 8242SOL     OW25624   0.491   3.444   4.875
 8242SOL    HW125625   0.542   3.362   4.900
 8242SOL    HW225626   0.395   3.421   4.859
 8243SOL     OW25627   6.900   3.709   0.874
 8243SOL    HW125628   6.951   3.624   0.860
 8243SOL    HW225629   6.867   3.713   0.969
 8244SOL     OW25630   0.811   0.300   3.877
 8244SOL    HW125631   0.823   0.360   3.955
 8244SOL    HW225632   0.893   0.304   3.819
 8245SOL     OW25633   3.659   1.634   3.009
 8245SOL    HW125634   3.705   1.698   3.070
 8245SOL    HW225635   3.654   1.544   3.053
 8246SOL     OW25636   0.467   4.590   6.443
 8246SOL    HW125637   0.373   4.608   6.411
 8246SOL    HW225638   0.519   4.547   6.369
 8247SOL     OW25639   2.174   5.995   3.431
 8247SOL    HW125640   2.181   6.040   3.520
 8247SOL    HW225641   2.082   6.006   3.395
 8248SOL     OW25642   0.673   4.517   5.142
 8248SOL    HW125643   0.686   4.464   5.058
 8248SOL    HW225644   0.715   4.607   5.131
 8249SOL     OW25645   2.281   1.316   5.667
 8249SOL    HW125646   2.306   1.343   5.574
 8249SOL    HW225647   2.206   1.374   5.699
 8250SOL     OW25648   2.923   2.504   0.967
 8250SOL    HW125649   2.957   2.419   1.007
 8250SOL    HW225650   2.963   2.517   0.876
 8251SOL     OW25651   5.264   1.204   4.903
 8251SOL    HW125652   5.216   1.247   4.980
 8251SOL    HW225653   5.203   1.201   4.823
 8252SOL     OW25654   3.907   1.692   6.950
 8252SOL    HW125655   3.821   1.736   6.922
 8252SOL    HW225656   3.898   1.660   0.018
 8253SOL     OW25657   3.761   5.836   6.658
 8253SOL    HW125658   3.661   5.831   6.652
 8253SOL    HW225659   3.798   5.744   6.668
 8254SOL     OW25660   4.882   4.603   5.712
 8254SOL    HW125661   4.847   4.510   5.699
 8254SOL    HW225662   4.903   4.617   5.808
 8255SOL     OW25663   1.458   6.890   5.425
 8255SOL    HW125664   1.408   6.973   5.397
 8255SOL    HW225665   1.495   6.902   5.516
 8256SOL     OW25666   6.962   6.484   2.942
 8256SOL    HW125667   6.934   6.579   2.959
 8256SOL    HW225668   6.907   6.423   2.999
 8257SOL     OW25669   5.555   3.983   3.980
 8257SOL    HW125670   5.538   4.024   3.891
 8257SOL    HW225671   5.471   3.942   4.015
 8258SOL     OW25672   4.711   2.946   1.634
 8258SOL    HW125673   4.684   2.997   1.716
 8258SOL    HW225674   4.792   2.891   1.654
 8259SOL     OW25675   3.529   2.217   5.464
 8259SOL    HW125676   3.581   2.134   5.440
 8259SOL    HW225677   3.526   2.278   5.384
 8260SOL     OW25678   1.946   6.409   1.727
 8260SOL    HW125679   1.981   6.494   1.687
 8260SOL    HW225680   2.016   6.338   1.719
 8261SOL     OW25681   5.375   6.493   3.243
 8261SOL    HW125682   5.313   6.512   3.167
 8261SOL    HW225683   5.443   6.566   3.250
 8262SOL     OW25684   0.601   4.665   0.577
 8262SOL    HW125685   0.642   4.740   0.524
 8262SOL    HW225686   0.674   4.605   0.610
 8263SOL     OW25687   6.884   3.032   6.841
 8263SOL    HW125688   6.838   3.121   6.846
 8263SOL    HW225689   6.974   3.043   6.798
 8264SOL     OW25690   0.811   6.598   1.603
 8264SOL    HW125691   0.849   6.645   1.523
 8264SOL    HW225692   0.722   6.638   1.625
 8265SOL     OW25693   5.214   0.472   2.081
 8265SOL    HW125694   5.123   0.498   2.048
 8265SOL    HW225695   5.277   0.548   2.066
 8266SOL     OW25696   2.720   0.895   4.807
 8266SOL    HW125697   2.710   0.812   4.753
 8266SOL    HW225698   2.669   0.970   4.764
 8267SOL     OW25699   1.521   4.499   1.448
 8267SOL    HW125700   1.550   4.591   1.476
 8267SOL    HW225701   1.440   4.473   1.500
 8268SOL     OW25702   3.512   5.720   6.188
 8268SOL    HW125703   3.428   5.705   6.137
 8268SOL    HW225704   3.498   5.696   6.284
 8269SOL     OW25705   4.548   2.420   2.922
 8269SOL    HW125706   4.646   2.435   2.939
 8269SOL    HW225707   4.527   2.323   2.938
 8270SOL     OW25708   2.960   5.834   5.430
 8270SOL    HW125709   3.009   5.887   5.360
 8270SOL    HW225710   2.875   5.799   5.391
 8271SOL     OW25711   6.491   6.426   3.477
 8271SOL    HW125712   6.394   6.411   3.495
 8271SOL    HW225713   6.501   6.497   3.407
 8272SOL     OW25714   6.484   1.430   2.427
 8272SOL    HW125715   6.405   1.384   2.387
 8272SOL    HW225716   6.457   1.476   2.511
 8273SOL     OW25717   3.012   0.916   0.282
 8273SOL    HW125718   3.024   0.998   0.225
 8273SOL    HW225719   2.956   0.850   0.233
 8274SOL     OW25720   4.386   4.983   5.705
 8274SOL    HW125721   4.400   4.884   5.698
 8274SOL    HW225722   4.332   5.015   5.628
 8275SOL     OW25723   6.191   0.375   4.252
 8275SOL    HW125724   6.219   0.332   4.166
 8275SOL    HW225725   6.155   0.305   4.314
 8276SOL     OW25726   0.044   2.059   5.527
 8276SOL    HW125727   0.123   2.010   5.565
 8276SOL    HW225728   7.020   1.998   5.466
 8277SOL     OW25729   1.467   6.087   5.563
 8277SOL    HW125730   1.486   6.064   5.467
 8277SOL    HW225731   1.481   6.007   5.620
 8278SOL     OW25732   3.108   1.676   6.899
 8278SOL    HW125733   3.083   1.658   6.994
 8278SOL    HW225734   3.025   1.679   6.843
 8279SOL     OW25735   6.447   6.103   5.156
 8279SOL    HW125736   6.511   6.121   5.082
 8279SOL    HW225737   6.385   6.180   5.166
 8280SOL     OW25738   3.603   2.713   0.627
 8280SOL    HW125739   3.676   2.779   0.644
 8280SOL    HW225740   3.557   2.691   0.713
 8281SOL     OW25741   2.345   4.493   2.078
 8281SOL    HW125742   2.361   4.447   2.166
 8281SOL    HW225743   2.294   4.578   2.093
 8282SOL     OW25744   2.950   3.956   7.013
 8282SOL    HW125745   3.002   4.028   0.032
 8282SOL    HW225746   2.955   3.872   0.041
 8283SOL     OW25747   1.368   4.932   4.224
 8283SOL    HW125748   1.440   4.881   4.272
 8283SOL    HW225749   1.373   5.029   4.249
 8284SOL     OW25750   1.782   4.303   2.122
 8284SOL    HW125751   1.851   4.332   2.188
 8284SOL    HW225752   1.823   4.242   2.054
 8285SOL     OW25753   4.347   3.534   5.556
 8285SOL    HW125754   4.258   3.489   5.555
 8285SOL    HW225755   4.376   3.551   5.461
 8286SOL     OW25756   5.401   1.913   4.726
 8286SOL    HW125757   5.446   1.981   4.784
 8286SOL    HW225758   5.390   1.951   4.634
 8287SOL     OW25759   1.036   5.563   4.014
 8287SOL    HW125760   1.001   5.656   4.010
 8287SOL    HW225761   1.058   5.540   4.108
 8288SOL     OW25762   1.113   2.720   2.810
 8288SOL    HW125763   1.097   2.730   2.908
 8288SOL    HW225764   1.065   2.640   2.775
 8289SOL     OW25765   6.155   0.492   6.639
 8289SOL    HW125766   6.214   0.447   6.572
 8289SOL    HW225767   6.060   0.473   6.618
 8290SOL     OW25768   4.916   1.809   1.278
 8290SOL    HW125769   4.876   1.757   1.202
 8290SOL    HW225770   4.850   1.878   1.309
 8291SOL     OW25771   5.856   5.654   6.223
 8291SOL    HW125772   5.836   5.673   6.127
 8291SOL    HW225773   5.774   5.618   6.267
 8292SOL     OW25774   2.619   5.802   6.704
 8292SOL    HW125775   2.589   5.843   6.790
 8292SOL    HW225776   2.596   5.705   6.703
 8293SOL     OW25777   1.618   4.358   1.232
 8293SOL    HW125778   1.687   4.431   1.230
 8293SOL    HW225779   1.546   4.383   1.297
 8294SOL     OW25780   6.214   3.353   4.735
 8294SOL    HW125781   6.279   3.295   4.784
 8294SOL    HW225782   6.250   3.446   4.728
 8295SOL     OW25783   4.976   3.247   3.292
 8295SOL    HW125784   5.069   3.233   3.260
 8295SOL    HW225785   4.942   3.334   3.258
 8296SOL     OW25786   3.385   5.644   0.024
 8296SOL    HW125787   3.395   5.556   0.071
 8296SOL    HW225788   3.473   5.692   0.025
 8297SOL     OW25789   6.583   3.102   2.567
 8297SOL    HW125790   6.576   3.004   2.546
 8297SOL    HW225791   6.667   3.119   2.618
 8298SOL     OW25792   6.850   0.399   0.727
 8298SOL    HW125793   6.898   0.453   0.658
 8298SOL    HW225794   6.823   0.311   0.689
 8299SOL     OW25795   0.132   2.746   1.268
 8299SOL    HW125796   0.146   2.660   1.219
 8299SOL    HW225797   0.177   2.740   1.357
 8300SOL     OW25798   0.084   6.969   4.678
 8300SOL    HW125799   0.068   7.014   4.766
 8300SOL    HW225800   7.025   6.966   4.626
 8301SOL     OW25801   4.617   0.549   6.926
 8301SOL    HW125802   4.697   0.532   6.869
 8301SOL    HW225803   4.622   0.491   7.008
 8302SOL     OW25804   4.874   6.959   5.582
 8302SOL    HW125805   4.898   6.937   5.487
 8302SOL    HW225806   4.879   6.876   5.638
 8303SOL     OW25807   6.724   0.139   3.117
 8303SOL    HW125808   6.778   0.062   3.149
 8303SOL    HW225809   6.675   0.179   3.195
 8304SOL     OW25810   5.332   4.670   1.651
 8304SOL    HW125811   5.345   4.760   1.694
 8304SOL    HW225812   5.236   4.657   1.628
 8305SOL     OW25813   4.115   4.790   4.405
 8305SOL    HW125814   4.025   4.807   4.365
 8305SOL    HW225815   4.175   4.868   4.387
 8306SOL     OW25816   6.541   1.080   3.463
 8306SOL    HW125817   6.536   1.178   3.442
 8306SOL    HW225818   6.605   1.066   3.539
 8307SOL     OW25819   3.387   5.381   1.783
 8307SOL    HW125820   3.485   5.363   1.773
 8307SOL    HW225821   3.362   5.460   1.726
 8308SOL     OW25822   1.964   5.177   0.541
 8308SOL    HW125823   2.030   5.105   0.562
 8308SOL    HW225824   1.992   5.262   0.585
 8309SOL     OW25825   5.834   5.057   2.901
 8309SOL    HW125826   5.817   4.995   2.977
 8309SOL    HW225827   5.821   5.151   2.930
 8310SOL     OW25828   1.586   5.233   0.775
 8310SOL    HW125829   1.579   5.139   0.808
 8310SOL    HW225830   1.495   5.271   0.760
 8311SOL     OW25831   5.871   0.602   4.463
 8311SOL    HW125832   5.911   0.548   4.536
 8311SOL    HW225833   5.939   0.619   4.392
 8312SOL     OW25834   5.421   1.111   6.445
 8312SOL    HW125835   5.337   1.111   6.391
 8312SOL    HW225836   5.480   1.037   6.415
 8313SOL     OW25837   5.186   0.545   5.670
 8313SOL    HW125838   5.248   0.608   5.717
 8313SOL    HW225839   5.231   0.508   5.589
 8314SOL     OW25840   5.959   6.748   6.539
 8314SOL    HW125841   5.943   6.671   6.601
 8314SOL    HW225842   6.055   6.747   6.509
 8315SOL     OW25843   3.811   2.971   2.760
 8315SOL    HW125844   3.757   3.049   2.730
 8315SOL    HW225845   3.841   2.985   2.854
 8316SOL     OW25846   1.957   3.357   1.144
 8316SOL    HW125847   1.909   3.345   1.231
 8316SOL    HW225848   2.048   3.316   1.150
 8317SOL     OW25849   1.941   1.832   2.969
 8317SOL    HW125850   1.992   1.916   2.989
 8317SOL    HW225851   1.916   1.788   3.056
 8318SOL     OW25852   4.125   1.823   5.840
 8318SOL    HW125853   4.053   1.889   5.822
 8318SOL    HW225854   4.098   1.734   5.802
 8319SOL     OW25855   1.423   0.309   0.471
 8319SOL    HW125856   1.512   0.264   0.466
 8319SOL    HW225857   1.396   0.319   0.567
 8320SOL     OW25858   3.272   4.117   3.429
 8320SOL    HW125859   3.366   4.096   3.456
 8320SOL    HW225860   3.269   4.134   3.330
 8321SOL     OW25861   0.115   0.171   6.606
 8321SOL    HW125862   0.191   0.219   6.563
 8321SOL    HW225863   0.042   0.158   6.539
 8322SOL     OW25864   0.026   1.912   0.635
 8322SOL    HW125865   6.962   1.873   0.621
 8322SOL    HW225866   0.093   1.862   0.580
 8323SOL     OW25867   3.458   4.956   1.396
 8323SOL    HW125868   3.464   4.889   1.322
 8323SOL    HW225869   3.442   4.908   1.482
 8324SOL     OW25870   5.157   0.575   0.461
 8324SOL    HW125871   5.229   0.518   0.501
 8324SOL    HW225872   5.155   0.663   0.509
 8325SOL     OW25873   0.700   3.860   5.407
 8325SOL    HW125874   0.751   3.909   5.477
 8325SOL    HW225875   0.764   3.810   5.348
 8326SOL     OW25876   4.443   4.081   6.417
 8326SOL    HW125877   4.363   4.029   6.446
 8326SOL    HW225878   4.416   4.175   6.395
 8327SOL     OW25879   0.972   0.680   5.604
 8327SOL    HW125880   0.939   0.602   5.657
 8327SOL    HW225881   0.932   0.764   5.639
 8328SOL     OW25882   2.529   6.506   6.487
 8328SOL    HW125883   2.526   6.431   6.421
 8328SOL    HW225884   2.516   6.469   6.579
 8329SOL     OW25885   0.092   2.248   5.254
 8329SOL    HW125886   0.020   2.198   5.303
 8329SOL    HW225887   0.143   2.184   5.196
 8330SOL     OW25888   3.307   1.589   6.702
 8330SOL    HW125889   3.287   1.616   6.607
 8330SOL    HW225890   3.228   1.610   6.759
 8331SOL     OW25891   3.666   0.909   0.792
 8331SOL    HW125892   3.599   0.871   0.729
 8331SOL    HW225893   3.758   0.886   0.761
 8332SOL     OW25894   5.704   5.385   2.021
 8332SOL    HW125895   5.703   5.285   2.010
 8332SOL    HW225896   5.716   5.408   2.117
 8333SOL     OW25897   1.649   4.584   6.460
 8333SOL    HW125898   1.744   4.612   6.467
 8333SOL    HW225899   1.643   4.484   6.460
 8334SOL     OW25900   3.009   2.231   5.995
 8334SOL    HW125901   2.971   2.293   5.926
 8334SOL    HW225902   3.098   2.198   5.965
 8335SOL     OW25903   3.823   1.967   6.713
 8335SOL    HW125904   3.803   2.064   6.723
 8335SOL    HW225905   3.787   1.916   6.791
 8336SOL     OW25906   0.664   3.642   2.773
 8336SOL    HW125907   0.580   3.620   2.823
 8336SOL    HW225908   0.741   3.645   2.838
 8337SOL     OW25909   0.389   0.065   4.083
 8337SOL    HW125910   0.360   7.005   4.043
 8337SOL    HW225911   0.341   0.140   4.039
 8338SOL     OW25912   3.594   5.720   1.727
 8338SOL    HW125913   3.609   5.675   1.638
 8338SOL    HW225914   3.682   5.733   1.772
 8339SOL     OW25915   0.120   1.063   1.514
 8339SOL    HW125916   0.114   1.144   1.572
 8339SOL    HW225917   0.041   1.003   1.531
 8340SOL     OW25918   5.249   3.778   0.692
 8340SOL    HW125919   5.179   3.723   0.738
 8340SOL    HW225920   5.269   3.860   0.747
 8341SOL     OW25921   3.954   0.311   6.961
 8341SOL    HW125922   4.020   0.245   6.997
 8341SOL    HW225923   3.904   0.270   6.884
 8342SOL     OW25924   4.226   6.424   0.593
 8342SOL    HW125925   4.140   6.468   0.619
 8342SOL    HW225926   4.249   6.354   0.660
 8343SOL     OW25927   6.909   5.352   3.636
 8343SOL    HW125928   6.889   5.448   3.659
 8343SOL    HW225929   6.944   5.305   3.716
 8344SOL     OW25930   6.693   4.858   4.666
 8344SOL    HW125931   6.685   4.765   4.702
 8344SOL    HW225932   6.676   4.858   4.568
 8345SOL     OW25933   4.101   2.223   3.292
 8345SOL    HW125934   4.190   2.178   3.289
 8345SOL    HW225935   4.111   2.316   3.329
 8346SOL     OW25936   4.016   4.055   6.991
 8346SOL    HW125937   3.970   4.143   7.003
 8346SOL    HW225938   3.949   3.985   6.966
 8347SOL     OW25939   3.367   6.641   6.024
 8347SOL    HW125940   3.387   6.549   6.058
 8347SOL    HW225941   3.389   6.708   6.095
 8348SOL     OW25942   2.090   1.092   1.471
 8348SOL    HW125943   2.029   1.046   1.536
 8348SOL    HW225944   2.036   1.129   1.396
 8349SOL     OW25945   1.345   6.570   2.134
 8349SOL    HW125946   1.365   6.604   2.042
 8349SOL    HW225947   1.373   6.475   2.142
 8350SOL     OW25948   2.876   6.774   6.279
 8350SOL    HW125949   2.952   6.835   6.256
 8350SOL    HW225950   2.859   6.711   6.204
 8351SOL     OW25951   5.646   5.429   4.872
 8351SOL    HW125952   5.642   5.458   4.777
 8351SOL    HW225953   5.555   5.402   4.903
 8352SOL     OW25954   1.467   6.774   2.813
 8352SOL    HW125955   1.564   6.747   2.819
 8352SOL    HW225956   1.457   6.869   2.840
 8353SOL     OW25957   0.966   3.257   0.884
 8353SOL    HW125958   0.881   3.272   0.834
 8353SOL    HW225959   1.006   3.345   0.911
 8354SOL     OW25960   3.544   0.089   4.012
 8354SOL    HW125961   3.516   0.105   3.917
 8354SOL    HW225962   3.532   7.018   4.034
 8355SOL     OW25963   1.980   1.392   4.552
 8355SOL    HW125964   1.995   1.484   4.516
 8355SOL    HW225965   1.940   1.398   4.643
 8356SOL     OW25966   1.342   6.103   1.219
 8356SOL    HW125967   1.403   6.177   1.250
 8356SOL    HW225968   1.247   6.133   1.228
 8357SOL     OW25969   3.649   0.108   5.550
 8357SOL    HW125970   3.741   0.091   5.515
 8357SOL    HW225971   3.623   0.033   5.612
 8358SOL     OW25972   1.046   3.141   4.456
 8358SOL    HW125973   1.084   3.049   4.451
 8358SOL    HW225974   1.000   3.163   4.370
 8359SOL     OW25975   2.924   1.581   5.176
 8359SOL    HW125976   2.886   1.544   5.092
 8359SOL    HW225977   2.892   1.675   5.188
 8360SOL     OW25978   4.608   0.033   0.809
 8360SOL    HW125979   4.654   7.001   0.741
 8360SOL    HW225980   4.537   7.007   0.855
 8361SOL     OW25981   3.504   0.687   0.707
 8361SOL    HW125982   3.567   0.662   0.781
 8361SOL    HW225983   3.410   0.685   0.742
 8362SOL     OW25984   5.581   1.869   0.660
 8362SOL    HW125985   5.589   1.802   0.734
 8362SOL    HW225986   5.558   1.823   0.575
 8363SOL     OW25987   5.084   2.269   0.485
 8363SOL    HW125988   5.044   2.195   0.541
 8363SOL    HW225989   5.179   2.283   0.512
 8364SOL     OW25990   6.945   2.538   3.834
 8364SOL    HW125991   0.004   2.580   3.865
 8364SOL    HW225992   6.870   2.603   3.845
 8365SOL     OW25993   1.869   2.005   2.444
 8365SOL    HW125994   1.933   2.082   2.435
 8365SOL    HW225995   1.791   2.034   2.499
 8366SOL     OW25996   3.251   5.432   0.978
 8366SOL    HW125997   3.248   5.337   1.011
 8366SOL    HW225998   3.186   5.443   0.903
 8367SOL     OW25999   3.505   5.640   4.864
 8367SOL    HW126000   3.542   5.690   4.943
 8367SOL    HW226001   3.413   5.673   4.844
 8368SOL     OW26002   0.704   5.789   0.228
 8368SOL    HW126003   0.679   5.877   0.187
 8368SOL    HW226004   0.800   5.770   0.209
 8369SOL     OW26005   0.866   0.614   6.662
 8369SOL    HW126006   0.933   0.625   6.735
 8369SOL    HW226007   0.801   0.542   6.687
 8370SOL     OW26008   2.366   1.290   6.023
 8370SOL    HW126009   2.396   1.385   6.009
 8370SOL    HW226010   2.352   1.246   5.934
 8371SOL     OW26011   2.736   4.063   0.404
 8371SOL    HW126012   2.833   4.043   0.390
 8371SOL    HW226013   2.695   3.994   0.463
 8372SOL     OW26014   1.793   5.797   1.654
 8372SOL    HW126015   1.868   5.734   1.676
 8372SOL    HW226016   1.808   5.884   1.700
 8373SOL     OW26017   1.923   6.977   4.360
 8373SOL    HW126018   1.848   6.921   4.325
 8373SOL    HW226019   1.936   0.029   4.300
 8374SOL     OW26020   0.383   0.356   4.743
 8374SOL    HW126021   0.425   0.434   4.789
 8374SOL    HW226022   0.454   0.298   4.703
 8375SOL     OW26023   3.523   6.461   5.623
 8375SOL    HW126024   3.493   6.373   5.659
 8375SOL    HW226025   3.490   6.535   5.682
 8376SOL     OW26026   1.456   1.125   3.760
 8376SOL    HW126027   1.554   1.132   3.744
 8376SOL    HW226028   1.416   1.060   3.696
 8377SOL     OW26029   5.639   6.137   0.144
 8377SOL    HW126030   5.569   6.077   0.183
 8377SOL    HW226031   5.729   6.095   0.155
 8378SOL     OW26032   3.603   4.971   3.413
 8378SOL    HW126033   3.628   5.068   3.410
 8378SOL    HW226034   3.621   4.935   3.505
 8379SOL     OW26035   4.954   3.102   1.966
 8379SOL    HW126036   4.992   3.074   2.054
 8379SOL    HW226037   4.855   3.087   1.966
 8380SOL     OW26038   0.238   0.001   0.302
 8380SOL    HW126039   0.165   6.960   0.313
 8380SOL    HW226040   0.321   6.982   0.269
 8381SOL     OW26041   0.096   2.167   3.757
 8381SOL    HW126042   0.061   2.081   3.720
 8381SOL    HW226043   0.019   2.229   3.776
 8382SOL     OW26044   2.257   6.587   1.559
 8382SOL    HW126045   2.250   6.520   1.486
 8382SOL    HW226046   2.321   6.659   1.533
 8383SOL     OW26047   3.123   6.924   5.818
 8383SOL    HW126048   3.121   7.008   5.872
 8383SOL    HW226049   3.086   6.942   5.726
 8384SOL     OW26050   6.357   1.735   1.394
 8384SOL    HW126051   6.335   1.800   1.320
 8384SOL    HW226052   6.272   1.696   1.429
 8385SOL     OW26053   4.266   2.351   0.255
 8385SOL    HW126054   4.212   2.369   0.337
 8385SOL    HW226055   4.218   2.387   0.175
 8386SOL     OW26056   2.074   5.991   1.408
 8386SOL    HW126057   1.981   6.007   1.375
 8386SOL    HW226058   2.138   6.002   1.332
 8387SOL     OW26059   1.097   1.940   1.225
 8387SOL    HW126060   1.180   1.904   1.268
 8387SOL    HW226061   1.027   1.955   1.295
 8388SOL     OW26062   1.895   6.792   1.032
 8388SOL    HW126063   1.986   6.751   1.028
 8388SOL    HW226064   1.827   6.726   1.002
 8389SOL     OW26065   6.911   2.862   4.021
 8389SOL    HW126066   7.003   2.869   4.060
 8389SOL    HW226067   6.843   2.879   4.092
 8390SOL     OW26068   4.129   6.616   0.124
 8390SOL    HW126069   4.092   6.606   0.031
 8390SOL    HW226070   4.207   6.553   0.135
 8391SOL     OW26071   4.644   5.033   1.207
 8391SOL    HW126072   4.556   5.079   1.211
 8391SOL    HW226073   4.632   4.938   1.180
 8392SOL     OW26074   6.584   5.359   5.414
 8392SOL    HW126075   6.494   5.365   5.459
 8392SOL    HW226076   6.579   5.294   5.338
 8393SOL     OW26077   0.612   0.104   3.928
 8393SOL    HW126078   0.693   0.160   3.941
 8393SOL    HW226079   0.539   0.137   3.989
 8394SOL     OW26080   0.122   3.075   1.564
 8394SOL    HW126081   0.151   3.036   1.652
 8394SOL    HW226082   0.025   3.056   1.549
 8395SOL     OW26083   1.579   6.018   4.102
 8395SOL    HW126084   1.497   6.044   4.152
 8395SOL    HW226085   1.627   5.946   4.152
 8396SOL     OW26086   4.603   4.664   2.349
 8396SOL    HW126087   4.616   4.566   2.335
 8396SOL    HW226088   4.509   4.682   2.379
 8397SOL     OW26089   2.819   1.024   3.377
 8397SOL    HW126090   2.790   0.948   3.319
 8397SOL    HW226091   2.858   0.989   3.462
 8398SOL     OW26092   4.414   2.508   6.364
 8398SOL    HW126093   4.352   2.485   6.439
 8398SOL    HW226094   4.492   2.446   6.364
 8399SOL     OW26095   5.884   0.247   6.964
 8399SOL    HW126096   5.808   0.217   7.022
 8399SOL    HW226097   5.888   0.190   6.882
 8400SOL     OW26098   1.393   0.334   3.878
 8400SOL    HW126099   1.439   0.282   3.805
 8400SOL    HW226100   1.306   0.370   3.843
 8401SOL     OW26101   3.213   2.130   6.224
 8401SOL    HW126102   3.138   2.076   6.186
 8401SOL    HW226103   3.288   2.133   6.157
 8402SOL     OW26104   4.119   1.877   5.383
 8402SOL    HW126105   4.089   1.809   5.451
 8402SOL    HW226106   4.151   1.830   5.301
 8403SOL     OW26107   1.059   1.747   2.979
 8403SOL    HW126108   1.026   1.736   3.073
 8403SOL    HW226109   1.146   1.700   2.968
 8404SOL     OW26110   4.295   5.857   6.589
 8404SOL    HW126111   4.304   5.853   6.688
 8404SOL    HW226112   4.322   5.947   6.556
 8405SOL     OW26113   2.604   0.894   5.677
 8405SOL    HW126114   2.570   0.848   5.596
 8405SOL    HW226115   2.550   0.976   5.695
 8406SOL     OW26116   4.980   6.758   0.962
 8406SOL    HW126117   5.037   6.746   1.043
 8406SOL    HW226118   5.038   6.759   0.880
 8407SOL     OW26119   4.790   6.291   4.182
 8407SOL    HW126120   4.880   6.319   4.215
 8407SOL    HW226121   4.764   6.205   4.225
 8408SOL     OW26122   4.923   2.951   2.195
 8408SOL    HW126123   4.846   2.939   2.132
 8408SOL    HW226124   4.980   2.869   2.195
 8409SOL     OW26125   6.188   3.146   3.477
 8409SOL    HW126126   6.263   3.102   3.426
 8409SOL    HW226127   6.220   3.232   3.515
 8410SOL     OW26128   5.035   0.466   1.755
 8410SOL    HW126129   4.976   0.508   1.824
 8410SOL    HW226130   5.044   0.368   1.774
 8411SOL     OW26131   0.879   5.559   6.277
 8411SOL    HW126132   0.822   5.639   6.255
 8411SOL    HW226133   0.834   5.505   6.347
 8412SOL     OW26134   3.974   2.065   2.183
 8412SOL    HW126135   3.938   2.091   2.094
 8412SOL    HW226136   3.901   2.023   2.238
 8413SOL     OW26137   4.208   4.923   6.978
 8413SOL    HW126138   4.256   4.849   7.025
 8413SOL    HW226139   4.120   4.939   7.022
 8414SOL     OW26140   4.219   5.486   3.352
 8414SOL    HW126141   4.261   5.474   3.442
 8414SOL    HW226142   4.235   5.579   3.320
 8415SOL     OW26143   6.673   5.237   3.535
 8415SOL    HW126144   6.748   5.266   3.595
 8415SOL    HW226145   6.700   5.251   3.440
 8416SOL     OW26146   5.692   4.073   2.879
 8416SOL    HW126147   5.631   4.059   2.957
 8416SOL    HW226148   5.693   3.991   2.822
 8417SOL     OW26149   1.262   5.285   6.156
 8417SOL    HW126150   1.294   5.252   6.246
 8417SOL    HW226151   1.162   5.282   6.153
 8418SOL     OW26152   6.155   5.390   1.179
 8418SOL    HW126153   6.195   5.359   1.265
 8418SOL    HW226154   6.131   5.312   1.123
 8419SOL     OW26155   5.493   1.159   2.598
 8419SOL    HW126156   5.564   1.089   2.587
 8419SOL    HW226157   5.403   1.116   2.592
 8420SOL     OW26158   4.426   6.757   0.657
 8420SOL    HW126159   4.387   6.724   0.571
 8420SOL    HW226160   4.405   6.854   0.669
 8421SOL     OW26161   3.085   6.110   0.496
 8421SOL    HW126162   2.996   6.129   0.455
 8421SOL    HW226163   3.080   6.024   0.547
 8422SOL     OW26164   4.539   0.933   1.005
 8422SOL    HW126165   4.490   1.019   0.996
 8422SOL    HW226166   4.570   0.902   0.915
 8423SOL     OW26167   3.787   4.834   5.755
 8423SOL    HW126168   3.875   4.861   5.794
 8423SOL    HW226169   3.717   4.835   5.826
 8424SOL     OW26170   2.442   2.391   2.409
 8424SOL    HW126171   2.389   2.466   2.368
 8424SOL    HW226172   2.413   2.377   2.503
 8425SOL     OW26173   5.269   5.720   0.513
 8425SOL    HW126174   5.248   5.624   0.534
 8425SOL    HW226175   5.351   5.724   0.455
 8426SOL     OW26176   3.347   3.364   4.160
 8426SOL    HW126177   3.284   3.294   4.193
 8426SOL    HW226178   3.361   3.433   4.231
 8427SOL     OW26179   2.887   3.443   5.190
 8427SOL    HW126180   2.838   3.359   5.168
 8427SOL    HW226181   2.918   3.487   5.105
 8428SOL     OW26182   0.313   3.949   1.718
 8428SOL    HW126183   0.232   3.924   1.771
 8428SOL    HW226184   0.352   4.033   1.755
 8429SOL     OW26185   2.208   4.169   3.567
 8429SOL    HW126186   2.282   4.236   3.577
 8429SOL    HW226187   2.180   4.136   3.657
 8430SOL     OW26188   3.784   5.435   4.327
 8430SOL    HW126189   3.807   5.401   4.235
 8430SOL    HW226190   3.711   5.503   4.320
 8431SOL     OW26191   3.349   4.940   0.898
 8431SOL    HW126192   3.314   5.006   0.831
 8431SOL    HW226193   3.412   4.986   0.961
 8432SOL     OW26194   5.320   0.075   6.202
 8432SOL    HW126195   5.321   0.160   6.148
 8432SOL    HW226196   5.312   7.023   6.140
 8433SOL     OW26197   6.246   2.026   0.519
 8433SOL    HW126198   6.264   1.938   0.564
 8433SOL    HW226199   6.184   2.080   0.576
 8434SOL     OW26200   3.248   6.793   4.977
 8434SOL    HW126201   3.326   6.779   5.038
 8434SOL    HW226202   3.191   6.868   5.012
 8435SOL     OW26203   5.540   0.723   0.993
 8435SOL    HW126204   5.499   0.777   0.919
 8435SOL    HW226205   5.590   0.783   1.055
 8436SOL     OW26206   3.296   0.268   4.348
 8436SOL    HW126207   3.261   0.352   4.305
 8436SOL    HW226208   3.228   0.235   4.414
 8437SOL     OW26209   1.683   0.121   3.426
 8437SOL    HW126210   1.740   0.193   3.467
 8437SOL    HW226211   1.666   0.049   3.493
 8438SOL     OW26212   2.658   4.941   2.114
 8438SOL    HW126213   2.639   4.847   2.085
 8438SOL    HW226214   2.573   4.993   2.116
 8439SOL     OW26215   5.972   5.047   2.017
 8439SOL    HW126216   6.024   5.080   2.095
 8439SOL    HW226217   6.023   4.974   1.971
 8440SOL     OW26218   0.983   1.727   3.223
 8440SOL    HW126219   1.017   1.807   3.271
 8440SOL    HW226220   1.012   1.644   3.272
 8441SOL     OW26221   5.708   6.724   0.138
 8441SOL    HW126222   5.782   6.773   0.182
 8441SOL    HW226223   5.661   6.785   0.073
 8442SOL     OW26224   2.956   2.431   5.802
 8442SOL    HW126225   2.897   2.471   5.732
 8442SOL    HW226226   3.048   2.419   5.765
 8443SOL     OW26227   1.471   6.024   3.833
 8443SOL    HW126228   1.388   6.078   3.817
 8443SOL    HW226229   1.497   6.031   3.929
 8444SOL     OW26230   3.459   5.964   3.652
 8444SOL    HW126231   3.479   6.060   3.675
 8444SOL    HW226232   3.436   5.958   3.555
 8445SOL     OW26233   3.553   5.528   1.500
 8445SOL    HW126234   3.618   5.453   1.518
 8445SOL    HW226235   3.485   5.531   1.573
 8446SOL     OW26236   4.832   4.994   0.025
 8446SOL    HW126237   4.790   5.084   0.038
 8446SOL    HW226238   4.795   4.952   6.969
 8447SOL     OW26239   5.454   2.539   2.167
 8447SOL    HW126240   5.385   2.476   2.203
 8447SOL    HW226241   5.428   2.567   2.075
 8448SOL     OW26242   5.370   5.579   4.327
 8448SOL    HW126243   5.305   5.653   4.306
 8448SOL    HW226244   5.354   5.546   4.420
 8449SOL     OW26245   6.284   2.798   4.150
 8449SOL    HW126246   6.316   2.712   4.111
 8449SOL    HW226247   6.351   2.870   4.133
 8450SOL     OW26248   1.115   5.970   1.848
 8450SOL    HW126249   1.106   6.058   1.802
 8450SOL    HW226250   1.123   5.897   1.780
 8451SOL     OW26251   4.646   2.839   0.784
 8451SOL    HW126252   4.630   2.903   0.709
 8451SOL    HW226253   4.592   2.756   0.769
 8452SOL     OW26254   6.316   1.083   2.495
 8452SOL    HW126255   6.321   1.180   2.472
 8452SOL    HW226256   6.403   1.039   2.472
 8453SOL     OW26257   0.155   4.320   6.568
 8453SOL    HW126258   0.080   4.255   6.554
 8453SOL    HW226259   0.118   4.407   6.601
 8454SOL     OW26260   0.226   6.577   0.860
 8454SOL    HW126261   0.248   6.634   0.939
 8454SOL    HW226262   0.143   6.611   0.815
 8455SOL     OW26263   5.771   2.339   1.691
 8455SOL    HW126264   5.675   2.321   1.716
 8455SOL    HW226265   5.790   2.436   1.702
 8456SOL     OW26266   4.719   5.490   3.169
 8456SOL    HW126267   4.727   5.590   3.179
 8456SOL    HW226268   4.674   5.453   3.251
 8457SOL     OW26269   6.739   6.606   5.048
 8457SOL    HW126270   6.804   6.609   4.971
 8457SOL    HW226271   6.776   6.658   5.125
 8458SOL     OW26272   2.410   1.413   7.012
 8458SOL    HW126273   2.420   1.371   0.076
 8458SOL    HW226274   2.338   1.482   7.016
 8459SOL     OW26275   3.365   6.324   2.061
 8459SOL    HW126276   3.386   6.226   2.065
 8459SOL    HW226277   3.408   6.371   2.138
 8460SOL     OW26278   5.029   2.936   5.547
 8460SOL    HW126279   5.049   2.849   5.501
 8460SOL    HW226280   4.986   2.999   5.482
 8461SOL     OW26281   0.343   4.191   3.163
 8461SOL    HW126282   0.327   4.202   3.065
 8461SOL    HW226283   0.265   4.146   3.205
 8462SOL     OW26284   3.624   2.334   6.945
 8462SOL    HW126285   3.638   2.266   7.016
 8462SOL    HW226286   3.576   2.413   6.982
 8463SOL     OW26287   5.902   6.905   0.231
 8463SOL    HW126288   5.915   6.883   0.327
 8463SOL    HW226289   5.956   6.986   0.207
 8464SOL     OW26290   5.644   3.437   5.757
 8464SOL    HW126291   5.603   3.527   5.772
 8464SOL    HW226292   5.728   3.429   5.810
 8465SOL     OW26293   1.815   2.854   0.754
 8465SOL    HW126294   1.841   2.770   0.802
 8465SOL    HW226295   1.863   2.931   0.794
 8466SOL     OW26296   0.432   0.103   5.296
 8466SOL    HW126297   0.352   0.161   5.313
 8466SOL    HW226298   0.476   0.130   5.211
 8467SOL     OW26299   4.098   0.231   1.195
 8467SOL    HW126300   4.104   0.295   1.271
 8467SOL    HW226301   4.007   0.190   1.193
 8468SOL     OW26302   4.437   2.547   0.509
 8468SOL    HW126303   4.370   2.472   0.514
 8468SOL    HW226304   4.512   2.520   0.449
 8469SOL     OW26305   3.533   1.495   5.457
 8469SOL    HW126306   3.542   1.476   5.555
 8469SOL    HW226307   3.611   1.456   5.408
 8470SOL     OW26308   0.659   4.863   0.259
 8470SOL    HW126309   0.562   4.844   0.274
 8470SOL    HW226310   0.670   4.919   0.178
 8471SOL     OW26311   4.019   0.471   4.487
 8471SOL    HW126312   4.086   0.513   4.548
 8471SOL    HW226313   4.038   0.373   4.479
 8472SOL     OW26314   6.621   0.576   5.430
 8472SOL    HW126315   6.667   0.619   5.508
 8472SOL    HW226316   6.569   0.497   5.462
 8473SOL     OW26317   0.028   6.147   0.887
 8473SOL    HW126318   6.961   6.114   0.880
 8473SOL    HW226319   0.078   6.092   0.954
 8474SOL     OW26320   3.526   3.348   2.434
 8474SOL    HW126321   3.436   3.330   2.473
 8474SOL    HW226322   3.590   3.275   2.461
 8475SOL     OW26323   0.013   2.074   3.469
 8475SOL    HW126324   0.048   2.163   3.439
 8475SOL    HW226325   0.048   2.002   3.409
 8476SOL     OW26326   6.552   2.042   0.755
 8476SOL    HW126327   6.490   2.115   0.786
 8476SOL    HW226328   6.633   2.083   0.713
 8477SOL     OW26329   4.862   6.784   2.446
 8477SOL    HW126330   4.804   6.763   2.525
 8477SOL    HW226331   4.806   6.825   2.373
 8478SOL     OW26332   1.598   0.123   6.378
 8478SOL    HW126333   1.555   0.201   6.423
 8478SOL    HW226334   1.529   0.055   6.354
 8479SOL     OW26335   0.893   2.532   0.990
 8479SOL    HW126336   0.831   2.609   1.003
 8479SOL    HW226337   0.895   2.506   0.894
 8480SOL     OW26338   5.169   2.354   0.213
 8480SOL    HW126339   5.133   2.448   0.212
 8480SOL    HW226340   5.221   2.340   0.298
 8481SOL     OW26341   5.225   2.941   4.786
 8481SOL    HW126342   5.210   2.847   4.815
 8481SOL    HW226343   5.226   3.002   4.865
 8482SOL     OW26344   4.787   6.338   2.403
 8482SOL    HW126345   4.824   6.248   2.423
 8482SOL    HW226346   4.692   6.343   2.432
 8483SOL     OW26347   3.355   6.769   2.035
 8483SOL    HW126348   3.440   6.717   2.045
 8483SOL    HW226349   3.365   6.835   1.960
 8484SOL     OW26350   0.088   6.120   3.832
 8484SOL    HW126351   0.174   6.073   3.855
 8484SOL    HW226352   0.055   6.086   3.744
 8485SOL     OW26353   3.163   2.667   0.447
 8485SOL    HW126354   3.104   2.606   0.395
 8485SOL    HW226355   3.108   2.716   0.515
 8486SOL     OW26356   2.521   1.887   2.074
 8486SOL    HW126357   2.601   1.855   2.022
 8486SOL    HW226358   2.539   1.878   2.172
 8487SOL     OW26359   5.949   1.389   5.344
 8487SOL    HW126360   5.915   1.327   5.414
 8487SOL    HW226361   5.872   1.441   5.305
 8488SOL     OW26362   5.092   6.400   1.083
 8488SOL    HW126363   5.077   6.485   1.031
 8488SOL    HW226364   5.096   6.323   1.019
 8489SOL     OW26365   6.026   1.938   1.638
 8489SOL    HW126366   5.997   1.972   1.728
 8489SOL    HW226367   6.010   2.008   1.569
 8490SOL     OW26368   4.249   6.746   4.649
 8490SOL    HW126369   4.217   6.673   4.589
 8490SOL    HW226370   4.309   6.707   4.719
 8491SOL     OW26371   2.593   5.696   1.561
 8491SOL    HW126372   2.636   5.672   1.648
 8491SOL    HW226373   2.619   5.629   1.492
 8492SOL     OW26374   5.466   3.956   5.375
 8492SOL    HW126375   5.548   3.927   5.324
 8492SOL    HW226376   5.481   4.047   5.412
 8493SOL     OW26377   2.157   2.445   6.402
 8493SOL    HW126378   2.222   2.470   6.474
 8493SOL    HW226379   2.164   2.347   6.383
 8494SOL     OW26380   3.823   5.496   1.801
 8494SOL    HW126381   3.887   5.484   1.725
 8494SOL    HW226382   3.867   5.547   1.875
 8495SOL     OW26383   6.434   5.002   2.091
 8495SOL    HW126384   6.383   5.062   2.030
 8495SOL    HW226385   6.393   4.910   2.090
 8496SOL     OW26386   1.425   2.128   2.214
 8496SOL    HW126387   1.475   2.213   2.197
 8496SOL    HW226388   1.439   2.066   2.136
 8497SOL     OW26389   6.946   0.611   3.505
 8497SOL    HW126390   0.010   0.654   3.505
 8497SOL    HW226391   6.935   0.556   3.588
 8498SOL     OW26392   6.116   6.075   3.284
 8498SOL    HW126393   6.052   6.089   3.209
 8498SOL    HW226394   6.174   5.996   3.264
 8499SOL     OW26395   2.022   4.590   6.791
 8499SOL    HW126396   2.076   4.660   6.837
 8499SOL    HW226397   1.956   4.551   6.856
 8500SOL     OW26398   1.170   6.145   5.450
 8500SOL    HW126399   1.255   6.186   5.484
 8500SOL    HW226400   1.178   6.046   5.453
 8501SOL     OW26401   0.493   2.727   6.792
 8501SOL    HW126402   0.440   2.643   6.802
 8501SOL    HW226403   0.555   2.719   6.714
 8502SOL     OW26404   0.679   3.496   1.233
 8502SOL    HW126405   0.582   3.480   1.220
 8502SOL    HW226406   0.731   3.421   1.191
 8503SOL     OW26407   0.504   6.182   3.950
 8503SOL    HW126408   0.435   6.110   3.943
 8503SOL    HW226409   0.549   6.177   4.039
 8504SOL     OW26410   2.509   4.887   2.436
 8504SOL    HW126411   2.428   4.943   2.418
 8504SOL    HW226412   2.591   4.943   2.426
 8505SOL     OW26413   5.953   3.243   3.392
 8505SOL    HW126414   6.036   3.217   3.441
 8505SOL    HW226415   5.949   3.195   3.304
 8506SOL     OW26416   1.067   0.620   6.847
 8506SOL    HW126417   1.066   0.693   6.916
 8506SOL    HW226418   1.153   0.624   6.796
 8507SOL     OW26419   3.993   0.774   4.714
 8507SOL    HW126420   4.059   0.699   4.719
 8507SOL    HW226421   3.938   0.776   4.797
 8508SOL     OW26422   5.346   1.718   4.917
 8508SOL    HW126423   5.390   1.796   4.873
 8508SOL    HW226424   5.415   1.663   4.964
 8509SOL     OW26425   4.730   1.128   4.227
 8509SOL    HW126426   4.701   1.042   4.268
 8509SOL    HW226427   4.811   1.113   4.170
 8510SOL     OW26428   5.666   4.328   2.483
 8510SOL    HW126429   5.673   4.250   2.421
 8510SOL    HW226430   5.628   4.297   2.571
 8511SOL     OW26431   6.122   4.671   2.316
 8511SOL    HW126432   6.048   4.616   2.357
 8511SOL    HW226433   6.100   4.689   2.220
 8512SOL     OW26434   2.853   1.659   2.562
 8512SOL    HW126435   2.757   1.651   2.535
 8512SOL    HW226436   2.909   1.680   2.482
 8513SOL     OW26437   6.600   5.117   0.858
 8513SOL    HW126438   6.668   5.156   0.796
 8513SOL    HW226439   6.539   5.190   0.890
 8514SOL     OW26440   2.199   2.183   4.374
 8514SOL    HW126441   2.292   2.208   4.348
 8514SOL    HW226442   2.161   2.254   4.433
 8515SOL     OW26443   4.744   2.007   1.319
 8515SOL    HW126444   4.712   2.002   1.225
 8515SOL    HW226445   4.682   1.957   1.379
 8516SOL     OW26446   6.547   1.765   2.061
 8516SOL    HW126447   6.615   1.718   2.117
 8516SOL    HW226448   6.455   1.736   2.087
 8517SOL     OW26449   0.812   2.482   6.369
 8517SOL    HW126450   0.788   2.398   6.419
 8517SOL    HW226451   0.778   2.561   6.419
 8518SOL     OW26452   4.392   4.707   0.071
 8518SOL    HW126453   4.319   4.639   0.071
 8518SOL    HW226454   4.481   4.662   0.076
 8519SOL     OW26455   1.655   4.837   2.170
 8519SOL    HW126456   1.713   4.801   2.243
 8519SOL    HW226457   1.705   4.834   2.083
 8520SOL     OW26458   3.433   2.699   0.401
 8520SOL    HW126459   3.461   2.704   0.497
 8520SOL    HW226460   3.334   2.686   0.397
 8521SOL     OW26461   1.538   4.560   6.189
 8521SOL    HW126462   1.471   4.623   6.151
 8521SOL    HW226463   1.554   4.583   6.286
 8522SOL     OW26464   1.429   5.612   1.506
 8522SOL    HW126465   1.467   5.623   1.598
 8522SOL    HW226466   1.330   5.624   1.508
 8523SOL     OW26467   3.152   0.227   6.545
 8523SOL    HW126468   3.199   0.314   6.528
 8523SOL    HW226469   3.072   0.220   6.486
 8524SOL     OW26470   1.193   2.370   4.837
 8524SOL    HW126471   1.195   2.287   4.893
 8524SOL    HW226472   1.190   2.450   4.896
 8525SOL     OW26473   6.061   4.030   3.180
 8525SOL    HW126474   6.103   3.963   3.241
 8525SOL    HW226475   6.099   4.021   3.088
 8526SOL     OW26476   3.569   5.189   6.978
 8526SOL    HW126477   3.603   5.272   7.023
 8526SOL    HW226478   3.513   5.214   6.899
 8527SOL     OW26479   3.247   0.584   5.090
 8527SOL    HW126480   3.325   0.540   5.046
 8527SOL    HW226481   3.262   0.683   5.093
 8528SOL     OW26482   4.783   2.607   6.264
 8528SOL    HW126483   4.732   2.691   6.248
 8528SOL    HW226484   4.778   2.548   6.183
 8529SOL     OW26485   0.533   6.946   0.515
 8529SOL    HW126486   0.461   6.964   0.447
 8529SOL    HW226487   0.494   6.952   0.607
 8530SOL     OW26488   2.194   4.167   5.276
 8530SOL    HW126489   2.269   4.149   5.212
 8530SOL    HW226490   2.184   4.089   5.338
 8531SOL     OW26491   6.787   4.169   1.437
 8531SOL    HW126492   6.797   4.259   1.394
 8531SOL    HW226493   6.843   4.102   1.390
 8532SOL     OW26494   4.024   4.840   4.652
 8532SOL    HW126495   4.065   4.797   4.571
 8532SOL    HW226496   3.925   4.837   4.645
 8533SOL     OW26497   1.904   0.217   5.771
 8533SOL    HW126498   1.951   0.302   5.791
 8533SOL    HW226499   1.895   0.206   5.672
 8534SOL     OW26500   6.588   3.469   4.167
 8534SOL    HW126501   6.514   3.520   4.124
 8534SOL    HW226502   6.563   3.446   4.261
 8535SOL     OW26503   0.363   2.127   5.033
 8535SOL    HW126504   0.386   2.223   5.047
 8535SOL    HW226505   0.446   2.075   5.016
 8536SOL     OW26506   5.998   2.232   4.965
 8536SOL    HW126507   6.018   2.163   4.895
 8536SOL    HW226508   5.933   2.195   5.031
 8537SOL     OW26509   5.506   1.429   2.563
 8537SOL    HW126510   5.501   1.333   2.593
 8537SOL    HW226511   5.490   1.434   2.465
 8538SOL     OW26512   1.254   1.665   5.996
 8538SOL    HW126513   1.220   1.758   5.986
 8538SOL    HW226514   1.255   1.620   5.907
 8539SOL     OW26515   6.515   1.446   1.783
 8539SOL    HW126516   6.544   1.539   1.765
 8539SOL    HW226517   6.416   1.438   1.769
 8540SOL     OW26518   3.908   1.779   0.287
 8540SOL    HW126519   3.971   1.728   0.346
 8540SOL    HW226520   3.822   1.794   0.335
 8541SOL     OW26521   3.194   2.113   4.348
 8541SOL    HW126522   3.135   2.174   4.296
 8541SOL    HW226523   3.178   2.018   4.320
 8542SOL     OW26524   2.403   4.601   5.779
 8542SOL    HW126525   2.460   4.675   5.816
 8542SOL    HW226526   2.461   4.537   5.728
 8543SOL     OW26527   3.114   1.261   7.008
 8543SOL    HW126528   3.107   1.262   0.082
 8543SOL    HW226529   3.182   1.329   6.980
 8544SOL     OW26530   5.546   2.989   4.488
 8544SOL    HW126531   5.633   2.965   4.444
 8544SOL    HW226532   5.549   3.083   4.520
 8545SOL     OW26533   4.526   6.982   5.061
 8545SOL    HW126534   4.505   6.973   5.158
 8545SOL    HW226535   4.601   0.021   5.050
 8546SOL     OW26536   0.633   6.918   2.881
 8546SOL    HW126537   0.632   6.988   2.952
 8546SOL    HW226538   0.626   6.827   2.923
 8547SOL     OW26539   0.763   0.038   6.718
 8547SOL    HW126540   0.680   7.009   6.726
 8547SOL    HW226541   0.843   7.008   6.733
 8548SOL     OW26542   6.935   3.168   6.062
 8548SOL    HW126543   6.938   3.128   6.154
 8548SOL    HW226544   6.883   3.253   6.065
 8549SOL     OW26545   0.976   2.606   4.244
 8549SOL    HW126546   0.927   2.555   4.173
 8549SOL    HW226547   0.931   2.592   4.332
 8550SOL     OW26548   1.042   5.187   0.471
 8550SOL    HW126549   1.038   5.150   0.379
 8550SOL    HW226550   0.961   5.244   0.488
 8551SOL     OW26551   2.764   3.014   0.245
 8551SOL    HW126552   2.666   3.034   0.246
 8551SOL    HW226553   2.791   2.972   0.332
 8552SOL     OW26554   2.305   0.643   2.584
 8552SOL    HW126555   2.267   0.724   2.540
 8552SOL    HW226556   2.238   0.568   2.580
 8553SOL     OW26557   3.866   4.491   6.845
 8553SOL    HW126558   3.863   4.545   6.930
 8553SOL    HW226559   3.842   4.550   6.768
 8554SOL     OW26560   0.199   5.728   0.384
 8554SOL    HW126561   0.126   5.717   0.451
 8554SOL    HW226562   0.277   5.671   0.411
 8555SOL     OW26563   3.265   1.006   3.540
 8555SOL    HW126564   3.280   1.058   3.624
 8555SOL    HW226565   3.239   1.069   3.467
 8556SOL     OW26566   2.263   6.738   5.417
 8556SOL    HW126567   2.352   6.699   5.395
 8556SOL    HW226568   2.231   6.704   5.505
 8557SOL     OW26569   6.041   6.700   2.259
 8557SOL    HW126570   6.018   6.798   2.261
 8557SOL    HW226571   5.960   6.648   2.231
 8558SOL     OW26572   2.464   5.509   3.426
 8558SOL    HW126573   2.544   5.542   3.475
 8558SOL    HW226574   2.404   5.585   3.405
 8559SOL     OW26575   2.138   6.985   2.552
 8559SOL    HW126576   2.226   6.971   2.598
 8559SOL    HW226577   2.082   6.904   2.564
 8560SOL     OW26578   1.256   5.882   2.081
 8560SOL    HW126579   1.256   5.954   2.150
 8560SOL    HW226580   1.185   5.900   2.013
 8561SOL     OW26581   3.700   0.080   2.922
 8561SOL    HW126582   3.704   7.008   2.911
 8561SOL    HW226583   3.755   0.124   2.851
 8562SOL     OW26584   3.906   6.575   6.395
 8562SOL    HW126585   3.893   6.494   6.337
 8562SOL    HW226586   3.874   6.555   6.488
 8563SOL     OW26587   0.825   4.784   1.579
 8563SOL    HW126588   0.919   4.751   1.581
 8563SOL    HW226589   0.764   4.712   1.613
 8564SOL     OW26590   2.875   0.105   4.797
 8564SOL    HW126591   2.924   0.061   4.871
 8564SOL    HW226592   2.848   0.197   4.825
 8565SOL     OW26593   3.763   5.140   0.977
 8565SOL    HW126594   3.788   5.236   0.961
 8565SOL    HW226595   3.672   5.137   1.019
 8566SOL     OW26596   0.390   6.375   1.537
 8566SOL    HW126597   0.336   6.369   1.453
 8566SOL    HW226598   0.371   6.463   1.581
 8567SOL     OW26599   6.820   1.878   2.485
 8567SOL    HW126600   6.854   1.790   2.517
 8567SOL    HW226601   6.728   1.893   2.521
 8568SOL     OW26602   5.366   1.637   6.843
 8568SOL    HW126603   5.379   1.539   6.856
 8568SOL    HW226604   5.284   1.667   6.892
 8569SOL     OW26605   4.818   1.462   5.777
 8569SOL    HW126606   4.917   1.474   5.783
 8569SOL    HW226607   4.786   1.499   5.690
 8570SOL     OW26608   1.373   1.501   3.927
 8570SOL    HW126609   1.389   1.439   4.004
 8570SOL    HW226610   1.291   1.473   3.878
 8571SOL     OW26611   0.372   6.036   5.822
 8571SOL    HW126612   0.371   5.936   5.830
 8571SOL    HW226613   0.440   6.074   5.884
 8572SOL     OW26614   2.291   4.422   5.965
 8572SOL    HW126615   2.342   4.372   6.035
 8572SOL    HW226616   2.349   4.492   5.925
 8573SOL     OW26617   3.169   6.133   6.573
 8573SOL    HW126618   3.252   6.087   6.605
 8573SOL    HW226619   3.190   6.187   6.492
 8574SOL     OW26620   6.315   0.030   6.362
 8574SOL    HW126621   6.361   6.973   6.394
 8574SOL    HW226622   6.305   0.094   6.439
 8575SOL     OW26623   2.359   2.091   3.300
 8575SOL    HW126624   2.264   2.120   3.300
 8575SOL    HW226625   2.379   2.041   3.385
 8576SOL     OW26626   1.491   4.543   4.423
 8576SOL    HW126627   1.494   4.607   4.500
 8576SOL    HW226628   1.402   4.496   4.423
 8577SOL     OW26629   1.534   6.677   5.224
 8577SOL    HW126630   1.504   6.605   5.286
 8577SOL    HW226631   1.513   6.767   5.263
 8578SOL     OW26632   6.353   5.613   4.909
 8578SOL    HW126633   6.443   5.588   4.943
 8578SOL    HW226634   6.282   5.571   4.965
 8579SOL     OW26635   1.694   6.709   2.071
 8579SOL    HW126636   1.612   6.722   2.015
 8579SOL    HW226637   1.688   6.621   2.118
 8580SOL     OW26638   1.842   6.002   0.804
 8580SOL    HW126639   1.893   6.087   0.795
 8580SOL    HW226640   1.816   5.988   0.900
 8581SOL     OW26641   3.227   4.068   1.666
 8581SOL    HW126642   3.230   4.167   1.651
 8581SOL    HW226643   3.162   4.026   1.602
 8582SOL     OW26644   4.840   4.164   4.885
 8582SOL    HW126645   4.833   4.139   4.982
 8582SOL    HW226646   4.834   4.081   4.829
 8583SOL     OW26647   4.113   0.216   4.321
 8583SOL    HW126648   4.176   0.141   4.344
 8583SOL    HW226649   4.022   0.195   4.356
 8584SOL     OW26650   0.697   6.037   6.207
 8584SOL    HW126651   0.666   5.968   6.273
 8584SOL    HW226652   0.794   6.055   6.220
 8585SOL     OW26653   6.250   1.465   6.749
 8585SOL    HW126654   6.269   1.523   6.828
 8585SOL    HW226655   6.201   1.517   6.679
 8586SOL     OW26656   3.283   6.445   1.811
 8586SOL    HW126657   3.306   6.377   1.742
 8586SOL    HW226658   3.308   6.411   1.901
 8587SOL     OW26659   0.970   0.854   4.842
 8587SOL    HW126660   0.909   0.786   4.882
 8587SOL    HW226661   0.952   0.862   4.744
 8588SOL     OW26662   4.226   1.089   0.148
 8588SOL    HW126663   4.159   1.162   0.138
 8588SOL    HW226664   4.318   1.126   0.137
 8589SOL     OW26665   5.721   2.639   5.434
 8589SOL    HW126666   5.684   2.546   5.434
 8589SOL    HW226667   5.791   2.647   5.363
 8590SOL     OW26668   0.332   0.192   2.778
 8590SOL    HW126669   0.379   0.280   2.778
 8590SOL    HW226670   0.386   0.124   2.728
 8591SOL     OW26671   0.255   4.038   0.268
 8591SOL    HW126672   0.213   3.949   0.285
 8591SOL    HW226673   0.338   4.046   0.323
 8592SOL     OW26674   5.698   2.089   6.539
 8592SOL    HW126675   5.620   2.033   6.566
 8592SOL    HW226676   5.664   2.176   6.502
 8593SOL     OW26677   3.093   1.343   0.305
 8593SOL    HW126678   3.007   1.310   0.266
 8593SOL    HW226679   3.083   1.349   0.405
 8594SOL     OW26680   5.132   2.422   5.501
 8594SOL    HW126681   5.038   2.389   5.499
 8594SOL    HW226682   5.169   2.421   5.408
 8595SOL     OW26683   0.582   0.884   3.886
 8595SOL    HW126684   0.561   0.964   3.941
 8595SOL    HW226685   0.517   0.878   3.810
 8596SOL     OW26686   1.202   4.591   2.932
 8596SOL    HW126687   1.214   4.681   2.891
 8596SOL    HW226688   1.142   4.598   3.012
 8597SOL     OW26689   4.698   1.869   1.778
 8597SOL    HW126690   4.614   1.887   1.727
 8597SOL    HW226691   4.676   1.857   1.875
 8598SOL     OW26692   5.880   0.483   6.867
 8598SOL    HW126693   5.975   0.514   6.862
 8598SOL    HW226694   5.878   0.386   6.891
 8599SOL     OW26695   1.790   2.035   4.260
 8599SOL    HW126696   1.738   1.980   4.194
 8599SOL    HW226697   1.734   2.114   4.288
 8600SOL     OW26698   5.228   3.800   6.531
 8600SOL    HW126699   5.282   3.720   6.505
 8600SOL    HW226700   5.220   3.862   6.452
 8601SOL     OW26701   0.934   1.336   4.100
 8601SOL    HW126702   1.012   1.319   4.161
 8601SOL    HW226703   0.873   1.403   4.143
 8602SOL     OW26704   3.021   6.448   2.762
 8602SOL    HW126705   3.028   6.410   2.669
 8602SOL    HW226706   3.079   6.394   2.823
 8603SOL     OW26707   5.201   6.014   1.073
 8603SOL    HW126708   5.266   5.938   1.069
 8603SOL    HW226709   5.213   6.063   1.159
 8604SOL     OW26710   1.066   2.380   5.295
 8604SOL    HW126711   1.124   2.341   5.223
 8604SOL    HW226712   0.971   2.379   5.264
 8605SOL     OW26713   2.034   5.650   4.219
 8605SOL    HW126714   2.043   5.557   4.184
 8605SOL    HW226715   2.008   5.712   4.145
 8606SOL     OW26716   2.207   3.344   6.793
 8606SOL    HW126717   2.260   3.412   6.843
 8606SOL    HW226718   2.214   3.362   6.695
 8607SOL     OW26719   3.379   4.921   6.239
 8607SOL    HW126720   3.382   4.930   6.140
 8607SOL    HW226721   3.332   4.835   6.263
 8608SOL     OW26722   2.973   4.835   2.418
 8608SOL    HW126723   2.953   4.820   2.321
 8608SOL    HW226724   2.916   4.775   2.474
 8609SOL     OW26725   5.060   0.399   3.067
 8609SOL    HW126726   5.081   0.440   2.978
 8609SOL    HW226727   5.059   0.471   3.136
 8610SOL     OW26728   1.495   1.540   3.183
 8610SOL    HW126729   1.508   1.443   3.203
 8610SOL    HW226730   1.469   1.588   3.267
 8611SOL     OW26731   2.886   1.990   4.334
 8611SOL    HW126732   2.933   1.929   4.271
 8611SOL    HW226733   2.834   1.936   4.401
 8612SOL     OW26734   2.572   3.060   1.039
 8612SOL    HW126735   2.630   2.997   1.090
 8612SOL    HW226736   2.608   3.153   1.048
 8613SOL     OW26737   2.856   1.513   2.067
 8613SOL    HW126738   2.864   1.577   1.991
 8613SOL    HW226739   2.925   1.441   2.058
 8614SOL     OW26740   0.845   2.827   3.943
 8614SOL    HW126741   0.763   2.773   3.923
 8614SOL    HW226742   0.923   2.789   3.892
 8615SOL     OW26743   4.416   2.111   5.196
 8615SOL    HW126744   4.424   2.042   5.267
 8615SOL    HW226745   4.361   2.075   5.120
 8616SOL     OW26746   3.097   4.658   1.760
 8616SOL    HW126747   3.123   4.720   1.834
 8616SOL    HW226748   3.018   4.603   1.788
 8617SOL     OW26749   5.720   1.490   5.254
 8617SOL    HW126750   5.739   1.508   5.157
 8617SOL    HW226751   5.640   1.431   5.261
 8618SOL     OW26752   6.211   5.111   0.956
 8618SOL    HW126753   6.146   5.142   1.025
 8618SOL    HW226754   6.224   5.012   0.965
 8619SOL     OW26755   4.143   5.040   2.004
 8619SOL    HW126756   4.129   4.956   2.057
 8619SOL    HW226757   4.083   5.112   2.039
 8620SOL     OW26758   1.689   6.698   3.099
 8620SOL    HW126759   1.744   6.719   3.018
 8620SOL    HW226760   1.601   6.744   3.093
 8621SOL     OW26761   5.564   2.011   2.503
 8621SOL    HW126762   5.644   1.999   2.443
 8621SOL    HW226763   5.593   2.006   2.598
 8622SOL     OW26764   4.879   3.697   1.284
 8622SOL    HW126765   4.943   3.630   1.320
 8622SOL    HW226766   4.793   3.652   1.260
 8623SOL     OW26767   1.207   3.911   4.556
 8623SOL    HW126768   1.205   3.948   4.463
 8623SOL    HW226769   1.173   3.817   4.554
 8624SOL     OW26770   1.973   3.786   4.649
 8624SOL    HW126771   1.984   3.687   4.660
 8624SOL    HW226772   1.953   3.807   4.553
 8625SOL     OW26773   4.584   1.379   6.098
 8625SOL    HW126774   4.655   1.430   6.147
 8625SOL    HW226775   4.620   1.347   6.011
 8626SOL     OW26776   3.954   2.436   6.709
 8626SOL    HW126777   4.023   2.497   6.748
 8626SOL    HW226778   3.890   2.489   6.653
 8627SOL     OW26779   1.047   1.595   2.600
 8627SOL    HW126780   1.033   1.691   2.622
 8627SOL    HW226781   1.011   1.538   2.674
 8628SOL     OW26782   5.993   6.588   0.362
 8628SOL    HW126783   6.002   6.488   0.367
 8628SOL    HW226784   6.069   6.624   0.307
 8629SOL     OW26785   2.008   6.398   4.954
 8629SOL    HW126786   2.051   6.485   4.978
 8629SOL    HW226787   2.056   6.357   4.876
 8630SOL     OW26788   5.662   3.744   4.235
 8630SOL    HW126789   5.646   3.648   4.254
 8630SOL    HW226790   5.577   3.788   4.207
 8631SOL     OW26791   0.561   5.348   6.641
 8631SOL    HW126792   0.646   5.371   6.593
 8631SOL    HW226793   0.549   5.248   6.641
 8632SOL     OW26794   4.454   4.815   5.379
 8632SOL    HW126795   4.367   4.861   5.397
 8632SOL    HW226796   4.528   4.882   5.388
 8633SOL     OW26797   5.526   2.027   5.975
 8633SOL    HW126798   5.575   2.111   5.951
 8633SOL    HW226799   5.563   1.950   5.923
 8634SOL     OW26800   4.979   3.920   6.939
 8634SOL    HW126801   4.904   3.858   6.913
 8634SOL    HW226802   5.027   3.949   6.856
 8635SOL     OW26803   4.848   3.081   6.549
 8635SOL    HW126804   4.764   3.132   6.563
 8635SOL    HW226805   4.926   3.142   6.557
 8636SOL     OW26806   5.714   5.751   0.934
 8636SOL    HW126807   5.747   5.697   1.012
 8636SOL    HW226808   5.622   5.785   0.953
 8637SOL     OW26809   2.801   0.832   0.035
 8637SOL    HW126810   2.865   0.907   0.018
 8637SOL    HW226811   2.741   0.820   6.982
 8638SOL     OW26812   3.330   2.079   5.009
 8638SOL    HW126813   3.318   1.994   5.059
 8638SOL    HW226814   3.258   2.144   5.035
 8639SOL     OW26815   5.429   2.482   0.398
 8639SOL    HW126816   5.440   2.544   0.476
 8639SOL    HW226817   5.461   2.528   0.315
 8640SOL     OW26818   4.155   3.498   0.198
 8640SOL    HW126819   4.097   3.430   0.242
 8640SOL    HW226820   4.198   3.555   0.268
 8641SOL     OW26821   4.246   4.735   4.106
 8641SOL    HW126822   4.327   4.678   4.096
 8641SOL    HW226823   4.217   4.737   4.201
 8642SOL     OW26824   0.886   6.078   4.391
 8642SOL    HW126825   0.892   6.169   4.433
 8642SOL    HW226826   0.905   6.085   4.293
 8643SOL     OW26827   2.710   0.749   5.920
 8643SOL    HW126828   2.709   0.810   5.999
 8643SOL    HW226829   2.686   0.799   5.838
 8644SOL     OW26830   5.632   2.303   5.557
 8644SOL    HW126831   5.541   2.263   5.563
 8644SOL    HW226832   5.681   2.262   5.480
 8645SOL     OW26833   4.214   4.245   0.973
 8645SOL    HW126834   4.153   4.211   1.045
 8645SOL    HW226835   4.309   4.233   1.002
 8646SOL     OW26836   0.227   1.683   0.506
 8646SOL    HW126837   0.168   1.609   0.539
 8646SOL    HW226838   0.300   1.699   0.572
 8647SOL     OW26839   2.396   4.938   6.747
 8647SOL    HW126840   2.333   5.008   6.712
 8647SOL    HW226841   2.489   4.961   6.718
 8648SOL     OW26842   6.595   6.943   2.578
 8648SOL    HW126843   6.622   6.850   2.603
 8648SOL    HW226844   6.498   6.943   2.554
 8649SOL     OW26845   5.399   5.967   7.012
 8649SOL    HW126846   5.336   5.893   0.006
 8649SOL    HW226847   5.489   5.930   6.989
 8650SOL     OW26848   1.546   5.193   4.657
 8650SOL    HW126849   1.479   5.126   4.687
 8650SOL    HW226850   1.542   5.201   4.557
 8651SOL     OW26851   4.326   1.342   0.676
 8651SOL    HW126852   4.282   1.365   0.589
 8651SOL    HW226853   4.256   1.335   0.747
 8652SOL     OW26854   1.733   5.041   3.397
 8652SOL    HW126855   1.803   4.969   3.403
 8652SOL    HW226856   1.655   5.007   3.346
 8653SOL     OW26857   6.776   1.072   6.354
 8653SOL    HW126858   6.785   1.086   6.452
 8653SOL    HW226859   6.786   1.159   6.307
 8654SOL     OW26860   0.759   4.750   2.607
 8654SOL    HW126861   0.724   4.815   2.675
 8654SOL    HW226862   0.830   4.693   2.649
 8655SOL     OW26863   6.235   0.249   3.939
 8655SOL    HW126864   6.150   0.251   3.886
 8655SOL    HW226865   6.313   0.262   3.878
 8656SOL     OW26866   6.606   0.428   1.916
 8656SOL    HW126867   6.604   0.332   1.942
 8656SOL    HW226868   6.604   0.485   1.998
 8657SOL     OW26869   5.206   5.779   0.118
 8657SOL    HW126870   5.271   5.705   0.101
 8657SOL    HW226871   5.125   5.743   0.164
 8658SOL     OW26872   6.249   6.559   0.219
 8658SOL    HW126873   6.261   6.463   0.193
 8658SOL    HW226874   6.238   6.615   0.137
 8659SOL     OW26875   4.733   2.533   2.009
 8659SOL    HW126876   4.721   2.483   2.094
 8659SOL    HW226877   4.676   2.493   1.937
 8660SOL     OW26878   6.896   3.677   1.934
 8660SOL    HW126879   6.849   3.590   1.917
 8660SOL    HW226880   6.836   3.752   1.905
 8661SOL     OW26881   6.969   4.020   1.330
 8661SOL    HW126882   7.008   4.098   1.281
 8661SOL    HW226883   0.015   3.955   1.352
 8662SOL     OW26884   4.382   5.719   1.840
 8662SOL    HW126885   4.413   5.624   1.849
 8662SOL    HW226886   4.341   5.750   1.926
 8663SOL     OW26887   2.858   5.288   2.386
 8663SOL    HW126888   2.935   5.315   2.445
 8663SOL    HW226889   2.796   5.365   2.375
 8664SOL     OW26890   1.753   6.006   1.238
 8664SOL    HW126891   1.804   5.928   1.274
 8664SOL    HW226892   1.749   6.000   1.139
 8665SOL     OW26893   5.757   5.376   5.327
 8665SOL    HW126894   5.736   5.335   5.238
 8665SOL    HW226895   5.711   5.325   5.399
 8666SOL     OW26896   5.756   0.787   3.713
 8666SOL    HW126897   5.661   0.759   3.701
 8666SOL    HW226898   5.811   0.752   3.637
 8667SOL     OW26899   4.010   1.819   3.920
 8667SOL    HW126900   4.057   1.780   3.841
 8667SOL    HW226901   3.932   1.762   3.945
 8668SOL     OW26902   5.352   3.699   3.078
 8668SOL    HW126903   5.347   3.785   3.128
 8668SOL    HW226904   5.297   3.629   3.124
 8669SOL     OW26905   0.641   6.611   6.497
 8669SOL    HW126906   0.656   6.520   6.458
 8669SOL    HW226907   0.683   6.616   6.588
 8670SOL     OW26908   3.910   5.181   5.580
 8670SOL    HW126909   3.905   5.086   5.549
 8670SOL    HW226910   3.818   5.220   5.580
 8671SOL     OW26911   5.499   1.497   3.215
 8671SOL    HW126912   5.496   1.523   3.312
 8671SOL    HW226913   5.572   1.548   3.170
 8672SOL     OW26914   0.900   5.240   4.006
 8672SOL    HW126915   0.933   5.308   3.941
 8672SOL    HW226916   0.811   5.269   4.042
 8673SOL     OW26917   5.593   2.326   7.011
 8673SOL    HW126918   5.505   2.297   0.022
 8673SOL    HW226919   5.665   2.262   0.011
 8674SOL     OW26920   5.330   5.640   2.389
 8674SOL    HW126921   5.357   5.726   2.432
 8674SOL    HW226922   5.385   5.626   2.306
 8675SOL     OW26923   4.415   1.796   5.066
 8675SOL    HW126924   4.455   1.733   4.999
 8675SOL    HW226925   4.379   1.876   5.019
 8676SOL     OW26926   5.705   6.575   3.211
 8676SOL    HW126927   5.682   6.667   3.178
 8676SOL    HW226928   5.781   6.581   3.276
 8677SOL     OW26929   2.131   5.105   6.275
 8677SOL    HW126930   2.073   5.112   6.194
 8677SOL    HW226931   2.194   5.028   6.264
 8678SOL     OW26932   0.637   0.393   1.363
 8678SOL    HW126933   0.635   0.318   1.429
 8678SOL    HW226934   0.651   0.357   1.271
 8679SOL     OW26935   0.877   1.289   3.287
 8679SOL    HW126936   0.843   1.197   3.266
 8679SOL    HW226937   0.953   1.282   3.351
 8680SOL     OW26938   6.558   3.291   0.189
 8680SOL    HW126939   6.465   3.314   0.162
 8680SOL    HW226940   6.572   3.315   0.285
 8681SOL     OW26941   4.604   5.650   1.531
 8681SOL    HW126942   4.663   5.606   1.599
 8681SOL    HW226943   4.564   5.580   1.473
 8682SOL     OW26944   5.782   0.402   2.657
 8682SOL    HW126945   5.738   0.392   2.567
 8682SOL    HW226946   5.837   0.486   2.657
 8683SOL     OW26947   1.499   2.885   5.139
 8683SOL    HW126948   1.544   2.872   5.050
 8683SOL    HW226949   1.523   2.975   5.175
 8684SOL     OW26950   6.034   2.483   4.347
 8684SOL    HW126951   5.941   2.475   4.384
 8684SOL    HW226952   6.086   2.548   4.403
 8685SOL     OW26953   6.243   1.865   6.138
 8685SOL    HW126954   6.199   1.929   6.201
 8685SOL    HW226955   6.222   1.771   6.166
 8686SOL     OW26956   6.532   0.858   2.394
 8686SOL    HW126957   6.584   0.846   2.310
 8686SOL    HW226958   6.595   0.882   2.469
 8687SOL     OW26959   5.086   5.232   1.997
 8687SOL    HW126960   5.119   5.303   2.060
 8687SOL    HW226961   5.113   5.142   2.032
 8688SOL     OW26962   0.980   5.299   6.166
 8688SOL    HW126963   0.960   5.378   6.223
 8688SOL    HW226964   0.918   5.297   6.087
 8689SOL     OW26965   3.589   2.538   1.150
 8689SOL    HW126966   3.673   2.484   1.151
 8689SOL    HW226967   3.527   2.503   1.080
 8690SOL     OW26968   1.505   3.603   3.648
 8690SOL    HW126969   1.592   3.568   3.684
 8690SOL    HW226970   1.485   3.691   3.691
 8691SOL     OW26971   3.667   1.792   6.399
 8691SOL    HW126972   3.645   1.743   6.314
 8691SOL    HW226973   3.727   1.869   6.378
 8692SOL     OW26974   2.994   1.653   4.430
 8692SOL    HW126975   3.053   1.718   4.476
 8692SOL    HW226976   2.899   1.667   4.459
 8693SOL     OW26977   5.658   0.178   0.071
 8693SOL    HW126978   5.693   0.186   0.164
 8693SOL    HW226979   5.565   0.141   0.073
 8694SOL     OW26980   5.439   1.545   5.095
 8694SOL    HW126981   5.353   1.498   5.111
 8694SOL    HW226982   5.505   1.482   5.054
 8695SOL     OW26983   4.505   3.039   6.101
 8695SOL    HW126984   4.412   3.076   6.102
 8695SOL    HW226985   4.526   3.001   6.011
 8696SOL     OW26986   2.767   5.176   5.351
 8696SOL    HW126987   2.679   5.132   5.367
 8696SOL    HW226988   2.797   5.157   5.257
 8697SOL     OW26989   0.383   4.193   6.481
 8697SOL    HW126990   0.305   4.247   6.513
 8697SOL    HW226991   0.468   4.235   6.514
 8698SOL     OW26992   5.170   6.020   5.132
 8698SOL    HW126993   5.126   5.945   5.084
 8698SOL    HW226994   5.106   6.061   5.197
 8699SOL     OW26995   1.186   3.357   4.556
 8699SOL    HW126996   1.224   3.335   4.645
 8699SOL    HW226997   1.139   3.276   4.518
 8700SOL     OW26998   1.193   0.520   4.975
 8700SOL    HW126999   1.244   0.470   4.905
 8700SOL    HW227000   1.253   0.540   5.053
 8701SOL     OW27001   1.294   1.340   0.009
 8701SOL    HW127002   1.308   1.315   0.105
 8701SOL    HW227003   1.196   1.353   7.019
 8702SOL     OW27004   5.214   4.988   1.971
 8702SOL    HW127005   5.122   4.954   1.951
 8702SOL    HW227006   5.238   5.059   1.905
 8703SOL     OW27007   2.874   5.154   0.576
 8703SOL    HW127008   2.931   5.168   0.495
 8703SOL    HW227009   2.778   5.150   0.549
 8704SOL     OW27010   0.868   4.186   3.519
 8704SOL    HW127011   0.827   4.266   3.562
 8704SOL    HW227012   0.968   4.196   3.516
 8705SOL     OW27013   4.778   1.368   6.547
 8705SOL    HW127014   4.788   1.365   6.447
 8705SOL    HW227015   4.802   1.460   6.579
 8706SOL     OW27016   4.856   2.041   6.949
 8706SOL    HW127017   4.783   1.976   6.970
 8706SOL    HW227018   4.824   2.103   6.877
 8707SOL     OW27019   0.666   1.849   5.607
 8707SOL    HW127020   0.588   1.797   5.642
 8707SOL    HW227021   0.704   1.804   5.527
 8708SOL     OW27022   4.035   1.217   3.681
 8708SOL    HW127023   3.989   1.223   3.770
 8708SOL    HW227024   3.969   1.186   3.612
 8709SOL     OW27025   6.215   6.965   6.953
 8709SOL    HW127026   6.189   6.945   6.859
 8709SOL    HW227027   6.296   7.024   6.953
 8710SOL     OW27028   1.438   2.962   3.245
 8710SOL    HW127029   1.365   2.978   3.311
 8710SOL    HW227030   1.403   2.978   3.153
 8711SOL     OW27031   1.681   6.623   2.606
 8711SOL    HW127032   1.599   6.566   2.617
 8711SOL    HW227033   1.666   6.688   2.531
 8712SOL     OW27034   3.512   1.776   3.937
 8712SOL    HW127035   3.460   1.855   3.968
 8712SOL    HW227036   3.461   1.728   3.865
 8713SOL     OW27037   6.954   3.118   2.361
 8713SOL    HW127038   6.906   3.193   2.408
 8713SOL    HW227039   6.949   3.132   2.262
 8714SOL     OW27040   1.108   0.239   6.031
 8714SOL    HW127041   1.010   0.220   6.035
 8714SOL    HW227042   1.147   0.196   5.949
 8715SOL     OW27043   3.802   0.756   1.103
 8715SOL    HW127044   3.877   0.689   1.100
 8715SOL    HW227045   3.838   0.846   1.127
 8716SOL     OW27046   0.156   7.009   0.735
 8716SOL    HW127047   0.106   6.995   0.820
 8716SOL    HW227048   0.186   0.078   0.730
 8717SOL     OW27049   2.935   3.886   5.168
 8717SOL    HW127050   2.977   3.976   5.153
 8717SOL    HW227051   2.978   3.819   5.108
 8718SOL     OW27052   1.460   2.907   5.579
 8718SOL    HW127053   1.427   2.862   5.496
 8718SOL    HW227054   1.459   3.006   5.566
 8719SOL     OW27055   4.212   0.238   0.401
 8719SOL    HW127056   4.284   0.209   0.338
 8719SOL    HW227057   4.125   0.196   0.375
 8720SOL     OW27058   0.946   6.128   6.294
 8720SOL    HW127059   0.961   6.184   6.212
 8720SOL    HW227060   1.012   6.155   6.365
 8721SOL     OW27061   6.687   2.267   1.771
 8721SOL    HW127062   6.648   2.197   1.832
 8721SOL    HW227063   6.765   2.227   1.722
 8722SOL     OW27064   3.486   1.324   1.285
 8722SOL    HW127065   3.548   1.392   1.246
 8722SOL    HW227066   3.411   1.307   1.220
 8723SOL     OW27067   4.758   6.490   1.994
 8723SOL    HW127068   4.682   6.456   2.049
 8723SOL    HW227069   4.828   6.530   2.054
 8724SOL     OW27070   5.553   6.536   4.231
 8724SOL    HW127071   5.544   6.636   4.221
 8724SOL    HW227072   5.543   6.493   4.142
 8725SOL     OW27073   2.110   5.638   5.639
 8725SOL    HW127074   2.137   5.552   5.594
 8725SOL    HW227075   2.036   5.620   5.703
 8726SOL     OW27076   0.085   0.706   3.183
 8726SOL    HW127077   0.063   0.803   3.184
 8726SOL    HW227078   0.183   0.694   3.166
 8727SOL     OW27079   6.441   7.010   1.730
 8727SOL    HW127080   6.397   6.927   1.764
 8727SOL    HW227081   6.379   0.032   1.669
 8728SOL     OW27082   6.206   1.121   1.764
 8728SOL    HW127083   6.131   1.100   1.826
 8728SOL    HW227084   6.285   1.153   1.817
 8729SOL     OW27085   3.447   4.801   5.528
 8729SOL    HW127086   3.501   4.871   5.481
 8729SOL    HW227087   3.471   4.801   5.625
 8730SOL     OW27088   5.267   3.598   2.545
 8730SOL    HW127089   5.344   3.537   2.529
 8730SOL    HW227090   5.181   3.548   2.535
 8731SOL     OW27091   0.570   3.266   3.051
 8731SOL    HW127092   0.486   3.237   3.004
 8731SOL    HW227093   0.560   3.253   3.149
 8732SOL     OW27094   5.422   4.848   1.872
 8732SOL    HW127095   5.371   4.915   1.926
 8732SOL    HW227096   5.451   4.772   1.931
 8733SOL     OW27097   1.455   5.964   1.000
 8733SOL    HW127098   1.409   6.001   1.081
 8733SOL    HW227099   1.411   5.879   0.972
 8734SOL     OW27100   0.930   3.103   2.763
 8734SOL    HW127101   0.930   3.194   2.721
 8734SOL    HW227102   0.895   3.036   2.699
 8735SOL     OW27103   0.951   3.301   6.637
 8735SOL    HW127104   1.012   3.310   6.559
 8735SOL    HW227105   0.889   3.380   6.641
 8736SOL     OW27106   0.307   5.400   1.619
 8736SOL    HW127107   0.398   5.439   1.634
 8736SOL    HW227108   0.242   5.474   1.600
 8737SOL     OW27109   1.682   6.623   0.219
 8737SOL    HW127110   1.710   6.588   0.130
 8737SOL    HW227111   1.632   6.551   0.269
 8738SOL     OW27112   2.569   5.758   4.325
 8738SOL    HW127113   2.584   5.840   4.379
 8738SOL    HW227114   2.473   5.731   4.330
 8739SOL     OW27115   5.832   5.740   5.958
 8739SOL    HW127116   5.838   5.836   5.929
 8739SOL    HW227117   5.821   5.681   5.878
 8740SOL     OW27118   3.822   1.439   4.511
 8740SOL    HW127119   3.796   1.534   4.527
 8740SOL    HW227120   3.921   1.432   4.498
 8741SOL     OW27121   2.330   1.094   2.813
 8741SOL    HW127122   2.301   1.091   2.717
 8741SOL    HW227123   2.298   1.179   2.854
 8742SOL     OW27124   4.719   0.243   1.662
 8742SOL    HW127125   4.736   0.169   1.597
 8742SOL    HW227126   4.621   0.249   1.681
 8743SOL     OW27127   1.309   0.055   1.731
 8743SOL    HW127128   1.231   0.077   1.789
 8743SOL    HW227129   1.393   0.061   1.785
 8744SOL     OW27130   4.229   2.771   0.612
 8744SOL    HW127131   4.282   2.694   0.577
 8744SOL    HW227132   4.157   2.795   0.547
 8745SOL     OW27133   6.210   1.645   6.302
 8745SOL    HW127134   6.260   1.697   6.371
 8745SOL    HW227135   6.236   1.549   6.307
 8746SOL     OW27136   4.723   5.237   4.619
 8746SOL    HW127137   4.716   5.320   4.674
 8746SOL    HW227138   4.814   5.197   4.632
 8747SOL     OW27139   6.912   1.350   2.794
 8747SOL    HW127140   6.885   1.435   2.749
 8747SOL    HW227141   7.012   1.346   2.799
 8748SOL     OW27142   0.399   1.978   4.752
 8748SOL    HW127143   0.320   2.021   4.794
 8748SOL    HW227144   0.430   2.033   4.675
 8749SOL     OW27145   2.066   0.333   5.185
 8749SOL    HW127146   2.050   0.235   5.183
 8749SOL    HW227147   2.054   0.367   5.278
 8750SOL     OW27148   3.682   4.189   5.702
 8750SOL    HW127149   3.609   4.237   5.750
 8750SOL    HW227150   3.769   4.235   5.720
 8751SOL     OW27151   6.189   1.897   2.005
 8751SOL    HW127152   6.241   1.834   2.062
 8751SOL    HW227153   6.102   1.854   1.979
 8752SOL     OW27154   3.150   2.965   6.443
 8752SOL    HW127155   3.052   2.982   6.456
 8752SOL    HW227156   3.163   2.876   6.400
 8753SOL     OW27157   2.991   1.813   6.433
 8753SOL    HW127158   2.993   1.715   6.448
 8753SOL    HW227159   2.984   1.832   6.335
 8754SOL     OW27160   1.636   4.174   4.918
 8754SOL    HW127161   1.715   4.144   4.864
 8754SOL    HW227162   1.623   4.272   4.906
 8755SOL     OW27163   1.907   1.213   1.254
 8755SOL    HW127164   1.961   1.142   1.208
 8755SOL    HW227165   1.820   1.225   1.207
 8756SOL     OW27166   1.991   2.877   3.691
 8756SOL    HW127167   2.066   2.814   3.669
 8756SOL    HW227168   1.991   2.896   3.789
 8757SOL     OW27169   4.031   5.482   6.875
 8757SOL    HW127170   4.130   5.476   6.859
 8757SOL    HW227171   3.993   5.389   6.883
 8758SOL     OW27172   4.815   5.813   3.302
 8758SOL    HW127173   4.842   5.810   3.206
 8758SOL    HW227174   4.735   5.872   3.313
 8759SOL     OW27175   4.832   3.139   6.909
 8759SOL    HW127176   4.786   3.092   6.984
 8759SOL    HW227177   4.860   3.072   6.840
 8760SOL     OW27178   2.973   1.115   5.058
 8760SOL    HW127179   2.881   1.116   5.020
 8760SOL    HW227180   3.040   1.110   4.983
 8761SOL     OW27181   6.380   2.318   1.226
 8761SOL    HW127182   6.412   2.358   1.140
 8761SOL    HW227183   6.454   2.266   1.268
 8762SOL     OW27184   0.697   4.658   3.950
 8762SOL    HW127185   0.705   4.758   3.942
 8762SOL    HW227186   0.641   4.623   3.875
 8763SOL     OW27187   6.163   6.887   6.212
 8763SOL    HW127188   6.200   6.805   6.254
 8763SOL    HW227189   6.176   6.965   6.273
 8764SOL     OW27190   4.524   0.423   5.627
 8764SOL    HW127191   4.570   0.480   5.559
 8764SOL    HW227192   4.573   0.336   5.637
 8765SOL     OW27193   5.084   0.700   3.988
 8765SOL    HW127194   5.067   0.669   3.895
 8765SOL    HW227195   4.999   0.695   4.041
 8766SOL     OW27196   4.531   4.281   5.222
 8766SOL    HW127197   4.453   4.333   5.187
 8766SOL    HW227198   4.616   4.326   5.196
 8767SOL     OW27199   5.842   5.870   2.819
 8767SOL    HW127200   5.897   5.952   2.829
 8767SOL    HW227201   5.898   5.789   2.838
 8768SOL     OW27202   1.571   2.672   0.076
 8768SOL    HW127203   1.529   2.695   0.164
 8768SOL    HW227204   1.617   2.752   0.039
 8769SOL     OW27205   6.941   0.569   3.018
 8769SOL    HW127206   7.007   0.609   3.081
 8769SOL    HW227207   6.957   0.470   3.010
 8770SOL     OW27208   4.636   4.392   2.277
 8770SOL    HW127209   4.583   4.369   2.195
 8770SOL    HW227210   4.673   4.308   2.317
 8771SOL     OW27211   1.349   1.987   6.550
 8771SOL    HW127212   1.424   2.040   6.511
 8771SOL    HW227213   1.367   1.889   6.538
 8772SOL     OW27214   4.258   0.347   6.388
 8772SOL    HW127215   4.339   0.387   6.344
 8772SOL    HW227216   4.269   0.351   6.487
 8773SOL     OW27217   5.321   2.834   3.685
 8773SOL    HW127218   5.301   2.746   3.641
 8773SOL    HW227219   5.355   2.818   3.777
 8774SOL     OW27220   1.500   0.851   0.354
 8774SOL    HW127221   1.525   0.916   0.426
 8774SOL    HW227222   1.477   0.763   0.396
 8775SOL     OW27223   5.468   1.133   5.851
 8775SOL    HW127224   5.455   1.229   5.874
 8775SOL    HW227225   5.526   1.126   5.770
 8776SOL     OW27226   4.445   3.349   0.779
 8776SOL    HW127227   4.536   3.308   0.780
 8776SOL    HW227228   4.439   3.416   0.705
 8777SOL     OW27229   6.253   4.306   3.168
 8777SOL    HW127230   6.250   4.231   3.102
 8777SOL    HW227231   6.311   4.379   3.133
 8778SOL     OW27232   5.382   2.874   6.126
 8778SOL    HW127233   5.371   2.932   6.046
 8778SOL    HW227234   5.306   2.891   6.190
 8779SOL     OW27235   2.516   5.276   2.171
 8779SOL    HW127236   2.470   5.215   2.235
 8779SOL    HW227237   2.606   5.238   2.149
 8780SOL     OW27238   0.586   0.219   3.222
 8780SOL    HW127239   0.675   0.244   3.261
 8780SOL    HW227240   0.586   0.240   3.124
 8781SOL     OW27241   5.097   0.850   4.283
 8781SOL    HW127242   5.195   0.837   4.268
 8781SOL    HW227243   5.059   0.771   4.331
 8782SOL     OW27244   6.822   0.852   1.898
 8782SOL    HW127245   6.838   0.756   1.877
 8782SOL    HW227246   6.909   0.901   1.897
 8783SOL     OW27247   6.371   4.288   3.625
 8783SOL    HW127248   6.466   4.317   3.617
 8783SOL    HW227249   6.361   4.229   3.705
 8784SOL     OW27250   0.075   6.322   6.181
 8784SOL    HW127251   0.007   6.284   6.244
 8784SOL    HW227252   0.028   6.362   6.102
 8785SOL     OW27253   5.968   4.956   6.994
 8785SOL    HW127254   5.874   4.939   6.965
 8785SOL    HW227255   6.005   4.872   0.008
 8786SOL     OW27256   2.806   1.163   0.649
 8786SOL    HW127257   2.835   1.249   0.692
 8786SOL    HW227258   2.762   1.106   0.718
 8787SOL     OW27259   2.996   1.620   2.326
 8787SOL    HW127260   3.071   1.572   2.372
 8787SOL    HW227261   2.919   1.558   2.316
 8788SOL     OW27262   0.191   0.795   5.514
 8788SOL    HW127263   0.288   0.770   5.516
 8788SOL    HW227264   0.151   0.764   5.428
 8789SOL     OW27265   6.341   5.321   5.536
 8789SOL    HW127266   6.281   5.289   5.462
 8789SOL    HW227267   6.358   5.245   5.599
 8790SOL     OW27268   6.355   0.385   6.480
 8790SOL    HW127269   6.304   0.314   6.528
 8790SOL    HW227270   6.440   0.403   6.529
 8791SOL     OW27271   5.709   6.599   4.967
 8791SOL    HW127272   5.707   6.658   5.048
 8791SOL    HW227273   5.803   6.569   4.950
 8792SOL     OW27274   3.005   5.155   3.029
 8792SOL    HW127275   3.074   5.207   3.080
 8792SOL    HW227276   2.924   5.143   3.086
 8793SOL     OW27277   0.758   4.593   2.202
 8793SOL    HW127278   0.729   4.530   2.130
 8793SOL    HW227279   0.799   4.674   2.161
 8794SOL     OW27280   5.388   0.151   2.722
 8794SOL    HW127281   5.354   0.095   2.798
 8794SOL    HW227282   5.477   0.116   2.692
 8795SOL     OW27283   1.043   4.591   5.719
 8795SOL    HW127284   1.143   4.597   5.713
 8795SOL    HW227285   1.008   4.663   5.779
 8796SOL     OW27286   5.013   2.251   3.768
 8796SOL    HW127287   5.028   2.226   3.673
 8796SOL    HW227288   5.009   2.169   3.824
 8797SOL     OW27289   0.262   0.534   6.328
 8797SOL    HW127290   0.191   0.484   6.278
 8797SOL    HW227291   0.344   0.539   6.272
 8798SOL     OW27292   4.886   6.393   6.615
 8798SOL    HW127293   4.811   6.455   6.592
 8798SOL    HW227294   4.859   6.299   6.593
 8799SOL     OW27295   2.295   5.162   3.598
 8799SOL    HW127296   2.251   5.250   3.579
 8799SOL    HW227297   2.394   5.175   3.603
 8800SOL     OW27298   5.976   4.594   6.102
 8800SOL    HW127299   6.075   4.592   6.096
 8800SOL    HW227300   5.936   4.574   6.013
 8801SOL     OW27301   0.105   1.407   4.557
 8801SOL    HW127302   0.184   1.389   4.616
 8801SOL    HW227303   0.063   1.494   4.582
 8802SOL     OW27304   2.224   6.390   6.421
 8802SOL    HW127305   2.152   6.454   6.392
 8802SOL    HW227306   2.228   6.389   6.521
 8803SOL     OW27307   6.695   6.967   0.207
 8803SOL    HW127308   6.645   6.898   0.154
 8803SOL    HW227309   6.683   6.950   0.304
 8804SOL     OW27310   2.184   6.520   1.247
 8804SOL    HW127311   2.101   6.480   1.286
 8804SOL    HW227312   2.247   6.448   1.220
 8805SOL     OW27313   3.576   6.387   3.200
 8805SOL    HW127314   3.618   6.312   3.149
 8805SOL    HW227315   3.647   6.437   3.250
 8806SOL     OW27316   3.198   4.694   0.809
 8806SOL    HW127317   3.251   4.775   0.834
 8806SOL    HW227318   3.259   4.622   0.779
 8807SOL     OW27319   5.071   1.632   0.552
 8807SOL    HW127320   5.098   1.691   0.476
 8807SOL    HW227321   5.060   1.538   0.520
 8808SOL     OW27322   6.549   2.674   6.487
 8808SOL    HW127323   6.557   2.599   6.422
 8808SOL    HW227324   6.453   2.689   6.510
 8809SOL     OW27325   3.328   5.007   4.143
 8809SOL    HW127326   3.331   5.040   4.048
 8809SOL    HW227327   3.236   5.018   4.179
 8810SOL     OW27328   5.948   0.427   5.121
 8810SOL    HW127329   5.869   0.373   5.150
 8810SOL    HW227330   5.972   0.492   5.193
 8811SOL     OW27331   3.539   1.200   3.096
 8811SOL    HW127332   3.580   1.109   3.109
 8811SOL    HW227333   3.469   1.194   3.024
 8812SOL     OW27334   1.693   0.828   0.880
 8812SOL    HW127335   1.631   0.753   0.899
 8812SOL    HW227336   1.695   0.891   0.958
 8813SOL     OW27337   2.000   5.770   3.291
 8813SOL    HW127338   1.941   5.811   3.360
 8813SOL    HW227339   2.076   5.722   3.335
 8814SOL     OW27340   6.560   6.961   0.705
 8814SOL    HW127341   6.636   6.938   0.767
 8814SOL    HW227342   6.481   6.990   0.759
 8815SOL     OW27343   5.136   6.978   1.426
 8815SOL    HW127344   5.151   7.013   1.518
 8815SOL    HW227345   5.191   6.896   1.411
 8816SOL     OW27346   0.894   6.663   6.970
 8816SOL    HW127347   0.982   6.641   7.011
 8816SOL    HW227348   0.852   6.740   7.019
 8817SOL     OW27349   6.984   3.996   3.905
 8817SOL    HW127350   6.961   4.083   3.863
 8817SOL    HW227351   0.023   4.010   3.978
 8818SOL     OW27352   0.925   5.437   3.798
 8818SOL    HW127353   0.970   5.488   3.871
 8818SOL    HW227354   0.827   5.455   3.800
 8819SOL     OW27355   5.369   5.262   5.452
 8819SOL    HW127356   5.454   5.273   5.504
 8819SOL    HW227357   5.388   5.212   5.367
 8820SOL     OW27358   2.892   0.666   5.495
 8820SOL    HW127359   2.834   0.596   5.538
 8820SOL    HW227360   2.959   0.698   5.561
 8821SOL     OW27361   1.996   5.776   0.710
 8821SOL    HW127362   1.942   5.708   0.661
 8821SOL    HW227363   1.938   5.854   0.734
 8822SOL     OW27364   1.235   1.184   3.975
 8822SOL    HW127365   1.157   1.236   3.941
 8822SOL    HW227366   1.300   1.169   3.901
 8823SOL     OW27367   2.760   1.031   2.570
 8823SOL    HW127368   2.856   1.019   2.548
 8823SOL    HW227369   2.734   1.127   2.555
 8824SOL     OW27370   1.583   1.044   0.183
 8824SOL    HW127371   1.571   1.114   0.253
 8824SOL    HW227372   1.557   0.955   0.220
 8825SOL     OW27373   1.484   0.838   2.322
 8825SOL    HW127374   1.481   0.908   2.393
 8825SOL    HW227375   1.398   0.836   2.273
 8826SOL     OW27376   0.819   4.011   0.402
 8826SOL    HW127377   0.889   3.939   0.406
 8826SOL    HW227378   0.732   3.971   0.373
 8827SOL     OW27379   4.468   0.218   3.142
 8827SOL    HW127380   4.404   0.177   3.078
 8827SOL    HW227381   4.555   0.236   3.096
 8828SOL     OW27382   3.718   5.202   6.601
 8828SOL    HW127383   3.771   5.135   6.653
 8828SOL    HW227384   3.641   5.156   6.556
 8829SOL     OW27385   5.537   2.022   1.059
 8829SOL    HW127386   5.564   2.033   1.154
 8829SOL    HW227387   5.447   1.979   1.054
 8830SOL     OW27388   2.279   1.807   2.302
 8830SOL    HW127389   2.233   1.821   2.390
 8830SOL    HW227390   2.362   1.862   2.299
 8831SOL     OW27391   5.251   2.616   3.517
 8831SOL    HW127392   5.298   2.557   3.452
 8831SOL    HW227393   5.176   2.664   3.470
 8832SOL     OW27394   6.886   6.506   3.771
 8832SOL    HW127395   6.934   6.589   3.743
 8832SOL    HW227396   6.867   6.509   3.869
 8833SOL     OW27397   2.593   5.215   6.455
 8833SOL    HW127398   2.609   5.170   6.543
 8833SOL    HW227399   2.618   5.154   6.380
 8834SOL     OW27400   5.812   3.957   4.708
 8834SOL    HW127401   5.747   3.890   4.744
 8834SOL    HW227402   5.807   3.958   4.608
 8835SOL     OW27403   5.251   0.983   5.963
 8835SOL    HW127404   5.318   1.026   5.901
 8835SOL    HW227405   5.166   0.966   5.913
 8836SOL     OW27406   5.118   1.944   0.753
 8836SOL    HW127407   5.159   2.035   0.753
 8836SOL    HW227408   5.097   1.917   0.847
 8837SOL     OW27409   0.039   6.807   2.738
 8837SOL    HW127410   0.033   6.724   2.683
 8837SOL    HW227411   0.092   6.789   2.821
 8838SOL     OW27412   1.852   4.796   3.802
 8838SOL    HW127413   1.906   4.816   3.883
 8838SOL    HW227414   1.757   4.776   3.829
 8839SOL     OW27415   4.219   5.658   1.614
 8839SOL    HW127416   4.284   5.720   1.659
 8839SOL    HW227417   4.256   5.565   1.613
 8840SOL     OW27418   6.864   0.647   2.712
 8840SOL    HW127419   6.880   0.642   2.811
 8840SOL    HW227420   6.879   0.557   2.672
 8841SOL     OW27421   0.578   1.558   4.731
 8841SOL    HW127422   0.669   1.553   4.773
 8841SOL    HW227423   0.525   1.477   4.755
 8842SOL     OW27424   3.238   3.088   3.379
 8842SOL    HW127425   3.252   3.031   3.461
 8842SOL    HW227426   3.264   3.036   3.298
 8843SOL     OW27427   1.659   3.410   4.560
 8843SOL    HW127428   1.585   3.450   4.506
 8843SOL    HW227429   1.737   3.392   4.502
 8844SOL     OW27430   0.133   1.550   4.944
 8844SOL    HW127431   0.174   1.605   5.016
 8844SOL    HW227432   0.202   1.526   4.876
 8845SOL     OW27433   2.699   3.590   1.233
 8845SOL    HW127434   2.624   3.529   1.258
 8845SOL    HW227435   2.739   3.629   1.316
 8846SOL     OW27436   3.728   4.962   4.575
 8846SOL    HW127437   3.633   4.943   4.598
 8846SOL    HW227438   3.735   5.054   4.536
 8847SOL     OW27439   2.619   1.045   3.010
 8847SOL    HW127440   2.619   1.008   2.917
 8847SOL    HW227441   2.566   1.130   3.012
 8848SOL     OW27442   2.759   2.365   2.543
 8848SOL    HW127443   2.660   2.378   2.537
 8848SOL    HW227444   2.806   2.437   2.492
 8849SOL     OW27445   3.691   5.563   3.599
 8849SOL    HW127446   3.740   5.518   3.673
 8849SOL    HW227447   3.603   5.518   3.585
 8850SOL     OW27448   2.087   0.889   6.579
 8850SOL    HW127449   2.035   0.916   6.498
 8850SOL    HW227450   2.030   0.898   6.660
 8851SOL     OW27451   0.837   4.910   2.406
 8851SOL    HW127452   0.795   4.842   2.466
 8851SOL    HW227453   0.917   4.950   2.451
 8852SOL     OW27454   4.133   4.131   6.096
 8852SOL    HW127455   4.123   4.215   6.043
 8852SOL    HW227456   4.225   4.126   6.134
 8853SOL     OW27457   3.653   1.024   6.351
 8853SOL    HW127458   3.691   0.934   6.332
 8853SOL    HW227459   3.635   1.034   6.449
 8854SOL     OW27460   2.936   1.881   6.177
 8854SOL    HW127461   2.901   1.974   6.166
 8854SOL    HW227462   3.018   1.869   6.120
 8855SOL     OW27463   6.920   6.154   0.138
 8855SOL    HW127464   6.836   6.118   0.177
 8855SOL    HW227465   6.997   6.095   0.164
 8856SOL     OW27466   6.320   0.519   6.237
 8856SOL    HW127467   6.342   0.616   6.233
 8856SOL    HW227468   6.343   0.483   6.328
 8857SOL     OW27469   6.702   2.123   3.717
 8857SOL    HW127470   6.776   2.179   3.755
 8857SOL    HW227471   6.615   2.149   3.760
 8858SOL     OW27472   1.365   2.774   5.355
 8858SOL    HW127473   1.395   2.684   5.326
 8858SOL    HW227474   1.416   2.844   5.305
 8859SOL     OW27475   6.360   0.718   4.136
 8859SOL    HW127476   6.296   0.778   4.087
 8859SOL    HW227477   6.370   0.632   4.086
 8860SOL     OW27478   0.634   3.021   2.843
 8860SOL    HW127479   0.732   3.025   2.861
 8860SOL    HW227480   0.587   2.988   2.924
 8861SOL     OW27481   3.827   1.919   6.091
 8861SOL    HW127482   3.826   1.960   6.182
 8861SOL    HW227483   3.774   1.834   6.091
 8862SOL     OW27484   6.498   0.130   3.275
 8862SOL    HW127485   6.419   0.144   3.215
 8862SOL    HW227486   6.490   0.041   3.321
 8863SOL     OW27487   1.341   5.384   4.389
 8863SOL    HW127488   1.271   5.445   4.351
 8863SOL    HW227489   1.374   5.323   4.318
 8864SOL     OW27490   3.204   3.130   6.085
 8864SOL    HW127491   3.295   3.094   6.108
 8864SOL    HW227492   3.202   3.152   5.987
 8865SOL     OW27493   2.766   1.447   5.868
 8865SOL    HW127494   2.782   1.502   5.949
 8865SOL    HW227495   2.849   1.396   5.845
 8866SOL     OW27496   5.478   6.826   3.267
 8866SOL    HW127497   5.515   6.917   3.286
 8866SOL    HW227498   5.522   6.758   3.326
 8867SOL     OW27499   5.255   3.381   2.247
 8867SOL    HW127500   5.167   3.374   2.201
 8867SOL    HW227501   5.249   3.337   2.337
 8868SOL     OW27502   6.475   2.707   0.399
 8868SOL    HW127503   6.432   2.713   0.489
 8868SOL    HW227504   6.571   2.734   0.406
 8869SOL     OW27505   4.180   5.685   4.603
 8869SOL    HW127506   4.266   5.722   4.636
 8869SOL    HW227507   4.187   5.663   4.506
 8870SOL     OW27508   4.337   0.496   0.120
 8870SOL    HW127509   4.300   0.458   0.205
 8870SOL    HW227510   4.263   0.540   0.069
 8871SOL     OW27511   1.521   0.574   4.069
 8871SOL    HW127512   1.564   0.543   3.983
 8871SOL    HW227513   1.430   0.533   4.076
 8872SOL     OW27514   1.609   4.918   5.036
 8872SOL    HW127515   1.529   4.860   5.053
 8872SOL    HW227516   1.645   4.897   4.945
 8873SOL     OW27517   0.776   5.753   2.500
 8873SOL    HW127518   0.734   5.662   2.506
 8873SOL    HW227519   0.735   5.804   2.425
 8874SOL     OW27520   3.174   6.016   1.817
 8874SOL    HW127521   3.254   6.000   1.875
 8874SOL    HW227522   3.189   6.099   1.763
 8875SOL     OW27523   6.180   3.733   4.927
 8875SOL    HW127524   6.177   3.783   4.841
 8875SOL    HW227525   6.243   3.655   4.918
 8876SOL     OW27526   1.748   0.159   4.517
 8876SOL    HW127527   1.693   0.207   4.448
 8876SOL    HW227528   1.823   0.112   4.472
 8877SOL     OW27529   3.081   0.819   3.819
 8877SOL    HW127530   3.057   0.757   3.894
 8877SOL    HW227531   3.172   0.856   3.834
 8878SOL     OW27532   6.429   5.317   6.889
 8878SOL    HW127533   6.398   5.318   6.793
 8878SOL    HW227534   6.507   5.378   6.899
 8879SOL     OW27535   5.019   4.357   1.669
 8879SOL    HW127536   4.923   4.356   1.697
 8879SOL    HW227537   5.076   4.392   1.744
 8880SOL     OW27538   6.060   5.504   4.530
 8880SOL    HW127539   6.159   5.505   4.517
 8880SOL    HW227540   6.037   5.542   4.619
 8881SOL     OW27541   6.801   0.125   4.377
 8881SOL    HW127542   6.846   0.135   4.466
 8881SOL    HW227543   6.771   0.031   4.365
 8882SOL     OW27544   5.317   1.287   0.748
 8882SOL    HW127545   5.329   1.383   0.720
 8882SOL    HW227546   5.220   1.264   0.746
 8883SOL     OW27547   2.409   6.885   6.079
 8883SOL    HW127548   2.407   6.828   6.161
 8883SOL    HW227549   2.316   6.915   6.058
 8884SOL     OW27550   6.156   4.075   6.416
 8884SOL    HW127551   6.072   4.024   6.434
 8884SOL    HW227552   6.235   4.022   6.446
 8885SOL     OW27553   0.405   3.242   0.515
 8885SOL    HW127554   0.356   3.156   0.532
 8885SOL    HW227555   0.361   3.290   0.439
 8886SOL     OW27556   3.201   6.297   4.943
 8886SOL    HW127557   3.229   6.386   4.907
 8886SOL    HW227558   3.125   6.310   5.007
 8887SOL     OW27559   3.338   1.643   1.328
 8887SOL    HW127560   3.418   1.599   1.369
 8887SOL    HW227561   3.262   1.578   1.326
 8888SOL     OW27562   1.482   1.697   6.988
 8888SOL    HW127563   1.503   1.746   6.903
 8888SOL    HW227564   1.392   1.727   7.023
 8889SOL     OW27565   5.958   0.550   5.385
 8889SOL    HW127566   5.869   0.579   5.419
 8889SOL    HW227567   6.018   0.629   5.376
 8890SOL     OW27568   6.462   5.591   4.066
 8890SOL    HW127569   6.538   5.582   4.001
 8890SOL    HW227570   6.377   5.561   4.022
 8891SOL     OW27571   5.223   3.315   5.779
 8891SOL    HW127572   5.322   3.297   5.779
 8891SOL    HW227573   5.174   3.227   5.775
 8892SOL     OW27574   3.763   5.691   3.371
 8892SOL    HW127575   3.753   5.665   3.467
 8892SOL    HW227576   3.718   5.779   3.355
 8893SOL     OW27577   1.027   6.319   3.698
 8893SOL    HW127578   1.058   6.325   3.603
 8893SOL    HW227579   0.955   6.387   3.713
 8894SOL     OW27580   4.523   2.570   5.898
 8894SOL    HW127581   4.503   2.610   5.988
 8894SOL    HW227582   4.601   2.618   5.857
 8895SOL     OW27583   6.887   2.018   2.264
 8895SOL    HW127584   6.796   2.030   2.223
 8895SOL    HW227585   6.879   1.964   2.347
 8896SOL     OW27586   2.069   3.271   5.450
 8896SOL    HW127587   1.989   3.212   5.463
 8896SOL    HW227588   2.152   3.216   5.461
 8897SOL     OW27589   2.198   2.917   3.253
 8897SOL    HW127590   2.281   2.887   3.300
 8897SOL    HW227591   2.187   3.016   3.265
 8898SOL     OW27592   5.287   3.880   3.262
 8898SOL    HW127593   5.351   3.845   3.330
 8898SOL    HW227594   5.252   3.969   3.292
 8899SOL     OW27595   2.346   4.991   1.044
 8899SOL    HW127596   2.303   4.939   0.970
 8899SOL    HW227597   2.444   4.999   1.025
 8900SOL     OW27598   6.062   3.306   2.373
 8900SOL    HW127599   6.069   3.402   2.398
 8900SOL    HW227600   6.154   3.268   2.358
 8901SOL     OW27601   1.886   1.087   4.417
 8901SOL    HW127602   1.878   1.102   4.516
 8901SOL    HW227603   1.981   1.098   4.389
 8902SOL     OW27604   2.503   0.384   0.827
 8902SOL    HW127605   2.404   0.371   0.823
 8902SOL    HW227606   2.547   0.331   0.755
 8903SOL     OW27607   1.134   1.359   4.777
 8903SOL    HW127608   1.153   1.457   4.791
 8903SOL    HW227609   1.039   1.340   4.801
 8904SOL     OW27610   5.691   6.244   3.832
 8904SOL    HW127611   5.595   6.262   3.811
 8904SOL    HW227612   5.742   6.229   3.747
 8905SOL     OW27613   1.839   4.541   3.676
 8905SOL    HW127614   1.910   4.520   3.609
 8905SOL    HW227615   1.876   4.605   3.744
 8906SOL     OW27616   6.980   6.398   0.213
 8906SOL    HW127617   6.986   6.299   0.196
 8906SOL    HW227618   0.031   6.427   0.269
 8907SOL     OW27619   3.147   2.150   4.617
 8907SOL    HW127620   3.172   2.131   4.522
 8907SOL    HW227621   3.225   2.131   4.677
 8908SOL     OW27622   0.804   3.756   6.876
 8908SOL    HW127623   0.832   3.827   6.940
 8908SOL    HW227624   0.762   3.800   6.795
 8909SOL     OW27625   2.476   0.717   5.489
 8909SOL    HW127626   2.552   0.653   5.480
 8909SOL    HW227627   2.452   0.752   5.398
 8910SOL     OW27628   0.306   2.882   5.959
 8910SOL    HW127629   0.270   2.957   5.904
 8910SOL    HW227630   0.405   2.891   5.968
 8911SOL     OW27631   4.162   2.228   4.855
 8911SOL    HW127632   4.192   2.247   4.762
 8911SOL    HW227633   4.183   2.306   4.914
 8912SOL     OW27634   3.823   3.028   0.251
 8912SOL    HW127635   3.746   3.071   0.203
 8912SOL    HW227636   3.789   2.955   0.310
 8913SOL     OW27637   4.903   5.169   6.112
 8913SOL    HW127638   4.819   5.123   6.140
 8913SOL    HW227639   4.881   5.247   6.053
 8914SOL     OW27640   4.208   6.976   4.451
 8914SOL    HW127641   4.115   7.014   4.457
 8914SOL    HW227642   4.223   6.914   4.528
 8915SOL     OW27643   0.362   2.773   3.658
 8915SOL    HW127644   0.275   2.775   3.707
 8915SOL    HW227645   0.378   2.681   3.622
 8916SOL     OW27646   0.491   3.713   0.685
 8916SOL    HW127647   0.500   3.623   0.730
 8916SOL    HW227648   0.437   3.704   0.602
 8917SOL     OW27649   6.841   3.679   6.901
 8917SOL    HW127650   6.764   3.733   6.867
 8917SOL    HW227651   6.922   3.737   6.908
 8918SOL     OW27652   6.371   3.854   1.314
 8918SOL    HW127653   6.441   3.916   1.351
 8918SOL    HW227654   6.293   3.908   1.283
 8919SOL     OW27655   3.922   4.353   0.203
 8919SOL    HW127656   3.882   4.320   0.289
 8919SOL    HW227657   3.880   4.306   0.126
 8920SOL     OW27658   0.564   0.279   0.254
 8920SOL    HW127659   0.580   0.372   0.223
 8920SOL    HW227660   0.470   0.271   0.287
 8921SOL     OW27661   2.172   2.069   2.685
 8921SOL    HW127662   2.140   1.980   2.717
 8921SOL    HW227663   2.134   2.142   2.742
 8922SOL     OW27664   3.472   5.221   1.311
 8922SOL    HW127665   3.506   5.293   1.372
 8922SOL    HW227666   3.506   5.132   1.342
 8923SOL     OW27667   1.890   3.475   6.304
 8923SOL    HW127668   1.978   3.429   6.308
 8923SOL    HW227669   1.877   3.529   6.387
 8924SOL     OW27670   3.303   5.947   5.825
 8924SOL    HW127671   3.253   6.008   5.887
 8924SOL    HW227672   3.299   5.854   5.860
 8925SOL     OW27673   1.008   1.331   2.445
 8925SOL    HW127674   0.988   1.429   2.439
 8925SOL    HW227675   1.005   1.303   2.541
 8926SOL     OW27676   6.500   3.882   5.826
 8926SOL    HW127677   6.418   3.905   5.879
 8926SOL    HW227678   6.539   3.796   5.860
 8927SOL     OW27679   0.984   1.582   4.472
 8927SOL    HW127680   1.025   1.674   4.474
 8927SOL    HW227681   0.978   1.550   4.377
 8928SOL     OW27682   0.028   0.878   6.308
 8928SOL    HW127683   0.123   0.856   6.286
 8928SOL    HW227684   7.001   0.794   6.312
 8929SOL     OW27685   6.308   3.263   4.469
 8929SOL    HW127686   6.224   3.273   4.521
 8929SOL    HW227687   6.329   3.165   4.459
 8930SOL     OW27688   1.493   4.155   3.827
 8930SOL    HW127689   1.513   4.067   3.785
 8930SOL    HW227690   1.574   4.214   3.823
 8931SOL     OW27691   3.239   2.962   1.039
 8931SOL    HW127692   3.191   2.883   1.077
 8931SOL    HW227693   3.264   2.943   0.944
 8932SOL     OW27694   5.807   0.367   1.124
 8932SOL    HW127695   5.825   0.317   1.039
 8932SOL    HW227696   5.720   0.337   1.163
 8933SOL     OW27697   1.696   3.109   6.259
 8933SOL    HW127698   1.725   3.205   6.262
 8933SOL    HW227699   1.605   3.100   6.300
 8934SOL     OW27700   3.160   4.919   4.549
 8934SOL    HW127701   3.153   5.011   4.589
 8934SOL    HW227702   3.079   4.901   4.494
 8935SOL     OW27703   6.148   3.870   1.034
 8935SOL    HW127704   6.173   3.953   1.085
 8935SOL    HW227705   6.096   3.809   1.094
 8936SOL     OW27706   1.387   3.140   1.793
 8936SOL    HW127707   1.475   3.187   1.798
 8936SOL    HW227708   1.366   3.100   1.882
 8937SOL     OW27709   0.246   0.188   4.942
 8937SOL    HW127710   0.284   0.242   4.867
 8937SOL    HW227711   0.318   0.130   4.981
 8938SOL     OW27712   0.016   1.464   0.480
 8938SOL    HW127713   0.055   1.393   0.538
 8938SOL    HW227714   7.025   1.427   0.389
 8939SOL     OW27715   5.837   4.428   4.585
 8939SOL    HW127716   5.742   4.457   4.579
 8939SOL    HW227717   5.847   4.361   4.658
 8940SOL     OW27718   5.385   1.025   1.470
 8940SOL    HW127719   5.308   0.986   1.420
 8940SOL    HW227720   5.354   1.106   1.521
 8941SOL     OW27721   6.251   2.399   3.478
 8941SOL    HW127722   6.255   2.350   3.391
 8941SOL    HW227723   6.342   2.403   3.518
 8942SOL     OW27724   0.339   5.442   5.976
 8942SOL    HW127725   0.308   5.366   5.918
 8942SOL    HW227726   0.263   5.505   5.992
 8943SOL     OW27727   3.941   5.508   0.350
 8943SOL    HW127728   3.893   5.553   0.275
 8943SOL    HW227729   3.877   5.454   0.404
 8944SOL     OW27730   5.063   6.045   4.071
 8944SOL    HW127731   5.035   5.989   4.149
 8944SOL    HW227732   5.079   6.139   4.101
 8945SOL     OW27733   0.312   1.451   3.485
 8945SOL    HW127734   0.294   1.356   3.459
 8945SOL    HW227735   0.257   1.475   3.565
 8946SOL     OW27736   4.015   0.411   4.159
 8946SOL    HW127737   4.008   0.381   4.064
 8946SOL    HW227738   4.037   0.332   4.217
 8947SOL     OW27739   2.605   3.298   5.747
 8947SOL    HW127740   2.619   3.255   5.658
 8947SOL    HW227741   2.509   3.289   5.775
 8948SOL     OW27742   6.003   5.786   3.323
 8948SOL    HW127743   6.047   5.733   3.395
 8948SOL    HW227744   5.927   5.839   3.363
 8949SOL     OW27745   4.081   6.183   0.739
 8949SOL    HW127746   4.069   6.170   0.837
 8949SOL    HW227747   4.021   6.256   0.708
 8950SOL     OW27748   3.360   3.416   0.625
 8950SOL    HW127749   3.456   3.418   0.652
 8950SOL    HW227750   3.319   3.506   0.644
 8951SOL     OW27751   2.382   1.199   4.539
 8951SOL    HW127752   2.295   1.171   4.579
 8951SOL    HW227753   2.403   1.141   4.460
 8952SOL     OW27754   0.529   4.947   3.551
 8952SOL    HW127755   0.492   4.976   3.639
 8952SOL    HW227756   0.523   5.023   3.486
 8953SOL     OW27757   0.622   4.292   0.756
 8953SOL    HW127758   0.686   4.232   0.804
 8953SOL    HW227759   0.600   4.253   0.666
 8954SOL     OW27760   6.743   0.619   4.507
 8954SOL    HW127761   6.771   0.567   4.588
 8954SOL    HW227762   6.803   0.698   4.496
 8955SOL     OW27763   6.863   4.710   3.352
 8955SOL    HW127764   6.950   4.751   3.380
 8955SOL    HW227765   6.853   4.719   3.253
 8956SOL     OW27766   2.010   1.209   5.762
 8956SOL    HW127767   2.098   1.208   5.716
 8956SOL    HW227768   1.947   1.269   5.712
 8957SOL     OW27769   1.930   4.474   1.089
 8957SOL    HW127770   1.898   4.397   1.035
 8957SOL    HW227771   1.901   4.463   1.184
 8958SOL     OW27772   0.851   2.352   5.580
 8958SOL    HW127773   0.922   2.376   5.647
 8958SOL    HW227774   0.788   2.429   5.570
 8959SOL     OW27775   1.896   4.319   3.149
 8959SOL    HW127776   1.878   4.416   3.168
 8959SOL    HW227777   1.890   4.267   3.234
 8960SOL     OW27778   5.162   5.751   4.245
 8960SOL    HW127779   5.065   5.745   4.270
 8960SOL    HW227780   5.172   5.739   4.147
 8961SOL     OW27781   3.655   1.330   3.624
 8961SOL    HW127782   3.696   1.248   3.584
 8961SOL    HW227783   3.672   1.330   3.723
 8962SOL     OW27784   6.356   5.317   2.511
 8962SOL    HW127785   6.396   5.237   2.466
 8962SOL    HW227786   6.377   5.399   2.458
 8963SOL     OW27787   3.935   7.010   4.480
 8963SOL    HW127788   3.886   6.923   4.481
 8963SOL    HW227789   3.874   0.055   4.447
 8964SOL     OW27790   6.042   2.645   2.882
 8964SOL    HW127791   6.019   2.687   2.794
 8964SOL    HW227792   6.141   2.643   2.894
 8965SOL     OW27793   2.533   5.474   0.092
 8965SOL    HW127794   2.633   5.467   0.088
 8965SOL    HW227795   2.492   5.385   0.072
 8966SOL     OW27796   6.453   4.244   0.418
 8966SOL    HW127797   6.488   4.233   0.511
 8966SOL    HW227798   6.422   4.338   0.405
 8967SOL     OW27799   3.598   0.537   1.885
 8967SOL    HW127800   3.519   0.496   1.840
 8967SOL    HW227801   3.681   0.515   1.834
 8968SOL     OW27802   4.532   5.845   2.766
 8968SOL    HW127803   4.534   5.745   2.756
 8968SOL    HW227804   4.455   5.871   2.824
 8969SOL     OW27805   0.197   0.426   3.681
 8969SOL    HW127806   0.182   0.490   3.606
 8969SOL    HW227807   0.227   0.338   3.644
 8970SOL     OW27808   2.419   2.964   6.555
 8970SOL    HW127809   2.399   3.017   6.474
 8970SOL    HW227810   2.382   3.010   6.636
 8971SOL     OW27811   5.923   5.371   0.580
 8971SOL    HW127812   5.842   5.417   0.544
 8971SOL    HW227813   6.001   5.434   0.580
 8972SOL     OW27814   4.335   3.913   1.000
 8972SOL    HW127815   4.408   3.849   1.025
 8972SOL    HW227816   4.361   4.005   1.028
 8973SOL     OW27817   6.427   3.605   3.352
 8973SOL    HW127818   6.484   3.686   3.358
 8973SOL    HW227819   6.476   3.527   3.392
 8974SOL     OW27820   1.440   3.207   3.890
 8974SOL    HW127821   1.503   3.131   3.880
 8974SOL    HW227822   1.490   3.294   3.886
 8975SOL     OW27823   0.753   6.667   6.731
 8975SOL    HW127824   0.671   6.720   6.752
 8975SOL    HW227825   0.816   6.670   6.809
 8976SOL     OW27826   6.905   5.350   0.374
 8976SOL    HW127827   6.945   5.318   0.460
 8976SOL    HW227828   6.868   5.441   0.386
 8977SOL     OW27829   6.436   3.167   6.522
 8977SOL    HW127830   6.428   3.218   6.437
 8977SOL    HW227831   6.446   3.230   6.599
 8978SOL     OW27832   5.478   6.819   4.303
 8978SOL    HW127833   5.428   6.847   4.385
 8978SOL    HW227834   5.515   6.899   4.257
 8979SOL     OW27835   1.096   4.898   6.109
 8979SOL    HW127836   1.098   4.984   6.058
 8979SOL    HW227837   1.019   4.898   6.172
 8980SOL     OW27838   4.733   2.654   5.769
 8980SOL    HW127839   4.831   2.669   5.778
 8980SOL    HW227840   4.709   2.642   5.673
 8981SOL     OW27841   4.578   1.824   5.275
 8981SOL    HW127842   4.529   1.815   5.188
 8981SOL    HW227843   4.516   1.860   5.344
 8982SOL     OW27844   0.989   1.510   1.554
 8982SOL    HW127845   0.966   1.559   1.470
 8982SOL    HW227846   0.931   1.429   1.561
 8983SOL     OW27847   0.317   5.824   0.027
 8983SOL    HW127848   0.395   5.790   7.001
 8983SOL    HW227849   0.334   5.918   0.055
 8984SOL     OW27850   5.882   6.129   4.008
 8984SOL    HW127851   5.936   6.180   4.076
 8984SOL    HW227852   5.856   6.190   3.934
 8985SOL     OW27853   2.188   1.813   0.658
 8985SOL    HW127854   2.266   1.751   0.652
 8985SOL    HW227855   2.207   1.884   0.726
 8986SOL     OW27856   4.409   5.126   2.502
 8986SOL    HW127857   4.475   5.051   2.513
 8986SOL    HW227858   4.325   5.090   2.461
 8987SOL     OW27859   3.480   0.519   1.170
 8987SOL    HW127860   3.523   0.488   1.255
 8987SOL    HW227861   3.549   0.522   1.098
 8988SOL     OW27862   1.631   4.533   0.325
 8988SOL    HW127863   1.723   4.528   0.286
 8988SOL    HW227864   1.576   4.455   0.293
 8989SOL     OW27865   4.782   4.090   2.067
 8989SOL    HW127866   4.771   4.017   2.000
 8989SOL    HW227867   4.740   4.174   2.031
 8990SOL     OW27868   2.354   5.662   1.701
 8990SOL    HW127869   2.422   5.679   1.630
 8990SOL    HW227870   2.350   5.742   1.762
 8991SOL     OW27871   2.322   1.121   0.326
 8991SOL    HW127872   2.337   1.046   0.390
 8991SOL    HW227873   2.317   1.085   0.233
 8992SOL     OW27874   6.893   2.542   6.458
 8992SOL    HW127875   6.985   2.575   6.437
 8992SOL    HW227876   6.862   2.582   6.544
 8993SOL     OW27877   4.585   2.525   2.491
 8993SOL    HW127878   4.524   2.481   2.558
 8993SOL    HW227879   4.587   2.624   2.509
 8994SOL     OW27880   0.595   5.859   4.522
 8994SOL    HW127881   0.575   5.951   4.555
 8994SOL    HW227882   0.566   5.792   4.590
 8995SOL     OW27883   1.367   2.579   5.961
 8995SOL    HW127884   1.421   2.649   6.008
 8995SOL    HW227885   1.331   2.514   6.028
 8996SOL     OW27886   6.753   4.838   2.049
 8996SOL    HW127887   6.832   4.878   2.095
 8996SOL    HW227888   6.700   4.910   2.005
 8997SOL     OW27889   4.053   1.740   6.093
 8997SOL    HW127890   4.107   1.739   6.008
 8997SOL    HW227891   4.004   1.827   6.100
 8998SOL     OW27892   0.149   2.955   4.139
 8998SOL    HW127893   0.151   3.049   4.107
 8998SOL    HW227894   0.159   2.953   4.239
 8999SOL     OW27895   4.738   0.376   0.085
 8999SOL    HW127896   4.812   0.315   0.114
 8999SOL    HW227897   4.748   0.465   0.131
 9000SOL     OW27898   2.530   4.150   6.324
 9000SOL    HW127899   2.486   4.139   6.234
 9000SOL    HW227900   2.529   4.246   6.350
 9001SOL     OW27901   0.771   5.324   2.887
 9001SOL    HW127902   0.806   5.315   2.794
 9001SOL    HW227903   0.685   5.376   2.885
 9002SOL     OW27904   0.225   5.016   5.077
 9002SOL    HW127905   0.283   4.949   5.030
 9002SOL    HW227906   0.147   5.039   5.018
 9003SOL     OW27907   5.627   2.314   1.079
 9003SOL    HW127908   5.682   2.230   1.074
 9003SOL    HW227909   5.654   2.365   1.160
 9004SOL     OW27910   4.657   6.760   1.608
 9004SOL    HW127911   4.664   6.855   1.578
 9004SOL    HW227912   4.690   6.699   1.536
 9005SOL     OW27913   6.110   1.950   4.521
 9005SOL    HW127914   6.014   1.932   4.541
 9005SOL    HW227915   6.130   1.923   4.427
 9006SOL     OW27916   2.083   5.976   0.133
 9006SOL    HW127917   2.050   5.911   0.064
 9006SOL    HW227918   2.179   5.957   0.153
 9007SOL     OW27919   3.763   6.002   3.709
 9007SOL    HW127920   3.679   5.972   3.754
 9007SOL    HW227921   3.842   5.958   3.752
 9008SOL     OW27922   6.474   5.026   2.712
 9008SOL    HW127923   6.544   5.081   2.668
 9008SOL    HW227924   6.510   4.991   2.799
 9009SOL     OW27925   2.285   0.122   0.613
 9009SOL    HW127926   2.293   0.120   0.513
 9009SOL    HW227927   2.203   0.071   0.640
 9010SOL     OW27928   1.022   6.784   4.935
 9010SOL    HW127929   1.070   6.788   4.847
 9010SOL    HW227930   1.075   6.731   5.001
 9011SOL     OW27931   4.232   1.820   2.045
 9011SOL    HW127932   4.232   1.912   2.083
 9011SOL    HW227933   4.206   1.824   1.948
 9012SOL     OW27934   3.281   4.396   0.844
 9012SOL    HW127935   3.214   4.379   0.916
 9012SOL    HW227936   3.234   4.412   0.757
 9013SOL     OW27937   6.525   6.507   4.391
 9013SOL    HW127938   6.475   6.424   4.418
 9013SOL    HW227939   6.486   6.543   4.307
 9014SOL     OW27940   1.105   0.713   0.351
 9014SOL    HW127941   1.149   0.682   0.435
 9014SOL    HW227942   1.142   0.802   0.325
 9015SOL     OW27943   5.968   1.393   1.054
 9015SOL    HW127944   5.911   1.389   0.972
 9015SOL    HW227945   5.965   1.485   1.092
 9016SOL     OW27946   0.523   6.437   6.944
 9016SOL    HW127947   0.463   6.505   6.903
 9016SOL    HW227948   0.526   6.355   6.885
 9017SOL     OW27949   4.828   2.760   1.920
 9017SOL    HW127950   4.788   2.679   1.962
 9017SOL    HW227951   4.777   2.841   1.948
 9018SOL     OW27952   4.392   1.048   5.396
 9018SOL    HW127953   4.392   0.969   5.335
 9018SOL    HW227954   4.449   1.030   5.475
 9019SOL     OW27955   0.355   0.703   0.872
 9019SOL    HW127956   0.274   0.758   0.854
 9019SOL    HW227957   0.354   0.673   0.968
 9020SOL     OW27958   1.212   3.835   1.519
 9020SOL    HW127959   1.267   3.754   1.500
 9020SOL    HW227960   1.198   3.842   1.618
 9021SOL     OW27961   6.828   0.448   3.707
 9021SOL    HW127962   6.833   0.357   3.750
 9021SOL    HW227963   6.732   0.472   3.692
 9022SOL     OW27964   2.805   1.186   1.353
 9022SOL    HW127965   2.886   1.128   1.341
 9022SOL    HW227966   2.726   1.142   1.310
 9023SOL     OW27967   3.160   3.070   2.615
 9023SOL    HW127968   3.170   3.153   2.669
 9023SOL    HW227969   3.088   3.084   2.546
 9024SOL     OW27970   0.819   5.517   5.541
 9024SOL    HW127971   0.887   5.463   5.492
 9024SOL    HW227972   0.758   5.562   5.475
 9025SOL     OW27973   0.125   6.003   0.420
 9025SOL    HW127974   0.162   6.002   0.512
 9025SOL    HW227975   0.145   5.916   0.375
 9026SOL     OW27976   3.824   3.242   2.105
 9026SOL    HW127977   3.774   3.313   2.155
 9026SOL    HW227978   3.825   3.264   2.008
 9027SOL     OW27979   1.643   1.906   3.172
 9027SOL    HW127980   1.625   1.890   3.075
 9027SOL    HW227981   1.605   1.995   3.199
 9028SOL     OW27982   2.544   3.290   6.563
 9028SOL    HW127983   2.539   3.382   6.603
 9028SOL    HW227984   2.464   3.275   6.504
 9029SOL     OW27985   3.378   5.666   5.459
 9029SOL    HW127986   3.337   5.659   5.368
 9029SOL    HW227987   3.430   5.583   5.479
 9030SOL     OW27988   2.231   0.903   3.519
 9030SOL    HW127989   2.272   0.960   3.448
 9030SOL    HW227990   2.236   0.807   3.491
 9031SOL     OW27991   4.763   5.521   5.198
 9031SOL    HW127992   4.725   5.431   5.176
 9031SOL    HW227993   4.756   5.536   5.297
 9032SOL     OW27994   3.103   3.188   0.930
 9032SOL    HW127995   3.156   3.109   0.961
 9032SOL    HW227996   3.010   3.158   0.909
 9033SOL     OW27997   2.406   4.389   3.553
 9033SOL    HW127998   2.357   4.469   3.520
 9033SOL    HW227999   2.395   4.381   3.652
 9034SOL     OW28000   3.100   0.235   4.510
 9034SOL    HW128001   3.033   0.299   4.473
 9034SOL    HW228002   3.054   0.154   4.546
 9035SOL     OW28003   1.159   6.080   5.766
 9035SOL    HW128004   1.062   6.080   5.791
 9035SOL    HW228005   1.183   6.169   5.727
 9036SOL     OW28006   1.655   0.685   4.736
 9036SOL    HW128007   1.669   0.595   4.776
 9036SOL    HW228008   1.567   0.722   4.767
 9037SOL     OW28009   1.464   4.102   5.590
 9037SOL    HW128010   1.480   4.063   5.681
 9037SOL    HW228011   1.533   4.173   5.572
 9038SOL     OW28012   4.264   0.506   5.667
 9038SOL    HW128013   4.262   0.482   5.764
 9038SOL    HW228014   4.354   0.483   5.629
 9039SOL     OW28015   2.342   4.916   4.642
 9039SOL    HW128016   2.380   4.824   4.636
 9039SOL    HW228017   2.334   4.955   4.550
 9040SOL     OW28018   2.806   1.764   3.045
 9040SOL    HW128019   2.817   1.799   2.953
 9040SOL    HW228020   2.791   1.841   3.108
 9041SOL     OW28021   0.648   2.397   1.931
 9041SOL    HW128022   0.694   2.313   1.899
 9041SOL    HW228023   0.670   2.412   2.027
 9042SOL     OW28024   3.298   6.823   4.078
 9042SOL    HW128025   3.259   6.799   3.990
 9042SOL    HW228026   3.227   6.816   4.149
 9043SOL     OW28027   2.491   1.407   6.310
 9043SOL    HW128028   2.510   1.428   6.406
 9043SOL    HW228029   2.420   1.337   6.305
 9044SOL     OW28030   5.960   1.773   1.904
 9044SOL    HW128031   5.984   1.718   1.824
 9044SOL    HW228032   5.888   1.727   1.955
 9045SOL     OW28033   3.547   1.853   2.858
 9045SOL    HW128034   3.576   1.764   2.894
 9045SOL    HW228035   3.590   1.926   2.911
 9046SOL     OW28036   3.309   3.578   4.351
 9046SOL    HW128037   3.263   3.500   4.395
 9046SOL    HW228038   3.240   3.637   4.309
 9047SOL     OW28039   1.576   3.401   5.487
 9047SOL    HW128040   1.650   3.393   5.420
 9047SOL    HW228041   1.548   3.496   5.495
 9048SOL     OW28042   5.963   2.358   6.359
 9048SOL    HW128043   6.026   2.301   6.306
 9048SOL    HW228044   5.873   2.357   6.315
 9049SOL     OW28045   3.836   0.192   6.745
 9049SOL    HW128046   3.866   0.156   6.656
 9049SOL    HW228047   3.741   0.167   6.760
 9050SOL     OW28048   0.223   4.466   5.876
 9050SOL    HW128049   0.186   4.445   5.967
 9050SOL    HW228050   0.222   4.565   5.862
 9051SOL     OW28051   4.493   5.853   0.602
 9051SOL    HW128052   4.556   5.843   0.679
 9051SOL    HW228053   4.418   5.787   0.611
 9052SOL     OW28054   1.810   2.595   3.072
 9052SOL    HW128055   1.863   2.674   3.103
 9052SOL    HW228056   1.714   2.608   3.094
 9053SOL     OW28057   2.122   1.507   3.060
 9053SOL    HW128058   2.092   1.554   3.143
 9053SOL    HW228059   2.197   1.559   3.019
 9054SOL     OW28060   1.455   0.136   2.172
 9054SOL    HW128061   1.547   0.134   2.210
 9054SOL    HW228062   1.394   0.082   2.231
 9055SOL     OW28063   6.678   4.044   3.625
 9055SOL    HW128064   6.589   4.058   3.667
 9055SOL    HW228065   6.740   4.118   3.652
 9056SOL     OW28066   6.307   0.066   1.498
 9056SOL    HW128067   6.223   0.114   1.524
 9056SOL    HW228068   6.372   0.132   1.460
 9057SOL     OW28069   6.177   5.369   5.856
 9057SOL    HW128070   6.086   5.406   5.879
 9057SOL    HW228071   6.216   5.422   5.781
 9058SOL     OW28072   1.852   2.043   3.842
 9058SOL    HW128073   1.799   1.964   3.873
 9058SOL    HW228074   1.948   2.030   3.866
 9059SOL     OW28075   1.141   1.326   4.278
 9059SOL    HW128076   1.054   1.309   4.324
 9059SOL    HW228077   1.216   1.313   4.342
 9060SOL     OW28078   0.349   2.978   2.305
 9060SOL    HW128079   0.390   2.888   2.288
 9060SOL    HW228080   0.409   3.049   2.268
 9061SOL     OW28081   3.700   5.805   2.196
 9061SOL    HW128082   3.750   5.725   2.229
 9061SOL    HW228083   3.644   5.780   2.118
 9062SOL     OW28084   1.611   5.302   2.056
 9062SOL    HW128085   1.520   5.306   2.014
 9062SOL    HW228086   1.620   5.218   2.109
 9063SOL     OW28087   2.334   6.367   2.481
 9063SOL    HW128088   2.321   6.463   2.454
 9063SOL    HW228089   2.424   6.357   2.523
 9064SOL     OW28090   5.601   3.817   4.857
 9064SOL    HW128091   5.608   3.891   4.924
 9064SOL    HW228092   5.537   3.843   4.784
 9065SOL     OW28093   3.461   6.231   0.107
 9065SOL    HW128094   3.557   6.259   0.099
 9065SOL    HW228095   3.457   6.137   0.141
 9066SOL     OW28096   5.843   0.517   0.258
 9066SOL    HW128097   5.877   0.540   0.167
 9066SOL    HW228098   5.920   0.502   0.319
 9067SOL     OW28099   6.347   0.189   4.701
 9067SOL    HW128100   6.306   0.278   4.722
 9067SOL    HW228101   6.392   0.194   4.612
 9068SOL     OW28102   2.926   0.606   5.130
 9068SOL    HW128103   2.905   0.696   5.091
 9068SOL    HW228104   3.005   0.568   5.083
 9069SOL     OW28105   2.805   2.296   1.695
 9069SOL    HW128106   2.882   2.343   1.738
 9069SOL    HW228107   2.770   2.351   1.620
 9070SOL     OW28108   1.272   3.779   5.747
 9070SOL    HW128109   1.213   3.794   5.827
 9070SOL    HW228110   1.353   3.837   5.755
 9071SOL     OW28111   4.882   6.934   0.416
 9071SOL    HW128112   4.937   6.850   0.410
 9071SOL    HW228113   4.854   6.962   0.324
 9072SOL     OW28114   5.872   1.318   2.110
 9072SOL    HW128115   5.935   1.348   2.039
 9072SOL    HW228116   5.784   1.294   2.070
 9073SOL     OW28117   3.322   6.296   0.788
 9073SOL    HW128118   3.393   6.364   0.809
 9073SOL    HW228119   3.361   6.222   0.733
 9074SOL     OW28120   2.041   0.801   1.816
 9074SOL    HW128121   2.007   0.872   1.754
 9074SOL    HW228122   1.973   0.728   1.824
 9075SOL     OW28123   0.579   0.310   1.793
 9075SOL    HW128124   0.626   0.374   1.732
 9075SOL    HW228125   0.506   0.358   1.842
 9076SOL     OW28126   5.797   1.725   4.833
 9076SOL    HW128127   5.761   1.755   4.745
 9076SOL    HW228128   5.895   1.744   4.837
 9077SOL     OW28129   5.685   0.837   6.689
 9077SOL    HW128130   5.660   0.756   6.742
 9077SOL    HW228131   5.767   0.817   6.635
 9078SOL     OW28132   4.570   3.753   6.987
 9078SOL    HW128133   4.529   3.774   0.049
 9078SOL    HW228134   4.524   3.805   6.915
 9079SOL     OW28135   2.185   6.357   4.180
 9079SOL    HW128136   2.235   6.435   4.218
 9079SOL    HW228137   2.110   6.333   4.242
 9080SOL     OW28138   5.905   1.991   0.599
 9080SOL    HW128139   5.840   2.012   0.525
 9080SOL    HW228140   5.960   2.072   0.620
 9081SOL     OW28141   3.852   6.779   2.693
 9081SOL    HW128142   3.791   6.816   2.764
 9081SOL    HW228143   3.797   6.745   2.617
 9082SOL     OW28144   2.852   6.648   5.668
 9082SOL    HW128145   2.839   6.734   5.717
 9082SOL    HW228146   2.822   6.658   5.573
 9083SOL     OW28147   4.005   4.423   6.037
 9083SOL    HW128148   3.974   4.374   5.955
 9083SOL    HW228149   3.967   4.379   6.118
 9084SOL     OW28150   3.527   3.767   5.777
 9084SOL    HW128151   3.571   3.847   5.818
 9084SOL    HW228152   3.595   3.694   5.764
 9085SOL     OW28153   1.278   4.788   0.814
 9085SOL    HW128154   1.377   4.779   0.814
 9085SOL    HW228155   1.252   4.868   0.760
 9086SOL     OW28156   0.325   4.654   0.536
 9086SOL    HW128157   0.277   4.685   0.618
 9086SOL    HW228158   0.423   4.658   0.552
 9087SOL     OW28159   4.495   2.472   1.835
 9087SOL    HW128160   4.512   2.569   1.817
 9087SOL    HW228161   4.408   2.446   1.794
 9088SOL     OW28162   6.274   6.083   1.031
 9088SOL    HW128163   6.311   6.175   1.023
 9088SOL    HW228164   6.192   6.085   1.089
 9089SOL     OW28165   5.202   6.085   4.842
 9089SOL    HW128166   5.177   6.080   4.939
 9089SOL    HW228167   5.260   6.008   4.818
 9090SOL     OW28168   6.571   5.928   3.520
 9090SOL    HW128169   6.660   5.973   3.531
 9090SOL    HW228170   6.553   5.871   3.600
 9091SOL     OW28171   2.903   3.312   1.137
 9091SOL    HW128172   2.976   3.246   1.155
 9091SOL    HW228173   2.913   3.390   1.199
 9092SOL     OW28174   0.038   1.964   0.921
 9092SOL    HW128175   0.080   1.941   0.834
 9092SOL    HW228176   0.056   2.060   0.942
 9093SOL     OW28177   1.571   6.455   6.093
 9093SOL    HW128178   1.535   6.364   6.114
 9093SOL    HW228179   1.505   6.525   6.120
 9094SOL     OW28180   5.966   5.155   2.660
 9094SOL    HW128181   5.959   5.114   2.751
 9094SOL    HW228182   5.908   5.105   2.596
 9095SOL     OW28183   4.678   3.958   6.312
 9095SOL    HW128184   4.603   4.019   6.338
 9095SOL    HW228185   4.719   3.919   6.394
 9096SOL     OW28186   5.603   3.886   2.105
 9096SOL    HW128187   5.641   3.970   2.066
 9096SOL    HW228188   5.520   3.909   2.157
 9097SOL     OW28189   1.168   2.174   6.534
 9097SOL    HW128190   1.076   2.136   6.546
 9097SOL    HW228191   1.235   2.100   6.541
 9098SOL     OW28192   3.323   2.371   6.662
 9098SOL    HW128193   3.330   2.335   6.569
 9098SOL    HW228194   3.376   2.455   6.670
 9099SOL     OW28195   2.778   2.878   6.998
 9099SOL    HW128196   2.762   2.936   0.051
 9099SOL    HW228197   2.750   2.926   6.915
 9100SOL     OW28198   0.568   3.676   4.134
 9100SOL    HW128199   0.667   3.683   4.144
 9100SOL    HW228200   0.544   3.663   4.038
 9101SOL     OW28201   2.325   2.183   2.955
 9101SOL    HW128202   2.376   2.203   2.871
 9101SOL    HW228203   2.386   2.139   3.021
 9102SOL     OW28204   2.904   0.148   1.936
 9102SOL    HW128205   2.827   0.098   1.897
 9102SOL    HW228206   2.869   0.230   1.982
 9103SOL     OW28207   6.170   3.286   6.555
 9103SOL    HW128208   6.242   3.292   6.623
 9103SOL    HW228209   6.081   3.280   6.601
 9104SOL     OW28210   6.364   6.429   2.120
 9104SOL    HW128211   6.333   6.370   2.194
 9104SOL    HW228212   6.360   6.380   2.033
 9105SOL     OW28213   1.698   1.662   0.137
 9105SOL    HW128214   1.604   1.662   0.101
 9105SOL    HW228215   1.762   1.645   0.063
 9106SOL     OW28216   6.667   3.623   0.100
 9106SOL    HW128217   6.731   3.651   0.028
 9106SOL    HW228218   6.651   3.701   0.161
 9107SOL     OW28219   3.380   1.330   6.184
 9107SOL    HW128220   3.376   1.234   6.160
 9107SOL    HW228221   3.460   1.346   6.243
 9108SOL     OW28222   4.635   3.844   5.553
 9108SOL    HW128223   4.632   3.925   5.495
 9108SOL    HW228224   4.669   3.766   5.500
 9109SOL     OW28225   0.177   2.503   2.687
 9109SOL    HW128226   0.093   2.553   2.663
 9109SOL    HW228227   0.249   2.528   2.623
 9110SOL     OW28228   2.059   3.579   3.783
 9110SOL    HW128229   2.075   3.502   3.722
 9110SOL    HW228230   2.120   3.655   3.759
 9111SOL     OW28231   4.899   1.790   0.683
 9111SOL    HW128232   4.986   1.839   0.693
 9111SOL    HW228233   4.917   1.695   0.660
 9112SOL     OW28234   0.500   5.206   3.812
 9112SOL    HW128235   0.401   5.214   3.824
 9112SOL    HW228236   0.533   5.126   3.863
 9113SOL     OW28237   4.865   1.030   2.765
 9113SOL    HW128238   4.964   1.042   2.760
 9113SOL    HW228239   4.820   1.117   2.744
 9114SOL     OW28240   0.353   4.206   2.224
 9114SOL    HW128241   0.333   4.257   2.140
 9114SOL    HW228242   0.395   4.118   2.202
 9115SOL     OW28243   6.900   5.444   4.668
 9115SOL    HW128244   6.949   5.504   4.605
 9115SOL    HW228245   6.904   5.482   4.761
 9116SOL     OW28246   6.657   1.032   1.716
 9116SOL    HW128247   6.690   0.939   1.731
 9116SOL    HW228248   6.651   1.049   1.617
 9117SOL     OW28249   5.641   2.581   0.605
 9117SOL    HW128250   5.657   2.609   0.510
 9117SOL    HW228251   5.688   2.644   0.667
 9118SOL     OW28252   6.609   3.893   0.233
 9118SOL    HW128253   6.569   3.973   0.277
 9118SOL    HW228254   6.622   3.911   0.136
 9119SOL     OW28255   4.616   0.483   2.218
 9119SOL    HW128256   4.550   0.512   2.288
 9119SOL    HW228257   4.707   0.479   2.257
 9120SOL     OW28258   6.850   1.920   5.871
 9120SOL    HW128259   6.816   1.941   5.963
 9120SOL    HW228260   6.775   1.927   5.806
 9121SOL     OW28261   4.271   0.974   4.952
 9121SOL    HW128262   4.200   0.949   5.017
 9121SOL    HW228263   4.359   0.982   4.999
 9122SOL     OW28264   2.121   4.164   2.218
 9122SOL    HW128265   2.094   4.067   2.224
 9122SOL    HW228266   2.093   4.200   2.129
 9123SOL     OW28267   2.941   0.650   3.620
 9123SOL    HW128268   2.981   0.617   3.534
 9123SOL    HW228269   2.959   0.748   3.630
 9124SOL     OW28270   5.495   6.016   0.376
 9124SOL    HW128271   5.409   6.067   0.386
 9124SOL    HW228272   5.476   5.918   0.387
 9125SOL     OW28273   4.710   3.703   0.720
 9125SOL    HW128274   4.764   3.774   0.674
 9125SOL    HW228275   4.739   3.613   0.686
 9126SOL     OW28276   6.147   3.549   1.184
 9126SOL    HW128277   6.235   3.553   1.230
 9126SOL    HW228278   6.141   3.465   1.130
 9127SOL     OW28279   0.072   1.858   6.533
 9127SOL    HW128280   0.027   1.930   6.479
 9127SOL    HW228281   0.034   1.769   6.508
 9128SOL     OW28282   6.011   1.807   5.227
 9128SOL    HW128283   5.918   1.781   5.200
 9128SOL    HW228284   6.065   1.725   5.244
 9129SOL     OW28285   0.155   2.304   0.467
 9129SOL    HW128286   0.135   2.266   0.557
 9129SOL    HW228287   0.201   2.235   0.411
 9130SOL     OW28288   0.225   3.372   6.117
 9130SOL    HW128289   0.221   3.272   6.107
 9130SOL    HW228290   0.136   3.411   6.092
 9131SOL     OW28291   5.540   3.064   5.570
 9131SOL    HW128292   5.503   2.982   5.527
 9131SOL    HW228293   5.636   3.076   5.542
 9132SOL     OW28294   0.246   6.038   4.441
 9132SOL    HW128295   0.170   5.980   4.413
 9132SOL    HW228296   0.272   6.015   4.535
 9133SOL     OW28297   3.455   6.572   1.599
 9133SOL    HW128298   3.383   6.596   1.534
 9133SOL    HW228299   3.419   6.576   1.692
 9134SOL     OW28300   4.178   5.936   1.274
 9134SOL    HW128301   4.084   5.968   1.271
 9134SOL    HW228302   4.187   5.853   1.219
 9135SOL     OW28303   6.694   0.054   1.608
 9135SOL    HW128304   6.731   0.143   1.634
 9135SOL    HW228305   6.631   0.022   1.679
 9136SOL     OW28306   5.062   6.491   0.105
 9136SOL    HW128307   5.066   6.392   0.120
 9136SOL    HW228308   5.012   6.510   0.021
 9137SOL     OW28309   5.430   0.955   0.174
 9137SOL    HW128310   5.509   1.003   0.213
 9137SOL    HW228311   5.352   0.961   0.237
 9138SOL     OW28312   6.998   6.002   6.371
 9138SOL    HW128313   0.064   5.984   6.338
 9138SOL    HW228314   6.941   5.922   6.356
 9139SOL     OW28315   2.149   1.735   3.331
 9139SOL    HW128316   2.219   1.786   3.281
 9139SOL    HW228317   2.059   1.770   3.305
 9140SOL     OW28318   6.825   3.364   2.662
 9140SOL    HW128319   6.919   3.398   2.670
 9140SOL    HW228320   6.798   3.362   2.566
 9141SOL     OW28321   5.253   0.221   0.777
 9141SOL    HW128322   5.323   0.185   0.715
 9141SOL    HW228323   5.210   0.301   0.736
 9142SOL     OW28324   0.697   2.713   1.056
 9142SOL    HW128325   0.676   2.805   1.021
 9142SOL    HW228326   0.623   2.682   1.114
 9143SOL     OW28327   6.406   2.995   0.359
 9143SOL    HW128328   6.415   2.904   0.399
 9143SOL    HW228329   6.375   2.987   0.265
 9144SOL     OW28330   2.435   5.231   4.343
 9144SOL    HW128331   2.373   5.168   4.390
 9144SOL    HW228332   2.529   5.205   4.361
 9145SOL     OW28333   0.469   5.591   6.510
 9145SOL    HW128334   0.497   5.515   6.569
 9145SOL    HW228335   0.434   5.555   6.423
 9146SOL     OW28336   5.675   3.150   4.006
 9146SOL    HW128337   5.586   3.138   3.961
 9146SOL    HW228338   5.715   3.237   3.977
 9147SOL     OW28339   5.903   6.810   5.554
 9147SOL    HW128340   5.893   6.764   5.466
 9147SOL    HW228341   5.993   6.854   5.558
 9148SOL     OW28342   5.642   6.209   1.507
 9148SOL    HW128343   5.728   6.159   1.508
 9148SOL    HW228344   5.622   6.239   1.414
 9149SOL     OW28345   5.492   3.943   2.556
 9149SOL    HW128346   5.421   3.909   2.494
 9149SOL    HW228347   5.532   4.027   2.519
 9150SOL     OW28348   3.494   5.132   1.042
 9150SOL    HW128349   3.470   5.181   1.125
 9150SOL    HW228350   3.477   5.190   0.962
 9151SOL     OW28351   2.183   4.670   3.310
 9151SOL    HW128352   2.206   4.762   3.345
 9151SOL    HW228353   2.178   4.673   3.211
 9152SOL     OW28354   2.284   4.277   4.925
 9152SOL    HW128355   2.306   4.184   4.953
 9152SOL    HW228356   2.322   4.342   4.991
 9153SOL     OW28357   0.332   2.938   6.765
 9153SOL    HW128358   0.362   2.843   6.762
 9153SOL    HW228359   0.303   2.966   6.674
 9154SOL     OW28360   5.679   4.923   6.338
 9154SOL    HW128361   5.620   4.944   6.260
 9154SOL    HW228362   5.759   4.872   6.306
 9155SOL     OW28363   1.721   4.026   2.310
 9155SOL    HW128364   1.709   4.074   2.223
 9155SOL    HW228365   1.792   3.957   2.300
 9156SOL     OW28366   1.004   2.181   0.402
 9156SOL    HW128367   1.056   2.206   0.320
 9156SOL    HW228368   1.066   2.152   0.474
 9157SOL     OW28369   2.127   4.156   6.702
 9157SOL    HW128370   2.183   4.115   6.775
 9157SOL    HW228371   2.151   4.115   6.614
 9158SOL     OW28372   6.106   3.633   4.173
 9158SOL    HW128373   6.106   3.703   4.244
 9158SOL    HW228374   6.016   3.630   4.129
 9159SOL     OW28375   1.627   1.019   2.531
 9159SOL    HW128376   1.612   0.944   2.595
 9159SOL    HW228377   1.648   1.102   2.582
 9160SOL     OW28378   0.153   6.922   6.218
 9160SOL    HW128379   0.144   6.842   6.159
 9160SOL    HW228380   0.230   6.979   6.186
 9161SOL     OW28381   5.266   5.276   3.900
 9161SOL    HW128382   5.307   5.261   3.810
 9161SOL    HW228383   5.316   5.349   3.947
 9162SOL     OW28384   4.256   0.831   3.593
 9162SOL    HW128385   4.257   0.904   3.524
 9162SOL    HW228386   4.205   0.861   3.673
 9163SOL     OW28387   0.628   2.674   4.382
 9163SOL    HW128388   0.529   2.683   4.380
 9163SOL    HW228389   0.654   2.612   4.457
 9164SOL     OW28390   2.490   0.337   0.165
 9164SOL    HW128391   2.456   0.380   0.249
 9164SOL    HW228392   2.531   0.249   0.187
 9165SOL     OW28393   6.326   1.273   5.497
 9165SOL    HW128394   6.304   1.368   5.519
 9165SOL    HW228395   6.412   1.269   5.446
 9166SOL     OW28396   4.408   6.059   1.423
 9166SOL    HW128397   4.331   6.010   1.382
 9166SOL    HW228398   4.490   6.002   1.417
 9167SOL     OW28399   1.948   1.950   6.173
 9167SOL    HW128400   1.967   1.950   6.271
 9167SOL    HW228401   2.009   2.015   6.128
 9168SOL     OW28402   6.633   6.091   5.845
 9168SOL    HW128403   6.563   6.025   5.871
 9168SOL    HW228404   6.663   6.142   5.925
 9169SOL     OW28405   6.726   6.974   6.290
 9169SOL    HW128406   6.653   7.012   6.233
 9169SOL    HW228407   6.812   6.975   6.239
 9170SOL     OW28408   1.851   0.323   7.011
 9170SOL    HW128409   1.913   0.335   6.934
 9170SOL    HW228410   1.844   0.409   0.036
 9171SOL     OW28411   3.449   5.887   0.509
 9171SOL    HW128412   3.533   5.834   0.506
 9171SOL    HW228413   3.373   5.828   0.535
 9172SOL     OW28414   5.188   1.039   3.279
 9172SOL    HW128415   5.240   0.993   3.350
 9172SOL    HW228416   5.118   0.977   3.243
 9173SOL     OW28417   5.816   4.495   5.891
 9173SOL    HW128418   5.733   4.545   5.917
 9173SOL    HW228419   5.864   4.547   5.821
 9174SOL     OW28420   6.837   4.884   0.624
 9174SOL    HW128421   6.754   4.831   0.640
 9174SOL    HW228422   6.856   4.941   0.704
 9175SOL     OW28423   1.719   6.362   6.429
 9175SOL    HW128424   1.656   6.414   6.371
 9175SOL    HW228425   1.808   6.357   6.385
 9176SOL     OW28426   2.226   1.142   2.581
 9176SOL    HW128427   2.309   1.158   2.528
 9176SOL    HW228428   2.149   1.185   2.536
 9177SOL     OW28429   0.898   4.140   4.281
 9177SOL    HW128430   0.804   4.137   4.248
 9177SOL    HW228431   0.924   4.235   4.297
 9178SOL     OW28432   2.293   5.109   0.385
 9178SOL    HW128433   2.264   5.202   0.363
 9178SOL    HW228434   2.225   5.066   0.444
 9179SOL     OW28435   1.752   5.585   3.804
 9179SOL    HW128436   1.753   5.626   3.713
 9179SOL    HW228437   1.727   5.488   3.797
 9180SOL     OW28438   6.296   2.270   3.235
 9180SOL    HW128439   6.384   2.244   3.197
 9180SOL    HW228440   6.251   2.188   3.272
 9181SOL     OW28441   6.139   2.188   4.392
 9181SOL    HW128442   6.047   2.210   4.358
 9181SOL    HW228443   6.134   2.106   4.450
 9182SOL     OW28444   3.135   0.122   3.162
 9182SOL    HW128445   3.208   0.155   3.222
 9182SOL    HW228446   3.134   0.022   3.162
 9183SOL     OW28447   4.744   4.543   0.395
 9183SOL    HW128448   4.782   4.468   0.340
 9183SOL    HW228449   4.650   4.521   0.421
 9184SOL     OW28450   4.467   2.520   1.341
 9184SOL    HW128451   4.498   2.457   1.270
 9184SOL    HW228452   4.479   2.614   1.310
 9185SOL     OW28453   6.234   6.526   5.191
 9185SOL    HW128454   6.285   6.593   5.245
 9185SOL    HW228455   6.212   6.565   5.102
 9186SOL     OW28456   5.880   6.813   4.300
 9186SOL    HW128457   5.844   6.903   4.325
 9186SOL    HW228458   5.841   6.744   4.360
 9187SOL     OW28459   3.329   2.203   0.289
 9187SOL    HW128460   3.255   2.252   0.244
 9187SOL    HW228461   3.327   2.107   0.260
 9188SOL     OW28462   2.333   0.363   1.633
 9188SOL    HW128463   2.374   0.323   1.715
 9188SOL    HW228464   2.286   0.447   1.657
 9189SOL     OW28465   3.245   5.787   2.414
 9189SOL    HW128466   3.287   5.699   2.392
 9189SOL    HW228467   3.169   5.805   2.352
 9190SOL     OW28468   1.291   3.240   5.713
 9190SOL    HW128469   1.283   3.335   5.683
 9190SOL    HW228470   1.386   3.211   5.707
 9191SOL     OW28471   5.719   1.133   6.963
 9191SOL    HW128472   5.755   1.046   6.997
 9191SOL    HW228473   5.686   1.121   6.869
 9192SOL     OW28474   6.900   2.582   6.132
 9192SOL    HW128475   6.940   2.643   6.064
 9192SOL    HW228476   6.872   2.635   6.212
 9193SOL     OW28477   3.838   3.323   4.538
 9193SOL    HW128478   3.935   3.304   4.553
 9193SOL    HW228479   3.827   3.418   4.509
 9194SOL     OW28480   3.550   0.780   2.374
 9194SOL    HW128481   3.463   0.741   2.404
 9194SOL    HW228482   3.577   0.853   2.436
 9195SOL     OW28483   1.371   3.271   2.716
 9195SOL    HW128484   1.415   3.325   2.788
 9195SOL    HW228485   1.316   3.198   2.758
 9196SOL     OW28486   5.743   6.512   3.617
 9196SOL    HW128487   5.770   6.454   3.540
 9196SOL    HW228488   5.750   6.460   3.702
 9197SOL     OW28489   3.020   4.882   0.719
 9197SOL    HW128490   3.029   4.916   0.625
 9197SOL    HW228491   3.082   4.805   0.732
 9198SOL     OW28492   6.595   4.510   6.207
 9198SOL    HW128493   6.568   4.416   6.184
 9198SOL    HW228494   6.589   4.567   6.125
 9199SOL     OW28495   6.753   2.902   5.495
 9199SOL    HW128496   6.831   2.905   5.557
 9199SOL    HW228497   6.742   2.990   5.451
 9200SOL     OW28498   2.840   6.186   5.789
 9200SOL    HW128499   2.879   6.275   5.766
 9200SOL    HW228500   2.895   6.114   5.747
 9201SOL     OW28501   6.749   3.317   6.749
 9201SOL    HW128502   6.821   3.348   6.811
 9201SOL    HW228503   6.684   3.259   6.798
 9202SOL     OW28504   0.910   5.945   3.747
 9202SOL    HW128505   0.980   5.944   3.817
 9202SOL    HW228506   0.924   5.869   3.684
 9203SOL     OW28507   6.285   3.146   5.760
 9203SOL    HW128508   6.292   3.146   5.859
 9203SOL    HW228509   6.205   3.199   5.732
 9204SOL     OW28510   4.929   3.479   4.319
 9204SOL    HW128511   4.852   3.417   4.332
 9204SOL    HW228512   4.994   3.439   4.255
 9205SOL     OW28513   5.199   5.518   3.164
 9205SOL    HW128514   5.158   5.587   3.224
 9205SOL    HW228515   5.150   5.517   3.077
 9206SOL     OW28516   3.364   6.352   3.403
 9206SOL    HW128517   3.417   6.348   3.318
 9206SOL    HW228518   3.333   6.445   3.419
 9207SOL     OW28519   4.530   4.354   0.136
 9207SOL    HW128520   4.541   4.454   0.137
 9207SOL    HW228521   4.564   4.317   0.223
 9208SOL     OW28522   5.517   4.253   2.739
 9208SOL    HW128523   5.433   4.268   2.790
 9208SOL    HW228524   5.584   4.206   2.797
 9209SOL     OW28525   4.793   1.085   0.972
 9209SOL    HW128526   4.806   1.183   0.991
 9209SOL    HW228527   4.715   1.051   1.025
 9210SOL     OW28528   1.407   1.634   0.867
 9210SOL    HW128529   1.367   1.624   0.958
 9210SOL    HW228530   1.433   1.729   0.852
 9211SOL     OW28531   6.286   2.751   6.270
 9211SOL    HW128532   6.349   2.714   6.202
 9211SOL    HW228533   6.271   2.849   6.251
 9212SOL     OW28534   5.457   4.142   4.246
 9212SOL    HW128535   5.413   4.227   4.215
 9212SOL    HW228536   5.509   4.102   4.170
 9213SOL     OW28537   4.902   4.904   4.516
 9213SOL    HW128538   4.839   4.886   4.440
 9213SOL    HW228539   4.893   4.999   4.545
 9214SOL     OW28540   0.141   2.669   4.866
 9214SOL    HW128541   0.157   2.730   4.788
 9214SOL    HW228542   0.223   2.665   4.923
 9215SOL     OW28543   1.258   4.731   2.120
 9215SOL    HW128544   1.234   4.820   2.159
 9215SOL    HW228545   1.261   4.662   2.193
 9216SOL     OW28546   2.166   6.831   3.424
 9216SOL    HW128547   2.222   6.811   3.344
 9216SOL    HW228548   2.176   6.758   3.492
 9217SOL     OW28549   6.622   3.164   6.923
 9217SOL    HW128550   6.614   3.102   7.001
 9217SOL    HW228551   6.600   3.257   6.953
 9218SOL     OW28552   3.942   1.050   6.821
 9218SOL    HW128553   3.891   1.136   6.828
 9218SOL    HW228554   4.040   1.071   6.821
 9219SOL     OW28555   4.931   3.796   6.592
 9219SOL    HW128556   5.019   3.796   6.639
 9219SOL    HW228557   4.858   3.812   6.658
 9220SOL     OW28558   1.249   6.458   1.851
 9220SOL    HW128559   1.319   6.525   1.878
 9220SOL    HW228560   1.160   6.504   1.843
 9221SOL     OW28561   1.955   0.308   3.513
 9221SOL    HW128562   2.032   0.313   3.449
 9221SOL    HW228563   1.989   0.284   3.604
 9222SOL     OW28564   2.614   5.785   5.437
 9222SOL    HW128565   2.589   5.826   5.524
 9222SOL    HW228566   2.540   5.798   5.370
 9223SOL     OW28567   1.442   2.381   4.187
 9223SOL    HW128568   1.511   2.309   4.187
 9223SOL    HW228569   1.412   2.398   4.281
 9224SOL     OW28570   0.860   5.331   3.545
 9224SOL    HW128571   0.797   5.255   3.554
 9224SOL    HW228572   0.886   5.365   3.635
 9225SOL     OW28573   3.191   6.108   6.057
 9225SOL    HW128574   3.167   6.018   6.094
 9225SOL    HW228575   3.212   6.171   6.132
 9226SOL     OW28576   0.373   0.014   1.588
 9226SOL    HW128577   0.383   6.969   1.656
 9226SOL    HW228578   0.278   0.046   1.587
 9227SOL     OW28579   2.284   5.936   0.851
 9227SOL    HW128580   2.221   5.908   0.778
 9227SOL    HW228581   2.318   5.854   0.899
 9228SOL     OW28582   2.666   1.447   6.925
 9228SOL    HW128583   2.692   1.366   6.873
 9228SOL    HW228584   2.572   1.437   6.958
 9229SOL     OW28585   0.590   4.960   5.301
 9229SOL    HW128586   0.504   4.913   5.279
 9229SOL    HW228587   0.667   4.902   5.274
 9230SOL     OW28588   4.949   3.218   3.567
 9230SOL    HW128589   4.907   3.230   3.476
 9230SOL    HW228590   5.023   3.151   3.560
 9231SOL     OW28591   1.452   3.635   5.386
 9231SOL    HW128592   1.457   3.733   5.405
 9231SOL    HW228593   1.359   3.603   5.400
 9232SOL     OW28594   3.095   5.294   6.477
 9232SOL    HW128595   3.029   5.365   6.504
 9232SOL    HW228596   3.172   5.337   6.429
 9233SOL     OW28597   6.064   6.178   1.285
 9233SOL    HW128598   6.144   6.237   1.273
 9233SOL    HW228599   6.019   6.199   1.371
 9234SOL     OW28600   3.244   5.687   0.619
 9234SOL    HW128601   3.169   5.753   0.629
 9234SOL    HW228602   3.299   5.686   0.703
 9235SOL     OW28603   2.194   2.605   3.254
 9235SOL    HW128604   2.139   2.580   3.333
 9235SOL    HW228605   2.211   2.523   3.199
 9236SOL     OW28606   2.236   4.412   6.673
 9236SOL    HW128607   2.164   4.463   6.720
 9236SOL    HW228608   2.211   4.315   6.670
 9237SOL     OW28609   0.585   5.732   2.711
 9237SOL    HW128610   0.595   5.801   2.783
 9237SOL    HW228611   0.673   5.720   2.664
 9238SOL     OW28612   2.341   3.229   6.069
 9238SOL    HW128613   2.394   3.144   6.073
 9238SOL    HW228614   2.328   3.255   5.974
 9239SOL     OW28615   0.439   3.591   5.983
 9239SOL    HW128616   0.361   3.652   5.993
 9239SOL    HW228617   0.432   3.516   6.049
 9240SOL     OW28618   5.100   2.726   2.213
 9240SOL    HW128619   5.074   2.651   2.273
 9240SOL    HW228620   5.177   2.775   2.253
 9241SOL     OW28621   0.249   4.944   6.791
 9241SOL    HW128622   0.285   4.884   6.862
 9241SOL    HW228623   0.188   5.013   6.833
 9242SOL     OW28624   1.156   4.154   0.501
 9242SOL    HW128625   1.137   4.076   0.560
 9242SOL    HW228626   1.235   4.134   0.443
 9243SOL     OW28627   0.291   0.262   1.356
 9243SOL    HW128628   0.382   0.240   1.390
 9243SOL    HW228629   0.290   0.252   1.256
 9244SOL     OW28630   3.603   5.426   6.024
 9244SOL    HW128631   3.637   5.511   5.984
 9244SOL    HW228632   3.528   5.390   5.968
 9245SOL     OW28633   0.848   5.774   4.033
 9245SOL    HW128634   0.769   5.776   3.972
 9245SOL    HW228635   0.829   5.831   4.113
 9246SOL     OW28636   6.353   6.953   2.985
 9246SOL    HW128637   6.405   7.022   2.934
 9246SOL    HW228638   6.323   6.881   2.923
 9247SOL     OW28639   2.359   6.014   3.221
 9247SOL    HW128640   2.451   6.053   3.222
 9247SOL    HW228641   2.325   6.006   3.314
 9248SOL     OW28642   3.139   1.897   4.185
 9248SOL    HW128643   3.153   1.801   4.209
 9248SOL    HW228644   3.113   1.903   4.089
 9249SOL     OW28645   3.743   4.972   1.520
 9249SOL    HW128646   3.652   4.932   1.510
 9249SOL    HW228647   3.802   4.936   1.447
 9250SOL     OW28648   5.850   2.564   4.585
 9250SOL    HW128649   5.799   2.627   4.643
 9250SOL    HW228650   5.789   2.526   4.516
 9251SOL     OW28651   3.829   1.763   3.169
 9251SOL    HW128652   3.848   1.725   3.260
 9251SOL    HW228653   3.867   1.855   3.163
 9252SOL     OW28654   5.460   0.870   4.750
 9252SOL    HW128655   5.527   0.800   4.776
 9252SOL    HW228656   5.484   0.957   4.793
 9253SOL     OW28657   5.337   5.541   5.417
 9253SOL    HW128658   5.350   5.443   5.401
 9253SOL    HW228659   5.243   5.558   5.446
 9254SOL     OW28660   5.329   5.005   3.209
 9254SOL    HW128661   5.366   5.078   3.152
 9254SOL    HW228662   5.268   5.043   3.278
 9255SOL     OW28663   4.479   3.781   0.533
 9255SOL    HW128664   4.406   3.849   0.524
 9255SOL    HW228665   4.530   3.797   0.618
 9256SOL     OW28666   3.450   0.145   3.000
 9256SOL    HW128667   3.542   0.123   2.969
 9256SOL    HW228668   3.455   0.201   3.082
 9257SOL     OW28669   0.163   4.361   3.539
 9257SOL    HW128670   0.248   4.319   3.508
 9257SOL    HW228671   0.149   4.340   3.636
 9258SOL     OW28672   3.871   3.918   2.618
 9258SOL    HW128673   3.946   3.964   2.665
 9258SOL    HW228674   3.859   3.827   2.657
 9259SOL     OW28675   0.469   1.928   0.655
 9259SOL    HW128676   0.431   1.974   0.735
 9259SOL    HW228677   0.478   1.830   0.673
 9260SOL     OW28678   6.301   1.533   5.540
 9260SOL    HW128679   6.397   1.559   5.543
 9260SOL    HW228680   6.255   1.568   5.622
 9261SOL     OW28681   3.304   1.455   0.736
 9261SOL    HW128682   3.352   1.526   0.686
 9261SOL    HW228683   3.256   1.395   0.671
 9262SOL     OW28684   6.738   5.039   4.848
 9262SOL    HW128685   6.708   4.971   4.782
 9262SOL    HW228686   6.682   5.122   4.838
 9263SOL     OW28687   4.715   0.448   1.820
 9263SOL    HW128688   4.727   0.363   1.768
 9263SOL    HW228689   4.640   0.500   1.780
 9264SOL     OW28690   5.245   4.449   0.757
 9264SOL    HW128691   5.321   4.393   0.788
 9264SOL    HW228692   5.279   4.524   0.700
 9265SOL     OW28693   3.959   2.332   7.013
 9265SOL    HW128694   4.026   2.402   0.013
 9265SOL    HW228695   3.873   2.376   6.987
 9266SOL     OW28696   1.069   6.341   0.461
 9266SOL    HW128697   1.016   6.375   0.539
 9266SOL    HW228698   1.075   6.242   0.466
 9267SOL     OW28699   0.416   2.331   4.446
 9267SOL    HW128700   0.473   2.263   4.492
 9267SOL    HW228701   0.342   2.285   4.397
 9268SOL     OW28702   1.036   5.770   2.530
 9268SOL    HW128703   0.944   5.762   2.491
 9268SOL    HW228704   1.029   5.801   2.624
 9269SOL     OW28705   4.037   0.955   6.281
 9269SOL    HW128706   4.056   0.872   6.228
 9269SOL    HW228707   4.116   0.976   6.339
 9270SOL     OW28708   4.325   6.249   6.198
 9270SOL    HW128709   4.252   6.214   6.139
 9270SOL    HW228710   4.287   6.313   6.265
 9271SOL     OW28711   6.295   0.286   1.042
 9271SOL    HW128712   6.303   0.205   1.101
 9271SOL    HW228713   6.206   0.329   1.058
 9272SOL     OW28714   0.677   5.876   5.300
 9272SOL    HW128715   0.608   5.917   5.239
 9272SOL    HW228716   0.661   5.908   5.393
 9273SOL     OW28717   6.232   6.380   2.657
 9273SOL    HW128718   6.294   6.437   2.710
 9273SOL    HW228719   6.205   6.427   2.573
 9274SOL     OW28720   6.668   1.481   0.388
 9274SOL    HW128721   6.669   1.388   0.425
 9274SOL    HW228722   6.691   1.478   0.290
 9275SOL     OW28723   6.207   1.028   0.008
 9275SOL    HW128724   6.140   1.064   6.971
 9275SOL    HW228725   6.270   0.967   6.986
 9276SOL     OW28726   1.653   3.926   1.504
 9276SOL    HW128727   1.653   3.849   1.439
 9276SOL    HW228728   1.644   3.891   1.597
 9277SOL     OW28729   4.071   4.340   0.566
 9277SOL    HW128730   4.037   4.293   0.648
 9277SOL    HW228731   3.995   4.353   0.502
 9278SOL     OW28732   1.952   0.376   6.040
 9278SOL    HW128733   1.983   0.281   6.048
 9278SOL    HW228734   1.974   0.425   6.125
 9279SOL     OW28735   3.267   0.569   2.024
 9279SOL    HW128736   3.277   0.476   1.991
 9279SOL    HW228737   3.326   0.584   2.103
 9280SOL     OW28738   2.384   1.813   2.803
 9280SOL    HW128739   2.439   1.896   2.789
 9280SOL    HW228740   2.295   1.824   2.760
 9281SOL     OW28741   2.685   3.665   6.912
 9281SOL    HW128742   2.629   3.744   6.936
 9281SOL    HW228743   2.761   3.657   6.976
 9282SOL     OW28744   6.176   0.474   3.350
 9282SOL    HW128745   6.097   0.487   3.290
 9282SOL    HW228746   6.260   0.481   3.296
 9283SOL     OW28747   5.269   0.874   3.986
 9283SOL    HW128748   5.198   0.804   3.993
 9283SOL    HW228749   5.300   0.900   4.077
 9284SOL     OW28750   2.948   3.349   5.717
 9284SOL    HW128751   2.959   3.363   5.619
 9284SOL    HW228752   2.851   3.342   5.739
 9285SOL     OW28753   5.113   3.081   0.948
 9285SOL    HW128754   5.096   3.112   1.041
 9285SOL    HW228755   5.156   2.990   0.951
 9286SOL     OW28756   5.928   5.828   0.813
 9286SOL    HW128757   5.842   5.782   0.834
 9286SOL    HW228758   5.952   5.890   0.888
 9287SOL     OW28759   3.172   5.154   6.896
 9287SOL    HW128760   3.169   5.205   6.810
 9287SOL    HW228761   3.196   5.215   6.971
 9288SOL     OW28762   4.490   1.477   2.739
 9288SOL    HW128763   4.481   1.524   2.651
 9288SOL    HW228764   4.475   1.541   2.814
 9289SOL     OW28765   3.852   0.443   1.709
 9289SOL    HW128766   3.950   0.451   1.724
 9289SOL    HW228767   3.834   0.407   1.617
 9290SOL     OW28768   5.454   0.391   3.056
 9290SOL    HW128769   5.532   0.452   3.069
 9290SOL    HW228770   5.414   0.407   2.966
 9291SOL     OW28771   1.036   4.952   5.398
 9291SOL    HW128772   1.021   5.028   5.335
 9291SOL    HW228773   1.133   4.944   5.419
 9292SOL     OW28774   2.018   3.184   6.406
 9292SOL    HW128775   2.022   3.174   6.306
 9292SOL    HW228776   1.963   3.109   6.444
 9293SOL     OW28777   6.073   3.128   6.346
 9293SOL    HW128778   6.121   3.197   6.402
 9293SOL    HW228779   5.977   3.123   6.374
 9294SOL     OW28780   4.580   6.724   6.111
 9294SOL    HW128781   4.610   6.817   6.134
 9294SOL    HW228782   4.656   6.661   6.125
 9295SOL     OW28783   6.144   0.919   4.891
 9295SOL    HW128784   6.220   0.984   4.896
 9295SOL    HW228785   6.110   0.914   4.798
 9296SOL     OW28786   1.144   5.557   6.413
 9296SOL    HW128787   1.221   5.590   6.360
 9296SOL    HW228788   1.061   5.559   6.358
 9297SOL     OW28789   1.046   6.840   3.229
 9297SOL    HW128790   1.034   6.843   3.130
 9297SOL    HW228791   0.962   6.807   3.272
 9298SOL     OW28792   1.154   6.491   6.815
 9298SOL    HW128793   1.071   6.436   6.822
 9298SOL    HW228794   1.160   6.552   6.893
 9299SOL     OW28795   0.644   2.479   4.573
 9299SOL    HW128796   0.556   2.436   4.554
 9299SOL    HW228797   0.677   2.450   4.662
 9300SOL     OW28798   0.527   4.133   5.965
 9300SOL    HW128799   0.523   4.142   6.065
 9300SOL    HW228800   0.612   4.088   5.939
 9301SOL     OW28801   5.685   5.226   5.084
 9301SOL    HW128802   5.694   5.129   5.064
 9301SOL    HW228803   5.678   5.278   4.999
 9302SOL     OW28804   2.082   2.584   3.655
 9302SOL    HW128805   2.007   2.557   3.715
 9302SOL    HW228806   2.048   2.590   3.561
 9303SOL     OW28807   2.705   3.734   1.009
 9303SOL    HW128808   2.790   3.718   0.958
 9303SOL    HW228809   2.701   3.675   1.089
 9304SOL     OW28810   3.955   4.619   1.706
 9304SOL    HW128811   4.006   4.537   1.681
 9304SOL    HW228812   3.860   4.609   1.678
 9305SOL     OW28813   3.472   1.240   0.560
 9305SOL    HW128814   3.419   1.156   0.555
 9305SOL    HW228815   3.514   1.248   0.650
 9306SOL     OW28816   1.143   4.072   5.343
 9306SOL    HW128817   1.054   4.116   5.347
 9306SOL    HW228818   1.180   4.060   5.435
 9307SOL     OW28819   0.828   3.925   0.850
 9307SOL    HW128820   0.833   3.964   0.942
 9307SOL    HW228821   0.862   3.831   0.851
 9308SOL     OW28822   1.151   3.782   0.504
 9308SOL    HW128823   1.154   3.693   0.548
 9308SOL    HW228824   1.151   3.854   0.573
 9309SOL     OW28825   3.692   5.219   6.183
 9309SOL    HW128826   3.791   5.232   6.189
 9309SOL    HW228827   3.652   5.292   6.129
 9310SOL     OW28828   5.764   5.865   5.526
 9310SOL    HW128829   5.745   5.770   5.500
 9310SOL    HW228830   5.806   5.913   5.449
 9311SOL     OW28831   4.434   4.619   1.430
 9311SOL    HW128832   4.409   4.580   1.341
 9311SOL    HW228833   4.512   4.570   1.467
 9312SOL     OW28834   1.160   3.508   1.224
 9312SOL    HW128835   1.210   3.461   1.151
 9312SOL    HW228836   1.206   3.594   1.247
 9313SOL     OW28837   6.891   0.485   1.593
 9313SOL    HW128838   6.923   0.560   1.536
 9313SOL    HW228839   6.963   0.457   1.657
 9314SOL     OW28840   6.460   4.159   6.753
 9314SOL    HW128841   6.364   4.188   6.744
 9314SOL    HW228842   6.519   4.233   6.721
 9315SOL     OW28843   7.006   0.154   5.669
 9315SOL    HW128844   6.972   0.109   5.751
 9315SOL    HW228845   6.970   0.247   5.664
 9316SOL     OW28846   5.367   6.646   5.923
 9316SOL    HW128847   5.324   6.642   5.833
 9316SOL    HW228848   5.466   6.637   5.912
 9317SOL     OW28849   5.256   5.704   3.982
 9317SOL    HW128850   5.312   5.766   3.928
 9317SOL    HW228851   5.178   5.674   3.927
 9318SOL     OW28852   6.231   1.353   6.285
 9318SOL    HW128853   6.312   1.299   6.261
 9318SOL    HW228854   6.170   1.297   6.341
 9319SOL     OW28855   2.158   2.936   6.944
 9319SOL    HW128856   2.222   2.882   6.888
 9319SOL    HW228857   2.144   3.025   6.901
 9320SOL     OW28858   3.644   0.806   4.813
 9320SOL    HW128859   3.601   0.889   4.849
 9320SOL    HW228860   3.663   0.819   4.715
 9321SOL     OW28861   0.900   0.446   5.034
 9321SOL    HW128862   0.922   0.369   5.094
 9321SOL    HW228863   0.980   0.468   4.977
 9322SOL     OW28864   6.946   3.485   6.006
 9322SOL    HW128865   7.013   3.559   6.013
 9322SOL    HW228866   6.914   3.459   6.097
 9323SOL     OW28867   1.375   1.390   5.403
 9323SOL    HW128868   1.403   1.424   5.493
 9323SOL    HW228869   1.304   1.321   5.415
 9324SOL     OW28870   1.111   4.797   1.886
 9324SOL    HW128871   1.188   4.751   1.930
 9324SOL    HW228872   1.092   4.754   1.798
 9325SOL     OW28873   6.034   1.151   6.887
 9325SOL    HW128874   6.018   1.245   6.919
 9325SOL    HW228875   5.948   1.113   6.852
 9326SOL     OW28876   2.703   4.577   0.158
 9326SOL    HW128877   2.706   4.583   0.058
 9326SOL    HW228878   2.607   4.576   0.188
 9327SOL     OW28879   4.709   0.173   2.440
 9327SOL    HW128880   4.704   0.138   2.346
 9327SOL    HW228881   4.775   0.248   2.444
 9328SOL     OW28882   2.480   1.022   4.358
 9328SOL    HW128883   2.567   1.010   4.311
 9328SOL    HW228884   2.466   0.949   4.424
 9329SOL     OW28885   5.928   3.639   0.942
 9329SOL    HW128886   5.840   3.596   0.960
 9329SOL    HW228887   5.998   3.597   0.999
 9330SOL     OW28888   6.594   0.282   5.448
 9330SOL    HW128889   6.628   0.191   5.425
 9330SOL    HW228890   6.671   0.347   5.450
 9331SOL     OW28891   2.589   0.787   6.545
 9331SOL    HW128892   2.642   0.844   6.482
 9331SOL    HW228893   2.492   0.799   6.527
 9332SOL     OW28894   3.831   4.730   0.546
 9332SOL    HW128895   3.828   4.650   0.605
 9332SOL    HW228896   3.778   4.712   0.463
 9333SOL     OW28897   3.612   4.842   6.727
 9333SOL    HW128898   3.560   4.765   6.763
 9333SOL    HW228899   3.705   4.813   6.704
 9334SOL     OW28900   5.111   6.517   4.405
 9334SOL    HW128901   5.154   6.539   4.493
 9334SOL    HW228902   5.131   6.588   4.339
 9335SOL     OW28903   1.292   1.266   6.766
 9335SOL    HW128904   1.305   1.300   6.860
 9335SOL    HW228905   1.232   1.186   6.768
 9336SOL     OW28906   3.851   6.930   5.068
 9336SOL    HW128907   3.808   6.989   5.000
 9336SOL    HW228908   3.942   6.965   5.090
 9337SOL     OW28909   4.171   0.453   5.181
 9337SOL    HW128910   4.254   0.488   5.225
 9337SOL    HW228911   4.124   0.528   5.135
 9338SOL     OW28912   6.260   0.017   1.144
 9338SOL    HW128913   6.360   0.008   1.145
 9338SOL    HW228914   6.223   7.006   1.228
 9339SOL     OW28915   5.962   6.582   0.020
 9339SOL    HW128916   5.891   6.637   0.064
 9339SOL    HW228917   6.049   6.631   0.025
 9340SOL     OW28918   3.741   4.855   3.918
 9340SOL    HW128919   3.710   4.807   4.000
 9340SOL    HW228920   3.829   4.819   3.888
 9341SOL     OW28921   5.980   5.180   1.123
 9341SOL    HW128922   5.974   5.216   1.216
 9341SOL    HW228923   5.905   5.117   1.106
 9342SOL     OW28924   2.935   7.007   4.319
 9342SOL    HW128925   3.014   6.959   4.282
 9342SOL    HW228926   2.930   6.993   4.418
 9343SOL     OW28927   4.756   4.225   1.795
 9343SOL    HW128928   4.789   4.140   1.753
 9343SOL    HW228929   4.656   4.223   1.800
 9344SOL     OW28930   5.416   6.302   1.642
 9344SOL    HW128931   5.442   6.281   1.736
 9344SOL    HW228932   5.485   6.265   1.579
 9345SOL     OW28933   6.747   5.165   1.538
 9345SOL    HW128934   6.666   5.131   1.587
 9345SOL    HW228935   6.748   5.127   1.445
 9346SOL     OW28936   4.944   1.140   2.027
 9346SOL    HW128937   4.977   1.049   2.053
 9346SOL    HW228938   4.863   1.162   2.081
 9347SOL     OW28939   3.794   4.336   0.449
 9347SOL    HW128940   3.705   4.294   0.430
 9347SOL    HW228941   3.787   4.394   0.530
 9348SOL     OW28942   2.551   5.742   1.957
 9348SOL    HW128943   2.542   5.823   2.015
 9348SOL    HW228944   2.566   5.661   2.015
 9349SOL     OW28945   5.694   5.112   2.016
 9349SOL    HW128946   5.789   5.085   2.000
 9349SOL    HW228947   5.659   5.068   2.098
 9350SOL     OW28948   6.683   2.372   5.302
 9350SOL    HW128949   6.750   2.416   5.361
 9350SOL    HW228950   6.643   2.440   5.240
 9351SOL     OW28951   3.322   0.015   6.197
 9351SOL    HW128952   3.254   6.977   6.165
 9351SOL    HW228953   3.287   0.109   6.187
 9352SOL     OW28954   3.184   1.508   6.174
 9352SOL    HW128955   3.100   1.460   6.150
 9352SOL    HW228956   3.261   1.444   6.171
 9353SOL     OW28957   0.304   4.347   0.633
 9353SOL    HW128958   0.275   4.437   0.602
 9353SOL    HW228959   0.297   4.341   0.732
 9354SOL     OW28960   0.225   2.388   6.058
 9354SOL    HW128961   0.211   2.349   5.966
 9354SOL    HW228962   0.182   2.328   6.126
 9355SOL     OW28963   0.514   1.779   4.582
 9355SOL    HW128964   0.416   1.800   4.581
 9355SOL    HW228965   0.527   1.682   4.605
 9356SOL     OW28966   4.888   6.064   2.435
 9356SOL    HW128967   4.855   6.027   2.348
 9356SOL    HW228968   4.814   6.061   2.502
 9357SOL     OW28969   2.023   3.780   6.440
 9357SOL    HW128970   1.965   3.746   6.514
 9357SOL    HW228971   2.068   3.864   6.469
 9358SOL     OW28972   6.773   3.340   2.400
 9358SOL    HW128973   6.802   3.416   2.342
 9358SOL    HW228974   6.740   3.265   2.343
 9359SOL     OW28975   1.673   4.001   5.246
 9359SOL    HW128976   1.603   4.057   5.200
 9359SOL    HW228977   1.644   3.981   5.339
 9360SOL     OW28978   1.351   5.512   6.799
 9360SOL    HW128979   1.344   5.600   6.752
 9360SOL    HW228980   1.416   5.520   6.875
 9361SOL     OW28981   1.778   5.624   2.356
 9361SOL    HW128982   1.869   5.622   2.314
 9361SOL    HW228983   1.727   5.702   2.320
 9362SOL     OW28984   2.109   3.642   3.123
 9362SOL    HW128985   2.042   3.579   3.085
 9362SOL    HW228986   2.155   3.600   3.201
 9363SOL     OW28987   3.690   6.974   2.282
 9363SOL    HW128988   3.625   7.015   2.218
 9363SOL    HW228989   3.659   6.882   2.307
 9364SOL     OW28990   4.187   3.264   6.411
 9364SOL    HW128991   4.143   3.350   6.386
 9364SOL    HW228992   4.118   3.191   6.414
 9365SOL     OW28993   2.410   1.868   4.826
 9365SOL    HW128994   2.428   1.901   4.733
 9365SOL    HW228995   2.361   1.781   4.822
 9366SOL     OW28996   3.532   6.710   6.456
 9366SOL    HW128997   3.578   6.774   6.518
 9366SOL    HW228998   3.437   6.697   6.486
 9367SOL     OW28999   0.318   0.044   2.988
 9367SOL    HW129000   0.325   6.974   2.963
 9367SOL    HW229001   0.330   0.101   2.906
 9368SOL     OW29002   2.963   0.987   2.801
 9368SOL    HW129003   3.049   1.036   2.789
 9368SOL    HW229004   2.940   0.939   2.716
 9369SOL     OW29005   6.895   6.079   4.660
 9369SOL    HW129006   6.895   5.980   4.641
 9369SOL    HW229007   6.803   6.109   4.684
 9370SOL     OW29008   4.826   0.441   3.596
 9370SOL    HW129009   4.736   0.431   3.637
 9370SOL    HW229010   4.817   0.475   3.502
 9371SOL     OW29011   2.805   5.466   0.481
 9371SOL    HW129012   2.854   5.391   0.436
 9371SOL    HW229013   2.813   5.456   0.580
 9372SOL     OW29014   5.625   0.043   2.671
 9372SOL    HW129015   5.681   0.029   2.589
 9372SOL    HW229016   5.672   0.105   2.733
 9373SOL     OW29017   4.941   2.144   2.689
 9373SOL    HW129018   4.858   2.198   2.678
 9373SOL    HW229019   4.962   2.135   2.786
 9374SOL     OW29020   0.766   3.743   0.269
 9374SOL    HW129021   0.744   3.695   0.354
 9374SOL    HW229022   0.696   3.722   0.200
 9375SOL     OW29023   0.360   0.959   1.431
 9375SOL    HW129024   0.344   0.971   1.333
 9375SOL    HW229025   0.281   0.995   1.482
 9376SOL     OW29026   2.408   3.911   1.279
 9376SOL    HW129027   2.400   3.819   1.316
 9376SOL    HW229028   2.504   3.934   1.268
 9377SOL     OW29029   1.712   5.797   4.207
 9377SOL    HW129030   1.668   5.728   4.150
 9377SOL    HW229031   1.696   5.777   4.304
 9378SOL     OW29032   1.871   1.447   3.847
 9378SOL    HW129033   1.914   1.379   3.906
 9378SOL    HW229034   1.776   1.420   3.830
 9379SOL     OW29035   4.808   6.073   5.773
 9379SOL    HW129036   4.899   6.101   5.741
 9379SOL    HW229037   4.771   6.142   5.834
 9380SOL     OW29038   4.637   5.655   4.992
 9380SOL    HW129039   4.686   5.646   5.078
 9380SOL    HW229040   4.568   5.727   4.999
 9381SOL     OW29041   3.887   2.769   6.254
 9381SOL    HW129042   3.881   2.844   6.320
 9381SOL    HW229043   3.797   2.755   6.213
 9382SOL     OW29044   3.717   0.480   3.266
 9382SOL    HW129045   3.801   0.491   3.213
 9382SOL    HW229046   3.731   0.513   3.359
 9383SOL     OW29047   0.133   5.775   4.683
 9383SOL    HW129048   0.036   5.799   4.677
 9383SOL    HW229049   0.184   5.855   4.714
 9384SOL     OW29050   4.040   0.669   2.010
 9384SOL    HW129051   4.129   0.702   2.042
 9384SOL    HW229052   4.015   0.587   2.061
 9385SOL     OW29053   4.040   0.853   3.349
 9385SOL    HW129054   4.106   0.928   3.354
 9385SOL    HW229055   3.990   0.847   3.435
 9386SOL     OW29056   1.786   5.960   5.051
 9386SOL    HW129057   1.868   5.943   5.105
 9386SOL    HW229058   1.728   5.878   5.051
 9387SOL     OW29059   2.876   1.548   6.738
 9387SOL    HW129060   2.926   1.470   6.700
 9387SOL    HW229061   2.784   1.520   6.763
 9388SOL     OW29062   3.064   6.495   3.185
 9388SOL    HW129063   3.107   6.527   3.269
 9388SOL    HW229064   3.134   6.459   3.123
 9389SOL     OW29065   2.170   0.352   3.354
 9389SOL    HW129066   2.263   0.317   3.340
 9389SOL    HW229067   2.174   0.448   3.381
 9390SOL     OW29068   4.654   4.959   6.186
 9390SOL    HW129069   4.657   4.954   6.086
 9390SOL    HW229070   4.583   4.897   6.220
 9391SOL     OW29071   2.240   1.859   5.266
 9391SOL    HW129072   2.262   1.914   5.185
 9391SOL    HW229073   2.143   1.873   5.290
 9392SOL     OW29074   5.846   5.942   5.077
 9392SOL    HW129075   5.770   6.003   5.100
 9392SOL    HW229076   5.911   5.940   5.152
 9393SOL     OW29077   3.054   6.612   6.909
 9393SOL    HW129078   3.092   6.536   6.855
 9393SOL    HW229079   3.119   6.639   6.979
 9394SOL     OW29080   6.602   0.725   1.570
 9394SOL    HW129081   6.607   0.634   1.611
 9394SOL    HW229082   6.645   0.724   1.480
 9395SOL     OW29083   3.206   1.813   1.175
 9395SOL    HW129084   3.218   1.908   1.204
 9395SOL    HW229085   3.248   1.752   1.243
 9396SOL     OW29086   2.322   4.152   4.046
 9396SOL    HW129087   2.284   4.068   4.085
 9396SOL    HW229088   2.356   4.210   4.120
 9397SOL     OW29089   4.253   0.045   6.324
 9397SOL    HW129090   4.201   0.054   6.239
 9397SOL    HW229091   4.242   0.128   6.378
 9398SOL     OW29092   6.402   1.217   4.932
 9398SOL    HW129093   6.456   1.296   4.962
 9398SOL    HW229094   6.444   1.178   4.850
 9399SOL     OW29095   1.075   3.002   5.495
 9399SOL    HW129096   1.009   3.069   5.529
 9399SOL    HW229097   1.030   2.914   5.483
 9400SOL     OW29098   4.567   1.141   1.284
 9400SOL    HW129099   4.607   1.111   1.371
 9400SOL    HW229100   4.630   1.205   1.240
 9401SOL     OW29101   6.472   0.696   3.383
 9401SOL    HW129102   6.461   0.619   3.319
 9401SOL    HW229103   6.427   0.777   3.345
 9402SOL     OW29104   1.067   5.092   2.835
 9402SOL    HW129105   1.167   5.088   2.841
 9402SOL    HW229106   1.030   5.144   2.912
 9403SOL     OW29107   6.424   1.153   2.139
 9403SOL    HW129108   6.386   1.235   2.183
 9403SOL    HW229109   6.445   1.173   2.043
 9404SOL     OW29110   1.204   3.065   0.360
 9404SOL    HW129111   1.246   3.084   0.449
 9404SOL    HW229112   1.159   2.975   0.363
 9405SOL     OW29113   2.441   4.382   3.853
 9405SOL    HW129114   2.353   4.429   3.853
 9405SOL    HW229115   2.437   4.303   3.914
 9406SOL     OW29116   6.833   2.906   5.970
 9406SOL    HW129117   6.753   2.848   5.953
 9406SOL    HW229118   6.814   2.999   5.938
 9407SOL     OW29119   2.887   4.831   3.519
 9407SOL    HW129120   2.938   4.854   3.602
 9407SOL    HW229121   2.792   4.812   3.543
 9408SOL     OW29122   6.743   3.155   5.760
 9408SOL    HW129123   6.729   3.250   5.788
 9408SOL    HW229124   6.656   3.115   5.732
 9409SOL     OW29125   5.838   5.483   0.243
 9409SOL    HW129126   5.808   5.465   0.150
 9409SOL    HW229127   5.927   5.439   0.258
 9410SOL     OW29128   2.061   0.650   2.260
 9410SOL    HW129129   2.117   0.659   2.177
 9410SOL    HW229130   1.965   0.665   2.237
 9411SOL     OW29131   3.573   3.618   2.557
 9411SOL    HW129132   3.507   3.665   2.616
 9411SOL    HW229133   3.526   3.548   2.503
 9412SOL     OW29134   1.070   1.043   2.546
 9412SOL    HW129135   1.144   1.035   2.479
 9412SOL    HW229136   1.028   0.954   2.561
 9413SOL     OW29137   4.227   6.074   3.748
 9413SOL    HW129138   4.241   6.025   3.661
 9413SOL    HW229139   4.191   6.165   3.729
 9414SOL     OW29140   3.128   0.960   3.171
 9414SOL    HW129141   3.050   0.972   3.110
 9414SOL    HW229142   3.110   0.886   3.235
 9415SOL     OW29143   2.504   6.909   2.444
 9415SOL    HW129144   2.489   6.974   2.518
 9415SOL    HW229145   2.512   6.959   2.357
 9416SOL     OW29146   0.115   2.007   6.775
 9416SOL    HW129147   0.088   1.947   6.700
 9416SOL    HW229148   0.034   2.051   6.814
 9417SOL     OW29149   4.410   0.456   0.987
 9417SOL    HW129150   4.473   0.410   0.924
 9417SOL    HW229151   4.459   0.532   1.032
 9418SOL     OW29152   3.093   0.781   1.411
 9418SOL    HW129153   3.135   0.733   1.333
 9418SOL    HW229154   3.152   0.770   1.492
 9419SOL     OW29155   2.844   3.852   5.650
 9419SOL    HW129156   2.769   3.914   5.626
 9419SOL    HW229157   2.923   3.871   5.592
 9420SOL     OW29158   5.561   4.257   6.237
 9420SOL    HW129159   5.513   4.342   6.217
 9420SOL    HW229160   5.659   4.269   6.222
 9421SOL     OW29161   2.284   6.220   4.546
 9421SOL    HW129162   2.265   6.165   4.465
 9421SOL    HW229163   2.356   6.286   4.526
 9422SOL     OW29164   2.795   5.508   2.992
 9422SOL    HW129165   2.757   5.450   3.064
 9422SOL    HW229166   2.850   5.452   2.930
 9423SOL     OW29167   2.844   6.573   3.683
 9423SOL    HW129168   2.852   6.651   3.746
 9423SOL    HW229169   2.931   6.562   3.634
 9424SOL     OW29170   5.079   2.111   4.940
 9424SOL    HW129171   5.058   2.207   4.957
 9424SOL    HW229172   5.145   2.079   5.007
 9425SOL     OW29173   5.452   3.641   1.303
 9425SOL    HW129174   5.429   3.585   1.223
 9425SOL    HW229175   5.423   3.593   1.386
 9426SOL     OW29176   3.187   1.818   6.105
 9426SOL    HW129177   3.190   1.791   6.009
 9426SOL    HW229178   3.197   1.737   6.163
 9427SOL     OW29179   2.336   5.291   3.301
 9427SOL    HW129180   2.386   5.371   3.334
 9427SOL    HW229181   2.248   5.284   3.350
 9428SOL     OW29182   6.585   1.046   1.431
 9428SOL    HW129183   6.569   1.122   1.368
 9428SOL    HW229184   6.519   0.973   1.413
 9429SOL     OW29185   2.200   4.017   3.360
 9429SOL    HW129186   2.203   4.069   3.446
 9429SOL    HW229187   2.260   4.060   3.293
 9430SOL     OW29188   0.323   3.177   4.861
 9430SOL    HW129189   0.304   3.192   4.765
 9430SOL    HW229190   0.368   3.088   4.873
 9431SOL     OW29191   6.546   4.188   0.681
 9431SOL    HW129192   6.624   4.241   0.716
 9431SOL    HW229193   6.577   4.097   0.655
 9432SOL     OW29194   5.661   0.383   3.391
 9432SOL    HW129195   5.665   0.420   3.484
 9432SOL    HW229196   5.632   0.454   3.328
 9433SOL     OW29197   3.061   6.124   3.465
 9433SOL    HW129198   3.010   6.178   3.398
 9433SOL    HW229199   2.999   6.095   3.538
 9434SOL     OW29200   5.270   5.592   1.933
 9434SOL    HW129201   5.336   5.663   1.958
 9434SOL    HW229202   5.214   5.624   1.857
 9435SOL     OW29203   0.598   2.912   3.703
 9435SOL    HW129204   0.510   2.864   3.708
 9435SOL    HW229205   0.586   3.008   3.728
 9436SOL     OW29206   1.563   2.845   1.294
 9436SOL    HW129207   1.640   2.790   1.261
 9436SOL    HW229208   1.570   2.938   1.258
 9437SOL     OW29209   1.171   5.900   3.199
 9437SOL    HW129210   1.181   5.909   3.298
 9437SOL    HW229211   1.100   5.832   3.179
 9438SOL     OW29212   0.446   6.887   1.796
 9438SOL    HW129213   0.421   6.792   1.780
 9438SOL    HW229214   0.473   6.898   1.892
 9439SOL     OW29215   0.316   2.889   0.346
 9439SOL    HW129216   0.362   2.934   0.269
 9439SOL    HW229217   0.384   2.866   0.416
 9440SOL     OW29218   3.942   4.789   3.225
 9440SOL    HW129219   3.983   4.716   3.169
 9440SOL    HW229220   4.008   4.863   3.237
 9441SOL     OW29221   6.149   4.235   5.861
 9441SOL    HW129222   6.192   4.278   5.940
 9441SOL    HW229223   6.127   4.305   5.793
 9442SOL     OW29224   4.610   3.584   1.266
 9442SOL    HW129225   4.546   3.518   1.227
 9442SOL    HW229226   4.639   3.553   1.357
 9443SOL     OW29227   2.620   4.974   1.008
 9443SOL    HW129228   2.655   5.055   1.055
 9443SOL    HW229229   2.632   4.894   1.066
 9444SOL     OW29230   1.632   3.570   0.881
 9444SOL    HW129231   1.691   3.622   0.820
 9444SOL    HW229232   1.669   3.572   0.974
 9445SOL     OW29233   6.142   3.217   3.142
 9445SOL    HW129234   6.176   3.129   3.175
 9445SOL    HW229235   6.209   3.289   3.162
 9446SOL     OW29236   6.176   5.418   4.810
 9446SOL    HW129237   6.230   5.502   4.816
 9446SOL    HW229238   6.079   5.441   4.806
 9447SOL     OW29239   5.972   4.954   3.808
 9447SOL    HW129240   5.933   4.998   3.889
 9447SOL    HW229241   5.898   4.925   3.748
 9448SOL     OW29242   7.025   0.444   5.919
 9448SOL    HW129243   0.035   0.423   6.010
 9448SOL    HW229244   0.001   0.543   5.904
 9449SOL     OW29245   5.524   0.330   0.341
 9449SOL    HW129246   5.607   0.285   0.374
 9449SOL    HW229247   5.477   0.270   0.276
 9450SOL     OW29248   2.275   6.045   4.353
 9450SOL    HW129249   2.313   6.036   4.261
 9450SOL    HW229250   2.178   6.021   4.351
 9451SOL     OW29251   4.561   6.802   5.635
 9451SOL    HW129252   4.614   6.774   5.555
 9451SOL    HW229253   4.552   6.724   5.697
 9452SOL     OW29254   2.258   3.893   0.306
 9452SOL    HW129255   2.306   3.944   0.235
 9452SOL    HW229256   2.173   3.940   0.329
 9453SOL     OW29257   2.917   4.877   2.801
 9453SOL    HW129258   2.876   4.811   2.864
 9453SOL    HW229259   2.989   4.928   2.849
 9454SOL     OW29260   3.693   4.114   6.528
 9454SOL    HW129261   3.620   4.143   6.468
 9454SOL    HW229262   3.764   4.067   6.475
 9455SOL     OW29263   2.164   1.918   3.721
 9455SOL    HW129264   2.149   1.819   3.721
 9455SOL    HW229265   2.162   1.952   3.816
 9456SOL     OW29266   6.965   3.418   1.085
 9456SOL    HW129267   6.953   3.384   0.992
 9456SOL    HW229268   6.878   3.454   1.119
 9457SOL     OW29269   1.755   3.786   3.919
 9457SOL    HW129270   1.851   3.792   3.946
 9457SOL    HW229271   1.698   3.813   3.997
 9458SOL     OW29272   0.809   3.541   6.722
 9458SOL    HW129273   0.830   3.620   6.779
 9458SOL    HW229274   0.713   3.515   6.733
 9459SOL     OW29275   5.359   4.731   3.869
 9459SOL    HW129276   5.383   4.660   3.803
 9459SOL    HW229277   5.442   4.763   3.915
 9460SOL     OW29278   1.791   3.545   3.793
 9460SOL    HW129279   1.888   3.523   3.780
 9460SOL    HW229280   1.782   3.623   3.855
 9461SOL     OW29281   0.229   1.773   1.495
 9461SOL    HW129282   0.148   1.827   1.471
 9461SOL    HW229283   0.255   1.793   1.590
 9462SOL     OW29284   2.117   3.478   3.384
 9462SOL    HW129285   2.025   3.500   3.350
 9462SOL    HW229286   2.156   3.558   3.429
 9463SOL     OW29287   5.814   0.580   1.313
 9463SOL    HW129288   5.800   0.563   1.215
 9463SOL    HW229289   5.848   0.497   1.357
 9464SOL     OW29290   6.110   0.663   1.361
 9464SOL    HW129291   6.093   0.761   1.362
 9464SOL    HW229292   6.035   0.617   1.313
 9465SOL     OW29293   0.461   4.185   1.599
 9465SOL    HW129294   0.557   4.198   1.623
 9465SOL    HW229295   0.435   4.090   1.615
 9466SOL     OW29296   3.779   4.757   5.334
 9466SOL    HW129297   3.829   4.806   5.263
 9466SOL    HW229298   3.802   4.660   5.330
 9467SOL     OW29299   1.535   2.567   1.480
 9467SOL    HW129300   1.505   2.483   1.434
 9467SOL    HW229301   1.477   2.643   1.451
 9468SOL     OW29302   5.635   3.583   6.317
 9468SOL    HW129303   5.722   3.560   6.272
 9468SOL    HW229304   5.602   3.670   6.282
 9469SOL     OW29305   6.644   5.074   1.899
 9469SOL    HW129306   6.623   5.061   1.802
 9469SOL    HW229307   6.563   5.055   1.954
 9470SOL     OW29308   4.994   3.383   6.529
 9470SOL    HW129309   4.914   3.411   6.477
 9470SOL    HW229310   5.071   3.367   6.467
 9471SOL     OW29311   6.455   2.199   4.014
 9471SOL    HW129312   6.422   2.209   3.920
 9471SOL    HW229313   6.379   2.214   4.077
 9472SOL     OW29314   6.470   2.857   4.921
 9472SOL    HW129315   6.555   2.896   4.956
 9472SOL    HW229316   6.393   2.900   4.968
 9473SOL     OW29317   2.965   5.237   0.346
 9473SOL    HW129318   2.944   5.191   0.259
 9473SOL    HW229319   3.061   5.264   0.347
 9474SOL     OW29320   6.814   3.257   0.117
 9474SOL    HW129321   6.719   3.279   0.138
 9474SOL    HW229322   6.846   3.315   0.042
 9475SOL     OW29323   3.681   3.388   6.761
 9475SOL    HW129324   3.756   3.409   6.824
 9475SOL    HW229325   3.711   3.318   6.696
 9476SOL     OW29326   4.096   3.651   3.974
 9476SOL    HW129327   4.151   3.570   3.997
 9476SOL    HW229328   4.048   3.635   3.888
 9477SOL     OW29329   1.063   2.828   0.399
 9477SOL    HW129330   1.038   2.733   0.382
 9477SOL    HW229331   0.980   2.885   0.400
 9478SOL     OW29332   5.179   3.299   1.161
 9478SOL    HW129333   5.088   3.280   1.198
 9478SOL    HW229334   5.248   3.263   1.224
 9479SOL     OW29335   4.494   6.513   0.326
 9479SOL    HW129336   4.555   6.501   0.247
 9479SOL    HW229337   4.531   6.465   0.405
 9480SOL     OW29338   5.447   4.616   0.664
 9480SOL    HW129339   5.417   4.673   0.741
 9480SOL    HW229340   5.488   4.532   0.700
 9481SOL     OW29341   4.911   3.036   2.909
 9481SOL    HW129342   4.879   3.125   2.876
 9481SOL    HW229343   4.959   3.048   2.996
 9482SOL     OW29344   0.689   1.426   2.492
 9482SOL    HW129345   0.693   1.526   2.496
 9482SOL    HW229346   0.708   1.396   2.399
 9483SOL     OW29347   1.579   0.570   0.940
 9483SOL    HW129348   1.515   0.610   1.006
 9483SOL    HW229349   1.669   0.560   0.983
 9484SOL     OW29350   4.379   0.376   4.268
 9484SOL    HW129351   4.390   0.442   4.342
 9484SOL    HW229352   4.286   0.338   4.271
 9485SOL     OW29353   0.657   0.832   0.916
 9485SOL    HW129354   0.666   0.931   0.922
 9485SOL    HW229355   0.706   0.798   0.836
 9486SOL     OW29356   3.796   6.354   0.778
 9486SOL    HW129357   3.770   6.314   0.867
 9486SOL    HW229358   3.714   6.374   0.725
 9487SOL     OW29359   3.306   3.766   3.903
 9487SOL    HW129360   3.382   3.794   3.963
 9487SOL    HW229361   3.222   3.810   3.934
 9488SOL     OW29362   2.952   0.206   1.305
 9488SOL    HW129363   2.868   0.232   1.257
 9488SOL    HW229364   3.013   0.285   1.310
 9489SOL     OW29365   4.472   4.181   1.036
 9489SOL    HW129366   4.519   4.100   1.072
 9489SOL    HW229367   4.509   4.263   1.080
 9490SOL     OW29368   5.721   5.328   2.301
 9490SOL    HW129369   5.706   5.323   2.400
 9490SOL    HW229370   5.735   5.236   2.265
 9491SOL     OW29371   5.587   4.852   3.936
 9491SOL    HW129372   5.641   4.771   3.961
 9491SOL    HW229373   5.609   4.878   3.841
 9492SOL     OW29374   3.533   3.139   4.832
 9492SOL    HW129375   3.602   3.212   4.832
 9492SOL    HW229376   3.571   3.057   4.790
 9493SOL     OW29377   2.509   5.643   4.828
 9493SOL    HW129378   2.432   5.591   4.863
 9493SOL    HW229379   2.484   5.740   4.822
 9494SOL     OW29380   5.055   2.844   2.542
 9494SOL    HW129381   5.056   2.746   2.521
 9494SOL    HW229382   4.969   2.883   2.509
 9495SOL     OW29383   6.822   1.814   2.920
 9495SOL    HW129384   6.881   1.780   2.846
 9495SOL    HW229385   6.730   1.828   2.885
 9496SOL     OW29386   5.960   3.763   1.257
 9496SOL    HW129387   5.863   3.741   1.248
 9496SOL    HW229388   6.014   3.680   1.243
 9497SOL     OW29389   5.746   0.053   6.179
 9497SOL    HW129390   5.702   6.997   6.143
 9497SOL    HW229391   5.808   0.028   6.253
 9498SOL     OW29392   5.003   6.857   4.468
 9498SOL    HW129393   5.033   6.865   4.373
 9498SOL    HW229394   4.941   6.779   4.477
 9499SOL     OW29395   2.302   4.636   6.502
 9499SOL    HW129396   2.312   4.629   6.402
 9499SOL    HW229397   2.247   4.559   6.534
 9500SOL     OW29398   4.856   7.024   0.965
 9500SOL    HW129399   4.874   6.926   0.963
 9500SOL    HW229400   4.763   0.014   0.932
 9501SOL     OW29401   2.899   1.290   5.287
 9501SOL    HW129402   2.937   1.253   5.202
 9501SOL    HW229403   2.912   1.389   5.288
 9502SOL     OW29404   5.944   2.608   5.273
 9502SOL    HW129405   6.012   2.642   5.338
 9502SOL    HW229406   5.953   2.659   5.187
 9503SOL     OW29407   0.863   1.713   1.387
 9503SOL    HW129408   0.792   1.675   1.447
 9503SOL    HW229409   0.870   1.811   1.401
 9504SOL     OW29410   0.118   2.766   0.625
 9504SOL    HW129411   0.135   2.677   0.668
 9504SOL    HW229412   0.094   2.752   0.529
 9505SOL     OW29413   5.309   4.115   4.476
 9505SOL    HW129414   5.360   4.103   4.391
 9505SOL    HW229415   5.276   4.209   4.482
 9506SOL     OW29416   1.501   2.744   6.390
 9506SOL    HW129417   1.444   2.666   6.417
 9506SOL    HW229418   1.544   2.783   6.471
 9507SOL     OW29419   0.763   1.109   2.558
 9507SOL    HW129420   0.844   1.061   2.522
 9507SOL    HW229421   0.753   1.197   2.512
 9508SOL     OW29422   6.065   1.707   1.446
 9508SOL    HW129423   6.025   1.690   1.356
 9508SOL    HW229424   6.046   1.801   1.473
 9509SOL     OW29425   0.586   0.975   3.538
 9509SOL    HW129426   0.672   0.994   3.491
 9509SOL    HW229427   0.565   1.050   3.601
 9510SOL     OW29428   2.141   3.758   3.463
 9510SOL    HW129429   2.125   3.777   3.559
 9510SOL    HW229430   2.169   3.842   3.416
 9511SOL     OW29431   1.551   0.220   1.186
 9511SOL    HW129432   1.566   0.124   1.213
 9511SOL    HW229433   1.639   0.268   1.184
 9512SOL     OW29434   5.899   1.577   1.646
 9512SOL    HW129435   5.955   1.607   1.569
 9512SOL    HW229436   5.843   1.499   1.618
 9513SOL     OW29437   2.177   4.176   6.243
 9513SOL    HW129438   2.151   4.109   6.173
 9513SOL    HW229439   2.267   4.214   6.220
 9514SOL     OW29440   1.685   5.101   5.756
 9514SOL    HW129441   1.697   5.002   5.749
 9514SOL    HW229442   1.695   5.128   5.852
 9515SOL     OW29443   1.547   5.626   0.735
 9515SOL    HW129444   1.491   5.707   0.723
 9515SOL    HW229445   1.618   5.644   0.804
 9516SOL     OW29446   6.164   5.076   6.825
 9516SOL    HW129447   6.099   5.120   6.762
 9516SOL    HW229448   6.114   5.027   6.896
 9517SOL     OW29449   1.779   4.658   0.941
 9517SOL    HW129450   1.851   4.706   0.890
 9517SOL    HW229451   1.821   4.597   1.007
 9518SOL     OW29452   1.841   1.825   0.310
 9518SOL    HW129453   1.800   1.769   0.239
 9518SOL    HW229454   1.911   1.771   0.358
 9519SOL     OW29455   3.306   3.698   4.661
 9519SOL    HW129456   3.216   3.725   4.626
 9519SOL    HW229457   3.375   3.759   4.623
 9520SOL     OW29458   1.892   1.791   3.246
 9520SOL    HW129459   1.848   1.711   3.206
 9520SOL    HW229460   1.824   1.862   3.263
 9521SOL     OW29461   4.758   5.539   1.760
 9521SOL    HW129462   4.805   5.451   1.753
 9521SOL    HW229463   4.818   5.611   1.726
 9522SOL     OW29464   2.616   5.530   1.119
 9522SOL    HW129465   2.709   5.565   1.121
 9522SOL    HW229466   2.558   5.591   1.066
 9523SOL     OW29467   2.800   4.834   4.821
 9523SOL    HW129468   2.894   4.857   4.848
 9523SOL    HW229469   2.759   4.775   4.890
 9524SOL     OW29470   3.561   2.985   1.832
 9524SOL    HW129471   3.560   2.945   1.923
 9524SOL    HW229472   3.622   2.932   1.773
 9525SOL     OW29473   2.619   3.139   5.531
 9525SOL    HW129474   2.685   3.154   5.457
 9525SOL    HW229475   2.620   3.042   5.557
 9526SOL     OW29476   5.209   5.688   1.692
 9526SOL    HW129477   5.306   5.698   1.673
 9526SOL    HW229478   5.165   5.636   1.619
 9527SOL     OW29479   1.048   0.384   3.329
 9527SOL    HW129480   1.075   0.288   3.332
 9527SOL    HW229481   1.053   0.424   3.420
 9528SOL     OW29482   0.494   1.255   0.073
 9528SOL    HW129483   0.399   1.223   0.063
 9528SOL    HW229484   0.512   1.325   0.004
 9529SOL     OW29485   6.206   3.063   5.350
 9529SOL    HW129486   6.259   3.001   5.408
 9529SOL    HW229487   6.203   3.154   5.391
 9530SOL     OW29488   1.773   3.690   2.203
 9530SOL    HW129489   1.777   3.597   2.167
 9530SOL    HW229490   1.858   3.738   2.181
 9531SOL     OW29491   4.910   5.303   3.194
 9531SOL    HW129492   4.838   5.369   3.174
 9531SOL    HW229493   4.945   5.266   3.108
 9532SOL     OW29494   0.407   6.967   2.439
 9532SOL    HW129495   0.470   6.907   2.390
 9532SOL    HW229496   0.456   7.017   2.510
 9533SOL     OW29497   6.686   6.973   5.680
 9533SOL    HW129498   6.595   6.975   5.637
 9533SOL    HW229499   6.756   6.993   5.611
 9534SOL     OW29500   6.747   3.146   5.374
 9534SOL    HW129501   6.826   3.198   5.407
 9534SOL    HW229502   6.731   3.167   5.277
 9535SOL     OW29503   2.823   1.654   5.595
 9535SOL    HW129504   2.727   1.663   5.619
 9535SOL    HW229505   2.879   1.664   5.677
 9536SOL     OW29506   2.714   4.648   5.319
 9536SOL    HW129507   2.772   4.640   5.399
 9536SOL    HW229508   2.765   4.622   5.237
 9537SOL     OW29509   2.745   6.487   2.662
 9537SOL    HW129510   2.842   6.467   2.651
 9537SOL    HW229511   2.728   6.584   2.647
 9538SOL     OW29512   6.430   1.878   3.453
 9538SOL    HW129513   6.372   1.958   3.465
 9538SOL    HW229514   6.466   1.876   3.359
 9539SOL     OW29515   2.117   3.724   5.301
 9539SOL    HW129516   2.140   3.810   5.347
 9539SOL    HW229517   2.092   3.743   5.206
 9540SOL     OW29518   5.965   4.158   4.143
 9540SOL    HW129519   5.973   4.253   4.174
 9540SOL    HW229520   5.868   4.134   4.135
 9541SOL     OW29521   3.210   1.514   5.505
 9541SOL    HW129522   3.203   1.614   5.511
 9541SOL    HW229523   3.124   1.472   5.534
 9542SOL     OW29524   5.135   3.776   4.632
 9542SOL    HW129525   5.067   3.713   4.595
 9542SOL    HW229526   5.132   3.774   4.732
 9543SOL     OW29527   3.557   1.050   4.906
 9543SOL    HW129528   3.604   1.128   4.864
 9543SOL    HW229529   3.466   1.078   4.937
 9544SOL     OW29530   0.332   1.012   3.244
 9544SOL    HW129531   0.354   0.915   3.236
 9544SOL    HW229532   0.417   1.064   3.258
 9545SOL     OW29533   6.078   5.349   3.754
 9545SOL    HW129534   5.979   5.360   3.763
 9545SOL    HW229535   6.101   5.252   3.765
 9546SOL     OW29536   3.367   2.941   5.519
 9546SOL    HW129537   3.332   3.025   5.561
 9546SOL    HW229538   3.463   2.928   5.544
 9547SOL     OW29539   2.467   6.230   4.224
 9547SOL    HW129540   2.454   6.142   4.178
 9547SOL    HW229541   2.379   6.276   4.235
 9548SOL     OW29542   5.845   6.287   5.556
 9548SOL    HW129543   5.889   6.310   5.469
 9548SOL    HW229544   5.757   6.242   5.538
 9549SOL     OW29545   3.018   3.092   1.262
 9549SOL    HW129546   3.079   3.021   1.227
 9549SOL    HW229547   3.014   3.086   1.362
 9550SOL     OW29548   0.577   1.461   0.692
 9550SOL    HW129549   0.620   1.453   0.601
 9550SOL    HW229550   0.643   1.434   0.762
 9551SOL     OW29551   6.453   0.993   3.919
 9551SOL    HW129552   6.477   0.943   3.836
 9551SOL    HW229553   6.358   0.973   3.943
 9552SOL     OW29554   1.505   6.107   2.607
 9552SOL    HW129555   1.493   6.044   2.531
 9552SOL    HW229556   1.448   6.078   2.683
 9553SOL     OW29557   6.232   3.914   6.781
 9553SOL    HW129558   6.152   3.970   6.759
 9553SOL    HW229559   6.283   3.955   6.856
 9554SOL     OW29560   2.254   0.610   1.765
 9554SOL    HW129561   2.322   0.645   1.700
 9554SOL    HW229562   2.192   0.684   1.791
 9555SOL     OW29563   1.238   1.045   2.323
 9555SOL    HW129564   1.242   0.983   2.244
 9555SOL    HW229565   1.273   1.135   2.297
 9556SOL     OW29566   2.054   2.514   1.217
 9556SOL    HW129567   2.052   2.565   1.131
 9556SOL    HW229568   2.104   2.567   1.286
 9557SOL     OW29569   7.014   0.362   2.871
 9557SOL    HW129570   7.021   0.268   2.838
 9557SOL    HW229571   0.075   0.409   2.859
 9558SOL     OW29572   6.482   6.169   4.337
 9558SOL    HW129573   6.407   6.120   4.382
 9558SOL    HW229574   6.469   6.167   4.238
 9559SOL     OW29575   0.299   4.107   1.222
 9559SOL    HW129576   0.266   4.169   1.294
 9559SOL    HW229577   0.245   4.121   1.139
 9560SOL     OW29578   1.595   1.292   2.853
 9560SOL    HW129579   1.502   1.330   2.861
 9560SOL    HW229580   1.628   1.305   2.760
 9561SOL     OW29581   1.163   6.392   0.215
 9561SOL    HW129582   1.137   6.361   0.306
 9561SOL    HW229583   1.122   6.332   0.146
 9562SOL     OW29584   3.243   0.020   5.194
 9562SOL    HW129585   3.252   0.107   5.242
 9562SOL    HW229586   3.254   6.971   5.259
 9563SOL     OW29587   6.628   6.817   0.424
 9563SOL    HW129588   6.566   6.743   0.399
 9563SOL    HW229589   6.605   6.850   0.516
 9564SOL     OW29590   2.827   6.928   6.867
 9564SOL    HW129591   2.829   6.831   6.891
 9564SOL    HW229592   2.740   6.967   6.896
 9565SOL     OW29593   4.126   6.117   5.316
 9565SOL    HW129594   4.072   6.190   5.358
 9565SOL    HW229595   4.064   6.047   5.280
 9566SOL     OW29596   2.840   5.183   6.861
 9566SOL    HW129597   2.905   5.257   6.840
 9566SOL    HW229598   2.830   5.175   6.960
 9567SOL     OW29599   6.370   4.410   6.666
 9567SOL    HW129600   6.368   4.472   6.745
 9567SOL    HW229601   6.385   4.462   6.583
 9568SOL     OW29602   4.517   2.663   6.991
 9568SOL    HW129603   4.610   2.663   6.956
 9568SOL    HW229604   4.512   2.608   0.048
 9569SOL     OW29605   0.483   0.433   2.781
 9569SOL    HW129606   0.465   0.517   2.832
 9569SOL    HW229607   0.502   0.455   2.686
 9570SOL     OW29608   1.035   2.566   2.161
 9570SOL    HW129609   1.119   2.592   2.208
 9570SOL    HW229610   1.029   2.466   2.156
 9571SOL     OW29611   2.534   3.897   0.002
 9571SOL    HW129612   2.444   3.927   0.032
 9571SOL    HW229613   2.576   3.841   0.074
 9572SOL     OW29614   1.797   5.320   0.919
 9572SOL    HW129615   1.707   5.315   0.875
 9572SOL    HW229616   1.791   5.284   1.012
 9573SOL     OW29617   0.755   1.810   6.665
 9573SOL    HW129618   0.789   1.904   6.669
 9573SOL    HW229619   0.680   1.805   6.598
 9574SOL     OW29620   3.781   3.020   4.067
 9574SOL    HW129621   3.865   3.074   4.071
 9574SOL    HW229622   3.701   3.081   4.069
 9575SOL     OW29623   5.978   0.990   0.642
 9575SOL    HW129624   6.050   0.928   0.675
 9575SOL    HW229625   5.928   0.947   0.567
 9576SOL     OW29626   3.299   0.650   2.534
 9576SOL    HW129627   3.278   0.705   2.615
 9576SOL    HW229628   3.217   0.599   2.507
 9577SOL     OW29629   1.610   1.199   3.991
 9577SOL    HW129630   1.645   1.114   3.950
 9577SOL    HW229631   1.573   1.257   3.918
 9578SOL     OW29632   6.724   3.627   3.191
 9578SOL    HW129633   6.781   3.688   3.137
 9578SOL    HW229634   6.702   3.670   3.279
 9579SOL     OW29635   1.741   5.199   2.987
 9579SOL    HW129636   1.821   5.258   2.999
 9579SOL    HW229637   1.670   5.227   3.052
 9580SOL     OW29638   4.544   3.031   0.590
 9580SOL    HW129639   4.592   3.112   0.625
 9580SOL    HW229640   4.446   3.047   0.591
 9581SOL     OW29641   1.314   5.115   6.398
 9581SOL    HW129642   1.387   5.166   6.443
 9581SOL    HW229643   1.284   5.041   6.458
 9582SOL     OW29644   4.418   4.716   4.779
 9582SOL    HW129645   4.394   4.651   4.850
 9582SOL    HW229646   4.499   4.684   4.730
 9583SOL     OW29647   2.882   3.568   0.843
 9583SOL    HW129648   2.953   3.529   0.901
 9583SOL    HW229649   2.805   3.504   0.836
 9584SOL     OW29650   6.197   6.715   0.002
 9584SOL    HW129651   6.195   6.695   6.931
 9584SOL    HW229652   6.200   6.814   0.015
 9585SOL     OW29653   6.544   0.895   2.866
 9585SOL    HW129654   6.450   0.890   2.898
 9585SOL    HW229655   6.605   0.851   2.932
 9586SOL     OW29656   6.175   3.908   2.289
 9586SOL    HW129657   6.159   3.821   2.244
 9586SOL    HW229658   6.118   3.914   2.371
 9587SOL     OW29659   6.166   0.793   1.989
 9587SOL    HW129660   6.196   0.699   1.972
 9587SOL    HW229661   6.230   0.837   2.051
 9588SOL     OW29662   0.612   1.856   2.246
 9588SOL    HW129663   0.575   1.894   2.331
 9588SOL    HW229664   0.674   1.781   2.268
 9589SOL     OW29665   2.924   5.735   6.233
 9589SOL    HW129666   2.865   5.721   6.312
 9589SOL    HW229667   2.872   5.780   6.160
 9590SOL     OW29668   0.371   4.903   2.277
 9590SOL    HW129669   0.455   4.956   2.267
 9590SOL    HW229670   0.378   4.844   2.357
 9591SOL     OW29671   3.191   6.255   0.089
 9591SOL    HW129672   3.290   6.254   0.081
 9591SOL    HW229673   3.150   6.269   7.025
 9592SOL     OW29674   3.774   5.049   1.774
 9592SOL    HW129675   3.737   5.036   1.682
 9592SOL    HW229676   3.765   4.964   1.825
 9593SOL     OW29677   6.267   1.325   4.487
 9593SOL    HW129678   6.302   1.411   4.450
 9593SOL    HW229679   6.178   1.340   4.529
 9594SOL     OW29680   0.769   6.146   3.581
 9594SOL    HW129681   0.788   6.114   3.488
 9594SOL    HW229682   0.849   6.128   3.639
 9595SOL     OW29683   2.046   4.388   4.220
 9595SOL    HW129684   1.979   4.314   4.219
 9595SOL    HW229685   2.027   4.450   4.296
 9596SOL     OW29686   0.025   5.655   0.580
 9596SOL    HW129687   6.959   5.628   0.556
 9596SOL    HW229688   0.022   5.733   0.644
 9597SOL     OW29689   0.053   4.528   0.816
 9597SOL    HW129690   0.019   4.622   0.823
 9597SOL    HW229691   0.074   4.494   0.908
 9598SOL     OW29692   0.531   3.887   4.961
 9598SOL    HW129693   0.528   3.805   5.019
 9598SOL    HW229694   0.626   3.912   4.945
 9599SOL     OW29695   3.301   0.876   5.090
 9599SOL    HW129696   3.395   0.888   5.121
 9599SOL    HW229697   3.240   0.934   5.144
 9600SOL     OW29698   2.098   6.801   6.248
 9600SOL    HW129699   2.186   6.846   6.266
 9600SOL    HW229700   2.024   6.868   6.257
 9601SOL     OW29701   6.346   4.004   7.008
 9601SOL    HW129702   6.432   4.041   0.018
 9601SOL    HW229703   6.278   4.077   7.004
 9602SOL     OW29704   6.132   4.973   6.394
 9602SOL    HW129705   6.151   4.880   6.426
 9602SOL    HW229706   6.062   4.971   6.323
 9603SOL     OW29707   2.622   0.011   4.650
 9603SOL    HW129708   2.710   0.007   4.698
 9603SOL    HW229709   2.569   0.088   4.684
 9604SOL     OW29710   5.073   7.026   0.722
 9604SOL    HW129711   5.131   0.081   0.722
 9604SOL    HW229712   5.009   0.005   0.798
 9605SOL     OW29713   6.845   4.582   5.265
 9605SOL    HW129714   6.840   4.679   5.288
 9605SOL    HW229715   6.891   4.532   5.338
 9606SOL     OW29716   0.983   6.481   4.795
 9606SOL    HW129717   1.063   6.540   4.789
 9606SOL    HW229718   1.001   6.405   4.858
 9607SOL     OW29719   1.040   2.288   2.184
 9607SOL    HW129720   0.996   2.223   2.123
 9607SOL    HW229721   1.091   2.239   2.255
 9608SOL     OW29722   0.051   6.528   2.667
 9608SOL    HW129723   7.018   6.493   2.739
 9608SOL    HW229724   0.138   6.480   2.670
 9609SOL     OW29725   1.555   3.903   4.919
 9609SOL    HW129726   1.639   3.852   4.935
 9609SOL    HW229727   1.568   3.999   4.943
 9610SOL     OW29728   1.459   4.048   4.489
 9610SOL    HW129729   1.360   4.043   4.478
 9610SOL    HW229730   1.481   4.106   4.567
 9611SOL     OW29731   0.371   6.298   1.187
 9611SOL    HW129732   0.282   6.328   1.221
 9611SOL    HW229733   0.358   6.227   1.118
 9612SOL     OW29734   6.111   3.275   1.673
 9612SOL    HW129735   6.157   3.224   1.745
 9612SOL    HW229736   6.099   3.217   1.593
 9613SOL     OW29737   4.957   6.161   3.694
 9613SOL    HW129738   5.002   6.218   3.625
 9613SOL    HW229739   4.902   6.091   3.648
 9614SOL     OW29740   3.764   3.802   1.398
 9614SOL    HW129741   3.667   3.802   1.371
 9614SOL    HW229742   3.817   3.748   1.333
 9615SOL     OW29743   1.291   6.759   2.322
 9615SOL    HW129744   1.307   6.691   2.250
 9615SOL    HW229745   1.289   6.713   2.411
 9616SOL     OW29746   4.103   4.159   0.290
 9616SOL    HW129747   4.191   4.120   0.265
 9616SOL    HW229748   4.087   4.242   0.237
 9617SOL     OW29749   0.860   3.893   4.080
 9617SOL    HW129750   0.914   3.977   4.081
 9617SOL    HW229751   0.825   3.878   3.988
 9618SOL     OW29752   3.980   6.649   6.047
 9618SOL    HW129753   4.015   6.585   5.979
 9618SOL    HW229754   3.880   6.647   6.046
 9619SOL     OW29755   1.439   0.234   0.814
 9619SOL    HW129756   1.525   0.266   0.854
 9619SOL    HW229757   1.371   0.222   0.886
 9620SOL     OW29758   5.087   1.703   6.593
 9620SOL    HW129759   5.107   1.801   6.585
 9620SOL    HW229760   5.168   1.655   6.625
 9621SOL     OW29761   1.678   1.326   2.607
 9621SOL    HW129762   1.631   1.331   2.519
 9621SOL    HW229763   1.763   1.379   2.603
 9622SOL     OW29764   5.970   1.686   6.399
 9622SOL    HW129765   5.960   1.782   6.425
 9622SOL    HW229766   6.043   1.677   6.331
 9623SOL     OW29767   4.099   5.325   5.678
 9623SOL    HW129768   4.108   5.419   5.645
 9623SOL    HW229769   4.027   5.278   5.626
 9624SOL     OW29770   5.234   3.959   5.151
 9624SOL    HW129771   5.298   3.998   5.217
 9624SOL    HW229772   5.268   3.973   5.058
 9625SOL     OW29773   5.240   4.286   0.012
 9625SOL    HW129774   5.216   4.383   0.011
 9625SOL    HW229775   5.263   4.259   0.105
 9626SOL     OW29776   2.495   5.879   5.656
 9626SOL    HW129777   2.580   5.874   5.708
 9626SOL    HW229778   2.462   5.974   5.655
 9627SOL     OW29779   0.243   4.202   4.865
 9627SOL    HW129780   0.265   4.148   4.946
 9627SOL    HW229781   0.281   4.158   4.784
 9628SOL     OW29782   6.099   3.675   0.759
 9628SOL    HW129783   6.154   3.759   0.760
 9628SOL    HW229784   6.025   3.683   0.826
 9629SOL     OW29785   6.610   5.806   2.969
 9629SOL    HW129786   6.604   5.904   2.949
 9629SOL    HW229787   6.601   5.791   3.067
 9630SOL     OW29788   6.222   6.223   5.547
 9630SOL    HW129789   6.305   6.266   5.582
 9630SOL    HW229790   6.185   6.279   5.473
 9631SOL     OW29791   4.412   1.833   0.775
 9631SOL    HW129792   4.385   1.909   0.834
 9631SOL    HW229793   4.335   1.808   0.716
 9632SOL     OW29794   2.108   5.161   2.235
 9632SOL    HW129795   2.083   5.255   2.216
 9632SOL    HW229796   2.162   5.157   2.319
 9633SOL     OW29797   3.837   4.075   0.292
 9633SOL    HW129798   3.828   3.976   0.281
 9633SOL    HW229799   3.934   4.100   0.297
 9634SOL     OW29800   0.049   5.389   3.368
 9634SOL    HW129801   6.998   5.414   3.426
 9634SOL    HW229802   0.081   5.469   3.318
 9635SOL     OW29803   1.303   4.375   5.494
 9635SOL    HW129804   1.392   4.330   5.489
 9635SOL    HW229805   1.296   4.425   5.581
 9636SOL     OW29806   4.025   1.590   5.694
 9636SOL    HW129807   3.972   1.646   5.631
 9636SOL    HW229808   3.964   1.531   5.746
 9637SOL     OW29809   3.794   2.924   1.434
 9637SOL    HW129810   3.851   2.856   1.388
 9637SOL    HW229811   3.771   2.891   1.526
 9638SOL     OW29812   6.876   3.473   5.752
 9638SOL    HW129813   6.905   3.449   5.845
 9638SOL    HW229814   6.812   3.550   5.756
 9639SOL     OW29815   4.404   1.952   1.702
 9639SOL    HW129816   4.392   1.874   1.640
 9639SOL    HW229817   4.325   1.958   1.763
 9640SOL     OW29818   3.245   0.368   2.331
 9640SOL    HW129819   3.340   0.338   2.318
 9640SOL    HW229820   3.226   0.377   2.429
 9641SOL     OW29821   6.027   5.987   2.048
 9641SOL    HW129822   5.980   5.961   1.964
 9641SOL    HW229823   6.041   5.906   2.105
 9642SOL     OW29824   1.434   6.598   4.168
 9642SOL    HW129825   1.379   6.517   4.145
 9642SOL    HW229826   1.444   6.604   4.267
 9643SOL     OW29827   5.122   4.130   3.949
 9643SOL    HW129828   5.160   4.091   3.865
 9643SOL    HW229829   5.086   4.057   4.006
 9644SOL     OW29830   1.484   5.891   5.760
 9644SOL    HW129831   1.579   5.874   5.785
 9644SOL    HW229832   1.426   5.888   5.841
 9645SOL     OW29833   2.507   4.689   4.632
 9645SOL    HW129834   2.581   4.669   4.696
 9645SOL    HW229835   2.472   4.603   4.595
 9646SOL     OW29836   2.715   5.087   1.743
 9646SOL    HW129837   2.648   5.055   1.810
 9646SOL    HW229838   2.719   5.187   1.744
 9647SOL     OW29839   0.107   6.489   3.483
 9647SOL    HW129840   0.039   6.416   3.488
 9647SOL    HW229841   0.081   6.563   3.545
 9648SOL     OW29842   4.206   2.392   0.536
 9648SOL    HW129843   4.236   2.299   0.516
 9648SOL    HW229844   4.151   2.392   0.620
 9649SOL     OW29845   2.236   4.510   0.065
 9649SOL    HW129846   2.182   4.466   7.020
 9649SOL    HW229847   2.315   4.452   0.088
 9650SOL     OW29848   4.560   4.426   2.548
 9650SOL    HW129849   4.579   4.337   2.590
 9650SOL    HW229850   4.572   4.419   2.449
 9651SOL     OW29851   5.305   1.121   0.987
 9651SOL    HW129852   5.311   1.179   1.068
 9651SOL    HW229853   5.327   1.175   0.905
 9652SOL     OW29854   1.080   5.075   1.492
 9652SOL    HW129855   1.041   5.166   1.477
 9652SOL    HW229856   1.046   5.038   1.578
 9653SOL     OW29857   4.661   4.661   4.649
 9653SOL    HW129858   4.693   4.566   4.650
 9653SOL    HW229859   4.735   4.721   4.678
 9654SOL     OW29860   3.089   3.404   3.133
 9654SOL    HW129861   3.126   3.474   3.195
 9654SOL    HW229862   3.050   3.329   3.187
 9655SOL     OW29863   0.107   2.161   0.689
 9655SOL    HW129864   0.072   2.070   0.669
 9655SOL    HW229865   0.033   2.218   0.727
 9656SOL     OW29866   4.428   2.816   1.368
 9656SOL    HW129867   4.447   2.763   1.451
 9656SOL    HW229868   4.330   2.835   1.362
 9657SOL     OW29869   5.693   3.831   2.702
 9657SOL    HW129870   5.731   3.745   2.669
 9657SOL    HW229871   5.609   3.852   2.652
 9658SOL     OW29872   5.487   1.465   2.301
 9658SOL    HW129873   5.518   1.407   2.227
 9658SOL    HW229874   5.399   1.506   2.278
 9659SOL     OW29875   0.993   3.239   0.256
 9659SOL    HW129876   1.035   3.296   0.185
 9659SOL    HW229877   1.057   3.166   0.281
 9660SOL     OW29878   0.755   6.967   3.118
 9660SOL    HW129879   0.756   6.897   3.190
 9660SOL    HW229880   0.718   0.026   3.155
 9661SOL     OW29881   3.701   6.528   1.606
 9661SOL    HW129882   3.755   6.563   1.529
 9661SOL    HW229883   3.605   6.555   1.594
 9662SOL     OW29884   4.576   3.729   6.543
 9662SOL    HW129885   4.624   3.801   6.594
 9662SOL    HW229886   4.579   3.644   6.596
 9663SOL     OW29887   0.046   5.687   2.736
 9663SOL    HW129888   6.985   5.697   2.783
 9663SOL    HW229889   0.031   5.686   2.637
 9664SOL     OW29890   5.907   5.031   4.070
 9664SOL    HW129891   5.966   4.993   4.141
 9664SOL    HW229892   5.830   5.079   4.112
 9665SOL     OW29893   5.723   6.658   6.369
 9665SOL    HW129894   5.804   6.716   6.370
 9665SOL    HW229895   5.718   6.607   6.455
 9666SOL     OW29896   6.460   3.883   1.703
 9666SOL    HW129897   6.363   3.897   1.683
 9666SOL    HW229898   6.498   3.966   1.743
 9667SOL     OW29899   3.993   3.698   0.085
 9667SOL    HW129900   4.072   3.647   0.051
 9667SOL    HW229901   3.957   3.757   0.013
 9668SOL     OW29902   0.797   0.795   6.352
 9668SOL    HW129903   0.834   0.765   6.264
 9668SOL    HW229904   0.738   0.723   6.390
 9669SOL     OW29905   2.222   6.815   1.969
 9669SOL    HW129906   2.125   6.795   1.984
 9669SOL    HW229907   2.231   6.874   1.888
 9670SOL     OW29908   0.223   4.912   5.746
 9670SOL    HW129909   0.185   4.863   5.668
 9670SOL    HW229910   0.323   4.905   5.745
 9671SOL     OW29911   6.743   4.339   0.376
 9671SOL    HW129912   6.654   4.334   0.331
 9671SOL    HW229913   6.783   4.248   0.382
 9672SOL     OW29914   1.962   4.890   3.500
 9672SOL    HW129915   1.962   4.856   3.594
 9672SOL    HW229916   2.056   4.888   3.464
 9673SOL     OW29917   3.644   3.684   0.719
 9673SOL    HW129918   3.567   3.736   0.680
 9673SOL    HW229919   3.651   3.704   0.816
 9674SOL     OW29920   4.009   6.518   3.644
 9674SOL    HW129921   4.086   6.471   3.688
 9674SOL    HW229922   4.039   6.607   3.611
 9675SOL     OW29923   5.578   2.342   6.500
 9675SOL    HW129924   5.581   2.399   6.582
 9675SOL    HW229925   5.588   2.400   6.419
 9676SOL     OW29926   1.419   3.361   5.948
 9676SOL    HW129927   1.341   3.347   5.886
 9676SOL    HW229928   1.503   3.332   5.902
 9677SOL     OW29929   6.480   5.265   4.856
 9677SOL    HW129930   6.452   5.242   4.763
 9677SOL    HW229931   6.416   5.226   4.921
 9678SOL     OW29932   2.888   3.385   4.102
 9678SOL    HW129933   2.794   3.371   4.134
 9678SOL    HW229934   2.887   3.443   4.021
 9679SOL     OW29935   2.507   0.266   3.759
 9679SOL    HW129936   2.450   0.194   3.721
 9679SOL    HW229937   2.527   0.246   3.855
 9680SOL     OW29938   4.475   0.375   4.033
 9680SOL    HW129939   4.449   0.388   4.129
 9680SOL    HW229940   4.461   0.280   4.006
 9681SOL     OW29941   2.549   2.376   0.821
 9681SOL    HW129942   2.489   2.399   0.898
 9681SOL    HW229943   2.538   2.280   0.796
 9682SOL     OW29944   4.795   3.971   3.798
 9682SOL    HW129945   4.792   3.872   3.810
 9682SOL    HW229946   4.837   3.993   3.710
 9683SOL     OW29947   3.107   6.630   1.956
 9683SOL    HW129948   3.187   6.664   2.005
 9683SOL    HW229949   3.130   6.545   1.910
 9684SOL     OW29950   1.021   3.542   5.812
 9684SOL    HW129951   1.039   3.500   5.901
 9684SOL    HW229952   1.100   3.528   5.753
 9685SOL     OW29953   4.856   4.055   1.069
 9685SOL    HW129954   4.857   4.080   1.166
 9685SOL    HW229955   4.844   4.137   1.014
 9686SOL     OW29956   0.619   3.154   5.957
 9686SOL    HW129957   0.539   3.210   5.976
 9686SOL    HW229958   0.678   3.153   6.038
 9687SOL     OW29959   1.034   0.880   3.733
 9687SOL    HW129960   0.946   0.833   3.744
 9687SOL    HW229961   1.083   0.879   3.819
 9688SOL     OW29962   0.981   2.787   1.130
 9688SOL    HW129963   0.903   2.749   1.179
 9688SOL    HW229964   0.949   2.845   1.055
 9689SOL     OW29965   1.228   4.635   6.453
 9689SOL    HW129966   1.135   4.673   6.450
 9689SOL    HW229967   1.275   4.669   6.534
 9690SOL     OW29968   5.836   6.178   6.596
 9690SOL    HW129969   5.792   6.181   6.686
 9690SOL    HW229970   5.797   6.249   6.537
 9691SOL     OW29971   2.904   3.834   1.310
 9691SOL    HW129972   2.936   3.851   1.403
 9691SOL    HW229973   2.810   3.868   1.300
 9692SOL     OW29974   3.875   6.342   1.803
 9692SOL    HW129975   3.926   6.256   1.808
 9692SOL    HW229976   3.800   6.340   1.870
 9693SOL     OW29977   5.914   4.126   2.722
 9693SOL    HW129978   5.912   4.171   2.633
 9693SOL    HW229979   5.822   4.128   2.762
 9694SOL     OW29980   3.396   1.243   1.537
 9694SOL    HW129981   3.423   1.275   1.446
 9694SOL    HW229982   3.459   1.277   1.606
 9695SOL     OW29983   0.011   2.516   3.574
 9695SOL    HW129984   0.011   2.583   3.499
 9695SOL    HW229985   7.014   2.563   3.659
 9696SOL     OW29986   5.320   2.549   1.212
 9696SOL    HW129987   5.294   2.565   1.117
 9696SOL    HW229988   5.247   2.501   1.259
 9697SOL     OW29989   0.195   5.619   6.870
 9697SOL    HW129990   0.271   5.558   6.850
 9697SOL    HW229991   0.172   5.613   6.968
 9698SOL     OW29992   5.696   2.281   6.162
 9698SOL    HW129993   5.690   2.296   6.063
 9698SOL    HW229994   5.616   2.229   6.193
 9699SOL     OW29995   6.350   5.846   6.980
 9699SOL    HW129996   6.327   5.918   0.019
 9699SOL    HW229997   6.278   5.838   6.912
 9700SOL     OW29998   5.692   5.592   5.169
 9700SOL    HW129999   5.752   5.657   5.122
 9700SOL    HW230000   5.747   5.526   5.220
 9701SOL     OW30001   4.751   4.794   5.525
 9701SOL    HW130002   4.782   4.727   5.592
 9701SOL    HW230003   4.787   4.770   5.435
 9702SOL     OW30004   3.708   1.870   6.951
 9702SOL    HW130005   3.610   1.856   6.964
 9702SOL    HW230006   3.744   1.929   7.023
 9703SOL     OW30007   5.097   3.671   3.896
 9703SOL    HW130008   5.158   3.646   3.820
 9703SOL    HW230009   5.140   3.645   3.982
 9704SOL     OW30010   3.313   6.618   1.147
 9704SOL    HW130011   3.290   6.593   1.241
 9704SOL    HW230012   3.234   6.605   1.088
 9705SOL     OW30013   5.555   4.046   6.418
 9705SOL    HW130014   5.565   4.112   6.344
 9705SOL    HW230015   5.539   4.095   6.504
 9706SOL     OW30016   2.327   2.745   0.877
 9706SOL    HW130017   2.419   2.733   0.841
 9706SOL    HW230018   2.326   2.821   0.942
 9707SOL     OW30019   6.398   4.592   2.654
 9707SOL    HW130020   6.321   4.529   2.648
 9707SOL    HW230021   6.391   4.660   2.581
 9708SOL     OW30022   0.983   1.201   3.758
 9708SOL    HW130023   0.955   1.145   3.836
 9708SOL    HW230024   0.903   1.221   3.701
 9709SOL     OW30025   5.390   5.867   2.526
 9709SOL    HW130026   5.354   5.891   2.616
 9709SOL    HW230027   5.479   5.821   2.537
 9710SOL     OW30028   6.557   1.282   1.279
 9710SOL    HW130029   6.549   1.332   1.193
 9710SOL    HW230030   6.503   1.328   1.350
 9711SOL     OW30031   3.212   5.276   5.286
 9711SOL    HW130032   3.170   5.186   5.271
 9711SOL    HW230033   3.244   5.282   5.380
 9712SOL     OW30034   5.499   3.636   6.542
 9712SOL    HW130035   5.533   3.607   6.452
 9712SOL    HW230036   5.547   3.719   6.570
 9713SOL     OW30037   2.059   4.487   3.502
 9713SOL    HW130038   2.134   4.439   3.548
 9713SOL    HW230039   2.097   4.549   3.434
 9714SOL     OW30040   4.253   6.436   6.585
 9714SOL    HW130041   4.335   6.379   6.587
 9714SOL    HW230042   4.246   6.481   6.496
 9715SOL     OW30043   5.964   3.927   6.947
 9715SOL    HW130044   6.012   3.897   0.003
 9715SOL    HW230045   5.882   3.871   6.934
 9716SOL     OW30046   3.422   4.641   6.873
 9716SOL    HW130047   3.387   4.732   6.893
 9716SOL    HW230048   3.389   4.612   6.783
 9717SOL     OW30049   5.007   6.914   5.932
 9717SOL    HW130050   5.051   7.001   5.910
 9717SOL    HW230051   5.068   6.859   5.989
 9718SOL     OW30052   5.233   3.394   0.540
 9718SOL    HW130053   5.196   3.335   0.468
 9718SOL    HW230054   5.171   3.394   0.618
 9719SOL     OW30055   6.187   1.035   5.498
 9719SOL    HW130056   6.240   1.119   5.508
 9719SOL    HW230057   6.164   0.999   5.588
 9720SOL     OW30058   0.948   4.386   2.018
 9720SOL    HW130059   0.923   4.289   2.013
 9720SOL    HW230060   1.047   4.395   2.030
 9721SOL     OW30061   0.411   1.667   0.735
 9721SOL    HW130062   0.370   1.658   0.825
 9721SOL    HW230063   0.494   1.611   0.730
 9722SOL     OW30064   4.495   1.278   4.961
 9722SOL    HW130065   4.435   1.310   5.034
 9722SOL    HW230066   4.510   1.352   4.895
 9723SOL     OW30067   3.766   6.512   3.367
 9723SOL    HW130068   3.746   6.610   3.371
 9723SOL    HW230069   3.852   6.497   3.319
 9724SOL     OW30070   1.931   5.117   6.770
 9724SOL    HW130071   1.930   5.017   6.769
 9724SOL    HW230072   1.986   5.151   6.694
 9725SOL     OW30073   4.683   5.974   6.086
 9725SOL    HW130074   4.625   5.983   6.005
 9725SOL    HW230075   4.746   5.897   6.072
 9726SOL     OW30076   4.547   1.399   3.760
 9726SOL    HW130077   4.473   1.356   3.812
 9726SOL    HW230078   4.613   1.329   3.732
 9727SOL     OW30079   1.374   2.571   6.942
 9727SOL    HW130080   1.342   2.491   6.992
 9727SOL    HW230081   1.449   2.614   6.992
 9728SOL     OW30082   0.951   0.485   5.805
 9728SOL    HW130083   0.867   0.448   5.765
 9728SOL    HW230084   0.935   0.509   5.900
 9729SOL     OW30085   1.049   4.054   3.261
 9729SOL    HW130086   0.956   4.084   3.284
 9729SOL    HW230087   1.049   3.954   3.252
 9730SOL     OW30088   1.834   4.887   3.011
 9730SOL    HW130089   1.922   4.923   2.982
 9730SOL    HW230090   1.762   4.924   2.953
 9731SOL     OW30091   5.404   5.017   1.203
 9731SOL    HW130092   5.406   4.947   1.132
 9731SOL    HW230093   5.356   4.982   1.284
 9732SOL     OW30094   0.170   4.873   2.095
 9732SOL    HW130095   0.255   4.875   2.148
 9732SOL    HW230096   0.184   4.922   2.009
 9733SOL     OW30097   4.954   5.030   0.537
 9733SOL    HW130098   4.978   5.034   0.440
 9733SOL    HW230099   4.857   5.008   0.547
 9734SOL     OW30100   6.382   1.426   0.782
 9734SOL    HW130101   6.477   1.405   0.758
 9734SOL    HW230102   6.321   1.392   0.711
 9735SOL     OW30103   2.075   3.320   3.618
 9735SOL    HW130104   2.030   3.233   3.596
 9735SOL    HW230105   2.102   3.366   3.534
 9736SOL     OW30106   6.089   1.500   5.714
 9736SOL    HW130107   6.027   1.524   5.640
 9736SOL    HW230108   6.083   1.402   5.733
 9737SOL     OW30109   5.228   2.410   3.114
 9737SOL    HW130110   5.328   2.413   3.105
 9737SOL    HW230111   5.200   2.469   3.191
 9738SOL     OW30112   2.343   0.098   0.363
 9738SOL    HW130113   2.434   0.093   0.323
 9738SOL    HW230114   2.276   0.059   0.299
 9739SOL     OW30115   4.906   5.894   1.133
 9739SOL    HW130116   5.005   5.901   1.146
 9739SOL    HW230117   4.866   5.985   1.132
 9740SOL     OW30118   0.233   1.218   3.392
 9740SOL    HW130119   0.267   1.145   3.333
 9740SOL    HW230120   0.133   1.216   3.394
 9741SOL     OW30121   3.385   1.786   2.371
 9741SOL    HW130122   3.291   1.808   2.343
 9741SOL    HW230123   3.397   1.811   2.467
 9742SOL     OW30124   3.696   1.271   0.412
 9742SOL    HW130125   3.679   1.291   0.315
 9742SOL    HW230126   3.610   1.248   0.457
 9743SOL     OW30127   6.860   3.574   4.169
 9743SOL    HW130128   6.870   3.673   4.178
 9743SOL    HW230129   6.772   3.553   4.127
 9744SOL     OW30130   1.438   6.672   1.883
 9744SOL    HW130131   1.526   6.702   1.847
 9744SOL    HW230132   1.369   6.743   1.866
 9745SOL     OW30133   5.037   2.402   6.434
 9745SOL    HW130134   5.060   2.312   6.470
 9745SOL    HW230135   5.065   2.408   6.338
 9746SOL     OW30136   6.091   0.735   5.861
 9746SOL    HW130137   6.067   0.650   5.909
 9746SOL    HW230138   6.163   0.716   5.795
 9747SOL     OW30139   2.753   1.841   1.929
 9747SOL    HW130140   2.818   1.778   1.887
 9747SOL    HW230141   2.790   1.934   1.926
 9748SOL     OW30142   6.721   6.800   3.835
 9748SOL    HW130143   6.642   6.740   3.841
 9748SOL    HW230144   6.697   6.891   3.868
 9749SOL     OW30145   1.810   0.390   4.266
 9749SOL    HW130146   1.807   0.489   4.261
 9749SOL    HW230147   1.721   0.352   4.242
 9750SOL     OW30148   6.089   4.574   3.240
 9750SOL    HW130149   6.099   4.619   3.151
 9750SOL    HW230150   6.018   4.504   3.234
 9751SOL     OW30151   2.555   0.651   0.783
 9751SOL    HW130152   2.651   0.642   0.811
 9751SOL    HW230153   2.507   0.565   0.803
 9752SOL     OW30154   3.820   2.166   5.206
 9752SOL    HW130155   3.721   2.162   5.189
 9752SOL    HW230156   3.869   2.122   5.131
 9753SOL     OW30157   6.854   5.511   6.580
 9753SOL    HW130158   6.940   5.504   6.529
 9753SOL    HW230159   6.872   5.497   6.677
 9754SOL     OW30160   1.999   0.417   0.597
 9754SOL    HW130161   1.998   0.330   0.548
 9754SOL    HW230162   1.905   0.443   0.621
 9755SOL     OW30163   3.592   3.547   4.306
 9755SOL    HW130164   3.597   3.556   4.206
 9755SOL    HW230165   3.497   3.535   4.333
 9756SOL     OW30166   6.014   2.633   6.441
 9756SOL    HW130167   5.970   2.699   6.380
 9756SOL    HW230168   5.992   2.540   6.412
 9757SOL     OW30169   6.104   4.404   4.162
 9757SOL    HW130170   6.091   4.406   4.063
 9757SOL    HW230171   6.124   4.497   4.195
 9758SOL     OW30172   2.661   0.488   6.669
 9758SOL    HW130173   2.688   0.501   6.765
 9758SOL    HW230174   2.617   0.571   6.635
 9759SOL     OW30175   1.209   0.530   0.185
 9759SOL    HW130176   1.149   0.496   0.114
 9759SOL    HW230177   1.156   0.582   0.252
 9760SOL     OW30178   5.080   3.065   5.795
 9760SOL    HW130179   5.051   3.024   5.709
 9760SOL    HW230180   4.999   3.083   5.852
 9761SOL     OW30181   0.391   1.638   2.234
 9761SOL    HW130182   0.454   1.716   2.232
 9761SOL    HW230183   0.377   1.609   2.328
 9762SOL     OW30184   3.149   1.870   4.572
 9762SOL    HW130185   3.183   1.813   4.646
 9762SOL    HW230186   3.135   1.963   4.605
 9763SOL     OW30187   5.020   1.888   2.670
 9763SOL    HW130188   4.966   1.970   2.683
 9763SOL    HW230189   5.001   1.849   2.579
 9764SOL     OW30190   6.766   2.875   3.307
 9764SOL    HW130191   6.726   2.905   3.220
 9764SOL    HW230192   6.696   2.830   3.363
 9765SOL     OW30193   6.612   6.473   3.724
 9765SOL    HW130194   6.711   6.483   3.735
 9765SOL    HW230195   6.592   6.450   3.628
 9766SOL     OW30196   2.606   0.272   2.293
 9766SOL    HW130197   2.565   0.190   2.254
 9766SOL    HW230198   2.535   0.340   2.311
 9767SOL     OW30199   3.654   1.291   5.691
 9767SOL    HW130200   3.692   1.199   5.701
 9767SOL    HW230201   3.722   1.358   5.718
 9768SOL     OW30202   5.565   1.123   1.768
 9768SOL    HW130203   5.584   1.066   1.688
 9768SOL    HW230204   5.515   1.205   1.740
 9769SOL     OW30205   4.212   0.600   4.663
 9769SOL    HW130206   4.259   0.688   4.655
 9769SOL    HW230207   4.255   0.547   4.736
 9770SOL     OW30208   3.889   1.163   5.706
 9770SOL    HW130209   3.982   1.184   5.736
 9770SOL    HW230210   3.845   1.102   5.773
 9771SOL     OW30211   2.686   5.831   0.408
 9771SOL    HW130212   2.652   5.737   0.417
 9771SOL    HW230213   2.635   5.891   0.470
 9772SOL     OW30214   1.618   5.935   1.475
 9772SOL    HW130215   1.645   5.992   1.397
 9772SOL    HW230216   1.700   5.899   1.520
 9773SOL     OW30217   5.087   5.368   4.324
 9773SOL    HW130218   5.174   5.321   4.338
 9773SOL    HW230219   5.039   5.327   4.247
 9774SOL     OW30220   0.096   5.665   1.834
 9774SOL    HW130221   0.049   5.748   1.864
 9774SOL    HW230222   0.090   5.596   1.905
 9775SOL     OW30223   3.280   0.620   3.333
 9775SOL    HW130224   3.298   0.616   3.235
 9775SOL    HW230225   3.248   0.531   3.365
 9776SOL     OW30226   0.896   4.464   5.293
 9776SOL    HW130227   0.807   4.441   5.255
 9776SOL    HW230228   0.953   4.504   5.221
 9777SOL     OW30229   5.859   5.978   0.168
 9777SOL    HW130230   5.855   5.885   0.205
 9777SOL    HW230231   5.916   6.035   0.226
 9778SOL     OW30232   0.488   1.412   4.235
 9778SOL    HW130233   0.416   1.475   4.207
 9778SOL    HW230234   0.450   1.320   4.246
 9779SOL     OW30235   1.007   1.641   4.027
 9779SOL    HW130236   0.909   1.661   4.037
 9779SOL    HW230237   1.050   1.638   4.117
 9780SOL     OW30238   2.375   2.590   0.497
 9780SOL    HW130239   2.408   2.513   0.552
 9780SOL    HW230240   2.411   2.675   0.535
 9781SOL     OW30241   2.182   2.695   4.783
 9781SOL    HW130242   2.235   2.664   4.862
 9781SOL    HW230243   2.193   2.794   4.771
 9782SOL     OW30244   0.304   0.985   1.131
 9782SOL    HW130245   0.330   1.079   1.110
 9782SOL    HW230246   0.380   0.924   1.109
 9783SOL     OW30247   4.518   2.476   3.270
 9783SOL    HW130248   4.433   2.471   3.323
 9783SOL    HW230249   4.592   2.508   3.329
 9784SOL     OW30250   3.064   2.398   6.227
 9784SOL    HW130251   3.068   2.332   6.152
 9784SOL    HW230252   2.992   2.371   6.291
 9785SOL     OW30253   1.189   2.269   5.984
 9785SOL    HW130254   1.285   2.240   5.977
 9785SOL    HW230255   1.137   2.199   6.034
 9786SOL     OW30256   2.890   4.397   0.257
 9786SOL    HW130257   2.924   4.454   0.181
 9786SOL    HW230258   2.790   4.400   0.258
 9787SOL     OW30259   3.315   3.868   2.954
 9787SOL    HW130260   3.215   3.863   2.953
 9787SOL    HW230261   3.351   3.803   3.021
 9788SOL     OW30262   1.003   0.214   3.662
 9788SOL    HW130263   1.020   0.167   3.748
 9788SOL    HW230264   1.065   0.179   3.592
 9789SOL     OW30265   1.796   5.566   0.607
 9789SOL    HW130266   1.734   5.526   0.674
 9789SOL    HW230267   1.749   5.574   0.519
 9790SOL     OW30268   6.492   4.859   6.503
 9790SOL    HW130269   6.462   4.895   6.591
 9790SOL    HW230270   6.513   4.934   6.441
 9791SOL     OW30271   0.212   0.742   0.414
 9791SOL    HW130272   0.232   0.833   0.451
 9791SOL    HW230273   0.296   0.689   0.408
 9792SOL     OW30274   3.605   4.211   0.284
 9792SOL    HW130275   3.695   4.165   0.288
 9792SOL    HW230276   3.577   4.219   0.188
 9793SOL     OW30277   4.019   7.003   2.597
 9793SOL    HW130278   3.977   6.918   2.631
 9793SOL    HW230279   4.116   7.003   2.621
 9794SOL     OW30280   0.307   4.111   6.772
 9794SOL    HW130281   0.257   4.193   6.744
 9794SOL    HW230282   0.351   4.128   6.861
 9795SOL     OW30283   1.920   1.749   4.559
 9795SOL    HW130284   1.889   1.844   4.558
 9795SOL    HW230285   1.963   1.728   4.647
 9796SOL     OW30286   3.026   3.166   2.377
 9796SOL    HW130287   3.000   3.218   2.296
 9796SOL    HW230288   3.108   3.112   2.358
 9797SOL     OW30289   1.733   5.754   7.010
 9797SOL    HW130290   1.657   5.818   6.998
 9797SOL    HW230291   1.781   5.776   0.068
 9798SOL     OW30292   3.065   0.358   2.553
 9798SOL    HW130293   3.054   0.350   2.653
 9798SOL    HW230294   2.977   0.339   2.509
 9799SOL     OW30295   3.069   3.876   5.484
 9799SOL    HW130296   3.031   3.825   5.407
 9799SOL    HW230297   3.130   3.817   5.536
 9800SOL     OW30298   4.432   5.157   4.769
 9800SOL    HW130299   4.446   5.219   4.692
 9800SOL    HW230300   4.349   5.104   4.754
 9801SOL     OW30301   4.651   4.220   0.343
 9801SOL    HW130302   4.655   4.230   0.443
 9801SOL    HW230303   4.730   4.264   0.302
 9802SOL     OW30304   6.881   4.458   1.797
 9802SOL    HW130305   6.818   4.511   1.853
 9802SOL    HW230306   6.878   4.493   1.703
 9803SOL     OW30307   1.522   2.166   6.433
 9803SOL    HW130308   1.607   2.196   6.390
 9803SOL    HW230309   1.491   2.235   6.498
 9804SOL     OW30310   1.177   5.938   3.488
 9804SOL    HW130311   1.080   5.916   3.487
 9804SOL    HW230312   1.219   5.903   3.572
 9805SOL     OW30313   1.157   6.764   3.830
 9805SOL    HW130314   1.243   6.728   3.865
 9805SOL    HW230315   1.127   6.709   3.752
 9806SOL     OW30316   0.977   1.245   6.587
 9806SOL    HW130317   0.933   1.303   6.655
 9806SOL    HW230318   0.925   1.161   6.576
 9807SOL     OW30319   3.140   4.546   0.375
 9807SOL    HW130320   3.202   4.536   0.452
 9807SOL    HW230321   3.049   4.513   0.400
 9808SOL     OW30322   3.606   0.311   5.204
 9808SOL    HW130323   3.578   0.390   5.259
 9808SOL    HW230324   3.538   0.293   5.133
 9809SOL     OW30325   1.199   3.139   6.454
 9809SOL    HW130326   1.175   3.070   6.522
 9809SOL    HW230327   1.288   3.179   6.477
 9810SOL     OW30328   1.874   2.781   3.955
 9810SOL    HW130329   1.859   2.708   3.888
 9810SOL    HW230330   1.792   2.792   4.011
 9811SOL     OW30331   5.349   4.720   3.135
 9811SOL    HW130332   5.352   4.814   3.170
 9811SOL    HW230333   5.254   4.692   3.121
 9812SOL     OW30334   3.590   2.555   5.889
 9812SOL    HW130335   3.592   2.579   5.792
 9812SOL    HW230336   3.537   2.471   5.902
 9813SOL     OW30337   5.036   1.239   0.786
 9813SOL    HW130338   5.023   1.273   0.693
 9813SOL    HW230339   5.080   1.149   0.782
 9814SOL     OW30340   6.672   0.264   6.846
 9814SOL    HW130341   6.611   0.335   6.883
 9814SOL    HW230342   6.723   0.222   6.920
 9815SOL     OW30343   5.437   3.916   4.642
 9815SOL    HW130344   5.387   3.985   4.589
 9815SOL    HW230345   5.456   3.837   4.584
 9816SOL     OW30346   0.688   1.015   6.193
 9816SOL    HW130347   0.599   1.014   6.147
 9816SOL    HW230348   0.695   0.936   6.253
 9817SOL     OW30349   3.180   6.969   3.626
 9817SOL    HW130350   3.145   6.928   3.541
 9817SOL    HW230351   3.103   6.991   3.686
 9818SOL     OW30352   1.220   0.640   3.890
 9818SOL    HW130353   1.170   0.711   3.940
 9818SOL    HW230354   1.181   0.550   3.913
 9819SOL     OW30355   4.849   3.203   3.809
 9819SOL    HW130356   4.905   3.270   3.858
 9819SOL    HW230357   4.881   3.196   3.714
 9820SOL     OW30358   4.291   3.455   6.638
 9820SOL    HW130359   4.325   3.514   6.565
 9820SOL    HW230360   4.286   3.361   6.605
 9821SOL     OW30361   4.999   0.905   6.319
 9821SOL    HW130362   5.047   0.938   6.401
 9821SOL    HW230363   4.984   0.806   6.327
 9822SOL     OW30364   2.187   6.216   3.596
 9822SOL    HW130365   2.118   6.279   3.560
 9822SOL    HW230366   2.261   6.268   3.637
 9823SOL     OW30367   2.499   1.325   0.243
 9823SOL    HW130368   2.596   1.307   0.257
 9823SOL    HW230369   2.445   1.252   0.286
 9824SOL     OW30370   1.728   4.868   4.803
 9824SOL    HW130371   1.794   4.820   4.745
 9824SOL    HW230372   1.750   4.965   4.805
 9825SOL     OW30373   5.032   5.544   5.035
 9825SOL    HW130374   4.953   5.572   5.089
 9825SOL    HW230375   5.078   5.468   5.081
 9826SOL     OW30376   4.390   5.299   5.718
 9826SOL    HW130377   4.399   5.278   5.621
 9826SOL    HW230378   4.298   5.275   5.749
 9827SOL     OW30379   2.014   3.183   3.883
 9827SOL    HW130380   2.064   3.225   3.959
 9827SOL    HW230381   2.057   3.209   3.797
 9828SOL     OW30382   2.430   2.535   5.632
 9828SOL    HW130383   2.473   2.497   5.713
 9828SOL    HW230384   2.351   2.478   5.605
 9829SOL     OW30385   4.028   5.648   6.203
 9829SOL    HW130386   4.040   5.735   6.251
 9829SOL    HW230387   3.933   5.618   6.213
 9830SOL     OW30388   6.026   2.636   2.148
 9830SOL    HW130389   6.049   2.720   2.099
 9830SOL    HW230390   5.940   2.650   2.198
 9831SOL     OW30391   2.621   5.489   1.395
 9831SOL    HW130392   2.670   5.403   1.384
 9831SOL    HW230393   2.607   5.532   1.306
 9832SOL     OW30394   5.092   5.789   2.344
 9832SOL    HW130395   5.135   5.704   2.373
 9832SOL    HW230396   4.993   5.779   2.350
 9833SOL     OW30397   2.931   3.694   4.819
 9833SOL    HW130398   2.833   3.673   4.819
 9833SOL    HW230399   2.979   3.632   4.881
 9834SOL     OW30400   2.496   4.234   5.304
 9834SOL    HW130401   2.472   4.146   5.263
 9834SOL    HW230402   2.485   4.229   5.403
 9835SOL     OW30403   3.964   3.090   5.217
 9835SOL    HW130404   3.959   3.168   5.154
 9835SOL    HW230405   3.890   3.097   5.284
 9836SOL     OW30406   6.660   4.382   3.920
 9836SOL    HW130407   6.635   4.286   3.911
 9836SOL    HW230408   6.759   4.390   3.925
 9837SOL     OW30409   3.296   0.197   2.764
 9837SOL    HW130410   3.362   0.188   2.689
 9837SOL    HW230411   3.342   0.179   2.851
 9838SOL     OW30412   1.624   6.964   7.023
 9838SOL    HW130413   1.636   6.866   7.006
 9838SOL    HW230414   1.564   6.976   0.076
 9839SOL     OW30415   5.460   0.252   3.804
 9839SOL    HW130416   5.521   0.202   3.742
 9839SOL    HW230417   5.509   0.330   3.844
 9840SOL     OW30418   5.541   1.525   0.591
 9840SOL    HW130419   5.619   1.569   0.635
 9840SOL    HW230420   5.572   1.476   0.510
 9841SOL     OW30421   1.406   4.772   5.128
 9841SOL    HW130422   1.347   4.852   5.118
 9841SOL    HW230423   1.352   4.696   5.165
 9842SOL     OW30424   3.404   3.435   1.743
 9842SOL    HW130425   3.335   3.446   1.815
 9842SOL    HW230426   3.492   3.412   1.785
 9843SOL     OW30427   5.933   1.196   1.436
 9843SOL    HW130428   5.896   1.192   1.344
 9843SOL    HW230429   5.991   1.116   1.453
 9844SOL     OW30430   6.322   0.758   2.562
 9844SOL    HW130431   6.411   0.766   2.518
 9844SOL    HW230432   6.262   0.832   2.529
 9845SOL     OW30433   2.253   2.918   2.975
 9845SOL    HW130434   2.215   3.010   2.970
 9845SOL    HW230435   2.233   2.879   3.065
 9846SOL     OW30436   3.865   2.931   2.074
 9846SOL    HW130437   3.878   2.974   2.164
 9846SOL    HW230438   3.784   2.873   2.077
 9847SOL     OW30439   3.574   2.950   3.588
 9847SOL    HW130440   3.662   2.933   3.544
 9847SOL    HW230441   3.587   2.960   3.687
 9848SOL     OW30442   3.872   2.951   4.956
 9848SOL    HW130443   3.773   2.943   4.969
 9848SOL    HW230444   3.917   2.949   5.046
 9849SOL     OW30445   1.304   6.804   6.896
 9849SOL    HW130446   1.249   6.755   6.963
 9849SOL    HW230447   1.281   6.901   6.898
 9850SOL     OW30448   6.122   6.739   4.391
 9850SOL    HW130449   6.195   6.765   4.329
 9850SOL    HW230450   6.037   6.786   4.365
 9851SOL     OW30451   6.486   0.661   4.541
 9851SOL    HW130452   6.460   0.742   4.488
 9851SOL    HW230453   6.585   0.649   4.536
 9852SOL     OW30454   3.724   1.691   3.801
 9852SOL    HW130455   3.760   1.743   3.723
 9852SOL    HW230456   3.670   1.752   3.860
 9853SOL     OW30457   4.910   3.605   4.566
 9853SOL    HW130458   4.931   3.557   4.481
 9853SOL    HW230459   4.911   3.541   4.642
 9854SOL     OW30460   6.541   5.823   5.096
 9854SOL    HW130461   6.504   5.912   5.123
 9854SOL    HW230462   6.472   5.752   5.107
 9855SOL     OW30463   1.765   3.773   0.721
 9855SOL    HW130464   1.772   3.873   0.716
 9855SOL    HW230465   1.840   3.732   0.670
 9856SOL     OW30466   4.813   3.851   4.494
 9856SOL    HW130467   4.811   3.762   4.540
 9856SOL    HW230468   4.842   3.839   4.400
 9857SOL     OW30469   4.807   2.485   2.894
 9857SOL    HW130470   4.810   2.460   2.798
 9857SOL    HW230471   4.828   2.582   2.904
 9858SOL     OW30472   6.984   0.836   1.643
 9858SOL    HW130473   7.013   0.788   1.560
 9858SOL    HW230474   0.036   0.845   1.705
 9859SOL     OW30475   6.389   6.467   2.874
 9859SOL    HW130476   6.392   6.396   2.943
 9859SOL    HW230477   6.482   6.489   2.844
 9860SOL     OW30478   1.594   1.769   3.388
 9860SOL    HW130479   1.627   1.817   3.307
 9860SOL    HW230480   1.670   1.724   3.434
 9861SOL     OW30481   2.828   0.413   3.717
 9861SOL    HW130482   2.738   0.411   3.675
 9861SOL    HW230483   2.859   0.508   3.724
 9862SOL     OW30484   3.488   3.015   6.660
 9862SOL    HW130485   3.440   3.094   6.622
 9862SOL    HW230486   3.426   2.936   6.661
 9863SOL     OW30487   3.404   6.715   2.713
 9863SOL    HW130488   3.454   6.775   2.651
 9863SOL    HW230489   3.361   6.642   2.661
 9864SOL     OW30490   3.837   6.337   3.727
 9864SOL    HW130491   3.906   6.409   3.712
 9864SOL    HW230492   3.806   6.302   3.639
 9865SOL     OW30493   1.566   0.271   4.321
 9865SOL    HW130494   1.550   0.356   4.371
 9865SOL    HW230495   1.495   0.259   4.251
 9866SOL     OW30496   4.950   4.370   6.425
 9866SOL    HW130497   4.940   4.271   6.431
 9866SOL    HW230498   4.912   4.402   6.338
 9867SOL     OW30499   6.875   1.723   0.888
 9867SOL    HW130500   6.863   1.658   0.812
 9867SOL    HW230501   6.951   1.785   0.866
 9868SOL     OW30502   0.972   3.635   5.494
 9868SOL    HW130503   0.950   3.663   5.401
 9868SOL    HW230504   0.890   3.598   5.538
 9869SOL     OW30505   0.997   2.587   1.654
 9869SOL    HW130506   1.002   2.544   1.563
 9869SOL    HW230507   1.060   2.664   1.657
 9870SOL     OW30508   3.524   5.905   2.665
 9870SOL    HW130509   3.597   5.892   2.598
 9870SOL    HW230510   3.450   5.839   2.648
 9871SOL     OW30511   0.039   5.941   5.975
 9871SOL    HW130512   6.998   5.873   6.000
 9871SOL    HW230513   0.131   5.904   5.987
 9872SOL     OW30514   2.480   5.343   4.753
 9872SOL    HW130515   2.563   5.371   4.706
 9872SOL    HW230516   2.489   5.247   4.781
 9873SOL     OW30517   2.291   2.912   0.158
 9873SOL    HW130518   2.239   2.920   0.072
 9873SOL    HW230519   2.282   2.820   0.194
 9874SOL     OW30520   5.729   3.278   5.249
 9874SOL    HW130521   5.673   3.359   5.230
 9874SOL    HW230522   5.763   3.240   5.163
 9875SOL     OW30523   5.969   5.816   1.553
 9875SOL    HW130524   5.977   5.803   1.455
 9875SOL    HW230525   6.058   5.843   1.591
 9876SOL     OW30526   6.131   0.596   3.833
 9876SOL    HW130527   6.068   0.571   3.759
 9876SOL    HW230528   6.078   0.617   3.915
 9877SOL     OW30529   6.308   5.320   4.091
 9877SOL    HW130530   6.312   5.221   4.101
 9877SOL    HW230531   6.334   5.345   3.998
 9878SOL     OW30532   2.880   3.730   5.929
 9878SOL    HW130533   2.845   3.751   5.838
 9878SOL    HW230534   2.864   3.633   5.949
 9879SOL     OW30535   5.383   5.819   5.489
 9879SOL    HW130536   5.399   5.730   5.446
 9879SOL    HW230537   5.408   5.892   5.425
 9880SOL     OW30538   3.962   0.699   0.151
 9880SOL    HW130539   3.895   0.770   0.172
 9880SOL    HW230540   3.935   0.652   0.066
 9881SOL     OW30541   1.822   1.362   4.335
 9881SOL    HW130542   1.850   1.318   4.421
 9881SOL    HW230543   1.736   1.411   4.349
 9882SOL     OW30544   1.816   3.774   4.898
 9882SOL    HW130545   1.837   3.736   4.988
 9882SOL    HW230546   1.886   3.744   4.832
 9883SOL     OW30547   1.201   6.377   0.722
 9883SOL    HW130548   1.237   6.397   0.813
 9883SOL    HW230549   1.105   6.403   0.718
 9884SOL     OW30550   4.647   2.356   1.535
 9884SOL    HW130551   4.569   2.296   1.554
 9884SOL    HW230552   4.613   2.447   1.507
 9885SOL     OW30553   0.022   1.819   4.883
 9885SOL    HW130554   0.023   1.867   4.971
 9885SOL    HW230555   0.044   1.723   4.898
 9886SOL     OW30556   1.349   5.312   1.967
 9886SOL    HW130557   1.271   5.363   1.932
 9886SOL    HW230558   1.391   5.260   1.892
 9887SOL     OW30559   4.391   0.727   0.237
 9887SOL    HW130560   4.385   0.628   0.223
 9887SOL    HW230561   4.353   0.749   0.327
 9888SOL     OW30562   5.461   4.896   2.451
 9888SOL    HW130563   5.400   4.872   2.376
 9888SOL    HW230564   5.444   4.990   2.479
 9889SOL     OW30565   5.863   4.905   0.506
 9889SOL    HW130566   5.952   4.908   0.552
 9889SOL    HW230567   5.831   4.998   0.490
 9890SOL     OW30568   0.614   2.847   1.426
 9890SOL    HW130569   0.587   2.816   1.517
 9890SOL    HW230570   0.675   2.780   1.384
 9891SOL     OW30571   5.602   3.003   1.053
 9891SOL    HW130572   5.591   2.983   0.956
 9891SOL    HW230573   5.634   2.921   1.101
 9892SOL     OW30574   1.525   4.708   2.557
 9892SOL    HW130575   1.555   4.660   2.475
 9892SOL    HW230576   1.592   4.778   2.582
 9893SOL     OW30577   6.868   0.780   2.239
 9893SOL    HW130578   6.902   0.701   2.187
 9893SOL    HW230579   6.933   0.802   2.312
 9894SOL     OW30580   3.108   2.341   0.152
 9894SOL    HW130581   3.044   2.402   0.198
 9894SOL    HW230582   3.170   2.395   0.095
 9895SOL     OW30583   5.214   3.932   5.459
 9895SOL    HW130584   5.162   4.000   5.408
 9895SOL    HW230585   5.307   3.926   5.421
 9896SOL     OW30586   5.705   1.489   1.209
 9896SOL    HW130587   5.641   1.516   1.137
 9896SOL    HW230588   5.665   1.416   1.264
 9897SOL     OW30589   6.089   6.944   2.029
 9897SOL    HW130590   6.045   6.956   2.117
 9897SOL    HW230591   6.028   6.894   1.967
 9898SOL     OW30592   1.011   4.781   6.492
 9898SOL    HW130593   0.953   4.761   6.571
 9898SOL    HW230594   0.954   4.811   6.416
 9899SOL     OW30595   1.121   5.057   1.830
 9899SOL    HW130596   1.113   4.961   1.857
 9899SOL    HW230597   1.218   5.083   1.826
 9900SOL     OW30598   1.508   3.072   2.124
 9900SOL    HW130599   1.441   3.003   2.094
 9900SOL    HW230600   1.593   3.061   2.072
 9901SOL     OW30601   3.046   0.789   6.844
 9901SOL    HW130602   3.103   0.731   6.786
 9901SOL    HW230603   2.963   0.739   6.869
 9902SOL     OW30604   3.550   4.298   1.511
 9902SOL    HW130605   3.642   4.264   1.493
 9902SOL    HW230606   3.518   4.263   1.599
 9903SOL     OW30607   5.425   1.608   1.504
 9903SOL    HW130608   5.507   1.661   1.486
 9903SOL    HW230609   5.362   1.662   1.560
 9904SOL     OW30610   0.493   3.773   6.237
 9904SOL    HW130611   0.420   3.732   6.291
 9904SOL    HW230612   0.467   3.773   6.141
 9905SOL     OW30613   2.416   0.694   5.945
 9905SOL    HW130614   2.396   0.597   5.931
 9905SOL    HW230615   2.515   0.708   5.949
 9906SOL     OW30616   2.004   3.364   0.872
 9906SOL    HW130617   1.984   3.399   0.964
 9906SOL    HW230618   2.103   3.348   0.864
 9907SOL     OW30619   1.441   0.543   1.452
 9907SOL    HW130620   1.407   0.449   1.453
 9907SOL    HW230621   1.540   0.542   1.439
 9908SOL     OW30622   6.394   2.587   4.899
 9908SOL    HW130623   6.311   2.546   4.937
 9908SOL    HW230624   6.387   2.687   4.904
 9909SOL     OW30625   4.131   0.959   2.557
 9909SOL    HW130626   4.199   1.030   2.539
 9909SOL    HW230627   4.113   0.907   2.473
 9910SOL     OW30628   1.444   5.331   1.268
 9910SOL    HW130629   1.403   5.250   1.310
 9910SOL    HW230630   1.372   5.397   1.246
 9911SOL     OW30631   2.604   5.974   1.515
 9911SOL    HW130632   2.600   6.011   1.608
 9911SOL    HW230633   2.635   5.879   1.518
 9912SOL     OW30634   3.699   1.263   0.823
 9912SOL    HW130635   3.643   1.208   0.885
 9912SOL    HW230636   3.780   1.210   0.797
 9913SOL     OW30637   6.366   3.180   0.717
 9913SOL    HW130638   6.268   3.191   0.736
 9913SOL    HW230639   6.384   3.201   0.621
 9914SOL     OW30640   6.889   7.012   5.856
 9914SOL    HW130641   6.951   6.954   5.804
 9914SOL    HW230642   6.800   7.013   5.812
 9915SOL     OW30643   5.897   0.689   3.490
 9915SOL    HW130644   5.913   0.780   3.452
 9915SOL    HW230645   5.904   0.621   3.417
 9916SOL     OW30646   2.168   2.378   3.105
 9916SOL    HW130647   2.075   2.343   3.109
 9916SOL    HW230648   2.226   2.313   3.056
 9917SOL     OW30649   3.992   3.852   5.812
 9917SOL    HW130650   4.078   3.901   5.826
 9917SOL    HW230651   3.975   3.842   5.714
 9918SOL     OW30652   1.581   2.968   2.727
 9918SOL    HW130653   1.560   2.925   2.639
 9918SOL    HW230654   1.649   2.913   2.776
 9919SOL     OW30655   2.624   5.349   1.807
 9919SOL    HW130656   2.590   5.442   1.793
 9919SOL    HW230657   2.724   5.350   1.807
 9920SOL     OW30658   4.761   0.545   2.493
 9920SOL    HW130659   4.774   0.486   2.573
 9920SOL    HW230660   4.767   0.640   2.521
 9921SOL     OW30661   4.439   6.551   4.393
 9921SOL    HW130662   4.358   6.545   4.452
 9921SOL    HW230663   4.484   6.639   4.409
 9922SOL     OW30664   3.763   4.272   1.024
 9922SOL    HW130665   3.738   4.324   0.942
 9922SOL    HW230666   3.733   4.323   1.105
 9923SOL     OW30667   6.254   3.620   0.161
 9923SOL    HW130668   6.154   3.624   0.152
 9923SOL    HW230669   6.291   3.713   0.166
 9924SOL     OW30670   5.543   1.958   3.009
 9924SOL    HW130671   5.494   1.979   3.094
 9924SOL    HW230672   5.500   1.879   2.965
 9925SOL     OW30673   0.369   4.901   3.799
 9925SOL    HW130674   0.292   4.964   3.801
 9925SOL    HW230675   0.381   4.861   3.890
 9926SOL     OW30676   4.011   2.741   0.902
 9926SOL    HW130677   4.021   2.673   0.975
 9926SOL    HW230678   4.094   2.796   0.896
 9927SOL     OW30679   0.783   1.178   0.587
 9927SOL    HW130680   0.848   1.167   0.662
 9927SOL    HW230681   0.778   1.274   0.562
 9928SOL     OW30682   5.132   4.597   3.427
 9928SOL    HW130683   5.087   4.681   3.399
 9928SOL    HW230684   5.124   4.585   3.526
 9929SOL     OW30685   3.595   4.147   4.133
 9929SOL    HW130686   3.619   4.113   4.224
 9929SOL    HW230687   3.649   4.098   4.064
 9930SOL     OW30688   0.823   6.817   6.331
 9930SOL    HW130689   0.748   6.772   6.380
 9930SOL    HW230690   0.899   6.753   6.320
 9931SOL     OW30691   6.717   5.822   4.472
 9931SOL    HW130692   6.703   5.746   4.408
 9931SOL    HW230693   6.642   5.823   4.538
 9932SOL     OW30694   2.769   2.526   5.583
 9932SOL    HW130695   2.827   2.563   5.511
 9932SOL    HW230696   2.704   2.596   5.613
 9933SOL     OW30697   1.981   6.861   4.075
 9933SOL    HW130698   1.952   6.933   4.012
 9933SOL    HW230699   1.950   6.882   4.168
 9934SOL     OW30700   0.164   2.210   6.260
 9934SOL    HW130701   0.155   2.237   6.356
 9934SOL    HW230702   0.124   2.120   6.247
 9935SOL     OW30703   2.769   0.090   1.534
 9935SOL    HW130704   2.695   0.070   1.469
 9935SOL    HW230705   2.849   0.124   1.483
 9936SOL     OW30706   6.354   4.744   0.590
 9936SOL    HW130707   6.282   4.700   0.644
 9936SOL    HW230708   6.374   4.834   0.628
 9937SOL     OW30709   0.436   1.455   1.665
 9937SOL    HW130710   0.349   1.487   1.700
 9937SOL    HW230711   0.463   1.371   1.712
 9938SOL     OW30712   5.509   5.053   4.135
 9938SOL    HW130713   5.412   5.067   4.114
 9938SOL    HW230714   5.552   4.999   4.062
 9939SOL     OW30715   3.479   2.804   1.104
 9939SOL    HW130716   3.483   2.720   1.158
 9939SOL    HW230717   3.496   2.883   1.164
 9940SOL     OW30718   1.037   0.048   2.174
 9940SOL    HW130719   1.134   0.047   2.199
 9940SOL    HW230720   0.992   0.126   2.218
 9941SOL     OW30721   3.243   4.366   6.060
 9941SOL    HW130722   3.304   4.407   6.128
 9941SOL    HW230723   3.152   4.406   6.068
 9942SOL     OW30724   3.789   5.382   2.378
 9942SOL    HW130725   3.743   5.319   2.440
 9942SOL    HW230726   3.734   5.395   2.296
 9943SOL     OW30727   0.959   4.855   6.792
 9943SOL    HW130728   0.861   4.843   6.807
 9943SOL    HW230729   0.985   4.948   6.820
 9944SOL     OW30730   0.917   4.472   6.655
 9944SOL    HW130731   0.983   4.398   6.666
 9944SOL    HW230732   0.878   4.468   6.563
 9945SOL     OW30733   4.618   5.913   6.923
 9945SOL    HW130734   4.637   5.818   6.899
 9945SOL    HW230735   4.551   5.916   6.997
 9946SOL     OW30736   6.695   6.811   3.523
 9946SOL    HW130737   6.716   6.722   3.481
 9946SOL    HW230738   6.693   6.801   3.623
 9947SOL     OW30739   2.760   2.364   4.595
 9947SOL    HW130740   2.844   2.414   4.573
 9947SOL    HW230741   2.765   2.329   4.688
 9948SOL     OW30742   6.967   5.129   5.006
 9948SOL    HW130743   6.910   5.169   5.077
 9948SOL    HW230744   6.910   5.099   4.930
 9949SOL     OW30745   0.056   4.756   4.079
 9949SOL    HW130746   0.051   4.844   4.126
 9949SOL    HW230747   0.076   4.683   4.144
 9950SOL     OW30748   5.896   5.926   6.455
 9950SOL    HW130749   5.980   5.934   6.402
 9950SOL    HW230750   5.894   5.996   6.527
 9951SOL     OW30751   1.057   2.401   3.233
 9951SOL    HW130752   0.974   2.455   3.219
 9951SOL    HW230753   1.132   2.461   3.258
 9952SOL     OW30754   1.437   4.342   0.594
 9952SOL    HW130755   1.412   4.270   0.659
 9952SOL    HW230756   1.388   4.427   0.618
 9953SOL     OW30757   6.347   1.689   3.894
 9953SOL    HW130758   6.339   1.647   3.984
 9953SOL    HW230759   6.300   1.632   3.827
 9954SOL     OW30760   1.371   0.127   5.427
 9954SOL    HW130761   1.394   0.217   5.389
 9954SOL    HW230762   1.303   0.138   5.499
 9955SOL     OW30763   4.702   4.260   6.603
 9955SOL    HW130764   4.611   4.279   6.638
 9955SOL    HW230765   4.728   4.329   6.536
 9956SOL     OW30766   0.486   5.111   4.165
 9956SOL    HW130767   0.398   5.152   4.140
 9956SOL    HW230768   0.552   5.183   4.184
 9957SOL     OW30769   6.063   0.201   1.505
 9957SOL    HW130770   6.057   0.288   1.553
 9957SOL    HW230771   5.985   0.144   1.529
 9958SOL     OW30772   2.629   5.976   0.208
 9958SOL    HW130773   2.668   5.916   0.278
 9958SOL    HW230774   2.529   5.972   0.213
 9959SOL     OW30775   4.147   3.532   3.417
 9959SOL    HW130776   4.191   3.445   3.394
 9959SOL    HW230777   4.136   3.586   3.334
 9960SOL     OW30778   0.513   0.029   2.659
 9960SOL    HW130779   0.524   6.979   2.723
 9960SOL    HW230780   0.603   0.054   2.622
 9961SOL     OW30781   1.234   5.193   4.509
 9961SOL    HW130782   1.157   5.241   4.550
 9961SOL    HW230783   1.294   5.259   4.463
 9962SOL     OW30784   4.586   0.389   2.841
 9962SOL    HW130785   4.675   0.403   2.799
 9962SOL    HW230786   4.589   0.422   2.936
 9963SOL     OW30787   2.257   2.200   6.317
 9963SOL    HW130788   2.270   2.118   6.372
 9963SOL    HW230789   2.346   2.233   6.284
 9964SOL     OW30790   4.352   4.341   6.069
 9964SOL    HW130791   4.348   4.438   6.046
 9964SOL    HW230792   4.444   4.306   6.049
 9965SOL     OW30793   4.218   4.965   5.484
 9965SOL    HW130794   4.156   4.911   5.540
 9965SOL    HW230795   4.166   5.017   5.416
 9966SOL     OW30796   2.617   5.520   2.083
 9966SOL    HW130797   2.706   5.478   2.063
 9966SOL    HW230798   2.549   5.448   2.097
 9967SOL     OW30799   5.812   5.575   1.624
 9967SOL    HW130800   5.716   5.603   1.625
 9967SOL    HW230801   5.870   5.655   1.610
 9968SOL     OW30802   3.204   4.701   6.042
 9968SOL    HW130803   3.138   4.649   5.988
 9968SOL    HW230804   3.220   4.653   6.129
 9969SOL     OW30805   1.244   2.489   4.043
 9969SOL    HW130806   1.306   2.429   4.092
 9969SOL    HW230807   1.258   2.584   4.073
 9970SOL     OW30808   6.111   4.345   2.207
 9970SOL    HW130809   6.202   4.379   2.232
 9970SOL    HW230810   6.044   4.377   2.275
 9971SOL     OW30811   2.602   4.280   0.255
 9971SOL    HW130812   2.649   4.209   0.307
 9971SOL    HW230813   2.524   4.314   0.308
 9972SOL     OW30814   3.684   4.618   0.336
 9972SOL    HW130815   3.664   4.531   0.382
 9972SOL    HW230816   3.703   4.601   0.240
 9973SOL     OW30817   4.542   2.123   4.709
 9973SOL    HW130818   4.591   2.191   4.764
 9973SOL    HW230819   4.563   2.031   4.743
 9974SOL     OW30820   5.890   3.274   3.720
 9974SOL    HW130821   5.929   3.276   3.628
 9974SOL    HW230822   5.943   3.212   3.778
 9975SOL     OW30823   6.876   4.601   0.295
 9975SOL    HW130824   6.929   4.649   0.365
 9975SOL    HW230825   6.812   4.539   0.339
 9976SOL     OW30826   7.018   5.181   5.624
 9976SOL    HW130827   0.071   5.190   5.564
 9976SOL    HW230828   7.015   5.089   5.663
 9977SOL     OW30829   6.713   5.118   6.147
 9977SOL    HW130830   6.637   5.077   6.198
 9977SOL    HW230831   6.682   5.144   6.055
 9978SOL     OW30832   6.258   2.100   3.483
 9978SOL    HW130833   6.215   2.190   3.474
 9978SOL    HW230834   6.188   2.029   3.485
 9979SOL     OW30835   6.372   4.933   6.217
 9979SOL    HW130836   6.380   5.006   6.149
 9979SOL    HW230837   6.313   4.963   6.291
 9980SOL     OW30838   1.538   1.422   6.966
 9980SOL    HW130839   1.447   1.391   6.992
 9980SOL    HW230840   1.535   1.520   6.946
 9981SOL     OW30841   2.461   1.925   1.246
 9981SOL    HW130842   2.468   1.874   1.160
 9981SOL    HW230843   2.464   1.861   1.323
 9982SOL     OW30844   0.509   1.223   3.283
 9982SOL    HW130845   0.508   1.240   3.382
 9982SOL    HW230846   0.510   1.310   3.234
 9983SOL     OW30847   1.455   1.861   1.823
 9983SOL    HW130848   1.498   1.937   1.872
 9983SOL    HW230849   1.377   1.827   1.876
 9984SOL     OW30850   1.034   6.963   0.580
 9984SOL    HW130851   0.946   6.994   0.543
 9984SOL    HW230852   1.069   0.005   0.644
 9985SOL     OW30853   2.626   0.742   1.787
 9985SOL    HW130854   2.715   0.786   1.788
 9985SOL    HW230855   2.557   0.804   1.825
 9986SOL     OW30856   5.272   4.205   6.571
 9986SOL    HW130857   5.266   4.168   6.479
 9986SOL    HW230858   5.369   4.214   6.597
 9987SOL     OW30859   5.562   1.460   2.837
 9987SOL    HW130860   5.562   1.447   2.737
 9987SOL    HW230861   5.487   1.408   2.877
 9988SOL     OW30862   0.351   5.217   5.242
 9988SOL    HW130863   0.325   5.128   5.203
 9988SOL    HW230864   0.418   5.261   5.182
 9989SOL     OW30865   5.305   3.878   2.831
 9989SOL    HW130866   5.371   3.886   2.756
 9989SOL    HW230867   5.340   3.814   2.899
 9990SOL     OW30868   2.618   6.895   3.079
 9990SOL    HW130869   2.712   6.928   3.067
 9990SOL    HW230870   2.599   6.825   3.011
 9991SOL     OW30871   1.482   3.422   5.040
 9991SOL    HW130872   1.529   3.487   5.100
 9991SOL    HW230873   1.397   3.462   5.008
 9992SOL     OW30874   4.860   3.487   0.622
 9992SOL    HW130875   4.877   3.393   0.591
 9992SOL    HW230876   4.897   3.551   0.555
 9993SOL     OW30877   4.451   0.193   2.512
 9993SOL    HW130878   4.549   0.188   2.494
 9993SOL    HW230879   4.434   0.261   2.583
 9994SOL     OW30880   0.113   3.508   4.138
 9994SOL    HW130881   0.024   3.543   4.108
 9994SOL    HW230882   0.152   3.571   4.205
 9995SOL     OW30883   3.031   0.049   2.723
 9995SOL    HW130884   3.023   7.004   2.654
 9995SOL    HW230885   3.126   0.081   2.726
 9996SOL     OW30886   2.928   2.740   1.096
 9996SOL    HW130887   2.912   2.661   1.037
 9996SOL    HW230888   3.005   2.721   1.157
 9997SOL     OW30889   3.977   2.343   1.009
 9997SOL    HW130890   3.968   2.393   0.923
 9997SOL    HW230891   3.900   2.365   1.069
 9998SOL     OW30892   6.869   3.934   2.091
 9998SOL    HW130893   6.937   3.907   2.158
 9998SOL    HW230894   6.890   4.025   2.057
 9999SOL     OW30895   6.478   4.530   4.861
 9999SOL    HW130896   6.454   4.608   4.919
 9999SOL    HW230897   6.398   4.504   4.807
10000SOL     OW30898   5.483   2.677   0.176
10000SOL    HW130899   5.447   2.755   0.124
10000SOL    HW230900   5.557   2.634   0.125
10001SOL     OW30901   4.756   1.298   1.904
10001SOL    HW130902   4.745   1.290   1.805
10001SOL    HW230903   4.825   1.233   1.935
10002SOL     OW30904   1.437   0.661   1.149
10002SOL    HW130905   1.351   0.610   1.151
10002SOL    HW230906   1.470   0.673   1.243
10003SOL     OW30907   4.361   1.597   3.527
10003SOL    HW130908   4.394   1.544   3.448
10003SOL    HW230909   4.285   1.549   3.570
10004SOL     OW30910   4.558   2.602   4.415
10004SOL    HW130911   4.464   2.586   4.387
10004SOL    HW230912   4.616   2.608   4.333
10005SOL     OW30913   4.715   6.462   3.384
10005SOL    HW130914   4.699   6.541   3.443
10005SOL    HW230915   4.814   6.447   3.375
10006SOL     OW30916   5.391   0.854   4.268
10006SOL    HW130917   5.391   0.818   4.361
10006SOL    HW230918   5.482   0.890   4.247
10007SOL     OW30919   0.653   4.407   4.826
10007SOL    HW130920   0.718   4.340   4.788
10007SOL    HW230921   0.599   4.363   4.898
10008SOL     OW30922   4.472   1.630   4.037
10008SOL    HW130923   4.508   1.716   4.002
10008SOL    HW230924   4.419   1.584   3.966
10009SOL     OW30925   1.810   4.181   1.761
10009SOL    HW130926   1.762   4.231   1.690
10009SOL    HW230927   1.842   4.093   1.724
10010SOL     OW30928   2.311   7.020   6.942
10010SOL    HW130929   2.248   6.985   6.872
10010SOL    HW230930   2.300   0.093   6.949
10011SOL     OW30931   6.524   2.281   4.902
10011SOL    HW130932   6.526   2.354   4.971
10011SOL    HW230933   6.451   2.300   4.836
10012SOL     OW30934   4.983   0.135   2.656
10012SOL    HW130935   4.936   0.061   2.703
10012SOL    HW230936   5.065   0.100   2.612
10013SOL     OW30937   1.724   1.742   4.348
10013SOL    HW130938   1.766   1.748   4.257
10013SOL    HW230939   1.796   1.739   4.417
10014SOL     OW30940   6.336   2.957   0.085
10014SOL    HW130941   6.327   2.913   7.022
10014SOL    HW230942   6.316   3.055   0.076
10015SOL     OW30943   2.933   4.380   0.567
10015SOL    HW130944   2.916   4.315   0.494
10015SOL    HW230945   3.022   4.361   0.609
10016SOL     OW30946   2.295   0.327   5.013
10016SOL    HW130947   2.224   0.326   5.083
10016SOL    HW230948   2.288   0.245   4.957
10017SOL     OW30949   2.255   2.555   2.340
10017SOL    HW130950   2.248   2.651   2.314
10017SOL    HW230951   2.164   2.513   2.334
10018SOL     OW30952   4.988   6.724   5.734
10018SOL    HW130953   5.071   6.676   5.706
10018SOL    HW230954   5.010   6.794   5.801
10019SOL     OW30955   1.444   2.015   2.877
10019SOL    HW130956   1.400   1.985   2.792
10019SOL    HW230957   1.528   1.963   2.891
10020SOL     OW30958   0.491   2.766   1.660
10020SOL    HW130959   0.424   2.756   1.734
10020SOL    HW230960   0.583   2.753   1.696
10021SOL     OW30961   0.415   3.173   1.357
10021SOL    HW130962   0.340   3.238   1.342
10021SOL    HW230963   0.414   3.142   1.452
10022SOL     OW30964   3.632   6.871   0.670
10022SOL    HW130965   3.711   6.814   0.693
10022SOL    HW230966   3.664   6.954   0.624
10023SOL     OW30967   1.613   5.151   6.025
10023SOL    HW130968   1.513   5.149   6.035
10023SOL    HW230969   1.655   5.171   6.114
10024SOL     OW30970   2.302   6.971   1.719
10024SOL    HW130971   2.327   6.914   1.641
10024SOL    HW230972   2.210   7.007   1.706
10025SOL     OW30973   1.247   0.943   1.845
10025SOL    HW130974   1.285   0.875   1.782
10025SOL    HW230975   1.148   0.945   1.835
10026SOL     OW30976   4.763   6.639   3.605
10026SOL    HW130977   4.781   6.592   3.692
10026SOL    HW230978   4.783   6.736   3.615
10027SOL     OW30979   0.310   4.025   5.066
10027SOL    HW130980   0.316   4.045   5.164
10027SOL    HW230981   0.400   3.999   5.032
10028SOL     OW30982   1.000   1.945   1.496
10028SOL    HW130983   1.054   2.027   1.476
10028SOL    HW230984   1.042   1.894   1.571
10029SOL     OW30985   3.575   2.074   3.688
10029SOL    HW130986   3.546   1.994   3.635
10029SOL    HW230987   3.503   2.101   3.751
10030SOL     OW30988   2.160   6.152   3.978
10030SOL    HW130989   2.161   6.230   4.039
10030SOL    HW230990   2.076   6.099   3.992
10031SOL     OW30991   5.806   5.342   3.756
10031SOL    HW130992   5.774   5.360   3.849
10031SOL    HW230993   5.730   5.359   3.692
10032SOL     OW30994   3.053   1.917   5.215
10032SOL    HW130995   3.116   1.973   5.268
10032SOL    HW230996   2.967   1.906   5.265
10033SOL     OW30997   4.702   2.161   3.925
10033SOL    HW130998   4.754   2.159   3.840
10033SOL    HW230999   4.755   2.119   3.998
10034SOL     OW31000   2.836   0.251   3.956
10034SOL    HW131001   2.830   0.311   3.876
10034SOL    HW231002   2.747   0.243   4.000
10035SOL     OW31003   6.680   4.612   1.909
10035SOL    HW131004   6.725   4.691   1.951
10035SOL    HW231005   6.644   4.553   1.982
10036SOL     OW31006   5.980   1.911   1.057
10036SOL    HW131007   5.988   1.899   0.958
10036SOL    HW231008   5.885   1.932   1.080
10037SOL     OW31009   5.836   1.204   1.173
10037SOL    HW131010   5.872   1.280   1.119
10037SOL    HW231011   5.742   1.185   1.145
10038SOL     OW31012   4.561   0.779   0.024
10038SOL    HW131013   4.498   0.768   0.102
10038SOL    HW231014   4.593   0.689   7.022
10039SOL     OW31015   3.543   0.387   3.762
10039SOL    HW131016   3.482   0.456   3.724
10039SOL    HW231017   3.514   0.296   3.732
10040SOL     OW31018   4.295   5.642   6.282
10040SOL    HW131019   4.223   5.633   6.214
10040SOL    HW231020   4.256   5.625   6.373
10041SOL     OW31021   4.107   6.190   6.783
10041SOL    HW131022   4.204   6.209   6.769
10041SOL    HW231023   4.059   6.199   6.696
10042SOL     OW31024   1.382   2.005   4.803
10042SOL    HW131025   1.478   1.996   4.779
10042SOL    HW231026   1.326   1.952   4.740
10043SOL     OW31027   6.614   1.774   4.933
10043SOL    HW131028   6.528   1.745   4.976
10043SOL    HW231029   6.609   1.758   4.835
10044SOL     OW31030   2.542   1.593   5.199
10044SOL    HW131031   2.597   1.658   5.147
10044SOL    HW231032   2.581   1.501   5.191
10045SOL     OW31033   3.585   0.530   2.977
10045SOL    HW131034   3.664   0.568   3.025
10045SOL    HW231035   3.611   0.447   2.930
10046SOL     OW31036   2.123   4.031   0.653
10046SOL    HW131037   2.209   3.986   0.678
10046SOL    HW231038   2.117   4.119   0.701
10047SOL     OW31039   1.115   3.646   4.477
10047SOL    HW131040   1.125   3.625   4.379
10047SOL    HW231041   1.139   3.565   4.530
10048SOL     OW31042   6.503   0.380   2.648
10048SOL    HW131043   6.555   0.435   2.582
10048SOL    HW231044   6.515   0.419   2.739
10049SOL     OW31045   1.264   1.794   6.264
10049SOL    HW131046   1.263   1.750   6.354
10049SOL    HW231047   1.273   1.724   6.193
10050SOL     OW31048   5.430   3.510   4.785
10050SOL    HW131049   5.503   3.556   4.835
10050SOL    HW231050   5.466   3.425   4.745
10051SOL     OW31051   6.126   3.920   5.630
10051SOL    HW131052   6.208   3.915   5.573
10051SOL    HW231053   6.057   3.856   5.595
10052SOL     OW31054   2.173   1.258   2.965
10052SOL    HW131055   2.098   1.197   2.992
10052SOL    HW231056   2.149   1.353   2.988
10053SOL     OW31057   3.950   5.495   3.272
10053SOL    HW131058   4.047   5.499   3.295
10053SOL    HW231059   3.901   5.569   3.316
10054SOL     OW31060   5.333   6.399   6.463
10054SOL    HW131061   5.415   6.455   6.450
10054SOL    HW231062   5.349   6.334   6.538
10055SOL     OW31063   6.128   1.218   4.972
10055SOL    HW131064   6.228   1.208   4.971
10055SOL    HW231065   6.093   1.190   5.062
10056SOL     OW31066   5.167   4.561   2.785
10056SOL    HW131067   5.224   4.491   2.829
10056SOL    HW231068   5.076   4.523   2.768
10057SOL     OW31069   4.000   2.536   5.571
10057SOL    HW131070   3.970   2.461   5.630
10057SOL    HW231071   3.974   2.518   5.476
10058SOL     OW31072   6.316   3.847   5.153
10058SOL    HW131073   6.389   3.870   5.088
10058SOL    HW231074   6.233   3.822   5.103
10059SOL     OW31075   0.308   1.577   6.650
10059SOL    HW131076   0.311   1.478   6.660
10059SOL    HW231077   0.340   1.620   6.735
10060SOL     OW31078   2.252   2.814   2.264
10060SOL    HW131079   2.327   2.807   2.198
10060SOL    HW231080   2.221   2.909   2.270
10061SOL     OW31081   4.848   1.813   3.878
10061SOL    HW131082   4.748   1.823   3.881
10061SOL    HW231083   4.891   1.896   3.913
10062SOL     OW31084   5.735   0.420   3.650
10062SOL    HW131085   5.702   0.451   3.739
10062SOL    HW231086   5.826   0.458   3.633
10063SOL     OW31087   2.809   1.160   4.605
10063SOL    HW131088   2.838   1.255   4.592
10063SOL    HW231089   2.819   1.110   4.519
10064SOL     OW31090   5.182   6.311   0.378
10064SOL    HW131091   5.194   6.281   0.284
10064SOL    HW231092   5.269   6.302   0.427
10065SOL     OW31093   2.648   0.469   2.949
10065SOL    HW131094   2.603   0.557   2.940
10065SOL    HW231095   2.730   0.479   3.007
10066SOL     OW31096   0.832   2.422   4.768
10066SOL    HW131097   0.797   2.383   4.853
10066SOL    HW231098   0.917   2.375   4.742
10067SOL     OW31099   0.565   3.422   5.323
10067SOL    HW131100   0.485   3.363   5.321
10067SOL    HW231101   0.544   3.507   5.371
10068SOL     OW31102   1.033   3.301   3.827
10068SOL    HW131103   1.094   3.323   3.751
10068SOL    HW231104   0.973   3.380   3.846
10069SOL     OW31105   3.242   5.111   1.474
10069SOL    HW131106   3.266   5.090   1.569
10069SOL    HW231107   3.317   5.083   1.414
10070SOL     OW31108   0.117   6.175   5.258
10070SOL    HW131109   0.213   6.198   5.275
10070SOL    HW231110   0.059   6.249   5.292
10071SOL     OW31111   6.803   6.153   4.408
10071SOL    HW131112   6.810   6.125   4.503
10071SOL    HW231113   6.840   6.081   4.349
10072SOL     OW31114   0.305   0.159   4.336
10072SOL    HW131115   0.332   0.118   4.249
10072SOL    HW231116   0.384   0.206   4.376
10073SOL     OW31117   6.904   3.862   4.226
10073SOL    HW131118   6.950   3.949   4.243
10073SOL    HW231119   6.853   3.835   4.307
10074SOL     OW31120   2.054   0.147   6.422
10074SOL    HW131121   1.988   0.078   6.391
10074SOL    HW231122   2.125   0.158   6.353
10075SOL     OW31123   1.591   2.543   1.889
10075SOL    HW131124   1.641   2.489   1.822
10075SOL    HW231125   1.636   2.631   1.902
10076SOL     OW31126   5.707   6.320   3.099
10076SOL    HW131127   5.614   6.289   3.117
10076SOL    HW231128   5.723   6.407   3.145
10077SOL     OW31129   4.187   3.616   0.460
10077SOL    HW131130   4.260   3.558   0.496
10077SOL    HW231131   4.199   3.709   0.495
10078SOL     OW31132   6.265   6.057   4.455
10078SOL    HW131133   6.210   6.055   4.371
10078SOL    HW231134   6.226   6.123   4.519
10079SOL     OW31135   5.915   3.483   3.221
10079SOL    HW131136   5.946   3.416   3.289
10079SOL    HW231137   5.890   3.436   3.137
10080SOL     OW31138   5.211   1.311   6.092
10080SOL    HW131139   5.119   1.275   6.077
10080SOL    HW231140   5.205   1.394   6.149
10081SOL     OW31141   0.628   1.645   0.102
10081SOL    HW131142   0.570   1.579   0.055
10081SOL    HW231143   0.659   1.714   0.037
10082SOL     OW31144   0.670   5.307   2.012
10082SOL    HW131145   0.583   5.264   2.034
10082SOL    HW231146   0.713   5.258   1.937
10083SOL     OW31147   3.715   7.003   3.712
10083SOL    HW131148   3.667   0.063   3.725
10083SOL    HW231149   3.650   6.928   3.710
10084SOL     OW31150   1.118   0.407   5.616
10084SOL    HW131151   1.049   0.415   5.688
10084SOL    HW231152   1.151   0.498   5.590
10085SOL     OW31153   3.638   0.242   0.909
10085SOL    HW131154   3.539   0.245   0.923
10085SOL    HW231155   3.683   0.297   0.980
10086SOL     OW31156   5.867   5.660   3.114
10086SOL    HW131157   5.905   5.706   3.194
10086SOL    HW231158   5.890   5.563   3.117
10087SOL     OW31159   6.396   5.869   4.086
10087SOL    HW131160   6.400   5.770   4.083
10087SOL    HW231161   6.463   5.903   4.152
10088SOL     OW31162   6.955   0.291   2.156
10088SOL    HW131163   6.874   0.237   2.132
10088SOL    HW231164   7.014   0.238   2.217
10089SOL     OW31165   2.888   2.284   3.440
10089SOL    HW131166   2.973   2.294   3.492
10089SOL    HW231167   2.820   2.237   3.495
10090SOL     OW31168   0.182   5.056   1.905
10090SOL    HW131169   0.173   5.036   1.808
10090SOL    HW231170   0.098   5.098   1.939
10091SOL     OW31171   6.294   5.750   6.480
10091SOL    HW131172   6.311   5.689   6.402
10091SOL    HW231173   6.349   5.720   6.558
10092SOL     OW31174   1.927   2.850   6.413
10092SOL    HW131175   2.015   2.803   6.404
10092SOL    HW231176   1.923   2.897   6.501
10093SOL     OW31177   4.685   3.339   5.384
10093SOL    HW131178   4.700   3.368   5.478
10093SOL    HW231179   4.659   3.417   5.328
10094SOL     OW31180   2.567   6.546   1.249
10094SOL    HW131181   2.486   6.492   1.226
10094SOL    HW231182   2.638   6.531   1.181
10095SOL     OW31183   5.183   1.608   4.698
10095SOL    HW131184   5.229   1.639   4.614
10095SOL    HW231185   5.238   1.633   4.777
10096SOL     OW31186   4.775   6.606   3.013
10096SOL    HW131187   4.733   6.544   2.947
10096SOL    HW231188   4.704   6.659   3.059
10097SOL     OW31189   1.438   2.396   6.657
10097SOL    HW131190   1.382   2.329   6.706
10097SOL    HW231191   1.512   2.428   6.716
10098SOL     OW31192   2.853   6.742   4.887
10098SOL    HW131193   2.894   6.826   4.923
10098SOL    HW231194   2.754   6.753   4.881
10099SOL     OW31195   0.349   4.867   1.344
10099SOL    HW131196   0.372   4.820   1.259
10099SOL    HW231197   0.358   4.804   1.421
10100SOL     OW31198   5.266   5.925   5.722
10100SOL    HW131199   5.300   5.864   5.651
10100SOL    HW231200   5.344   5.965   5.771
10101SOL     OW31201   6.926   3.083   1.808
10101SOL    HW131202   6.993   3.124   1.869
10101SOL    HW231203   6.834   3.113   1.834
10102SOL     OW31204   6.389   0.877   1.359
10102SOL    HW131205   6.391   0.785   1.399
10102SOL    HW231206   6.303   0.889   1.309
10103SOL     OW31207   2.288   0.365   5.538
10103SOL    HW131208   2.262   0.458   5.563
10103SOL    HW231209   2.358   0.368   5.467
10104SOL     OW31210   1.470   1.882   5.398
10104SOL    HW131211   1.383   1.857   5.441
10104SOL    HW231212   1.516   1.800   5.364
10105SOL     OW31213   2.275   0.705   6.197
10105SOL    HW131214   2.177   0.714   6.178
10105SOL    HW231215   2.321   0.673   6.114
10106SOL     OW31216   4.001   6.517   0.695
10106SOL    HW131217   3.961   6.575   0.623
10106SOL    HW231218   3.931   6.455   0.730
10107SOL     OW31219   5.091   1.526   6.257
10107SOL    HW131220   5.145   1.609   6.239
10107SOL    HW231221   5.065   1.523   6.353
10108SOL     OW31222   0.051   1.647   6.913
10108SOL    HW131223   0.105   1.608   6.839
10108SOL    HW231224   0.080   1.608   7.000
10109SOL     OW31225   0.612   1.117   0.927
10109SOL    HW131226   0.530   1.121   0.985
10109SOL    HW231227   0.632   1.208   0.892
10110SOL     OW31228   4.728   4.423   3.945
10110SOL    HW131229   4.781   4.347   3.982
10110SOL    HW231230   4.721   4.496   4.013
10111SOL     OW31231   6.910   3.746   3.488
10111SOL    HW131232   6.821   3.701   3.477
10111SOL    HW231233   6.953   3.715   3.573
10112SOL     OW31234   5.990   3.393   2.722
10112SOL    HW131235   6.007   3.492   2.718
10112SOL    HW231236   5.913   3.370   2.663
10113SOL     OW31237   4.563   0.304   0.792
10113SOL    HW131238   4.545   0.307   0.694
10113SOL    HW231239   4.573   0.209   0.821
10114SOL     OW31240   4.325   2.030   2.499
10114SOL    HW131241   4.273   1.950   2.471
10114SOL    HW231242   4.268   2.112   2.494
10115SOL     OW31243   4.266   2.005   4.963
10115SOL    HW131244   4.243   2.093   4.921
10115SOL    HW231245   4.196   1.938   4.940
10116SOL     OW31246   0.341   6.635   6.830
10116SOL    HW131247   0.303   6.605   6.742
10116SOL    HW231248   0.379   6.727   6.820
10117SOL     OW31249   0.027   6.472   5.919
10117SOL    HW131250   6.979   6.423   5.874
10117SOL    HW231251   0.115   6.436   5.889
10118SOL     OW31252   2.572   4.591   3.947
10118SOL    HW131253   2.552   4.671   3.890
10118SOL    HW231254   2.546   4.508   3.899
10119SOL     OW31255   6.436   4.876   3.801
10119SOL    HW131256   6.445   4.916   3.710
10119SOL    HW231257   6.347   4.832   3.808
10120SOL     OW31258   1.775   3.401   4.074
10120SOL    HW131259   1.818   3.319   4.035
10120SOL    HW231260   1.784   3.477   4.009
10121SOL     OW31261   5.653   3.491   6.886
10121SOL    HW131262   5.561   3.472   6.852
10121SOL    HW231263   5.702   3.405   6.899
10122SOL     OW31264   5.202   1.996   3.647
10122SOL    HW131265   5.136   1.927   3.616
10122SOL    HW231266   5.275   2.005   3.579
10123SOL     OW31267   5.808   6.439   0.968
10123SOL    HW131268   5.810   6.345   1.002
10123SOL    HW231269   5.741   6.447   0.894
10124SOL     OW31270   1.342   5.170   0.472
10124SOL    HW131271   1.429   5.216   0.455
10124SOL    HW231272   1.270   5.239   0.485
10125SOL     OW31273   2.421   1.152   0.739
10125SOL    HW131274   2.376   1.229   0.783
10125SOL    HW231275   2.465   1.094   0.808
10126SOL     OW31276   6.962   0.147   6.414
10126SOL    HW131277   6.964   0.110   6.321
10126SOL    HW231278   6.896   0.222   6.418
10127SOL     OW31279   2.036   3.636   0.574
10127SOL    HW131280   2.029   3.540   0.601
10127SOL    HW231281   2.033   3.694   0.656
10128SOL     OW31282   3.075   1.022   5.520
10128SOL    HW131283   2.983   1.037   5.555
10128SOL    HW231284   3.071   1.005   5.421
10129SOL     OW31285   6.544   1.700   2.492
10129SOL    HW131286   6.582   1.687   2.400
10129SOL    HW231287   6.577   1.629   2.553
10130SOL     OW31288   0.333   3.311   1.633
10130SOL    HW131289   0.322   3.217   1.600
10130SOL    HW231290   0.341   3.310   1.733
10131SOL     OW31291   1.690   0.325   3.950
10131SOL    HW131292   1.598   0.306   3.983
10131SOL    HW231293   1.686   0.393   3.876
10132SOL     OW31294   1.535   0.611   3.014
10132SOL    HW131295   1.557   0.708   3.026
10132SOL    HW231296   1.608   0.555   3.053
10133SOL     OW31297   4.494   6.527   0.777
10133SOL    HW131298   4.470   6.612   0.729
10133SOL    HW231299   4.511   6.548   0.873
10134SOL     OW31300   5.569   1.031   2.853
10134SOL    HW131301   5.501   1.051   2.924
10134SOL    HW231302   5.532   0.964   2.789
10135SOL     OW31303   4.630   2.445   3.979
10135SOL    HW131304   4.542   2.477   4.014
10135SOL    HW231305   4.625   2.347   3.961
10136SOL     OW31306   5.227   1.571   2.265
10136SOL    HW131307   5.189   1.632   2.196
10136SOL    HW231308   5.208   1.607   2.356
10137SOL     OW31309   0.368   4.754   5.358
10137SOL    HW131310   0.383   4.725   5.264
10137SOL    HW231311   0.430   4.704   5.419
10138SOL     OW31312   5.906   3.186   0.457
10138SOL    HW131313   5.806   3.193   0.453
10138SOL    HW231314   5.946   3.277   0.449
10139SOL     OW31315   3.326   4.095   4.661
10139SOL    HW131316   3.357   4.187   4.637
10139SOL    HW231317   3.232   4.100   4.696
10140SOL     OW31318   6.898   6.640   6.539
10140SOL    HW131319   6.970   6.621   6.605
10140SOL    HW231320   6.873   6.737   6.544
10141SOL     OW31321   4.539   1.023   5.010
10141SOL    HW131322   4.637   1.004   5.021
10141SOL    HW231323   4.527   1.117   4.978
10142SOL     OW31324   5.861   6.687   5.822
10142SOL    HW131325   5.902   6.597   5.814
10142SOL    HW231326   5.866   6.735   5.734
10143SOL     OW31327   5.705   2.680   0.350
10143SOL    HW131328   5.643   2.710   0.278
10143SOL    HW231329   5.799   2.687   0.318
10144SOL     OW31330   4.970   6.063   5.322
10144SOL    HW131331   4.942   6.014   5.405
10144SOL    HW231332   4.921   6.025   5.244
10145SOL     OW31333   3.792   5.463   3.046
10145SOL    HW131334   3.767   5.366   3.043
10145SOL    HW231335   3.865   5.477   3.114
10146SOL     OW31336   6.722   3.788   4.589
10146SOL    HW131337   6.655   3.762   4.659
10146SOL    HW231338   6.684   3.859   4.531
10147SOL     OW31339   5.152   3.991   6.719
10147SOL    HW131340   5.166   3.921   6.650
10147SOL    HW231341   5.186   4.079   6.686
10148SOL     OW31342   5.870   4.142   0.767
10148SOL    HW131343   5.868   4.046   0.795
10148SOL    HW231344   5.779   4.169   0.735
10149SOL     OW31345   5.282   4.397   1.277
10149SOL    HW131346   5.332   4.481   1.257
10149SOL    HW231347   5.323   4.322   1.225
10150SOL     OW31348   4.490   3.263   1.425
10150SOL    HW131349   4.398   3.267   1.463
10150SOL    HW231350   4.557   3.257   1.500
10151SOL     OW31351   1.203   0.337   6.814
10151SOL    HW131352   1.133   0.331   6.743
10151SOL    HW231353   1.246   0.426   6.811
10152SOL     OW31354   6.507   5.722   3.709
10152SOL    HW131355   6.421   5.702   3.757
10152SOL    HW231356   6.579   5.740   3.777
10153SOL     OW31357   4.912   5.597   4.326
10153SOL    HW131358   4.985   5.529   4.324
10153SOL    HW231359   4.840   5.568   4.389
10154SOL     OW31360   3.719   6.277   5.536
10154SOL    HW131361   3.683   6.183   5.537
10154SOL    HW231362   3.644   6.342   5.547
10155SOL     OW31363   5.098   2.687   5.448
10155SOL    HW131364   5.128   2.596   5.475
10155SOL    HW231365   5.131   2.708   5.356
10156SOL     OW31366   5.510   0.599   1.717
10156SOL    HW131367   5.545   0.639   1.632
10156SOL    HW231368   5.481   0.504   1.700
10157SOL     OW31369   0.001   2.558   0.443
10157SOL    HW131370   0.067   2.483   0.443
10157SOL    HW231371   7.018   2.594   0.351
10158SOL     OW31372   6.396   6.484   1.549
10158SOL    HW131373   6.445   6.530   1.623
10158SOL    HW231374   6.461   6.453   1.480
10159SOL     OW31375   3.820   3.238   2.477
10159SOL    HW131376   3.841   3.313   2.414
10159SOL    HW231377   3.863   3.154   2.443
10160SOL     OW31378   1.754   4.009   3.136
10160SOL    HW131379   1.811   4.021   3.217
10160SOL    HW231380   1.725   3.913   3.130
10161SOL     OW31381   3.350   4.691   6.582
10161SOL    HW131382   3.264   4.735   6.606
10161SOL    HW231383   3.421   4.760   6.570
10162SOL     OW31384   2.486   4.407   0.742
10162SOL    HW131385   2.580   4.436   0.758
10162SOL    HW231386   2.441   4.389   0.829
10163SOL     OW31387   0.474   4.962   6.470
10163SOL    HW131388   0.505   5.001   6.556
10163SOL    HW231389   0.374   4.963   6.467
10164SOL     OW31390   5.708   3.341   4.823
10164SOL    HW131391   5.721   3.431   4.864
10164SOL    HW231392   5.795   3.292   4.822
10165SOL     OW31393   6.751   2.446   3.466
10165SOL    HW131394   6.840   2.489   3.485
10165SOL    HW231395   6.756   2.348   3.485
10166SOL     OW31396   1.369   1.738   1.600
10166SOL    HW131397   1.448   1.710   1.545
10166SOL    HW231398   1.401   1.794   1.677
10167SOL     OW31399   6.828   5.805   6.922
10167SOL    HW131400   6.872   5.890   6.892
10167SOL    HW231401   6.848   5.732   6.857
10168SOL     OW31402   6.783   2.034   6.126
10168SOL    HW131403   6.725   2.002   6.200
10168SOL    HW231404   6.803   2.131   6.139
10169SOL     OW31405   6.378   3.918   3.160
10169SOL    HW131406   6.358   3.837   3.105
10169SOL    HW231407   6.442   3.977   3.112
10170SOL     OW31408   6.447   5.943   6.261
10170SOL    HW131409   6.413   5.854   6.230
10170SOL    HW231410   6.399   6.015   6.211
10171SOL     OW31411   0.540   2.535   4.110
10171SOL    HW131412   0.456   2.588   4.102
10171SOL    HW231413   0.561   2.520   4.206
10172SOL     OW31414   0.255   6.831   4.435
10172SOL    HW131415   0.263   6.797   4.528
10172SOL    HW231416   0.177   6.892   4.428
10173SOL     OW31417   2.200   3.374   6.525
10173SOL    HW131418   2.190   3.464   6.482
10173SOL    HW231419   2.141   3.308   6.478
10174SOL     OW31420   4.576   4.489   3.605
10174SOL    HW131421   4.607   4.399   3.635
10174SOL    HW231422   4.529   4.534   3.681
10175SOL     OW31423   6.207   1.541   3.710
10175SOL    HW131424   6.130   1.496   3.665
10175SOL    HW231425   6.288   1.482   3.704
10176SOL     OW31426   6.396   2.852   5.404
10176SOL    HW131427   6.436   2.877   5.492
10176SOL    HW231428   6.468   2.842   5.336
10177SOL     OW31429   1.738   0.247   0.880
10177SOL    HW131430   1.770   0.288   0.965
10177SOL    HW231431   1.710   0.153   0.897
10178SOL     OW31432   1.546   1.036   0.561
10178SOL    HW131433   1.571   1.069   0.652
10178SOL    HW231434   1.533   1.113   0.499
10179SOL     OW31435   0.285   3.611   6.680
10179SOL    HW131436   0.293   3.710   6.693
10179SOL    HW231437   0.190   3.588   6.659
10180SOL     OW31438   4.808   0.445   0.776
10180SOL    HW131439   4.816   0.515   0.848
10180SOL    HW231440   4.729   0.387   0.795
10181SOL     OW31441   0.606   3.037   1.204
10181SOL    HW131442   0.522   3.072   1.244
10181SOL    HW231443   0.638   2.958   1.256
10182SOL     OW31444   4.902   1.574   0.201
10182SOL    HW131445   4.923   1.526   0.116
10182SOL    HW231446   4.969   1.645   0.217
10183SOL     OW31447   5.871   2.961   5.967
10183SOL    HW131448   5.866   3.055   6.001
10183SOL    HW231449   5.794   2.909   6.004
10184SOL     OW31450   5.095   2.612   0.236
10184SOL    HW131451   5.119   2.622   0.140
10184SOL    HW231452   5.068   2.701   0.274
10185SOL     OW31453   5.958   5.872   2.400
10185SOL    HW131454   5.896   5.844   2.326
10185SOL    HW231455   5.929   5.828   2.485
10186SOL     OW31456   4.900   3.430   4.764
10186SOL    HW131457   4.869   3.469   4.851
10186SOL    HW231458   4.889   3.331   4.766
10187SOL     OW31459   1.629   4.305   5.512
10187SOL    HW131460   1.708   4.321   5.453
10187SOL    HW231461   1.616   4.384   5.572
10188SOL     OW31462   2.791   4.798   6.643
10188SOL    HW131463   2.861   4.869   6.647
10188SOL    HW231464   2.740   4.796   6.729
10189SOL     OW31465   1.436   0.612   5.976
10189SOL    HW131466   1.505   0.552   5.936
10189SOL    HW231467   1.375   0.558   6.035
10190SOL     OW31468   4.213   3.144   1.838
10190SOL    HW131469   4.304   3.104   1.831
10190SOL    HW231470   4.206   3.197   1.923
10191SOL     OW31471   5.242   5.440   0.545
10191SOL    HW131472   5.202   5.388   0.469
10191SOL    HW231473   5.341   5.433   0.541
10192SOL     OW31474   3.312   1.849   5.164
10192SOL    HW131475   3.213   1.834   5.172
10192SOL    HW231476   3.357   1.815   5.247
10193SOL     OW31477   3.078   3.742   2.441
10193SOL    HW131478   3.068   3.793   2.526
10193SOL    HW231479   3.066   3.804   2.363
10194SOL     OW31480   4.703   0.651   4.316
10194SOL    HW131481   4.644   0.594   4.373
10194SOL    HW231482   4.682   0.747   4.333
10195SOL     OW31483   6.778   0.600   1.829
10195SOL    HW131484   6.704   0.542   1.862
10195SOL    HW231485   6.797   0.579   1.733
10196SOL     OW31486   5.005   1.998   3.325
10196SOL    HW131487   4.982   1.956   3.237
10196SOL    HW231488   5.048   1.930   3.384
10197SOL     OW31489   4.656   1.518   4.283
10197SOL    HW131490   4.716   1.457   4.335
10197SOL    HW231491   4.565   1.517   4.323
10198SOL     OW31492   3.880   6.929   1.039
10198SOL    HW131493   3.890   6.984   0.956
10198SOL    HW231494   3.837   6.983   1.111
10199SOL     OW31495   0.602   2.287   6.808
10199SOL    HW131496   0.557   2.206   6.770
10199SOL    HW231497   0.637   2.264   6.899
10200SOL     OW31498   5.001   3.579   5.492
10200SOL    HW131499   5.064   3.652   5.516
10200SOL    HW231500   5.048   3.491   5.497
10201SOL     OW31501   0.412   5.917   1.091
10201SOL    HW131502   0.423   5.818   1.082
10201SOL    HW231503   0.475   5.963   1.029
10202SOL     OW31504   1.014   4.214   0.127
10202SOL    HW131505   1.012   4.135   0.188
10202SOL    HW231506   1.065   4.288   0.170
10203SOL     OW31507   1.281   2.960   2.023
10203SOL    HW131508   1.295   2.873   1.976
10203SOL    HW231509   1.188   2.963   2.061
10204SOL     OW31510   3.290   5.638   6.052
10204SOL    HW131511   3.286   5.549   6.098
10204SOL    HW231512   3.300   5.623   5.953
10205SOL     OW31513   3.379   1.264   2.388
10205SOL    HW131514   3.418   1.249   2.297
10205SOL    HW231515   3.314   1.192   2.409
10206SOL     OW31516   5.169   6.756   6.357
10206SOL    HW131517   5.083   6.802   6.377
10206SOL    HW231518   5.161   6.658   6.377
10207SOL     OW31519   2.262   1.348   0.556
10207SOL    HW131520   2.249   1.254   0.522
10207SOL    HW231521   2.358   1.360   0.584
10208SOL     OW31522   6.158   4.775   3.942
10208SOL    HW131523   6.109   4.700   3.986
10208SOL    HW231524   6.092   4.842   3.906
10209SOL     OW31525   0.453   0.690   5.492
10209SOL    HW131526   0.436   0.593   5.476
10209SOL    HW231527   0.475   0.735   5.406
10210SOL     OW31528   5.222   0.061   1.679
10210SOL    HW131529   5.137   0.105   1.708
10210SOL    HW231530   5.274   0.124   1.621
10211SOL     OW31531   4.176   6.469   5.348
10211SOL    HW131532   4.168   6.509   5.257
10211SOL    HW231533   4.273   6.461   5.373
10212SOL     OW31534   0.484   0.810   4.602
10212SOL    HW131535   0.531   0.890   4.565
10212SOL    HW231536   0.393   0.803   4.562
10213SOL     OW31537   5.778   2.659   2.482
10213SOL    HW131538   5.784   2.628   2.387
10213SOL    HW231539   5.692   2.627   2.522
10214SOL     OW31540   1.218   2.143   2.388
10214SOL    HW131541   1.180   2.051   2.392
10214SOL    HW231542   1.290   2.147   2.319
10215SOL     OW31543   3.596   2.893   3.879
10215SOL    HW131544   3.501   2.924   3.891
10215SOL    HW231545   3.655   2.939   3.946
10216SOL     OW31546   0.748   0.237   1.160
10216SOL    HW131547   0.713   0.238   1.066
10216SOL    HW231548   0.753   0.142   1.192
10217SOL     OW31549   2.745   1.613   3.487
10217SOL    HW131550   2.771   1.517   3.495
10217SOL    HW231551   2.821   1.670   3.517
10218SOL     OW31552   1.812   0.651   1.826
10218SOL    HW131553   1.745   0.724   1.834
10218SOL    HW231554   1.792   0.594   1.747
10219SOL     OW31555   0.360   3.339   1.918
10219SOL    HW131556   0.423   3.271   1.956
10219SOL    HW231557   0.409   3.425   1.904
10220SOL     OW31558   4.405   1.452   1.796
10220SOL    HW131559   4.396   1.482   1.701
10220SOL    HW231560   4.316   1.457   1.841
10221SOL     OW31561   1.621   2.824   4.113
10221SOL    HW131562   1.534   2.805   4.158
10221SOL    HW231563   1.646   2.920   4.130
10222SOL     OW31564   2.563   3.323   6.221
10222SOL    HW131565   2.472   3.292   6.192
10222SOL    HW231566   2.631   3.294   6.153
10223SOL     OW31567   1.610   6.023   6.911
10223SOL    HW131568   1.528   6.070   6.944
10223SOL    HW231569   1.588   5.973   6.827
10224SOL     OW31570   0.101   1.945   5.164
10224SOL    HW131571   0.141   1.916   5.251
10224SOL    HW231572   0.001   1.948   5.173
10225SOL     OW31573   2.076   6.170   6.206
10225SOL    HW131574   2.053   6.265   6.230
10225SOL    HW231575   2.099   6.119   6.288
10226SOL     OW31576   2.609   0.033   6.973
10226SOL    HW131577   2.608   0.126   6.938
10226SOL    HW231578   2.518   7.019   6.962
10227SOL     OW31579   4.972   4.928   1.089
10227SOL    HW131580   4.987   4.929   0.990
10227SOL    HW231581   5.007   4.842   1.127
10228SOL     OW31582   0.811   5.329   2.250
10228SOL    HW131583   0.893   5.348   2.196
10228SOL    HW231584   0.735   5.309   2.188
10229SOL     OW31585   0.515   1.779   3.910
10229SOL    HW131586   0.559   1.706   3.858
10229SOL    HW231587   0.521   1.865   3.859
10230SOL     OW31588   6.362   6.180   3.126
10230SOL    HW131589   6.275   6.161   3.171
10230SOL    HW231590   6.436   6.176   3.193
10231SOL     OW31591   6.262   5.574   5.528
10231SOL    HW131592   6.259   5.474   5.523
10231SOL    HW231593   6.257   5.612   5.436
10232SOL     OW31594   2.810   0.514   4.199
10232SOL    HW131595   2.734   0.531   4.262
10232SOL    HW231596   2.838   0.418   4.206
10233SOL     OW31597   4.752   3.660   5.400
10233SOL    HW131598   4.710   3.626   5.316
10233SOL    HW231599   4.847   3.628   5.405
10234SOL     OW31600   5.078   1.312   0.525
10234SOL    HW131601   5.161   1.313   0.470
10234SOL    HW231602   4.999   1.296   0.466
10235SOL     OW31603   4.513   2.450   0.154
10235SOL    HW131604   4.572   2.437   0.234
10235SOL    HW231605   4.417   2.443   0.182
10236SOL     OW31606   2.497   0.015   2.200
10236SOL    HW131607   2.408   0.041   2.238
10236SOL    HW231608   2.488   7.025   2.102
10237SOL     OW31609   6.270   4.154   0.743
10237SOL    HW131610   6.217   4.167   0.659
10237SOL    HW231611   6.368   4.148   0.720
10238SOL     OW31612   3.125   3.974   3.606
10238SOL    HW131613   3.166   4.046   3.551
10238SOL    HW231614   3.145   3.990   3.702
10239SOL     OW31615   1.432   4.106   5.140
10239SOL    HW131616   1.376   4.184   5.168
10239SOL    HW231617   1.399   4.072   5.052
10240SOL     OW31618   2.115   4.939   3.131
10240SOL    HW131619   2.133   4.849   3.092
10240SOL    HW231620   2.166   5.009   3.080
10241SOL     OW31621   6.596   0.552   2.437
10241SOL    HW131622   6.612   0.650   2.436
10241SOL    HW231623   6.578   0.520   2.344
10242SOL     OW31624   6.704   0.980   6.817
10242SOL    HW131625   6.801   0.993   6.838
10242SOL    HW231626   6.693   0.897   6.762
10243SOL     OW31627   0.945   5.321   1.494
10243SOL    HW131628   0.870   5.339   1.431
10243SOL    HW231629   0.912   5.271   1.573
10244SOL     OW31630   1.021   4.566   0.251
10244SOL    HW131631   1.104   4.563   0.306
10244SOL    HW231632   0.997   4.661   0.232
10245SOL     OW31633   2.780   4.562   6.485
10245SOL    HW131634   2.764   4.623   6.563
10245SOL    HW231635   2.878   4.553   6.469
10246SOL     OW31636   3.041   3.951   3.891
10246SOL    HW131637   2.991   3.881   3.841
10246SOL    HW231638   3.034   3.934   3.990
10247SOL     OW31639   0.184   5.458   5.286
10247SOL    HW131640   0.219   5.368   5.308
10247SOL    HW231641   0.101   5.475   5.341
10248SOL     OW31642   3.461   6.731   2.350
10248SOL    HW131643   3.390   6.796   2.322
10248SOL    HW231644   3.486   6.674   2.272
10249SOL     OW31645   3.520   1.498   5.990
10249SOL    HW131646   3.451   1.436   6.027
10249SOL    HW231647   3.497   1.523   5.897
10250SOL     OW31648   6.920   2.684   0.960
10250SOL    HW131649   6.911   2.744   1.040
10250SOL    HW231650   6.837   2.691   0.904
10251SOL     OW31651   2.516   2.311   5.256
10251SOL    HW131652   2.583   2.361   5.310
10251SOL    HW231653   2.541   2.316   5.159
10252SOL     OW31654   5.355   5.589   7.022
10252SOL    HW131655   5.287   5.521   6.995
10252SOL    HW231656   5.404   5.556   0.076
10253SOL     OW31657   4.390   5.523   6.959
10253SOL    HW131658   4.462   5.587   6.933
10253SOL    HW231659   4.341   5.492   6.878
10254SOL     OW31660   4.686   1.542   5.278
10254SOL    HW131661   4.655   1.635   5.299
10254SOL    HW231662   4.689   1.488   5.363
10255SOL     OW31663   1.687   6.363   1.524
10255SOL    HW131664   1.775   6.336   1.563
10255SOL    HW231665   1.613   6.338   1.587
10256SOL     OW31666   6.221   0.636   1.697
10256SOL    HW131667   6.219   0.720   1.643
10256SOL    HW231668   6.148   0.639   1.765
10257SOL     OW31669   1.768   5.448   4.226
10257SOL    HW131670   1.697   5.486   4.167
10257SOL    HW231671   1.812   5.370   4.181
10258SOL     OW31672   3.967   1.062   4.293
10258SOL    HW131673   4.042   1.100   4.240
10258SOL    HW231674   4.002   0.992   4.356
10259SOL     OW31675   0.418   4.457   3.001
10259SOL    HW131676   0.371   4.384   2.952
10259SOL    HW231677   0.479   4.506   2.938
10260SOL     OW31678   0.576   0.259   3.650
10260SOL    HW131679   0.594   0.218   3.739
10260SOL    HW231680   0.568   0.358   3.659
10261SOL     OW31681   6.494   4.994   3.566
10261SOL    HW131682   6.546   5.078   3.553
10261SOL    HW231683   6.541   4.918   3.519
10262SOL     OW31684   2.370   6.555   4.767
10262SOL    HW131685   2.470   6.562   4.759
10262SOL    HW231686   2.331   6.536   4.678
10263SOL     OW31687   4.884   0.628   6.189
10263SOL    HW131688   4.792   0.595   6.212
10263SOL    HW231689   4.882   0.669   6.098
10264SOL     OW31690   5.867   2.064   6.194
10264SOL    HW131691   5.830   1.986   6.244
10264SOL    HW231692   5.817   2.147   6.221
10265SOL     OW31693   3.296   2.156   3.063
10265SOL    HW131694   3.310   2.057   3.062
10265SOL    HW231695   3.213   2.178   3.013
10266SOL     OW31696   3.045   3.107   5.052
10266SOL    HW131697   3.130   3.087   5.002
10266SOL    HW231698   3.046   3.059   5.140
10267SOL     OW31699   6.048   1.399   0.230
10267SOL    HW131700   6.113   1.328   0.255
10267SOL    HW231701   6.040   1.465   0.306
10268SOL     OW31702   4.765   4.863   1.705
10268SOL    HW131703   4.803   4.945   1.747
10268SOL    HW231704   4.672   4.848   1.739
10269SOL     OW31705   0.821   2.696   5.044
10269SOL    HW131706   0.725   2.710   5.021
10269SOL    HW231707   0.851   2.767   5.108
10270SOL     OW31708   2.564   5.155   3.632
10270SOL    HW131709   2.635   5.215   3.595
10270SOL    HW231710   2.598   5.110   3.714
10271SOL     OW31711   3.729   2.785   0.351
10271SOL    HW131712   3.780   2.707   0.315
10271SOL    HW231713   3.631   2.768   0.341
10272SOL     OW31714   0.510   0.133   5.031
10272SOL    HW131715   0.566   0.205   4.991
10272SOL    HW231716   0.540   0.044   4.998
10273SOL     OW31717   4.227   5.253   3.653
10273SOL    HW131718   4.312   5.306   3.659
10273SOL    HW231719   4.157   5.295   3.711
10274SOL     OW31720   0.474   4.474   4.622
10274SOL    HW131721   0.382   4.434   4.623
10274SOL    HW231722   0.532   4.428   4.688
10275SOL     OW31723   0.910   6.556   2.003
10275SOL    HW131724   0.943   6.593   1.915
10275SOL    HW231725   0.982   6.502   2.045
10276SOL     OW31726   6.162   5.976   5.699
10276SOL    HW131727   6.229   5.906   5.672
10276SOL    HW231728   6.185   6.063   5.655
10277SOL     OW31729   2.268   5.517   3.838
10277SOL    HW131730   2.261   5.449   3.911
10277SOL    HW231731   2.364   5.529   3.812
10278SOL     OW31732   6.371   1.588   4.410
10278SOL    HW131733   6.332   1.665   4.461
10278SOL    HW231734   6.467   1.576   4.435
10279SOL     OW31735   2.072   5.868   4.910
10279SOL    HW131736   1.997   5.926   4.879
10279SOL    HW231737   2.048   5.825   4.997
10280SOL     OW31738   1.243   3.950   0.893
10280SOL    HW131739   1.250   3.961   0.992
10280SOL    HW231740   1.236   3.853   0.870
10281SOL     OW31741   6.159   1.143   3.121
10281SOL    HW131742   6.106   1.195   3.054
10281SOL    HW231743   6.256   1.162   3.109
10282SOL     OW31744   6.486   4.398   4.269
10282SOL    HW131745   6.469   4.457   4.190
10282SOL    HW231746   6.425   4.318   4.265
10283SOL     OW31747   0.629   3.386   0.610
10283SOL    HW131748   0.549   3.334   0.580
10283SOL    HW231749   0.712   3.336   0.586
10284SOL     OW31750   5.203   3.656   5.219
10284SOL    HW131751   5.187   3.754   5.223
10284SOL    HW231752   5.119   3.607   5.242
10285SOL     OW31753   4.800   1.328   1.106
10285SOL    HW131754   4.851   1.380   1.175
10285SOL    HW231755   4.729   1.386   1.067
10286SOL     OW31756   2.962   1.804   3.530
10286SOL    HW131757   3.032   1.732   3.524
10286SOL    HW231758   2.999   1.890   3.495
10287SOL     OW31759   2.789   6.314   1.373
10287SOL    HW131760   2.830   6.354   1.291
10287SOL    HW231761   2.693   6.292   1.355
10288SOL     OW31762   5.253   6.015   2.369
10288SOL    HW131763   5.188   5.950   2.331
10288SOL    HW231764   5.329   5.965   2.411
10289SOL     OW31765   3.180   0.834   2.026
10289SOL    HW131766   3.096   0.837   1.971
10289SOL    HW231767   3.214   0.740   2.027
10290SOL     OW31768   3.003   3.908   2.200
10290SOL    HW131769   2.987   3.841   2.127
10290SOL    HW231770   2.933   3.979   2.196
10291SOL     OW31771   4.218   1.465   3.929
10291SOL    HW131772   4.269   1.384   3.960
10291SOL    HW231773   4.172   1.507   4.008
10292SOL     OW31774   2.118   0.752   4.515
10292SOL    HW131775   2.115   0.831   4.454
10292SOL    HW231776   2.031   0.702   4.509
10293SOL     OW31777   1.605   5.456   3.584
10293SOL    HW131778   1.549   5.373   3.586
10293SOL    HW231779   1.572   5.517   3.513
10294SOL     OW31780   5.098   3.827   2.634
10294SOL    HW131781   5.024   3.768   2.666
10294SOL    HW231782   5.157   3.851   2.711
10295SOL     OW31783   5.888   5.964   5.748
10295SOL    HW131784   5.988   5.959   5.741
10295SOL    HW231785   5.847   5.925   5.666
10296SOL     OW31786   4.638   3.472   7.024
10296SOL    HW131787   4.565   3.478   0.066
10296SOL    HW231788   4.660   3.563   6.990
10297SOL     OW31789   2.038   6.572   6.352
10297SOL    HW131790   1.980   6.542   6.276
10297SOL    HW231791   2.078   6.661   6.331
10298SOL     OW31792   3.574   5.029   2.026
10298SOL    HW131793   3.566   4.930   2.022
10298SOL    HW231794   3.667   5.055   2.053
10299SOL     OW31795   4.814   4.927   2.992
10299SOL    HW131796   4.763   5.001   2.948
10299SOL    HW231797   4.895   4.966   3.038
10300SOL     OW31798   1.495   4.969   3.117
10300SOL    HW131799   1.537   4.894   3.168
10300SOL    HW231800   1.566   5.025   3.074
10301SOL     OW31801   5.796   2.083   3.541
10301SOL    HW131802   5.702   2.117   3.549
10301SOL    HW231803   5.804   2.027   3.459
10302SOL     OW31804   0.621   5.785   3.896
10302SOL    HW131805   0.636   5.853   3.824
10302SOL    HW231806   0.549   5.818   3.958
10303SOL     OW31807   2.160   5.246   1.873
10303SOL    HW131808   2.098   5.323   1.887
10303SOL    HW231809   2.254   5.275   1.889
10304SOL     OW31810   5.184   0.926   2.752
10304SOL    HW131811   5.184   0.835   2.793
10304SOL    HW231812   5.218   0.921   2.658
10305SOL     OW31813   0.293   4.783   7.013
10305SOL    HW131814   0.323   4.827   0.070
10305SOL    HW231815   0.356   4.710   6.988
10306SOL     OW31816   4.340   6.560   6.908
10306SOL    HW131817   4.315   6.483   6.967
10306SOL    HW231818   4.302   6.545   6.816
10307SOL     OW31819   2.099   2.457   4.501
10307SOL    HW131820   2.007   2.486   4.474
10307SOL    HW231821   2.153   2.536   4.528
10308SOL     OW31822   2.484   5.325   3.972
10308SOL    HW131823   2.495   5.395   3.901
10308SOL    HW231824   2.574   5.302   4.010
10309SOL     OW31825   5.876   1.044   3.612
10309SOL    HW131826   5.805   1.110   3.589
10309SOL    HW231827   5.845   0.985   3.686
10310SOL     OW31828   4.337   2.738   1.606
10310SOL    HW131829   4.328   2.838   1.599
10310SOL    HW231830   4.416   2.716   1.662
10311SOL     OW31831   0.741   5.526   0.932
10311SOL    HW131832   0.782   5.468   0.862
10311SOL    HW231833   0.805   5.600   0.955
10312SOL     OW31834   2.184   6.425   0.856
10312SOL    HW131835   2.183   6.479   0.772
10312SOL    HW231836   2.249   6.350   0.847
10313SOL     OW31837   4.089   0.034   1.482
10313SOL    HW131838   4.008   0.018   1.538
10313SOL    HW231839   4.090   6.997   1.405
10314SOL     OW31840   6.906   0.534   2.090
10314SOL    HW131841   6.895   0.438   2.118
10314SOL    HW231842   6.894   0.541   1.991
10315SOL     OW31843   6.278   5.376   4.379
10315SOL    HW131844   6.180   5.358   4.383
10315SOL    HW231845   6.308   5.377   4.284
10316SOL     OW31846   6.652   2.202   4.455
10316SOL    HW131847   6.624   2.297   4.465
10316SOL    HW231848   6.637   2.153   4.541
10317SOL     OW31849   3.391   6.257   6.385
10317SOL    HW131850   3.376   6.322   6.311
10317SOL    HW231851   3.380   6.164   6.350
10318SOL     OW31852   4.984   6.227   0.025
10318SOL    HW131853   4.941   6.150   0.073
10318SOL    HW231854   5.083   6.211   0.020
10319SOL     OW31855   2.104   2.865   5.662
10319SOL    HW131856   2.043   2.869   5.741
10319SOL    HW231857   2.081   2.787   5.606
10320SOL     OW31858   0.652   0.648   1.287
10320SOL    HW131859   0.663   0.558   1.329
10320SOL    HW231860   0.718   0.657   1.212
10321SOL     OW31861   4.306   0.520   3.521
10321SOL    HW131862   4.241   0.511   3.446
10321SOL    HW231863   4.297   0.610   3.563
10322SOL     OW31864   6.097   5.752   6.147
10322SOL    HW131865   6.009   5.713   6.172
10322SOL    HW231866   6.101   5.847   6.178
10323SOL     OW31867   6.830   3.903   5.826
10323SOL    HW131868   6.848   3.867   5.734
10323SOL    HW231869   6.740   3.946   5.828
10324SOL     OW31870   3.007   3.204   3.292
10324SOL    HW131871   2.936   3.217   3.361
10324SOL    HW231872   3.089   3.166   3.334
10325SOL     OW31873   6.303   4.044   3.382
10325SOL    HW131874   6.332   4.005   3.295
10325SOL    HW231875   6.302   4.144   3.375
10326SOL     OW31876   3.924   2.856   0.051
10326SOL    HW131877   4.007   2.809   0.081
10326SOL    HW231878   3.876   2.893   0.131
10327SOL     OW31879   2.484   1.339   1.855
10327SOL    HW131880   2.539   1.406   1.904
10327SOL    HW231881   2.401   1.320   1.907
10328SOL     OW31882   6.372   3.608   1.379
10328SOL    HW131883   6.362   3.704   1.350
10328SOL    HW231884   6.301   3.587   1.446
10329SOL     OW31885   3.800   0.175   4.354
10329SOL    HW131886   3.711   0.168   4.310
10329SOL    HW231887   3.817   0.270   4.382
10330SOL     OW31888   3.629   5.185   2.527
10330SOL    HW131889   3.555   5.251   2.544
10330SOL    HW231890   3.591   5.092   2.527
10331SOL     OW31891   6.887   0.387   3.367
10331SOL    HW131892   6.791   0.359   3.377
10331SOL    HW231893   6.897   0.482   3.397
10332SOL     OW31894   6.078   1.758   0.209
10332SOL    HW131895   6.156   1.697   0.218
10332SOL    HW231896   6.107   1.852   0.227
10333SOL     OW31897   6.546   4.536   4.498
10333SOL    HW131898   6.486   4.603   4.543
10333SOL    HW231899   6.510   4.515   4.408
10334SOL     OW31900   1.900   5.768   3.952
10334SOL    HW131901   1.850   5.699   3.901
10334SOL    HW231902   1.842   5.803   4.026
10335SOL     OW31903   2.449   4.815   0.092
10335SOL    HW131904   2.501   4.783   0.171
10335SOL    HW231905   2.359   4.845   0.122
10336SOL     OW31906   6.050   6.359   3.327
10336SOL    HW131907   5.964   6.314   3.349
10336SOL    HW231908   6.034   6.457   3.312
10337SOL     OW31909   6.486   6.814   5.840
10337SOL    HW131910   6.550   6.864   5.898
10337SOL    HW231911   6.447   6.876   5.773
10338SOL     OW31912   3.024   6.306   1.721
10338SOL    HW131913   2.934   6.346   1.703
10338SOL    HW231914   3.053   6.252   1.642
10339SOL     OW31915   3.660   5.219   0.659
10339SOL    HW131916   3.751   5.178   0.670
10339SOL    HW231917   3.617   5.182   0.577
10340SOL     OW31918   1.649   5.622   0.331
10340SOL    HW131919   1.567   5.679   0.328
10340SOL    HW231920   1.642   5.550   0.261
10341SOL     OW31921   2.335   3.191   1.745
10341SOL    HW131922   2.350   3.286   1.774
10341SOL    HW231923   2.274   3.146   1.810
10342SOL     OW31924   2.274   5.838   5.529
10342SOL    HW131925   2.366   5.827   5.568
10342SOL    HW231926   2.212   5.772   5.571
10343SOL     OW31927   2.432   3.996   0.497
10343SOL    HW131928   2.370   3.960   0.427
10343SOL    HW231929   2.405   4.090   0.521
10344SOL     OW31930   4.110   3.530   1.936
10344SOL    HW131931   4.202   3.567   1.948
10344SOL    HW231932   4.044   3.604   1.933
10345SOL     OW31933   1.358   0.686   6.313
10345SOL    HW131934   1.457   0.671   6.317
10345SOL    HW231935   1.314   0.603   6.277
10346SOL     OW31936   6.213   1.368   1.179
10346SOL    HW131937   6.116   1.365   1.157
10346SOL    HW231938   6.262   1.299   1.125
10347SOL     OW31939   5.731   2.558   2.228
10347SOL    HW131940   5.647   2.565   2.174
10347SOL    HW231941   5.778   2.472   2.207
10348SOL     OW31942   6.523   1.236   6.916
10348SOL    HW131943   6.517   1.328   6.875
10348SOL    HW231944   6.522   1.244   7.015
10349SOL     OW31945   6.838   1.536   6.889
10349SOL    HW131946   6.856   1.440   6.865
10349SOL    HW231947   6.922   1.579   6.922
10350SOL     OW31948   2.829   6.387   4.699
10350SOL    HW131949   2.854   6.345   4.787
10350SOL    HW231950   2.895   6.459   4.677
10351SOL     OW31951   5.873   5.261   6.129
10351SOL    HW131952   5.930   5.178   6.127
10351SOL    HW231953   5.859   5.290   6.223
10352SOL     OW31954   5.675   1.556   6.457
10352SOL    HW131955   5.733   1.481   6.489
10352SOL    HW231956   5.648   1.613   6.535
10353SOL     OW31957   6.946   2.641   4.304
10353SOL    HW131958   6.898   2.706   4.246
10353SOL    HW231959   6.961   2.682   4.394
10354SOL     OW31960   0.447   2.247   1.645
10354SOL    HW131961   0.468   2.159   1.602
10354SOL    HW231962   0.461   2.321   1.579
10355SOL     OW31963   1.206   0.485   1.125
10355SOL    HW131964   1.111   0.461   1.146
10355SOL    HW231965   1.253   0.405   1.087
10356SOL     OW31966   0.087   3.718   5.791
10356SOL    HW131967   0.013   3.763   5.740
10356SOL    HW231968   0.060   3.708   5.887
10357SOL     OW31969   4.404   2.647   6.129
10357SOL    HW131970   4.326   2.709   6.133
10357SOL    HW231971   4.411   2.596   6.215
10358SOL     OW31972   0.764   3.227   3.776
10358SOL    HW131973   0.863   3.240   3.775
10358SOL    HW231974   0.737   3.184   3.862
10359SOL     OW31975   5.128   2.150   1.853
10359SOL    HW131976   5.165   2.077   1.910
10359SOL    HW231977   5.033   2.167   1.879
10360SOL     OW31978   5.446   5.788   2.007
10360SOL    HW131979   5.399   5.862   2.054
10360SOL    HW231980   5.537   5.774   2.047
10361SOL     OW31981   2.577   0.946   2.772
10361SOL    HW131982   2.641   0.972   2.700
10361SOL    HW231983   2.489   0.991   2.756
10362SOL     OW31984   0.638   4.768   2.934
10362SOL    HW131985   0.678   4.852   2.898
10362SOL    HW231986   0.572   4.791   3.006
10363SOL     OW31987   5.663   2.351   1.376
10363SOL    HW131988   5.591   2.282   1.376
10363SOL    HW231989   5.753   2.306   1.382
10364SOL     OW31990   4.585   4.130   1.425
10364SOL    HW131991   4.665   4.142   1.366
10364SOL    HW231992   4.513   4.083   1.374
10365SOL     OW31993   6.003   4.153   6.711
10365SOL    HW131994   5.960   4.177   6.798
10365SOL    HW231995   5.941   4.095   6.658
10366SOL     OW31996   3.161   6.666   3.898
10366SOL    HW131997   3.154   6.629   3.806
10366SOL    HW231998   3.088   6.628   3.955
10367SOL     OW31999   7.009   1.895   1.471
10367SOL    HW132000   6.954   1.937   1.542
10367SOL    HW232001   6.954   1.828   1.421
10368SOL     OW32002   1.852   1.399   2.199
10368SOL    HW132003   1.813   1.315   2.237
10368SOL    HW232004   1.864   1.388   2.100
10369SOL     OW32005   2.845   6.582   6.065
10369SOL    HW132006   2.914   6.621   6.004
10369SOL    HW232007   2.756   6.584   6.019
10370SOL     OW32008   6.694   1.451   5.211
10370SOL    HW132009   6.736   1.362   5.232
10370SOL    HW232010   6.667   1.453   5.115
10371SOL     OW32011   2.218   6.548   4.529
10371SOL    HW132012   2.289   6.548   4.459
10371SOL    HW232013   2.129   6.564   4.487
10372SOL     OW32014   2.106   0.860   0.413
10372SOL    HW132015   2.076   0.903   0.328
10372SOL    HW232016   2.071   0.911   0.491
10373SOL     OW32017   0.808   6.675   5.352
10373SOL    HW132018   0.792   6.695   5.255
10373SOL    HW232019   0.876   6.602   5.360
10374SOL     OW32020   3.791   0.487   3.746
10374SOL    HW132021   3.706   0.436   3.757
10374SOL    HW232022   3.837   0.458   3.662
10375SOL     OW32023   2.516   2.292   6.282
10375SOL    HW132024   2.533   2.312   6.186
10375SOL    HW232025   2.546   2.369   6.339
10376SOL     OW32026   1.252   6.211   4.411
10376SOL    HW132027   1.336   6.250   4.450
10376SOL    HW232028   1.182   6.206   4.482
10377SOL     OW32029   0.229   0.859   1.803
10377SOL    HW132030   0.254   0.866   1.899
10377SOL    HW232031   0.305   0.819   1.751
10378SOL     OW32032   5.990   6.017   5.392
10378SOL    HW132033   5.998   6.092   5.457
10378SOL    HW232034   6.080   5.974   5.379
10379SOL     OW32035   3.285   5.827   4.272
10379SOL    HW132036   3.188   5.833   4.296
10379SOL    HW232037   3.338   5.806   4.354
10380SOL     OW32038   1.188   2.738   4.721
10380SOL    HW132039   1.216   2.798   4.796
10380SOL    HW232040   1.090   2.723   4.725
10381SOL     OW32041   4.610   3.893   1.123
10381SOL    HW132042   4.673   3.934   1.057
10381SOL    HW232043   4.642   3.800   1.146
10382SOL     OW32044   2.937   5.344   1.570
10382SOL    HW132045   2.887   5.258   1.555
10382SOL    HW232046   2.992   5.365   1.489
10383SOL     OW32047   1.040   4.321   0.687
10383SOL    HW132048   1.085   4.265   0.617
10383SOL    HW232049   1.094   4.320   0.771
10384SOL     OW32050   6.833   6.844   0.868
10384SOL    HW132051   6.777   6.762   0.858
10384SOL    HW232052   6.930   6.820   0.861
10385SOL     OW32053   3.901   6.013   6.521
10385SOL    HW132054   3.838   5.960   6.578
10385SOL    HW232055   3.901   6.109   6.551
10386SOL     OW32056   0.517   1.667   6.070
10386SOL    HW132057   0.561   1.650   5.982
10386SOL    HW232058   0.499   1.580   6.115
10387SOL     OW32059   4.672   2.706   3.155
10387SOL    HW132060   4.592   2.646   3.160
10387SOL    HW232061   4.710   2.719   3.246
10388SOL     OW32062   2.006   5.647   1.719
10388SOL    HW132063   2.074   5.661   1.790
10388SOL    HW232064   2.047   5.667   1.630
10389SOL     OW32065   6.398   4.477   0.926
10389SOL    HW132066   6.377   4.426   1.009
10389SOL    HW232067   6.497   4.482   0.912
10390SOL     OW32068   2.289   3.674   0.503
10390SOL    HW132069   2.275   3.762   0.456
10390SOL    HW232070   2.202   3.642   0.540
10391SOL     OW32071   0.041   6.235   4.070
10391SOL    HW132072   7.006   6.314   4.063
10391SOL    HW232073   0.038   6.183   3.984
10392SOL     OW32074   6.125   4.731   5.814
10392SOL    HW132075   6.186   4.654   5.831
10392SOL    HW232076   6.039   4.698   5.775
10393SOL     OW32077   2.388   2.750   2.829
10393SOL    HW132078   2.393   2.795   2.740
10393SOL    HW232079   2.344   2.811   2.894
10394SOL     OW32080   2.259   5.053   5.452
10394SOL    HW132081   2.213   4.971   5.419
10394SOL    HW232082   2.348   5.061   5.408
10395SOL     OW32083   0.789   0.881   1.741
10395SOL    HW132084   0.834   0.831   1.816
10395SOL    HW232085   0.745   0.816   1.679
10396SOL     OW32086   3.469   1.162   4.185
10396SOL    HW132087   3.473   1.194   4.090
10396SOL    HW232088   3.401   1.217   4.235
10397SOL     OW32089   3.460   1.270   4.560
10397SOL    HW132090   3.506   1.273   4.471
10397SOL    HW232091   3.529   1.269   4.633
10398SOL     OW32092   5.961   2.225   0.957
10398SOL    HW132093   5.887   2.158   0.955
10398SOL    HW232094   5.957   2.277   1.043
10399SOL     OW32095   4.678   1.907   3.382
10399SOL    HW132096   4.646   1.944   3.468
10399SOL    HW232097   4.728   1.821   3.399
10400SOL     OW32098   4.309   5.889   6.857
10400SOL    HW132099   4.314   5.805   6.910
10400SOL    HW232100   4.222   5.935   6.876
10401SOL     OW32101   0.558   6.360   2.446
10401SOL    HW132102   0.503   6.367   2.363
10401SOL    HW232103   0.616   6.441   2.456
10402SOL     OW32104   0.385   1.858   6.230
10402SOL    HW132105   0.351   1.839   6.322
10402SOL    HW232106   0.418   1.774   6.188
10403SOL     OW32107   4.318   2.303   3.103
10403SOL    HW132108   4.362   2.260   3.024
10403SOL    HW232109   4.385   2.357   3.153
10404SOL     OW32110   6.126   6.035   4.246
10404SOL    HW132111   6.088   5.944   4.260
10404SOL    HW232112   6.180   6.036   4.161
10405SOL     OW32113   1.070   6.150   4.706
10405SOL    HW132114   1.017   6.219   4.655
10405SOL    HW232115   1.067   6.172   4.803
10406SOL     OW32116   1.824   3.070   4.053
10406SOL    HW132117   1.862   3.053   4.144
10406SOL    HW232118   1.899   3.087   3.989
10407SOL     OW32119   2.670   6.941   6.371
10407SOL    HW132120   2.712   6.876   6.307
10407SOL    HW232121   2.734   6.961   6.445
10408SOL     OW32122   4.425   0.488   1.449
10408SOL    HW132123   4.404   0.401   1.405
10408SOL    HW232124   4.512   0.523   1.415
10409SOL     OW32125   6.489   4.911   1.277
10409SOL    HW132126   6.463   4.919   1.181
10409SOL    HW232127   6.573   4.963   1.293
10410SOL     OW32128   4.977   1.843   1.749
10410SOL    HW132129   4.993   1.921   1.688
10410SOL    HW232130   4.878   1.835   1.766
10411SOL     OW32131   2.687   6.363   3.708
10411SOL    HW132132   2.711   6.294   3.639
10411SOL    HW232133   2.749   6.441   3.700
10412SOL     OW32134   0.330   1.384   0.760
10412SOL    HW132135   0.420   1.412   0.727
10412SOL    HW232136   0.305   1.440   0.839
10413SOL     OW32137   6.601   2.985   1.377
10413SOL    HW132138   6.533   3.053   1.404
10413SOL    HW232139   6.693   3.024   1.388
10414SOL     OW32140   3.488   4.862   5.781
10414SOL    HW132141   3.481   4.922   5.861
10414SOL    HW232142   3.494   4.767   5.811
10415SOL     OW32143   1.551   4.111   4.224
10415SOL    HW132144   1.523   4.135   4.317
10415SOL    HW232145   1.492   4.158   4.158
10416SOL     OW32146   5.735   7.024   5.157
10416SOL    HW132147   5.675   6.945   5.168
10416SOL    HW232148   5.810   7.017   5.223
10417SOL     OW32149   3.300   4.976   3.705
10417SOL    HW132150   3.311   5.037   3.783
10417SOL    HW232151   3.382   4.921   3.693
10418SOL     OW32152   6.514   4.037   5.609
10418SOL    HW132153   6.550   4.129   5.625
10418SOL    HW232154   6.496   3.993   5.697
10419SOL     OW32155   3.273   6.756   6.496
10419SOL    HW132156   3.176   6.731   6.486
10419SOL    HW232157   3.284   6.853   6.479
10420SOL     OW32158   0.184   3.236   4.146
10420SOL    HW132159   0.142   3.327   4.148
10420SOL    HW232160   0.159   3.186   4.229
10421SOL     OW32161   1.162   2.952   4.020
10421SOL    HW132162   1.100   2.921   3.948
10421SOL    HW232163   1.155   2.890   4.098
10422SOL     OW32164   6.297   3.025   5.094
10422SOL    HW132165   6.263   3.020   5.188
10422SOL    HW232166   6.222   3.006   5.031
10423SOL     OW32167   5.641   5.178   5.983
10423SOL    HW132168   5.719   5.218   6.031
10423SOL    HW232169   5.587   5.123   6.047
10424SOL     OW32170   3.904   3.106   1.088
10424SOL    HW132171   3.852   3.023   1.066
10424SOL    HW232172   4.000   3.093   1.064
10425SOL     OW32173   1.643   6.797   2.393
10425SOL    HW132174   1.570   6.735   2.363
10425SOL    HW232175   1.730   6.766   2.357
10426SOL     OW32176   5.412   4.501   0.243
10426SOL    HW132177   5.368   4.535   0.160
10426SOL    HW232178   5.433   4.577   0.303
10427SOL     OW32179   4.191   0.841   0.035
10427SOL    HW132180   4.206   0.936   0.064
10427SOL    HW232181   4.119   0.801   0.092
10428SOL     OW32182   3.569   1.022   3.766
10428SOL    HW132183   3.651   0.999   3.818
10428SOL    HW232184   3.575   0.980   3.675
10429SOL     OW32185   0.132   4.021   1.991
10429SOL    HW132186   0.073   4.006   1.912
10429SOL    HW232187   0.129   4.117   2.016
10430SOL     OW32188   5.155   6.981   4.656
10430SOL    HW132189   5.134   0.050   4.633
10430SOL    HW232190   5.109   6.920   4.592
10431SOL     OW32191   2.457   5.885   4.698
10431SOL    HW132192   2.374   5.851   4.656
10431SOL    HW232193   2.510   5.937   4.631
10432SOL     OW32194   5.991   0.324   4.591
10432SOL    HW132195   6.075   0.375   4.611
10432SOL    HW232196   6.007   0.264   4.512
10433SOL     OW32197   1.137   5.954   2.323
10433SOL    HW132198   1.067   5.950   2.252
10433SOL    HW232199   1.121   5.881   2.389
10434SOL     OW32200   3.945   5.820   2.569
10434SOL    HW132201   3.856   5.834   2.524
10434SOL    HW232202   3.975   5.905   2.611
10435SOL     OW32203   0.920   1.262   5.657
10435SOL    HW132204   0.916   1.302   5.749
10435SOL    HW232205   0.967   1.174   5.661
10436SOL     OW32206   6.353   4.575   5.304
10436SOL    HW132207   6.436   4.520   5.303
10436SOL    HW232208   6.366   4.654   5.364
10437SOL     OW32209   4.590   4.233   6.065
10437SOL    HW132210   4.641   4.156   6.028
10437SOL    HW232211   4.620   4.251   6.159
10438SOL     OW32212   6.913   6.584   6.885
10438SOL    HW132213   6.960   6.650   6.943
10438SOL    HW232214   6.847   6.632   6.827
10439SOL     OW32215   4.150   1.808   4.776
10439SOL    HW132216   4.205   1.864   4.715
10439SOL    HW232217   4.054   1.815   4.750
10440SOL     OW32218   0.622   6.626   0.565
10440SOL    HW132219   0.718   6.652   0.556
10440SOL    HW232220   0.585   6.661   0.651
10441SOL     OW32221   4.104   1.617   1.368
10441SOL    HW132222   4.050   1.662   1.439
10441SOL    HW232223   4.112   1.519   1.389
10442SOL     OW32224   4.040   6.828   6.651
10442SOL    HW132225   4.129   6.795   6.681
10442SOL    HW232226   4.031   6.816   6.553
10443SOL     OW32227   5.019   3.328   4.092
10443SOL    HW132228   5.081   3.284   4.027
10443SOL    HW232229   4.969   3.258   4.143
10444SOL     OW32230   4.648   6.056   3.607
10444SOL    HW132231   4.718   5.992   3.577
10444SOL    HW232232   4.612   6.028   3.696
10445SOL     OW32233   0.542   4.399   4.205
10445SOL    HW132234   0.601   4.391   4.124
10445SOL    HW232235   0.589   4.455   4.274
10446SOL     OW32236   1.909   3.087   5.780
10446SOL    HW132237   1.925   3.006   5.836
10446SOL    HW232238   1.890   3.060   5.686
10447SOL     OW32239   0.377   1.138   2.321
10447SOL    HW132240   0.345   1.233   2.323
10447SOL    HW232241   0.382   1.102   2.414
10448SOL     OW32242   4.830   0.856   2.412
10448SOL    HW132243   4.908   0.916   2.397
10448SOL    HW232244   4.793   0.827   2.324
10449SOL     OW32245   1.854   5.370   4.980
10449SOL    HW132246   1.806   5.396   5.064
10449SOL    HW232247   1.934   5.429   4.967
10450SOL     OW32248   0.730   1.391   0.892
10450SOL    HW132249   0.703   1.396   0.988
10450SOL    HW232250   0.804   1.455   0.874
10451SOL     OW32251   2.332   5.540   2.491
10451SOL    HW132252   2.408   5.600   2.516
10451SOL    HW232253   2.341   5.453   2.539
10452SOL     OW32254   6.748   3.453   1.967
10452SOL    HW132255   6.720   3.371   1.917
10452SOL    HW232256   6.669   3.491   2.014
10453SOL     OW32257   4.353   6.968   1.565
10453SOL    HW132258   4.341   6.870   1.585
10453SOL    HW232259   4.267   7.005   1.528
10454SOL     OW32260   5.113   3.265   0.309
10454SOL    HW132261   5.074   3.212   0.234
10454SOL    HW232262   5.109   3.362   0.287
10455SOL     OW32263   5.982   6.026   3.491
10455SOL    HW132264   6.034   5.963   3.549
10455SOL    HW232265   6.041   6.060   3.418
10456SOL     OW32266   1.818   5.794   0.249
10456SOL    HW132267   1.890   5.783   0.318
10456SOL    HW232268   1.747   5.725   0.264
10457SOL     OW32269   3.710   3.352   1.460
10457SOL    HW132270   3.719   3.422   1.531
10457SOL    HW232271   3.782   3.284   1.471
10458SOL     OW32272   6.428   0.536   6.829
10458SOL    HW132273   6.474   0.557   6.916
10458SOL    HW232274   6.441   0.612   6.765
10459SOL     OW32275   4.537   5.950   1.778
10459SOL    HW132276   4.484   5.866   1.786
10459SOL    HW232277   4.601   5.942   1.702
10460SOL     OW32278   0.660   4.090   2.264
10460SOL    HW132279   0.643   4.189   2.272
10460SOL    HW232280   0.719   4.061   2.339
10461SOL     OW32281   6.626   5.229   5.881
10461SOL    HW132282   6.659   5.309   5.930
10461SOL    HW232283   6.681   5.216   5.798
10462SOL     OW32284   5.664   1.241   3.574
10462SOL    HW132285   5.582   1.282   3.615
10462SOL    HW232286   5.652   1.234   3.475
10463SOL     OW32287   4.634   2.838   6.293
10463SOL    HW132288   4.601   2.805   6.382
10463SOL    HW232289   4.565   2.899   6.253
10464SOL     OW32290   6.694   6.690   1.642
10464SOL    HW132291   6.789   6.681   1.612
10464SOL    HW232292   6.686   6.665   1.738
10465SOL     OW32293   6.317   5.509   0.755
10465SOL    HW132294   6.237   5.503   0.696
10465SOL    HW232295   6.313   5.592   0.809
10466SOL     OW32296   4.603   5.105   5.788
10466SOL    HW132297   4.527   5.052   5.748
10466SOL    HW232298   4.598   5.199   5.757
10467SOL     OW32299   2.973   1.035   7.003
10467SOL    HW132300   3.004   0.964   6.940
10467SOL    HW232301   3.027   1.118   6.987
10468SOL     OW32302   3.996   5.233   3.176
10468SOL    HW132303   3.962   5.319   3.214
10468SOL    HW232304   3.934   5.201   3.105
10469SOL     OW32305   4.354   4.464   5.659
10469SOL    HW132306   4.287   4.539   5.658
10469SOL    HW232307   4.308   4.379   5.685
10470SOL     OW32308   2.325   2.654   3.769
10470SOL    HW132309   2.385   2.664   3.689
10470SOL    HW232310   2.252   2.589   3.749
10471SOL     OW32311   2.466   1.806   0.819
10471SOL    HW132312   2.509   1.860   0.747
10471SOL    HW232313   2.524   1.806   0.901
10472SOL     OW32314   4.192   5.380   0.319
10472SOL    HW132315   4.199   5.337   0.409
10472SOL    HW232316   4.098   5.411   0.303
10473SOL     OW32317   6.726   0.285   6.391
10473SOL    HW132318   6.676   0.241   6.317
10473SOL    HW232319   6.665   0.298   6.470
10474SOL     OW32320   3.437   2.160   4.436
10474SOL    HW132321   3.441   2.159   4.536
10474SOL    HW232322   3.350   2.121   4.406
10475SOL     OW32323   4.291   6.614   1.306
10475SOL    HW132324   4.300   6.662   1.393
10475SOL    HW232325   4.325   6.521   1.315
10476SOL     OW32326   6.869   5.679   0.158
10476SOL    HW132327   6.967   5.662   0.150
10476SOL    HW232328   6.839   5.738   0.084
10477SOL     OW32329   0.299   1.559   4.731
10477SOL    HW132330   0.395   1.586   4.745
10477SOL    HW232331   0.249   1.634   4.688
10478SOL     OW32332   6.900   0.618   1.113
10478SOL    HW132333   6.934   0.536   1.158
10478SOL    HW232334   6.973   0.687   1.109
10479SOL     OW32335   0.097   2.240   2.465
10479SOL    HW132336   0.110   2.329   2.421
10479SOL    HW232337   0.016   2.244   2.524
10480SOL     OW32338   6.365   0.036   1.995
10480SOL    HW132339   6.276   7.017   1.997
10480SOL    HW232340   6.402   0.031   1.902
10481SOL     OW32341   2.559   6.861   4.428
10481SOL    HW132342   2.571   6.948   4.475
10481SOL    HW232343   2.465   6.830   4.439
10482SOL     OW32344   6.081   4.878   4.570
10482SOL    HW132345   6.027   4.959   4.545
10482SOL    HW232346   6.178   4.902   4.572
10483SOL     OW32347   6.694   4.882   6.802
10483SOL    HW132348   6.741   4.798   6.828
10483SOL    HW232349   6.609   4.859   6.755
10484SOL     OW32350   5.744   1.041   2.004
10484SOL    HW132351   5.830   1.021   1.958
10484SOL    HW232352   5.683   1.091   1.942
10485SOL     OW32353   3.076   3.709   1.140
10485SOL    HW132354   3.014   3.767   1.193
10485SOL    HW232355   3.154   3.763   1.109
10486SOL     OW32356   6.843   0.748   0.187
10486SOL    HW132357   6.863   0.744   0.089
10486SOL    HW232358   6.744   0.745   0.201
10487SOL     OW32359   4.916   1.792   2.401
10487SOL    HW132360   4.821   1.780   2.373
10487SOL    HW232361   4.962   1.703   2.400
10488SOL     OW32362   2.783   2.081   5.758
10488SOL    HW132363   2.810   2.169   5.720
10488SOL    HW232364   2.745   2.023   5.686
10489SOL     OW32365   0.314   0.060   4.588
10489SOL    HW132366   0.227   0.021   4.618
10489SOL    HW232367   0.298   0.122   4.512
10490SOL     OW32368   5.961   1.802   0.804
10490SOL    HW132369   5.945   1.857   0.722
10490SOL    HW232370   6.041   1.744   0.790
10491SOL     OW32371   2.535   2.030   5.932
10491SOL    HW132372   2.456   2.013   5.873
10491SOL    HW232373   2.608   2.073   5.879
10492SOL     OW32374   5.403   5.513   0.811
10492SOL    HW132375   5.401   5.477   0.904
10492SOL    HW232376   5.325   5.477   0.759
10493SOL     OW32377   3.254   6.928   2.252
10493SOL    HW132378   3.276   6.862   2.180
10493SOL    HW232379   3.186   6.993   2.218
10494SOL     OW32380   5.615   4.711   5.904
10494SOL    HW132381   5.542   4.684   5.842
10494SOL    HW232382   5.677   4.774   5.858
10495SOL     OW32383   0.961   6.247   1.042
10495SOL    HW132384   0.897   6.195   0.985
10495SOL    HW232385   0.984   6.193   1.123
10496SOL     OW32386   5.898   3.572   6.185
10496SOL    HW132387   5.946   3.487   6.207
10496SOL    HW232388   5.935   3.610   6.100
10497SOL     OW32389   2.012   6.993   1.768
10497SOL    HW132390   2.055   0.033   1.829
10497SOL    HW232391   1.929   6.957   1.811
10498SOL     OW32392   4.901   5.312   0.707
10498SOL    HW132393   4.826   5.287   0.646
10498SOL    HW232394   4.980   5.253   0.689
10499SOL     OW32395   4.760   0.117   2.154
10499SOL    HW132396   4.831   0.187   2.154
10499SOL    HW232397   4.770   0.060   2.073
10500SOL     OW32398   6.092   1.639   5.940
10500SOL    HW132399   6.097   1.559   6.000
10500SOL    HW232400   6.073   1.609   5.847
10501SOL     OW32401   2.109   5.459   2.338
10501SOL    HW132402   2.182   5.514   2.379
10501SOL    HW232403   2.078   5.502   2.254
10502SOL     OW32404   2.811   2.058   1.562
10502SOL    HW132405   2.712   2.047   1.568
10502SOL    HW232406   2.840   2.132   1.622
10503SOL     OW32407   5.239   2.832   0.882
10503SOL    HW132408   5.315   2.861   0.824
10503SOL    HW232409   5.252   2.736   0.908
10504SOL     OW32410   1.506   2.652   5.739
10504SOL    HW132411   1.460   2.725   5.690
10504SOL    HW232412   1.442   2.608   5.802
10505SOL     OW32413   5.607   5.247   0.797
10505SOL    HW132414   5.622   5.151   0.772
10505SOL    HW232415   5.594   5.302   0.715
10506SOL     OW32416   0.007   3.601   0.181
10506SOL    HW132417   0.107   3.594   0.178
10506SOL    HW232418   6.994   3.512   0.163
10507SOL     OW32419   1.611   6.312   0.967
10507SOL    HW132420   1.592   6.239   0.901
10507SOL    HW232421   1.705   6.305   0.999
10508SOL     OW32422   6.695   5.712   4.820
10508SOL    HW132423   6.667   5.642   4.885
10508SOL    HW232424   6.718   5.796   4.869
10509SOL     OW32425   6.881   5.286   5.224
10509SOL    HW132426   6.783   5.266   5.228
10509SOL    HW232427   6.902   5.362   5.286
10510SOL     OW32428   4.832   6.446   6.888
10510SOL    HW132429   4.842   6.365   6.946
10510SOL    HW232430   4.852   6.421   6.793
10511SOL     OW32431   2.558   1.215   2.164
10511SOL    HW132432   2.540   1.309   2.138
10511SOL    HW232433   2.636   1.179   2.113
10512SOL     OW32434   4.406   0.581   5.308
10512SOL    HW132435   4.382   0.642   5.383
10512SOL    HW232436   4.492   0.535   5.327
10513SOL     OW32437   6.466   2.724   3.672
10513SOL    HW132438   6.529   2.717   3.750
10513SOL    HW232439   6.393   2.788   3.693
10514SOL     OW32440   0.787   3.253   1.147
10514SOL    HW132441   0.717   3.183   1.163
10514SOL    HW232442   0.762   3.307   1.067
10515SOL     OW32443   1.133   3.664   3.939
10515SOL    HW132444   1.076   3.644   3.860
10515SOL    HW232445   1.216   3.711   3.909
10516SOL     OW32446   3.548   1.911   0.891
10516SOL    HW132447   3.566   1.861   0.806
10516SOL    HW232448   3.632   1.954   0.923
10517SOL     OW32449   0.643   2.958   0.910
10517SOL    HW132450   0.577   3.025   0.944
10517SOL    HW232451   0.630   2.943   0.812
10518SOL     OW32452   6.975   5.890   0.703
10518SOL    HW132453   6.945   5.944   0.624
10518SOL    HW232454   6.918   5.911   0.781
10519SOL     OW32455   3.162   3.565   0.944
10519SOL    HW132456   3.123   3.630   1.009
10519SOL    HW232457   3.211   3.493   0.994
10520SOL     OW32458   0.831   2.347   6.036
10520SOL    HW132459   0.913   2.355   6.092
10520SOL    HW232460   0.797   2.253   6.039
10521SOL     OW32461   6.624   5.439   1.623
10521SOL    HW132462   6.631   5.378   1.544
10521SOL    HW232463   6.670   5.397   1.701
10522SOL     OW32464   0.542   1.058   4.259
10522SOL    HW132465   0.457   1.070   4.309
10522SOL    HW232466   0.532   1.095   4.166
10523SOL     OW32467   0.588   4.531   2.777
10523SOL    HW132468   0.621   4.612   2.826
10523SOL    HW232469   0.661   4.493   2.720
10524SOL     OW32470   0.861   6.510   3.765
10524SOL    HW132471   0.844   6.594   3.714
10524SOL    HW232472   0.776   6.479   3.807
10525SOL     OW32473   3.848   0.560   5.422
10525SOL    HW132474   3.922   0.503   5.457
10525SOL    HW232475   3.760   0.527   5.459
10526SOL     OW32476   1.128   6.538   2.985
10526SOL    HW132477   1.151   6.464   2.922
10526SOL    HW232478   1.048   6.587   2.950
10527SOL     OW32479   1.214   1.132   5.434
10527SOL    HW132480   1.202   1.112   5.532
10527SOL    HW232481   1.260   1.055   5.390
10528SOL     OW32482   1.619   3.755   5.904
10528SOL    HW132483   1.557   3.681   5.933
10528SOL    HW232484   1.648   3.738   5.809
10529SOL     OW32485   2.898   6.507   4.344
10529SOL    HW132486   2.876   6.426   4.290
10529SOL    HW232487   2.998   6.515   4.353
10530SOL     OW32488   1.087   0.321   6.570
10530SOL    HW132489   1.143   0.277   6.500
10530SOL    HW232490   1.004   0.267   6.585
10531SOL     OW32491   1.674   2.551   4.187
10531SOL    HW132492   1.587   2.513   4.156
10531SOL    HW232493   1.678   2.648   4.162
10532SOL     OW32494   0.923   0.034   6.356
10532SOL    HW132495   0.846   0.098   6.360
10532SOL    HW232496   0.891   6.969   6.378
10533SOL     OW32497   2.946   6.799   3.152
10533SOL    HW132498   2.909   6.710   3.125
10533SOL    HW232499   2.923   6.867   3.082
10534SOL     OW32500   6.147   5.440   2.298
10534SOL    HW132501   6.185   5.530   2.278
10534SOL    HW232502   6.089   5.446   2.379
10535SOL     OW32503   1.711   1.927   2.203
10535SOL    HW132504   1.718   1.832   2.235
10535SOL    HW232505   1.755   1.988   2.269
10536SOL     OW32506   4.379   0.749   4.236
10536SOL    HW132507   4.292   0.701   4.242
10536SOL    HW232508   4.385   0.816   4.310
10537SOL     OW32509   4.431   6.064   4.409
10537SOL    HW132510   4.336   6.035   4.416
10537SOL    HW232511   4.458   6.112   4.493
10538SOL     OW32512   6.528   3.449   1.006
10538SOL    HW132513   6.467   3.481   0.934
10538SOL    HW232514   6.572   3.363   0.977
10539SOL     OW32515   0.090   4.895   0.274
10539SOL    HW132516   7.022   4.909   0.246
10539SOL    HW232517   0.092   4.846   0.362
10540SOL     OW32518   1.655   3.202   5.853
10540SOL    HW132519   1.735   3.158   5.811
10540SOL    HW232520   1.684   3.250   5.936
10541SOL     OW32521   3.653   4.037   1.914
10541SOL    HW132522   3.593   4.037   1.993
10541SOL    HW232523   3.599   4.037   1.830
10542SOL     OW32524   0.212   1.192   5.719
10542SOL    HW132525   0.192   1.203   5.817
10542SOL    HW232526   0.204   1.280   5.674
10543SOL     OW32527   0.470   1.802   4.919
10543SOL    HW132528   0.418   1.871   4.869
10543SOL    HW232529   0.559   1.789   4.875
10544SOL     OW32530   2.805   6.799   1.955
10544SOL    HW132531   2.903   6.817   1.955
10544SOL    HW232532   2.760   6.859   2.022
10545SOL     OW32533   0.632   2.149   0.772
10545SOL    HW132534   0.682   2.069   0.805
10545SOL    HW232535   0.535   2.139   0.792
10546SOL     OW32536   1.693   6.943   0.835
10546SOL    HW132537   1.690   6.843   0.838
10546SOL    HW232538   1.669   6.975   0.744
10547SOL     OW32539   5.266   2.724   3.178
10547SOL    HW132540   5.201   2.761   3.243
10547SOL    HW232541   5.354   2.708   3.223
10548SOL     OW32542   5.811   4.214   4.810
10548SOL    HW132543   5.838   4.123   4.780
10548SOL    HW232544   5.883   4.253   4.868
10549SOL     OW32545   0.724   0.514   1.679
10549SOL    HW132546   0.801   0.465   1.639
10549SOL    HW232547   0.711   0.601   1.631
10550SOL     OW32548   5.024   6.891   3.681
10550SOL    HW132549   5.076   6.806   3.692
10550SOL    HW232550   5.026   6.943   3.766
10551SOL     OW32551   1.779   2.483   6.716
10551SOL    HW132552   1.794   2.437   6.629
10551SOL    HW232553   1.835   2.566   6.720
10552SOL     OW32554   2.419   1.116   5.796
10552SOL    HW132555   2.353   1.043   5.815
10552SOL    HW232556   2.378   1.183   5.734
10553SOL     OW32557   0.407   4.713   1.561
10553SOL    HW132558   0.394   4.768   1.644
10553SOL    HW232559   0.405   4.616   1.585
10554SOL     OW32560   5.134   4.585   0.981
10554SOL    HW132561   5.208   4.633   1.028
10554SOL    HW232562   5.168   4.548   0.895
10555SOL     OW32563   2.431   2.335   1.168
10555SOL    HW132564   2.403   2.377   1.081
10555SOL    HW232565   2.355   2.281   1.204
10556SOL     OW32566   1.444   1.526   4.428
10556SOL    HW132567   1.484   1.618   4.430
10556SOL    HW232568   1.481   1.476   4.350
10557SOL     OW32569   2.109   3.171   2.960
10557SOL    HW132570   2.010   3.162   2.947
10557SOL    HW232571   2.143   3.248   2.906
10558SOL     OW32572   3.880   6.677   4.782
10558SOL    HW132573   3.910   6.594   4.827
10558SOL    HW232574   3.949   6.748   4.793
10559SOL     OW32575   4.679   1.065   1.512
10559SOL    HW132576   4.765   1.015   1.507
10559SOL    HW232577   4.691   1.147   1.568
10560SOL     OW32578   4.980   6.538   2.433
10560SOL    HW132579   4.933   6.625   2.451
10560SOL    HW232580   4.918   6.462   2.453
10561SOL     OW32581   3.696   4.538   1.659
10561SOL    HW132582   3.654   4.449   1.645
10561SOL    HW232583   3.635   4.595   1.714
10562SOL     OW32584   4.213   5.113   0.282
10562SOL    HW132585   4.223   5.212   0.275
10562SOL    HW232586   4.128   5.091   0.330
10563SOL     OW32587   7.013   1.057   2.864
10563SOL    HW132588   0.069   1.113   2.865
10563SOL    HW232589   7.013   1.000   2.782
10564SOL     OW32590   5.336   5.930   2.796
10564SOL    HW132591   5.250   5.903   2.839
10564SOL    HW232592   5.390   5.983   2.861
10565SOL     OW32593   0.430   6.901   6.064
10565SOL    HW132594   0.446   6.944   5.975
10565SOL    HW232595   0.518   6.877   6.105
10566SOL     OW32596   3.535   1.739   6.712
10566SOL    HW132597   3.478   1.657   6.710
10566SOL    HW232598   3.599   1.736   6.635
10567SOL     OW32599   2.641   2.478   4.970
10567SOL    HW132600   2.611   2.531   4.891
10567SOL    HW232601   2.710   2.411   4.941
10568SOL     OW32602   6.770   3.028   1.101
10568SOL    HW132603   6.829   2.949   1.118
10568SOL    HW232604   6.676   2.997   1.089
10569SOL     OW32605   5.291   1.291   2.072
10569SOL    HW132606   5.245   1.379   2.061
10569SOL    HW232607   5.236   1.218   2.031
10570SOL     OW32608   1.471   4.409   3.270
10570SOL    HW132609   1.431   4.320   3.292
10570SOL    HW232610   1.531   4.438   3.345
10571SOL     OW32611   6.921   4.099   5.205
10571SOL    HW132612   6.926   4.107   5.305
10571SOL    HW232613   6.830   4.067   5.179
10572SOL     OW32614   6.695   4.270   2.630
10572SOL    HW132615   6.633   4.215   2.684
10572SOL    HW232616   6.742   4.212   2.563
10573SOL     OW32617   5.431   0.520   4.984
10573SOL    HW132618   5.471   0.608   5.009
10573SOL    HW232619   5.358   0.533   4.917
10574SOL     OW32620   0.769   1.532   4.204
10574SOL    HW132621   0.672   1.538   4.180
10574SOL    HW232622   0.793   1.608   4.265
10575SOL     OW32623   0.076   1.054   3.578
10575SOL    HW132624   0.040   1.093   3.663
10575SOL    HW232625   0.160   1.102   3.552
10576SOL     OW32626   0.344   5.604   4.775
10576SOL    HW132627   0.360   5.530   4.710
10576SOL    HW232628   0.261   5.653   4.750
10577SOL     OW32629   1.913   4.874   0.150
10577SOL    HW132630   1.846   4.802   0.136
10577SOL    HW232631   1.881   4.959   0.107
10578SOL     OW32632   4.754   1.281   2.646
10578SOL    HW132633   4.689   1.340   2.695
10578SOL    HW232634   4.730   1.279   2.549
10579SOL     OW32635   4.431   3.001   1.638
10579SOL    HW132636   4.486   3.033   1.560
10579SOL    HW232637   4.491   2.986   1.716
10580SOL     OW32638   6.770   0.584   6.419
10580SOL    HW132639   6.765   0.484   6.427
10580SOL    HW232640   6.799   0.609   6.327
10581SOL     OW32641   5.961   0.128   3.353
10581SOL    HW132642   5.931   0.167   3.266
10581SOL    HW232643   5.997   0.201   3.411
10582SOL     OW32644   4.656   4.246   5.519
10582SOL    HW132645   4.732   4.203   5.567
10582SOL    HW232646   4.613   4.180   5.458
10583SOL     OW32647   3.483   1.246   3.913
10583SOL    HW132648   3.545   1.321   3.891
10583SOL    HW232649   3.510   1.164   3.861
10584SOL     OW32650   6.852   0.506   0.318
10584SOL    HW132651   6.857   0.589   0.263
10584SOL    HW232652   6.851   0.426   0.257
10585SOL     OW32653   2.721   2.072   5.179
10585SOL    HW132654   2.624   2.093   5.165
10585SOL    HW232655   2.775   2.155   5.164
10586SOL     OW32656   5.787   4.900   5.731
10586SOL    HW132657   5.715   4.914   5.662
10586SOL    HW232658   5.825   4.989   5.757
10587SOL     OW32659   6.326   4.689   0.006
10587SOL    HW132660   6.406   4.695   0.066
10587SOL    HW232661   6.355   4.704   6.938
10588SOL     OW32662   1.590   2.615   4.859
10588SOL    HW132663   1.503   2.574   4.830
10588SOL    HW232664   1.652   2.542   4.888
10589SOL     OW32665   6.215   1.094   4.374
10589SOL    HW132666   6.213   1.191   4.398
10589SOL    HW232667   6.165   1.079   4.289
10590SOL     OW32668   0.214   0.428   0.941
10590SOL    HW132669   0.234   0.463   1.032
10590SOL    HW232670   0.168   0.499   0.887
10591SOL     OW32671   1.516   2.262   7.001
10591SOL    HW132672   1.553   2.170   6.987
10591SOL    HW232673   1.588   2.329   6.983
10592SOL     OW32674   5.786   3.583   2.948
10592SOL    HW132675   5.736   3.604   3.033
10592SOL    HW232676   5.830   3.494   2.957
10593SOL     OW32677   2.569   5.598   0.464
10593SOL    HW132678   2.646   5.552   0.420
10593SOL    HW232679   2.488   5.592   0.406
10594SOL     OW32680   5.291   1.277   3.353
10594SOL    HW132681   5.282   1.191   3.303
10594SOL    HW232682   5.219   1.340   3.325
10595SOL     OW32683   5.524   6.875   6.995
10595SOL    HW132684   5.600   6.837   6.942
10595SOL    HW232685   5.463   6.925   6.934
10596SOL     OW32686   4.538   1.176   0.316
10596SOL    HW132687   4.568   1.214   0.229
10596SOL    HW232688   4.608   1.114   0.352
10597SOL     OW32689   3.179   1.769   5.834
10597SOL    HW132690   3.188   1.670   5.843
10597SOL    HW232691   3.083   1.794   5.828
10598SOL     OW32692   3.062   2.680   6.994
10598SOL    HW132693   2.985   2.687   6.930
10598SOL    HW232694   3.036   2.716   0.056
10599SOL     OW32695   5.480   3.352   6.326
10599SOL    HW132696   5.386   3.381   6.308
10599SOL    HW232697   5.542   3.427   6.305
10600SOL     OW32698   3.436   2.707   0.847
10600SOL    HW132699   3.350   2.742   0.809
10600SOL    HW232700   3.453   2.750   0.936
10601SOL     OW32701   1.242   4.968   5.087
10601SOL    HW132702   1.169   4.962   5.019
10601SOL    HW232703   1.301   5.046   5.065
10602SOL     OW32704   1.896   0.390   2.228
10602SOL    HW132705   1.991   0.376   2.201
10602SOL    HW232706   1.865   0.480   2.198
10603SOL     OW32707   3.947   0.466   3.492
10603SOL    HW132708   3.992   0.516   3.417
10603SOL    HW232709   3.944   0.369   3.469
10604SOL     OW32710   6.628   6.089   5.508
10604SOL    HW132711   6.710   6.092   5.565
10604SOL    HW232712   6.598   6.183   5.490
10605SOL     OW32713   2.301   6.620   6.886
10605SOL    HW132714   2.313   6.630   6.788
10605SOL    HW232715   2.387   6.588   6.927
10606SOL     OW32716   0.201   0.482   1.493
10606SOL    HW132717   0.175   0.470   1.588
10606SOL    HW232718   0.230   0.395   1.454
10607SOL     OW32719   3.872   5.865   5.974
10607SOL    HW132720   3.968   5.845   5.955
10607SOL    HW232721   3.863   5.902   6.066
10608SOL     OW32722   6.785   3.335   4.391
10608SOL    HW132723   6.692   3.370   4.396
10608SOL    HW232724   6.847   3.400   4.434
10609SOL     OW32725   2.847   6.449   6.959
10609SOL    HW132726   2.904   6.527   6.931
10609SOL    HW232727   2.886   6.365   6.923
10610SOL     OW32728   0.536   2.520   3.653
10610SOL    HW132729   0.441   2.488   3.650
10610SOL    HW232730   0.597   2.445   3.627
10611SOL     OW32731   2.577   4.297   6.801
10611SOL    HW132732   2.657   4.237   6.805
10611SOL    HW232733   2.494   4.242   6.812
10612SOL     OW32734   3.391   2.036   4.741
10612SOL    HW132735   3.451   1.957   4.735
10612SOL    HW232736   3.360   2.049   4.835
10613SOL     OW32737   5.612   6.138   5.535
10613SOL    HW132738   5.540   6.115   5.470
10613SOL    HW232739   5.680   6.065   5.537
10614SOL     OW32740   4.828   1.818   5.212
10614SOL    HW132741   4.737   1.835   5.249
10614SOL    HW232742   4.846   1.883   5.138
10615SOL     OW32743   4.054   0.403   5.503
10615SOL    HW132744   4.105   0.463   5.564
10615SOL    HW232745   4.107   0.320   5.485
10616SOL     OW32746   1.948   0.180   0.476
10616SOL    HW132747   1.999   0.154   0.394
10616SOL    HW232748   1.947   0.103   0.540
10617SOL     OW32749   3.024   4.189   1.388
10617SOL    HW132750   3.099   4.148   1.335
10617SOL    HW232751   2.969   4.116   1.430
10618SOL     OW32752   1.135   4.117   6.019
10618SOL    HW132753   1.113   4.023   6.046
10618SOL    HW232754   1.087   4.140   5.934
10619SOL     OW32755   0.511   2.952   3.100
10619SOL    HW132756   0.444   2.887   3.136
10619SOL    HW232757   0.468   3.042   3.090
10620SOL     OW32758   1.264   6.485   5.290
10620SOL    HW132759   1.282   6.523   5.381
10620SOL    HW232760   1.334   6.418   5.267
10621SOL     OW32761   0.720   5.013   1.736
10621SOL    HW132762   0.623   4.998   1.713
10621SOL    HW232763   0.774   4.936   1.704
10622SOL     OW32764   5.070   1.733   2.101
10622SOL    HW132765   5.108   1.823   2.080
10622SOL    HW232766   4.970   1.739   2.102
10623SOL     OW32767   0.160   4.841   5.487
10623SOL    HW132768   0.114   4.922   5.450
10623SOL    HW232769   0.236   4.815   5.427
10624SOL     OW32770   1.030   2.289   4.639
10624SOL    HW132771   1.099   2.322   4.703
10624SOL    HW232772   1.045   2.330   4.549
10625SOL     OW32773   0.198   4.801   1.008
10625SOL    HW132774   0.268   4.873   1.018
10625SOL    HW232775   0.166   4.799   0.914
10626SOL     OW32776   2.674   3.044   0.568
10626SOL    HW132777   2.629   3.076   0.651
10626SOL    HW232778   2.625   3.081   0.488
10627SOL     OW32779   5.096   0.444   6.788
10627SOL    HW132780   5.127   0.351   6.771
10627SOL    HW232781   5.159   0.509   6.744
10628SOL     OW32782   5.115   6.198   0.893
10628SOL    HW132783   5.146   6.132   0.962
10628SOL    HW232784   5.192   6.254   0.863
10629SOL     OW32785   2.745   5.348   4.646
10629SOL    HW132786   2.746   5.265   4.590
10629SOL    HW232787   2.799   5.333   4.729
10630SOL     OW32788   6.305   1.182   3.637
10630SOL    HW132789   6.387   1.141   3.597
10630SOL    HW232790   6.248   1.220   3.564
10631SOL     OW32791   3.213   5.124   4.926
10631SOL    HW132792   3.207   5.120   5.026
10631SOL    HW232793   3.309   5.129   4.898
10632SOL     OW32794   5.245   0.104   4.160
10632SOL    HW132795   5.329   0.051   4.147
10632SOL    HW232796   5.204   0.124   4.071
10633SOL     OW32797   2.481   2.836   0.606
10633SOL    HW132798   2.569   2.882   0.591
10633SOL    HW232799   2.406   2.900   0.588
10634SOL     OW32800   3.128   4.172   0.606
10634SOL    HW132801   3.177   4.151   0.691
10634SOL    HW232802   3.102   4.086   0.561
10635SOL     OW32803   1.957   3.773   6.841
10635SOL    HW132804   1.914   3.850   6.887
10635SOL    HW232805   1.982   3.703   6.908
10636SOL     OW32806   0.368   1.989   1.118
10636SOL    HW132807   0.430   1.919   1.152
10636SOL    HW232808   0.274   1.968   1.147
10637SOL     OW32809   1.572   4.576   5.931
10637SOL    HW132810   1.546   4.672   5.944
10637SOL    HW232811   1.589   4.534   6.020
10638SOL     OW32812   5.582   5.415   2.577
10638SOL    HW132813   5.485   5.439   2.583
10638SOL    HW232814   5.595   5.322   2.611
10639SOL     OW32815   0.722   3.947   2.982
10639SOL    HW132816   0.788   3.873   2.971
10639SOL    HW232817   0.727   3.984   3.075
10640SOL     OW32818   4.744   6.791   4.732
10640SOL    HW132819   4.663   6.777   4.789
10640SOL    HW232820   4.716   6.795   4.636
10641SOL     OW32821   1.848   2.253   2.104
10641SOL    HW132822   1.901   2.337   2.088
10641SOL    HW232823   1.758   2.278   2.139
10642SOL     OW32824   6.632   2.470   1.391
10642SOL    HW132825   6.728   2.474   1.365
10642SOL    HW232826   6.604   2.374   1.399
10643SOL     OW32827   1.361   5.656   4.489
10643SOL    HW132828   1.364   5.558   4.468
10643SOL    HW232829   1.267   5.683   4.509
10644SOL     OW32830   6.022   2.733   2.628
10644SOL    HW132831   6.101   2.748   2.570
10644SOL    HW232832   5.951   2.685   2.576
10645SOL     OW32833   1.745   2.720   4.628
10645SOL    HW132834   1.775   2.674   4.712
10645SOL    HW232835   1.776   2.815   4.630
10646SOL     OW32836   0.705   0.412   6.749
10646SOL    HW132837   0.759   0.367   6.678
10646SOL    HW232838   0.685   0.347   6.822
10647SOL     OW32839   2.987   5.506   4.928
10647SOL    HW132840   2.893   5.520   4.958
10647SOL    HW232841   3.026   5.594   4.901
10648SOL     OW32842   5.948   3.919   6.468
10648SOL    HW132843   5.885   3.944   6.542
10648SOL    HW232844   5.996   3.835   6.492
10649SOL     OW32845   6.966   4.362   2.293
10649SOL    HW132846   6.963   4.363   2.193
10649SOL    HW232847   6.965   4.456   2.327
10650SOL     OW32848   0.857   0.644   3.749
10650SOL    HW132849   0.919   0.584   3.697
10650SOL    HW232850   0.879   0.638   3.846
10651SOL     OW32851   5.414   6.384   0.150
10651SOL    HW132852   5.451   6.298   0.184
10651SOL    HW232853   5.351   6.365   0.074
10652SOL     OW32854   3.607   6.809   5.492
10652SOL    HW132855   3.599   6.730   5.432
10652SOL    HW232856   3.621   6.779   5.586
10653SOL     OW32857   4.063   5.408   3.835
10653SOL    HW132858   4.076   5.333   3.900
10653SOL    HW232859   3.971   5.446   3.846
10654SOL     OW32860   5.560   1.197   0.649
10654SOL    HW132861   5.634   1.257   0.679
10654SOL    HW232862   5.481   1.210   0.709
10655SOL     OW32863   2.210   5.867   0.567
10655SOL    HW132864   2.179   5.849   0.474
10655SOL    HW232865   2.156   5.811   0.631
10656SOL     OW32866   0.181   1.946   2.975
10656SOL    HW132867   0.166   2.013   2.903
10656SOL    HW232868   0.154   1.855   2.943
10657SOL     OW32869   5.739   0.552   5.574
10657SOL    HW132870   5.739   0.459   5.612
10657SOL    HW232871   5.737   0.618   5.649
10658SOL     OW32872   6.443   4.923   5.183
10658SOL    HW132873   6.433   4.902   5.281
10658SOL    HW232874   6.540   4.917   5.158
10659SOL     OW32875   0.608   5.441   1.259
10659SOL    HW132876   0.618   5.377   1.336
10659SOL    HW232877   0.642   5.397   1.176
10660SOL     OW32878   5.051   3.571   6.213
10660SOL    HW132879   5.028   3.652   6.268
10660SOL    HW232880   4.973   3.547   6.155
10661SOL     OW32881   1.254   6.813   1.739
10661SOL    HW132882   1.278   6.909   1.723
10661SOL    HW232883   1.306   6.756   1.675
10662SOL     OW32884   5.776   6.723   2.504
10662SOL    HW132885   5.681   6.754   2.513
10662SOL    HW232886   5.827   6.746   2.587
10663SOL     OW32887   0.711   1.962   2.746
10663SOL    HW132888   0.611   1.959   2.753
10663SOL    HW232889   0.740   2.057   2.732
10664SOL     OW32890   6.569   4.220   4.587
10664SOL    HW132891   6.500   4.158   4.551
10664SOL    HW232892   6.598   4.283   4.515
10665SOL     OW32893   0.875   1.847   0.724
10665SOL    HW132894   0.840   1.841   0.630
10665SOL    HW232895   0.934   1.927   0.731
10666SOL     OW32896   3.523   4.024   1.677
10666SOL    HW132897   3.494   3.931   1.700
10666SOL    HW232898   3.508   4.040   1.579
10667SOL     OW32899   4.611   2.883   5.270
10667SOL    HW132900   4.606   2.784   5.281
10667SOL    HW232901   4.526   2.916   5.227
10668SOL     OW32902   2.457   0.544   5.036
10668SOL    HW132903   2.388   0.591   5.091
10668SOL    HW232904   2.427   0.451   5.016
10669SOL     OW32905   5.828   6.839   1.379
10669SOL    HW132906   5.755   6.904   1.403
10669SOL    HW232907   5.864   6.863   1.289
10670SOL     OW32908   5.290   4.344   5.205
10670SOL    HW132909   5.347   4.421   5.175
10670SOL    HW232910   5.343   4.286   5.267
10671SOL     OW32911   2.609   2.420   3.166
10671SOL    HW132912   2.562   2.332   3.171
10671SOL    HW232913   2.583   2.468   3.082
10672SOL     OW32914   6.603   3.239   0.865
10672SOL    HW132915   6.526   3.208   0.809
10672SOL    HW232916   6.666   3.163   0.881
10673SOL     OW32917   1.143   0.963   6.562
10673SOL    HW132918   1.048   0.933   6.565
10673SOL    HW232919   1.169   1.003   6.650
10674SOL     OW32920   3.684   4.068   2.197
10674SOL    HW132921   3.723   4.008   2.267
10674SOL    HW232922   3.748   4.078   2.121
10675SOL     OW32923   1.931   0.210   6.681
10675SOL    HW132924   2.009   0.239   6.736
10675SOL    HW232925   1.964   0.163   6.599
10676SOL     OW32926   6.318   6.125   6.080
10676SOL    HW132927   6.226   6.147   6.047
10676SOL    HW232928   6.379   6.201   6.062
10677SOL     OW32929   1.355   0.398   2.162
10677SOL    HW132930   1.372   0.300   2.169
10677SOL    HW232931   1.399   0.445   2.239
10678SOL     OW32932   4.284   5.466   4.313
10678SOL    HW132933   4.366   5.522   4.317
10678SOL    HW232934   4.302   5.382   4.261
10679SOL     OW32935   4.707   5.727   6.311
10679SOL    HW132936   4.749   5.642   6.341
10679SOL    HW232937   4.778   5.788   6.275
10680SOL     OW32938   3.270   1.701   3.410
10680SOL    HW132939   3.252   1.753   3.327
10680SOL    HW232940   3.365   1.669   3.410
10681SOL     OW32941   0.719   3.636   0.509
10681SOL    HW132942   0.672   3.684   0.583
10681SOL    HW232943   0.684   3.543   0.500
10682SOL     OW32944   1.032   1.297   5.122
10682SOL    HW132945   1.014   1.250   5.208
10682SOL    HW232946   0.999   1.242   5.046
10683SOL     OW32947   3.791   1.856   3.586
10683SOL    HW132948   3.814   1.953   3.576
10683SOL    HW232949   3.700   1.838   3.550
10684SOL     OW32950   5.472   4.291   1.820
10684SOL    HW132951   5.425   4.368   1.862
10684SOL    HW232952   5.498   4.315   1.726
10685SOL     OW32953   0.614   5.511   2.459
10685SOL    HW132954   0.527   5.497   2.507
10685SOL    HW232955   0.645   5.423   2.422
10686SOL     OW32956   0.874   4.913   6.263
10686SOL    HW132957   0.788   4.927   6.215
10686SOL    HW232958   0.897   4.994   6.317
10687SOL     OW32959   6.465   5.617   1.815
10687SOL    HW132960   6.433   5.693   1.758
10687SOL    HW232961   6.524   5.557   1.762
10688SOL     OW32962   6.530   4.044   2.726
10688SOL    HW132963   6.477   4.083   2.651
10688SOL    HW232964   6.596   3.978   2.689
10689SOL     OW32965   0.428   5.604   3.523
10689SOL    HW132966   0.406   5.700   3.506
10689SOL    HW232967   0.463   5.562   3.439
10690SOL     OW32968   0.173   6.048   3.326
10690SOL    HW132969   0.199   6.085   3.415
10690SOL    HW232970   0.116   6.115   3.278
10691SOL     OW32971   0.449   2.312   2.307
10691SOL    HW132972   0.498   2.299   2.394
10691SOL    HW232973   0.370   2.371   2.323
10692SOL     OW32974   2.893   6.324   3.337
10692SOL    HW132975   2.944   6.386   3.276
10692SOL    HW232976   2.798   6.354   3.344
10693SOL     OW32977   2.306   6.802   0.112
10693SOL    HW132978   2.317   6.890   0.066
10693SOL    HW232979   2.213   6.796   0.148
10694SOL     OW32980   5.461   6.285   1.912
10694SOL    HW132981   5.407   6.357   1.958
10694SOL    HW232982   5.438   6.196   1.952
10695SOL     OW32983   5.374   1.938   3.237
10695SOL    HW132984   5.310   2.013   3.217
10695SOL    HW232985   5.327   1.851   3.227
10696SOL     OW32986   0.271   3.430   3.720
10696SOL    HW132987   0.339   3.368   3.759
10696SOL    HW232988   0.264   3.415   3.621
10697SOL     OW32989   0.009   6.321   4.593
10697SOL    HW132990   7.011   6.312   4.496
10697SOL    HW232991   7.007   6.239   4.642
10698SOL     OW32992   4.661   5.511   5.454
10698SOL    HW132993   4.579   5.564   5.434
10698SOL    HW232994   4.729   5.569   5.499
10699SOL     OW32995   4.113   3.280   2.058
10699SOL    HW132996   4.028   3.239   2.091
10699SOL    HW232997   4.098   3.378   2.041
10700SOL     OW32998   7.021   6.847   1.836
10700SOL    HW132999   6.979   6.872   1.924
10700SOL    HW233000   0.062   6.916   1.811
10701SOL     OW33001   3.531   6.425   0.323
10701SOL    HW133002   3.456   6.365   0.350
10701SOL    HW233003   3.514   6.460   0.231
10702SOL     OW33004   6.055   3.034   2.302
10702SOL    HW133005   5.990   2.985   2.361
10702SOL    HW233006   6.059   3.130   2.331
10703SOL     OW33007   3.113   4.125   5.090
10703SOL    HW133008   3.093   4.091   4.998
10703SOL    HW233009   3.118   4.225   5.088
10704SOL     OW33010   6.363   5.343   1.756
10704SOL    HW133011   6.375   5.428   1.808
10704SOL    HW233012   6.408   5.353   1.667
10705SOL     OW33013   6.362   4.820   1.709
10705SOL    HW133014   6.393   4.783   1.621
10705SOL    HW233015   6.439   4.864   1.755
10706SOL     OW33016   5.140   0.001   2.212
10706SOL    HW133017   5.170   0.056   2.134
10706SOL    HW233018   5.105   6.939   2.180
10707SOL     OW33019   0.213   6.407   3.843
10707SOL    HW133020   0.230   6.337   3.911
10707SOL    HW233021   0.114   6.417   3.829
10708SOL     OW33022   4.160   0.915   2.297
10708SOL    HW133023   4.160   1.002   2.248
10708SOL    HW233024   4.252   0.877   2.299
10709SOL     OW33025   6.241   6.673   4.939
10709SOL    HW133026   6.217   6.705   4.847
10709SOL    HW233027   6.338   6.688   4.955
10710SOL     OW33028   0.410   6.719   4.900
10710SOL    HW133029   0.363   6.712   4.988
10710SOL    HW233030   0.495   6.667   4.903
10711SOL     OW33031   1.831   6.403   3.837
10711SOL    HW133032   1.769   6.383   3.761
10711SOL    HW233033   1.778   6.427   3.919
10712SOL     OW33034   2.689   1.423   1.486
10712SOL    HW133035   2.664   1.341   1.434
10712SOL    HW233036   2.607   1.463   1.527
10713SOL     OW33037   1.287   4.109   1.483
10713SOL    HW133038   1.246   4.019   1.465
10713SOL    HW233039   1.283   4.128   1.581
10714SOL     OW33040   6.105   3.707   4.590
10714SOL    HW133041   6.075   3.735   4.498
10714SOL    HW233042   6.199   3.739   4.605
10715SOL     OW33043   5.175   6.577   2.776
10715SOL    HW133044   5.151   6.673   2.760
10715SOL    HW233045   5.274   6.567   2.771
10716SOL     OW33046   5.828   1.967   4.518
10716SOL    HW133047   5.833   2.032   4.442
10716SOL    HW233048   5.769   1.891   4.493
10717SOL     OW33049   1.204   2.690   1.012
10717SOL    HW133050   1.105   2.687   1.024
10717SOL    HW233051   1.240   2.773   1.056
10718SOL     OW33052   1.603   2.921   6.687
10718SOL    HW133053   1.568   3.014   6.676
10718SOL    HW233054   1.700   2.919   6.662
10719SOL     OW33055   5.344   5.965   0.676
10719SOL    HW133056   5.282   6.044   0.676
10719SOL    HW233057   5.312   5.898   0.608
10720SOL     OW33058   6.661   3.424   4.856
10720SOL    HW133059   6.733   3.484   4.891
10720SOL    HW233060   6.703   3.347   4.809
10721SOL     OW33061   6.093   4.096   5.120
10721SOL    HW133062   6.042   4.097   5.206
10721SOL    HW233063   6.190   4.083   5.140
10722SOL     OW33064   0.332   3.592   0.901
10722SOL    HW133065   0.404   3.655   0.927
10722SOL    HW233066   0.268   3.580   0.978
10723SOL     OW33067   0.756   3.774   6.193
10723SOL    HW133068   0.761   3.682   6.153
10723SOL    HW233069   0.663   3.791   6.226
10724SOL     OW33070   4.708   0.985   6.950
10724SOL    HW133071   4.784   1.005   7.012
10724SOL    HW233072   4.651   0.913   6.989
10725SOL     OW33073   0.202   4.497   4.676
10725SOL    HW133074   0.103   4.501   4.664
10725SOL    HW233075   0.241   4.588   4.663
10726SOL     OW33076   5.359   6.965   5.784
10726SOL    HW133077   5.281   7.013   5.825
10726SOL    HW233078   5.436   6.967   5.848
10727SOL     OW33079   0.440   5.600   4.257
10727SOL    HW133080   0.501   5.642   4.324
10727SOL    HW233081   0.486   5.596   4.168
10728SOL     OW33082   6.278   6.330   1.244
10728SOL    HW133083   6.297   6.425   1.269
10728SOL    HW233084   6.364   6.280   1.234
10729SOL     OW33085   5.268   0.927   2.481
10729SOL    HW133086   5.282   1.016   2.436
10729SOL    HW233087   5.239   0.860   2.413
10730SOL     OW33088   2.158   0.323   2.192
10730SOL    HW133089   2.180   0.393   2.123
10730SOL    HW233090   2.226   0.326   2.265
10731SOL     OW33091   3.043   5.869   0.626
10731SOL    HW133092   2.978   5.805   0.667
10731SOL    HW233093   3.046   5.853   0.527
10732SOL     OW33094   4.917   5.118   2.203
10732SOL    HW133095   4.846   5.178   2.238
10732SOL    HW233096   4.989   5.108   2.272
10733SOL     OW33097   5.036   2.020   0.102
10733SOL    HW133098   5.034   2.105   0.155
10733SOL    HW233099   4.967   2.025   0.030
10734SOL     OW33100   1.265   0.232   0.238
10734SOL    HW133101   1.297   0.323   0.264
10734SOL    HW233102   1.175   0.240   0.195
10735SOL     OW33103   1.742   4.405   2.842
10735SOL    HW133104   1.710   4.351   2.764
10735SOL    HW233105   1.663   4.446   2.888
10736SOL     OW33106   0.214   0.603   3.464
10736SOL    HW133107   0.285   0.534   3.459
10736SOL    HW233108   0.205   0.649   3.376
10737SOL     OW33109   1.358   1.891   0.401
10737SOL    HW133110   1.323   1.894   0.307
10737SOL    HW233111   1.327   1.973   0.450
10738SOL     OW33112   2.623   0.723   3.379
10738SOL    HW133113   2.573   0.765   3.304
10738SOL    HW233114   2.571   0.645   3.415
10739SOL     OW33115   6.975   1.145   1.221
10739SOL    HW133116   6.947   1.061   1.269
10739SOL    HW233117   6.935   1.224   1.267
10740SOL     OW33118   0.730   4.802   5.700
10740SOL    HW133119   0.793   4.793   5.777
10740SOL    HW233120   0.770   4.760   5.619
10741SOL     OW33121   0.815   0.540   3.020
10741SOL    HW133122   0.907   0.537   3.057
10741SOL    HW233123   0.813   0.595   2.937
10742SOL     OW33124   5.772   0.258   1.461
10742SOL    HW133125   5.779   0.192   1.536
10742SOL    HW233126   5.769   0.208   1.374
10743SOL     OW33127   2.312   1.613   4.797
10743SOL    HW133128   2.352   1.556   4.726
10743SOL    HW233129   2.271   1.555   4.868
10744SOL     OW33130   2.556   1.469   2.094
10744SOL    HW133131   2.497   1.501   2.168
10744SOL    HW233132   2.645   1.514   2.100
10745SOL     OW33133   0.900   4.768   0.714
10745SOL    HW133134   0.860   4.677   0.706
10745SOL    HW233135   0.940   4.794   0.626
10746SOL     OW33136   1.947   3.953   1.687
10746SOL    HW133137   1.882   3.891   1.730
10746SOL    HW233138   2.021   3.901   1.644
10747SOL     OW33139   4.337   0.438   2.995
10747SOL    HW133140   4.349   0.388   2.909
10747SOL    HW233141   4.413   0.416   3.057
10748SOL     OW33142   3.490   0.690   1.472
10748SOL    HW133143   3.458   0.758   1.406
10748SOL    HW233144   3.429   0.689   1.551
10749SOL     OW33145   7.014   4.769   3.826
10749SOL    HW133146   0.023   4.767   3.919
10749SOL    HW233147   6.994   4.676   3.795
10750SOL     OW33148   3.657   5.903   4.416
10750SOL    HW133149   3.675   5.945   4.505
10750SOL    HW233150   3.612   5.970   4.357
10751SOL     OW33151   1.223   4.286   4.414
10751SOL    HW133152   1.202   4.236   4.497
10751SOL    HW233153   1.211   4.227   4.334
10752SOL     OW33154   6.601   3.618   5.972
10752SOL    HW133155   6.641   3.678   6.042
10752SOL    HW233156   6.600   3.524   6.005
10753SOL     OW33157   4.501   0.165   4.467
10753SOL    HW133158   4.480   0.256   4.432
10753SOL    HW233159   4.425   0.133   4.523
10754SOL     OW33160   1.099   1.544   3.424
10754SOL    HW133161   1.052   1.561   3.511
10754SOL    HW233162   1.198   1.537   3.440
10755SOL     OW33163   0.084   2.211   0.149
10755SOL    HW133164   7.025   2.196   0.199
10755SOL    HW233165   0.162   2.193   0.210
10756SOL     OW33166   6.243   4.434   0.103
10756SOL    HW133167   6.275   4.517   0.057
10756SOL    HW233168   6.167   4.457   0.164
10757SOL     OW33169   1.035   3.005   7.021
10757SOL    HW133170   0.994   3.092   6.992
10757SOL    HW233171   1.129   3.022   0.025
10758SOL     OW33172   1.033   6.784   5.561
10758SOL    HW133173   1.128   6.754   5.556
10758SOL    HW233174   0.982   6.746   5.483
10759SOL     OW33175   1.978   3.183   6.827
10759SOL    HW133176   1.926   3.233   6.896
10759SOL    HW233177   2.048   3.243   6.788
10760SOL     OW33178   6.383   1.110   0.458
10760SOL    HW133179   6.357   1.027   0.507
10760SOL    HW233180   6.357   1.101   0.362
10761SOL     OW33181   1.461   1.995   6.225
10761SOL    HW133182   1.399   1.922   6.253
10761SOL    HW233183   1.484   2.052   6.304
10762SOL     OW33184   3.824   1.599   5.047
10762SOL    HW133185   3.912   1.594   4.999
10762SOL    HW233186   3.808   1.692   5.079
10763SOL     OW33187   4.703   6.566   1.387
10763SOL    HW133188   4.802   6.564   1.399
10763SOL    HW233189   4.660   6.517   1.463
10764SOL     OW33190   5.837   1.803   5.492
10764SOL    HW133191   5.850   1.792   5.394
10764SOL    HW233192   5.883   1.886   5.523
10765SOL     OW33193   5.877   2.677   1.029
10765SOL    HW133194   5.911   2.609   0.965
10765SOL    HW233195   5.938   2.755   1.031
10766SOL     OW33196   3.556   2.991   1.266
10766SOL    HW133197   3.597   3.075   1.232
10766SOL    HW233198   3.617   2.950   1.334
10767SOL     OW33199   1.457   0.565   0.005
10767SOL    HW133200   1.371   0.579   0.055
10767SOL    HW233201   1.516   0.644   0.018
10768SOL     OW33202   4.147   5.301   1.003
10768SOL    HW133203   4.073   5.277   0.940
10768SOL    HW233204   4.179   5.394   0.984
10769SOL     OW33205   2.114   5.049   5.002
10769SOL    HW133206   2.201   5.076   5.041
10769SOL    HW233207   2.053   5.128   4.996
10770SOL     OW33208   5.615   0.214   4.850
10770SOL    HW133209   5.580   0.122   4.834
10770SOL    HW233210   5.597   0.241   4.944
10771SOL     OW33211   5.543   1.102   4.877
10771SOL    HW133212   5.463   1.154   4.847
10771SOL    HW233213   5.625   1.143   4.837
10772SOL     OW33214   6.787   6.438   4.735
10772SOL    HW133215   6.855   6.404   4.670
10772SOL    HW233216   6.821   6.424   4.828
10773SOL     OW33217   6.648   5.462   6.858
10773SOL    HW133218   6.703   5.435   6.938
10773SOL    HW233219   6.631   5.560   6.861
10774SOL     OW33220   1.809   1.872   6.891
10774SOL    HW133221   1.762   1.852   6.805
10774SOL    HW233222   1.844   1.966   6.889
10775SOL     OW33223   0.550   2.752   0.481
10775SOL    HW133224   0.520   2.704   0.564
10775SOL    HW233225   0.589   2.685   0.418
10776SOL     OW33226   1.413   6.400   6.855
10776SOL    HW133227   1.487   6.439   6.800
10776SOL    HW233228   1.334   6.462   6.852
10777SOL     OW33229   4.159   6.008   4.443
10777SOL    HW133230   4.126   6.033   4.534
10777SOL    HW233231   4.110   5.928   4.410
10778SOL     OW33232   5.882   6.351   5.295
10778SOL    HW133233   5.935   6.321   5.215
10778SOL    HW233234   5.788   6.369   5.267
10779SOL     OW33235   6.092   5.034   3.333
10779SOL    HW133236   6.131   5.047   3.424
10779SOL    HW233237   6.140   4.959   3.287
10780SOL     OW33238   1.652   0.066   3.886
10780SOL    HW133239   1.608   0.052   3.974
10780SOL    HW233240   1.697   0.155   3.885
10781SOL     OW33241   4.006   1.351   3.010
10781SOL    HW133242   4.043   1.441   3.032
10781SOL    HW233243   3.914   1.342   3.049
10782SOL     OW33244   0.216   1.577   3.705
10782SOL    HW133245   0.130   1.601   3.661
10782SOL    HW233246   0.217   1.612   3.799
10783SOL     OW33247   1.025   3.507   3.297
10783SOL    HW133248   1.020   3.487   3.395
10783SOL    HW233249   0.957   3.453   3.249
10784SOL     OW33250   3.334   0.580   3.665
10784SOL    HW133251   3.269   0.524   3.613
10784SOL    HW233252   3.334   0.673   3.630
10785SOL     OW33253   0.200   5.081   1.230
10785SOL    HW133254   0.253   5.007   1.271
10785SOL    HW233255   0.247   5.116   1.149
10786SOL     OW33256   4.962   4.910   1.945
10786SOL    HW133257   4.892   4.858   1.896
10786SOL    HW233258   4.918   4.976   2.006
10787SOL     OW33259   2.932   1.389   4.572
10787SOL    HW133260   2.974   1.422   4.487
10787SOL    HW233261   2.927   1.463   4.638
10788SOL     OW33262   2.206   4.888   6.472
10788SOL    HW133263   2.218   4.972   6.525
10788SOL    HW233264   2.282   4.826   6.491
10789SOL     OW33265   5.972   2.720   0.255
10789SOL    HW133266   5.980   2.819   0.257
10789SOL    HW233267   5.974   2.687   0.161
10790SOL     OW33268   1.010   0.718   2.161
10790SOL    HW133269   1.031   0.621   2.175
10790SOL    HW233270   0.958   0.752   2.240
10791SOL     OW33271   6.929   0.248   0.960
10791SOL    HW133272   6.886   0.309   0.894
10791SOL    HW233273   7.026   0.269   0.968
10792SOL     OW33274   3.848   3.902   2.353
10792SOL    HW133275   3.862   3.918   2.450
10792SOL    HW233276   3.935   3.881   2.309
10793SOL     OW33277   5.260   2.426   4.281
10793SOL    HW133278   5.211   2.391   4.201
10793SOL    HW233279   5.207   2.501   4.322
10794SOL     OW33280   2.931   3.561   3.899
10794SOL    HW133281   3.029   3.540   3.905
10794SOL    HW233282   2.915   3.622   3.822
10795SOL     OW33283   6.904   3.837   3.105
10795SOL    HW133284   6.966   3.772   3.060
10795SOL    HW233285   6.884   3.913   3.044
10796SOL     OW33286   5.531   6.717   0.701
10796SOL    HW133287   5.624   6.737   0.672
10796SOL    HW233288   5.466   6.774   0.651
10797SOL     OW33289   3.780   1.783   1.376
10797SOL    HW133290   3.704   1.815   1.320
10797SOL    HW233291   3.857   1.758   1.318
10798SOL     OW33292   2.662   6.195   1.006
10798SOL    HW133293   2.728   6.149   0.946
10798SOL    HW233294   2.694   6.287   1.025
10799SOL     OW33295   3.595   0.818   1.927
10799SOL    HW133296   3.672   0.842   1.986
10799SOL    HW233297   3.605   0.723   1.896
10800SOL     OW33298   0.279   0.272   0.279
10800SOL    HW133299   0.249   0.177   0.287
10800SOL    HW233300   0.259   0.320   0.364
10801SOL     OW33301   1.182   6.912   5.811
10801SOL    HW133302   1.193   7.008   5.787
10801SOL    HW233303   1.106   6.873   5.760
10802SOL     OW33304   1.146   2.703   3.108
10802SOL    HW133305   1.054   2.665   3.117
10802SOL    HW233306   1.143   2.802   3.119
10803SOL     OW33307   3.676   3.959   5.873
10803SOL    HW133308   3.690   4.047   5.827
10803SOL    HW233309   3.749   3.945   5.940
10804SOL     OW33310   5.818   3.331   1.697
10804SOL    HW133311   5.905   3.298   1.734
10804SOL    HW233312   5.744   3.308   1.760
10805SOL     OW33313   3.941   6.951   6.882
10805SOL    HW133314   3.974   6.929   6.790
10805SOL    HW233315   3.841   6.953   6.881
10806SOL     OW33316   4.746   4.023   5.989
10806SOL    HW133317   4.799   3.998   5.908
10806SOL    HW233318   4.758   3.952   6.059
10807SOL     OW33319   1.403   6.577   3.043
10807SOL    HW133320   1.305   6.577   3.025
10807SOL    HW233321   1.452   6.615   2.965
10808SOL     OW33322   6.557   3.361   6.313
10808SOL    HW133323   6.466   3.403   6.308
10808SOL    HW233324   6.594   3.374   6.405
10809SOL     OW33325   3.051   6.062   3.808
10809SOL    HW133326   3.068   6.003   3.887
10809SOL    HW233327   3.138   6.100   3.777
10810SOL     OW33328   2.183   0.545   4.855
10810SOL    HW133329   2.223   0.470   4.908
10810SOL    HW233330   2.104   0.511   4.804
10811SOL     OW33331   4.143   4.710   5.639
10811SOL    HW133332   4.064   4.659   5.605
10811SOL    HW233333   4.120   4.757   5.724
10812SOL     OW33334   1.150   3.445   1.661
10812SOL    HW133335   1.144   3.364   1.720
10812SOL    HW233336   1.238   3.491   1.676
10813SOL     OW33337   2.149   5.255   6.939
10813SOL    HW133338   2.086   5.333   6.932
10813SOL    HW233339   2.100   5.171   6.915
10814SOL     OW33340   1.499   6.565   6.481
10814SOL    HW133341   1.547   6.629   6.422
10814SOL    HW233342   1.495   6.601   6.574
10815SOL     OW33343   4.664   4.261   3.728
10815SOL    HW133344   4.681   4.165   3.754
10815SOL    HW233345   4.701   4.321   3.798
10816SOL     OW33346   1.853   2.438   1.362
10816SOL    HW133347   1.893   2.446   1.453
10816SOL    HW233348   1.909   2.488   1.296
10817SOL     OW33349   5.238   6.869   3.124
10817SOL    HW133350   5.238   6.792   3.059
10817SOL    HW233351   5.313   6.857   3.189
10818SOL     OW33352   4.492   4.465   5.436
10818SOL    HW133353   4.519   4.371   5.417
10818SOL    HW233354   4.440   4.469   5.522
10819SOL     OW33355   6.667   4.426   6.842
10819SOL    HW133356   6.627   4.381   6.922
10819SOL    HW233357   6.751   4.473   6.869
10820SOL     OW33358   5.990   5.885   3.904
10820SOL    HW133359   5.945   5.971   3.927
10820SOL    HW233360   6.003   5.879   3.805
10821SOL     OW33361   5.685   6.677   2.030
10821SOL    HW133362   5.652   6.638   1.944
10821SOL    HW233363   5.625   6.648   2.105
10822SOL     OW33364   1.049   2.966   3.077
10822SOL    HW133365   0.955   2.943   3.101
10822SOL    HW233366   1.050   3.018   2.992
10823SOL     OW33367   1.721   5.583   1.066
10823SOL    HW133368   1.673   5.571   1.153
10823SOL    HW233369   1.774   5.501   1.046
10824SOL     OW33370   6.058   0.920   3.449
10824SOL    HW133371   6.129   0.885   3.510
10824SOL    HW233372   5.987   0.966   3.503
10825SOL     OW33373   2.995   0.387   6.101
10825SOL    HW133374   3.026   0.421   6.012
10825SOL    HW233375   2.961   0.464   6.156
10826SOL     OW33376   0.671   3.306   3.534
10826SOL    HW133377   0.694   3.260   3.620
10826SOL    HW233378   0.670   3.405   3.550
10827SOL     OW33379   6.354   4.128   4.467
10827SOL    HW133380   6.268   4.129   4.517
10827SOL    HW233381   6.337   4.102   4.371
10828SOL     OW33382   0.906   5.210   1.854
10828SOL    HW133383   0.990   5.155   1.853
10828SOL    HW233384   0.836   5.164   1.799
10829SOL     OW33385   3.464   2.175   1.029
10829SOL    HW133386   3.449   2.100   0.965
10829SOL    HW233387   3.479   2.260   0.978
10830SOL     OW33388   5.385   1.624   3.717
10830SOL    HW133389   5.305   1.646   3.773
10830SOL    HW233390   5.367   1.541   3.663
10831SOL     OW33391   3.886   6.284   2.183
10831SOL    HW133392   3.948   6.321   2.114
10831SOL    HW233393   3.889   6.184   2.181
10832SOL     OW33394   1.288   2.713   0.237
10832SOL    HW133395   1.350   2.792   0.246
10832SOL    HW233396   1.211   2.724   0.300
10833SOL     OW33397   1.442   1.380   2.104
10833SOL    HW133398   1.514   1.400   2.036
10833SOL    HW233399   1.382   1.308   2.069
10834SOL     OW33400   1.244   2.339   6.304
10834SOL    HW133401   1.307   2.391   6.361
10834SOL    HW233402   1.204   2.264   6.358
10835SOL     OW33403   6.471   2.113   0.194
10835SOL    HW133404   6.565   2.130   0.165
10835SOL    HW233405   6.443   2.022   0.164
10836SOL     OW33406   6.973   1.971   4.325
10836SOL    HW133407   7.001   2.021   4.406
10836SOL    HW233408   6.884   2.003   4.294
10837SOL     OW33409   6.894   4.936   0.111
10837SOL    HW133410   6.886   5.031   0.081
10837SOL    HW233411   6.820   4.882   0.071
10838SOL     OW33412   5.931   6.434   4.898
10838SOL    HW133413   5.991   6.386   4.962
10838SOL    HW233414   5.869   6.368   4.856
10839SOL     OW33415   3.784   2.856   1.042
10839SOL    HW133416   3.843   2.813   0.973
10839SOL    HW233417   3.691   2.817   1.034
10840SOL     OW33418   3.715   5.447   2.085
10840SOL    HW133419   3.691   5.372   2.024
10840SOL    HW233420   3.679   5.533   2.048
10841SOL     OW33421   4.690   5.388   0.309
10841SOL    HW133422   4.788   5.399   0.294
10841SOL    HW233423   4.667   5.291   0.304
10842SOL     OW33424   5.107   2.424   1.346
10842SOL    HW133425   5.145   2.410   1.437
10842SOL    HW233426   5.019   2.377   1.339
10843SOL     OW33427   1.122   2.427   1.139
10843SOL    HW133428   1.179   2.505   1.112
10843SOL    HW233429   1.026   2.454   1.134
10844SOL     OW33430   0.489   6.754   4.083
10844SOL    HW133431   0.522   6.733   3.991
10844SOL    HW233432   0.563   6.793   4.137
10845SOL     OW33433   3.289   0.350   5.703
10845SOL    HW133434   3.277   0.438   5.658
10845SOL    HW233435   3.372   0.352   5.759
10846SOL     OW33436   4.929   2.567   1.126
10846SOL    HW133437   4.980   2.564   1.041
10846SOL    HW233438   4.955   2.489   1.183
10847SOL     OW33439   3.925   3.503   6.594
10847SOL    HW133440   3.829   3.519   6.615
10847SOL    HW233441   3.977   3.586   6.611
10848SOL     OW33442   3.126   2.564   6.623
10848SOL    HW133443   3.164   2.644   6.576
10848SOL    HW233444   3.197   2.496   6.636
10849SOL     OW33445   2.784   5.695   3.222
10849SOL    HW133446   2.801   5.626   3.152
10849SOL    HW233447   2.697   5.740   3.205
10850SOL     OW33448   3.684   5.687   6.977
10850SOL    HW133449   3.713   5.644   6.892
10850SOL    HW233450   3.710   5.784   6.976
10851SOL     OW33451   2.624   2.817   6.406
10851SOL    HW133452   2.560   2.874   6.457
10851SOL    HW233453   2.573   2.750   6.352
10852SOL     OW33454   1.016   7.010   6.861
10852SOL    HW133455   1.077   0.044   6.911
10852SOL    HW233456   0.943   6.979   6.922
10853SOL     OW33457   3.228   2.475   5.734
10853SOL    HW133458   3.225   2.498   5.831
10853SOL    HW233459   3.306   2.521   5.691
10854SOL     OW33460   4.973   6.850   5.083
10854SOL    HW133461   5.045   6.908   5.121
10854SOL    HW233462   4.911   6.906   5.027
10855SOL     OW33463   2.788   6.416   1.627
10855SOL    HW133464   2.689   6.423   1.639
10855SOL    HW233465   2.807   6.378   1.536
10856SOL     OW33466   5.820   1.996   2.037
10856SOL    HW133467   5.850   2.086   2.006
10856SOL    HW233468   5.853   1.927   1.972
10857SOL     OW33469   5.776   2.331   3.139
10857SOL    HW133470   5.763   2.400   3.210
10857SOL    HW233471   5.815   2.374   3.058
10858SOL     OW33472   0.760   2.315   6.581
10858SOL    HW133473   0.830   2.381   6.610
10858SOL    HW233474   0.702   2.292   6.660
10859SOL     OW33475   2.113   3.343   4.100
10859SOL    HW133476   2.174   3.267   4.121
10859SOL    HW233477   2.101   3.400   4.181
10860SOL     OW33478   6.546   1.415   6.047
10860SOL    HW133479   6.579   1.498   6.090
10860SOL    HW233480   6.563   1.419   5.949
10861SOL     OW33481   3.731   3.299   3.239
10861SOL    HW133482   3.830   3.307   3.246
10861SOL    HW233483   3.706   3.202   3.237
10862SOL     OW33484   2.708   1.626   6.472
10862SOL    HW133485   2.800   1.588   6.476
10862SOL    HW233486   2.693   1.669   6.383
10863SOL     OW33487   4.005   0.357   3.018
10863SOL    HW133488   4.051   0.303   2.947
10863SOL    HW233489   4.027   0.453   3.005
10864SOL     OW33490   3.802   5.436   0.582
10864SOL    HW133491   3.901   5.423   0.593
10864SOL    HW233492   3.754   5.385   0.653
10865SOL     OW33493   6.048   1.335   2.937
10865SOL    HW133494   5.951   1.348   2.960
10865SOL    HW233495   6.056   1.297   2.845
10866SOL     OW33496   4.490   4.520   0.426
10866SOL    HW133497   4.398   4.511   0.389
10866SOL    HW233498   4.489   4.499   0.524
10867SOL     OW33499   2.993   3.999   0.348
10867SOL    HW133500   3.075   3.955   0.385
10867SOL    HW233501   3.009   4.026   0.253
10868SOL     OW33502   2.478   2.312   3.650
10868SOL    HW133503   2.391   2.262   3.650
10868SOL    HW233504   2.467   2.397   3.598
10869NA      NA33505   0.593   2.493   6.021
10870NA      NA33506   4.390   4.603   5.266
10871NA      NA33507   2.121   4.291   2.428
10872NA      NA33508   5.102   4.333   3.834
10873NA      NA33509   4.286   2.311   5.212
10874NA      NA33510   3.185   4.574   1.574
10875NA      NA33511   0.055   4.513   0.190
10876NA      NA33512   3.267   3.431   2.972
10877NA      NA33513   4.878   5.123   1.253
10878NA      NA33514   3.493   7.004   5.412
10879NA      NA33515   6.054   5.623   1.204
10880NA      NA33516   2.134   0.763   4.950
10881NA      NA33517   4.035   5.011   1.805
10882NA      NA33518   4.010   3.132   1.697
   7.02659   7.02659   7.02659
