Generated by trjconv : CNT in water t= 537.00000
33518
    1C        C    1   2.840   2.766   4.748
    1C        C    2   2.895   2.713   4.867
    1C        C    3   2.847   2.774   4.984
    1C        C    4   2.846   2.772   4.261
    1C        C    5   2.897   2.722   4.382
    1C        C    6   2.845   2.770   4.504
    1C        C    7   3.012   2.641   4.624
    1C        C    8   2.895   2.720   4.626
    1C        C    9   3.076   2.608   4.745
    1C        C   10   3.008   2.630   4.867
    1C        C   11   3.184   2.492   4.974
    1C        C   12   3.064   2.566   4.978
    1C        C   13   2.846   2.768   3.774
    1C        C   14   2.900   2.721   3.896
    1C        C   15   2.845   2.771   4.016
    1C        C   16   3.017   2.647   4.139
    1C        C   17   2.900   2.727   4.138
    1C        C   18   3.078   2.610   4.261
    1C        C   19   3.016   2.645   4.383
    1C        C   20   3.210   2.556   4.505
    1C        C   21   3.079   2.609   4.504
    1C        C   22   3.279   2.532   4.626
    1C        C   23   3.207   2.552   4.746
    1C        C   24   3.415   2.487   4.863
    1C        C   25   3.273   2.509   4.864
    1C        C   26   3.489   2.490   4.982
    1C        C   27   2.845   2.765   3.285
    1C        C   28   2.904   2.726   3.407
    1C        C   29   2.849   2.768   3.530
    1C        C   30   3.016   2.639   3.652
    1C        C   31   2.901   2.720   3.653
    1C        C   32   3.078   2.604   3.774
    1C        C   33   3.012   2.635   3.896
    1C        C   34   3.209   2.556   4.017
    1C        C   35   3.076   2.605   4.018
    1C        C   36   3.277   2.540   4.140
    1C        C   37   3.209   2.557   4.262
    1C        C   38   3.417   2.509   4.379
    1C        C   39   3.278   2.535   4.383
    1C        C   40   3.489   2.502   4.500
    1C        C   41   3.417   2.506   4.621
    1C        C   42   3.631   2.485   4.743
    1C        C   43   3.489   2.490   4.742
    1C        C   44   3.706   2.487   4.863
    1C        C   45   3.628   2.476   4.978
    1C        C   46   2.836   2.751   2.793
    1C        C   47   2.894   2.713   2.916
    1C        C   48   2.843   2.761   3.039
    1C        C   49   3.017   2.644   3.163
    1C        C   50   2.897   2.718   3.162
    1C        C   51   3.077   2.606   3.285
    1C        C   52   3.019   2.643   3.408
    1C        C   53   3.207   2.545   3.528
    1C        C   54   3.078   2.602   3.530
    1C        C   55   3.276   2.528   3.650
    1C        C   56   3.209   2.552   3.772
    1C        C   57   3.414   2.505   3.892
    1C        C   58   3.276   2.533   3.895
    1C        C   59   3.486   2.509   4.014
    1C        C   60   3.416   2.515   4.136
    1C        C   61   3.630   2.501   4.257
    1C        C   62   3.488   2.501   4.257
    1C        C   63   3.702   2.509   4.378
    1C        C   64   3.631   2.502   4.500
    1C        C   65   3.839   2.534   4.620
    1C        C   66   3.702   2.499   4.622
    1C        C   67   3.906   2.560   4.742
    1C        C   68   3.842   2.525   4.862
    1C        C   69   4.057   2.583   4.978
    1C        C   70   3.926   2.533   4.974
    1C        C   71   2.828   2.737   2.309
    1C        C   72   2.882   2.690   2.431
    1C        C   73   2.828   2.741   2.551
    1C        C   74   3.007   2.624   2.675
    1C        C   75   2.887   2.698   2.672
    1C        C   76   3.070   2.591   2.797
    1C        C   77   3.010   2.633   2.918
    1C        C   78   3.203   2.545   3.038
    1C        C   79   3.074   2.603   3.040
    1C        C   80   3.273   2.528   3.160
    1C        C   81   3.208   2.551   3.282
    1C        C   82   3.413   2.501   3.402
    1C        C   83   3.273   2.524   3.405
    1C        C   84   3.483   2.497   3.524
    1C        C   85   3.416   2.510   3.647
    1C        C   86   3.627   2.506   3.768
    1C        C   87   3.486   2.502   3.770
    1C        C   88   3.696   2.513   3.891
    1C        C   89   3.627   2.507   4.014
    1C        C   90   3.837   2.545   4.135
    1C        C   91   3.699   2.515   4.135
    1C        C   92   3.907   2.568   4.256
    1C        C   93   3.839   2.542   4.377
    1C        C   94   4.032   2.628   4.500
    1C        C   95   3.907   2.561   4.499
    1C        C   96   4.094   2.668   4.620
    1C        C   97   4.033   2.624   4.740
    1C        C   98   4.187   2.766   4.862
    1C        C   99   4.104   2.650   4.861
    1C        C  100   4.210   2.841   4.979
    1C        C  101   2.823   2.728   2.069
    1C        C  102   2.989   2.590   2.191
    1C        C  103   2.877   2.679   2.189
    1C        C  104   3.065   2.575   2.311
    1C        C  105   3.003   2.617   2.431
    1C        C  106   3.201   2.538   2.551
    1C        C  107   3.070   2.591   2.552
    1C        C  108   3.270   2.520   2.672
    1C        C  109   3.201   2.539   2.794
    1C        C  110   3.409   2.497   2.916
    1C        C  111   3.270   2.524   2.916
    1C        C  112   3.483   2.492   3.036
    1C        C  113   3.412   2.500   3.158
    1C        C  114   3.625   2.500   3.280
    1C        C  115   3.483   2.498   3.279
    1C        C  116   3.695   2.510   3.402
    1C        C  117   3.625   2.505   3.524
    1C        C  118   3.835   2.542   3.643
    1C        C  119   3.697   2.512   3.645
    1C        C  120   3.900   2.567   3.767
    1C        C  121   3.834   2.546   3.890
    1C        C  122   4.027   2.635   4.010
    1C        C  123   3.901   2.572   4.011
    1C        C  124   4.089   2.672   4.132
    1C        C  125   4.030   2.636   4.255
    1C        C  126   4.192   2.766   4.374
    1C        C  127   4.092   2.666   4.379
    1C        C  128   4.233   2.824   4.496
    1C        C  129   4.191   2.770   4.620
    1C        C  130   4.322   2.938   4.741
    1C        C  131   4.239   2.823   4.742
    1C        C  132   4.349   3.005   4.863
    1C        C  133   4.281   2.960   4.977
    1C        C  134   3.171   2.469   2.081
    1C        C  135   3.037   2.511   2.083
    1C        C  136   3.259   2.476   2.191
    1C        C  137   3.194   2.517   2.309
    1C        C  138   3.407   2.484   2.430
    1C        C  139   3.268   2.509   2.430
    1C        C  140   3.479   2.486   2.552
    1C        C  141   3.409   2.494   2.674
    1C        C  142   3.622   2.503   2.792
    1C        C  143   3.482   2.487   2.795
    1C        C  144   3.696   2.508   2.913
    1C        C  145   3.625   2.497   3.034
    1C        C  146   3.832   2.533   3.155
    1C        C  147   3.694   2.504   3.157
    1C        C  148   3.902   2.557   3.276
    1C        C  149   3.834   2.539   3.399
    1C        C  150   4.029   2.623   3.522
    1C        C  151   3.902   2.560   3.520
    1C        C  152   4.087   2.666   3.643
    1C        C  153   4.025   2.632   3.765
    1C        C  154   4.196   2.760   3.885
    1C        C  155   4.084   2.674   3.887
    1C        C  156   4.246   2.811   4.007
    1C        C  157   4.199   2.760   4.130
    1C        C  158   4.338   2.919   4.253
    1C        C  159   4.250   2.809   4.253
    1C        C  160   4.373   2.984   4.374
    1C        C  161   4.327   2.930   4.496
    1C        C  162   4.439   3.110   4.614
    1C        C  163   4.369   2.988   4.618
    1C        C  164   4.467   3.180   4.733
    1C        C  165   4.429   3.121   4.856
    1C        C  166   4.514   3.317   4.973
    1C        C  167   4.480   3.183   4.971
    1C        C  168   3.473   2.429   2.075
    1C        C  169   3.398   2.456   2.190
    1C        C  170   3.617   2.468   2.306
    1C        C  171   3.475   2.463   2.308
    1C        C  172   3.691   2.492   2.424
    1C        C  173   3.620   2.494   2.546
    1C        C  174   3.826   2.543   2.666
    1C        C  175   3.690   2.505   2.668
    1C        C  176   3.897   2.564   2.786
    1C        C  177   3.833   2.542   2.910
    1C        C  178   4.027   2.620   3.031
    1C        C  179   3.899   2.560   3.033
    1C        C  180   4.087   2.658   3.153
    1C        C  181   4.027   2.622   3.276
    1C        C  182   4.193   2.752   3.396
    1C        C  183   4.089   2.657   3.398
    1C        C  184   4.245   2.803   3.517
    1C        C  185   4.197   2.755   3.641
    1C        C  186   4.339   2.914   3.762
    1C        C  187   4.249   2.805   3.762
    1C        C  188   4.375   2.977   3.884
    1C        C  189   4.334   2.921   4.007
    1C        C  190   4.432   3.107   4.126
    1C        C  191   4.373   2.979   4.130
    1C        C  192   4.459   3.173   4.248
    1C        C  193   4.434   3.111   4.373
    1C        C  194   4.503   3.315   4.492
    1C        C  195   4.460   3.180   4.493
    1C        C  196   4.521   3.384   4.614
    1C        C  197   4.508   3.317   4.737
    1C        C  198   4.551   3.533   4.850
    1C        C  199   4.534   3.391   4.856
    1C        C  200   4.581   3.616   4.963
    1C        C  201   3.613   2.423   2.070
    1C        C  202   3.826   2.511   2.183
    1C        C  203   3.689   2.468   2.183
    1C        C  204   3.900   2.538   2.302
    1C        C  205   3.830   2.517   2.423
    1C        C  206   4.021   2.617   2.539
    1C        C  207   3.894   2.554   2.543
    1C        C  208   4.080   2.658   2.660
    1C        C  209   4.023   2.628   2.786
    1C        C  210   4.194   2.750   2.907
    1C        C  211   4.082   2.665   2.909
    1C        C  212   4.247   2.798   3.029
    1C        C  213   4.198   2.745   3.150
    1C        C  214   4.328   2.913   3.272
    1C        C  215   4.238   2.804   3.272
    1C        C  216   4.369   2.972   3.394
    1C        C  217   4.334   2.913   3.517
    1C        C  218   4.431   3.102   3.636
    1C        C  219   4.373   2.973   3.639
    1C        C  220   4.455   3.171   3.758
    1C        C  221   4.432   3.106   3.881
    1C        C  222   4.495   3.308   4.003
    1C        C  223   4.459   3.171   4.003
    1C        C  224   4.510   3.378   4.125
    1C        C  225   4.497   3.309   4.247
    1C        C  226   4.519   3.523   4.366
    1C        C  227   4.509   3.382   4.368
    1C        C  228   4.513   3.595   4.488
    1C        C  229   4.524   3.526   4.610
    1C        C  230   4.499   3.742   4.727
    1C        C  231   4.529   3.603   4.729
    1C        C  232   4.494   3.818   4.846
    1C        C  233   4.546   3.751   4.958
    1C        C  234   4.015   2.608   2.064
    1C        C  235   3.891   2.546   2.064
    1C        C  236   4.086   2.647   2.178
    1C        C  237   4.026   2.604   2.298
    1C        C  238   4.202   2.733   2.419
    1C        C  239   4.087   2.648   2.418
    1C        C  240   4.255   2.784   2.540
    1C        C  241   4.194   2.741   2.660
    1C        C  242   4.334   2.902   2.784
    1C        C  243   4.243   2.794   2.782
    1C        C  244   4.374   2.964   2.904
    1C        C  245   4.333   2.910   3.028
    1C        C  246   4.436   3.095   3.150
    1C        C  247   4.375   2.967   3.151
    1C        C  248   4.456   3.165   3.271
    1C        C  249   4.427   3.101   3.393
    1C        C  250   4.495   3.305   3.513
    1C        C  251   4.452   3.170   3.514
    1C        C  252   4.509   3.375   3.635
    1C        C  253   4.493   3.307   3.758
    1C        C  254   4.519   3.517   3.877
    1C        C  255   4.508   3.376   3.880
    1C        C  256   4.517   3.587   4.000
    1C        C  257   4.516   3.519   4.124
    1C        C  258   4.491   3.733   4.240
    1C        C  259   4.508   3.593   4.244
    1C        C  260   4.471   3.802   4.362
    1C        C  261   4.486   3.733   4.484
    1C        C  262   4.421   3.937   4.606
    1C        C  263   4.478   3.808   4.604
    1C        C  264   4.398   4.010   4.724
    1C        C  265   4.435   3.946   4.845
    1C        C  266   4.309   4.125   4.957
    1C        C  267   4.383   4.007   4.960
    1C        C  268   4.265   2.774   2.060
    1C        C  269   4.199   2.732   2.176
    1C        C  270   4.344   2.889   2.299
    1C        C  271   4.254   2.779   2.297
    1C        C  272   4.379   2.955   2.419
    1C        C  273   4.341   2.896   2.542
    1C        C  274   4.444   3.084   2.660
    1C        C  275   4.376   2.960   2.662
    1C        C  276   4.472   3.151   2.782
    1C        C  277   4.440   3.089   2.905
    1C        C  278   4.500   3.294   3.024
    1C        C  279   4.464   3.157   3.026
    1C        C  280   4.511   3.366   3.145
    1C        C  281   4.499   3.299   3.269
    1C        C  282   4.525   3.511   3.389
    1C        C  283   4.515   3.370   3.390
    1C        C  284   4.518   3.583   3.510
    1C        C  285   4.518   3.516   3.634
    1C        C  286   4.493   3.728   3.752
    1C        C  287   4.514   3.588   3.755
    1C        C  288   4.476   3.794   3.876
    1C        C  289   4.496   3.727   3.999
    1C        C  290   4.432   3.934   4.114
    1C        C  291   4.482   3.802   4.118
    1C        C  292   4.400   3.998   4.236
    1C        C  293   4.425   3.936   4.360
    1C        C  294   4.322   4.121   4.478
    1C        C  295   4.394   4.000   4.482
    1C        C  296   4.280   4.183   4.597
    1C        C  297   4.323   4.131   4.721
    1C        C  298   4.200   4.315   4.834
    1C        C  299   4.275   4.193   4.839
    1C        C  300   4.173   4.406   4.941
    1C        C  301   4.353   2.882   2.059
    1C        C  302   4.465   3.069   2.178
    1C        C  303   4.394   2.945   2.177
    1C        C  304   4.481   3.143   2.298
    1C        C  305   4.446   3.079   2.418
    1C        C  306   4.505   3.287   2.534
    1C        C  307   4.470   3.150   2.538
    1C        C  308   4.510   3.357   2.657
    1C        C  309   4.506   3.288   2.780
    1C        C  310   4.525   3.502   2.900
    1C        C  311   4.516   3.361   2.900
    1C        C  312   4.519   3.574   3.021
    1C        C  313   4.518   3.507   3.145
    1C        C  314   4.490   3.718   3.265
    1C        C  315   4.520   3.580   3.266
    1C        C  316   4.476   3.790   3.386
    1C        C  317   4.496   3.723   3.509
    1C        C  318   4.436   3.930   3.627
    1C        C  319   4.478   3.795   3.629
    1C        C  320   4.404   3.995   3.749
    1C        C  321   4.425   3.925   3.870
    1C        C  322   4.324   4.114   3.990
    1C        C  323   4.397   3.994   3.991
    1C        C  324   4.281   4.172   4.111
    1C        C  325   4.326   4.119   4.234
    1C        C  326   4.187   4.280   4.352
    1C        C  327   4.288   4.181   4.355
    1C        C  328   4.135   4.334   4.471
    1C        C  329   4.188   4.291   4.595
    1C        C  330   4.027   4.439   4.709
    1C        C  331   4.144   4.358   4.711
    1C        C  332   3.971   4.490   4.828
    1C        C  333   4.052   4.478   4.941
    1C        C  334   4.555   3.269   2.062
    1C        C  335   4.532   3.131   2.067
    1C        C  336   4.528   3.352   2.173
    1C        C  337   4.509   3.283   2.294
    1C        C  338   4.524   3.499   2.412
    1C        C  339   4.521   3.358   2.413
    1C        C  340   4.521   3.569   2.535
    1C        C  341   4.517   3.498   2.657
    1C        C  342   4.496   3.711   2.773
    1C        C  343   4.522   3.572   2.777
    1C        C  344   4.480   3.780   2.895
    1C        C  345   4.497   3.714   3.019
    1C        C  346   4.432   3.917   3.137
    1C        C  347   4.474   3.782   3.140
    1C        C  348   4.401   3.984   3.258
    1C        C  349   4.433   3.924   3.382
    1C        C  350   4.323   4.107   3.500
    1C        C  351   4.397   3.987   3.504
    1C        C  352   4.280   4.164   3.622
    1C        C  353   4.326   4.113   3.745
    1C        C  354   4.181   4.269   3.864
    1C        C  355   4.284   4.171   3.867
    1C        C  356   4.125   4.316   3.985
    1C        C  357   4.182   4.273   4.107
    1C        C  358   4.012   4.399   4.231
    1C        C  359   4.131   4.323   4.229
    1C        C  360   3.950   4.443   4.350
    1C        C  361   4.016   4.411   4.471
    1C        C  362   3.829   4.522   4.591
    1C        C  363   3.956   4.459   4.589
    1C        C  364   3.763   4.547   4.712
    1C        C  365   3.839   4.541   4.831
    1C        C  366   3.630   4.583   4.950
    1C        C  367   3.769   4.576   4.947
    1C        C  368   4.512   3.569   2.053
    1C        C  369   4.521   3.492   2.170
    1C        C  370   4.505   3.709   2.289
    1C        C  371   4.520   3.569   2.289
    1C        C  372   4.491   3.782   2.409
    1C        C  373   4.502   3.709   2.530
    1C        C  374   4.431   3.911   2.648
    1C        C  375   4.480   3.779   2.651
    1C        C  376   4.398   3.973   2.770
    1C        C  377   4.426   3.911   2.894
    1C        C  378   4.323   4.098   3.011
    1C        C  379   4.399   3.979   3.015
    1C        C  380   4.276   4.155   3.131
    1C        C  381   4.320   4.100   3.254
    1C        C  382   4.179   4.256   3.374
    1C        C  383   4.282   4.160   3.376
    1C        C  384   4.123   4.301   3.496
    1C        C  385   4.177   4.261   3.620
    1C        C  386   4.007   4.389   3.743
    1C        C  387   4.125   4.311   3.742
    1C        C  388   3.945   4.427   3.864
    1C        C  389   4.006   4.391   3.986
    1C        C  390   3.819   4.487   4.105
    1C        C  391   3.949   4.432   4.109
    1C        C  392   3.750   4.511   4.227
    1C        C  393   3.819   4.495   4.349
    1C        C  394   3.616   4.549   4.475
    1C        C  395   3.755   4.527   4.471
    1C        C  396   3.545   4.558   4.597
    1C        C  397   3.622   4.559   4.715
    1C        C  398   3.411   4.552   4.843
    1C        C  399   3.550   4.575   4.835
    1C        C  400   3.340   4.515   4.958
    1C        C  401   4.515   3.708   2.051
    1C        C  402   4.462   3.919   2.166
    1C        C  403   4.499   3.783   2.169
    1C        C  404   4.417   3.981   2.285
    1C        C  405   4.444   3.915   2.407
    1C        C  406   4.329   4.097   2.525
    1C        C  407   4.406   3.979   2.527
    1C        C  408   4.280   4.151   2.646
    1C        C  409   4.322   4.093   2.767
    1C        C  410   4.178   4.251   2.890
    1C        C  411   4.280   4.153   2.888
    1C        C  412   4.121   4.299   3.010
    1C        C  413   4.172   4.251   3.132
    1C        C  414   4.001   4.377   3.253
    1C        C  415   4.117   4.297   3.254
    1C        C  416   3.943   4.412   3.377
    1C        C  417   4.005   4.379   3.500
    1C        C  418   3.811   4.467   3.620
    1C        C  419   3.942   4.416   3.621
    1C        C  420   3.744   4.497   3.741
    1C        C  421   3.814   4.479   3.863
    1C        C  422   3.608   4.530   3.986
    1C        C  423   3.747   4.504   3.985
    1C        C  424   3.539   4.536   4.109
    1C        C  425   3.612   4.539   4.230
    1C        C  426   3.403   4.548   4.356
    1C        C  427   3.544   4.553   4.353
    1C        C  428   3.333   4.536   4.478
    1C        C  429   3.404   4.551   4.599
    1C        C  430   3.197   4.519   4.725
    1C        C  431   3.337   4.547   4.723
    1C        C  432   3.127   4.490   4.845
    1C        C  433   3.203   4.492   4.963
    1C        C  434   4.388   4.126   2.051
    1C        C  435   4.448   4.000   2.052
    1C        C  436   4.308   4.170   2.162
    1C        C  437   4.344   4.103   2.282
    1C        C  438   4.183   4.246   2.402
    1C        C  439   4.289   4.153   2.402
    1C        C  440   4.125   4.291   2.523
    1C        C  441   4.177   4.249   2.647
    1C        C  442   4.001   4.368   2.767
    1C        C  443   4.121   4.293   2.768
    1C        C  444   3.939   4.406   2.888
    1C        C  445   4.003   4.378   3.011
    1C        C  446   3.808   4.465   3.132
    1C        C  447   3.940   4.416   3.131
    1C        C  448   3.741   4.482   3.255
    1C        C  449   3.811   4.463   3.376
    1C        C  450   3.606   4.522   3.496
    1C        C  451   3.743   4.489   3.497
    1C        C  452   3.538   4.540   3.618
    1C        C  453   3.607   4.530   3.742
    1C        C  454   3.396   4.539   3.867
    1C        C  455   3.537   4.538   3.864
    1C        C  456   3.328   4.531   3.990
    1C        C  457   3.398   4.537   4.113
    1C        C  458   3.190   4.508   4.238
    1C        C  459   3.328   4.539   4.236
    1C        C  460   3.125   4.488   4.362
    1C        C  461   3.193   4.513   4.483
    1C        C  462   2.997   4.438   4.604
    1C        C  463   3.123   4.502   4.606
    1C        C  464   2.934   4.401   4.725
    1C        C  465   2.992   4.442   4.848
    1C        C  466   2.802   4.336   4.960
    1C        C  467   2.905   4.431   4.960
    1C        C  468   4.124   4.286   2.043
    1C        C  469   4.190   4.251   2.161
    1C        C  470   4.008   4.371   2.281
    1C        C  471   4.129   4.296   2.282
    1C        C  472   3.942   4.400   2.402
    1C        C  473   4.007   4.369   2.524
    1C        C  474   3.811   4.458   2.642
    1C        C  475   3.940   4.402   2.644
    1C        C  476   3.740   4.481   2.763
    1C        C  477   3.809   4.459   2.884
    1C        C  478   3.604   4.507   3.009
    1C        C  479   3.743   4.483   3.007
    1C        C  480   3.533   4.521   3.131
    1C        C  481   3.604   4.515   3.253
    1C        C  482   3.392   4.533   3.378
    1C        C  483   3.534   4.531   3.375
    1C        C  484   3.324   4.533   3.501
    1C        C  485   3.397   4.545   3.621
    1C        C  486   3.189   4.506   3.743
    1C        C  487   3.326   4.538   3.743
    1C        C  488   3.125   4.479   3.867
    1C        C  489   3.190   4.503   3.990
    1C        C  490   3.000   4.420   4.117
    1C        C  491   3.128   4.480   4.115
    1C        C  492   2.939   4.389   4.240
    1C        C  493   2.999   4.425   4.363
    1C        C  494   2.826   4.305   4.484
    1C        C  495   2.938   4.391   4.486
    1C        C  496   2.774   4.256   4.607
    1C        C  497   2.819   4.317   4.726
    1C        C  498   2.669   4.163   4.843
    1C        C  499   2.750   4.279   4.843
    1C        C  500   2.589   4.121   4.950
    1C        C  501   4.004   4.357   2.043
    1C        C  502   3.812   4.457   2.156
    1C        C  503   3.942   4.401   2.160
    1C        C  504   3.742   4.476   2.277
    1C        C  505   3.809   4.448   2.398
    1C        C  506   3.602   4.495   2.520
    1C        C  507   3.741   4.471   2.520
    1C        C  508   3.532   4.510   2.642
    1C        C  509   3.601   4.508   2.765
    1C        C  510   3.391   4.524   2.888
    1C        C  511   3.532   4.512   2.888
    1C        C  512   3.318   4.523   3.009
    1C        C  513   3.392   4.525   3.129
    1C        C  514   3.187   4.497   3.256
    1C        C  515   3.325   4.529   3.254
    1C        C  516   3.121   4.471   3.378
    1C        C  517   3.186   4.502   3.500
    1C        C  518   2.997   4.413   3.625
    1C        C  519   3.118   4.485   3.623
    1C        C  520   2.940   4.376   3.748
    1C        C  521   3.002   4.410   3.871
    1C        C  522   2.835   4.286   3.999
    1C        C  523   2.946   4.373   3.995
    1C        C  524   2.790   4.235   4.122
    1C        C  525   2.834   4.294   4.242
    1C        C  526   2.697   4.132   4.364
    1C        C  527   2.781   4.246   4.364
    1C        C  528   2.651   4.079   4.487
    1C        C  529   2.687   4.145   4.607
    1C        C  530   2.586   3.957   4.733
    1C        C  531   2.640   4.088   4.727
    1C        C  532   2.538   3.899   4.854
    1C        C  533   2.526   3.996   4.958
    1C        C  534   3.616   4.550   2.038
    1C        C  535   3.750   4.506   2.041
    1C        C  536   3.536   4.533   2.155
    1C        C  537   3.604   4.508   2.277
    1C        C  538   3.391   4.513   2.402
    1C        C  539   3.532   4.511   2.399
    1C        C  540   3.317   4.513   2.523
    1C        C  541   3.391   4.518   2.643
    1C        C  542   3.182   4.490   2.765
    1C        C  543   3.321   4.517   2.766
    1C        C  544   3.114   4.472   2.887
    1C        C  545   3.180   4.492   3.010
    1C        C  546   2.990   4.410   3.136
    1C        C  547   3.118   4.469   3.135
    1C        C  548   2.933   4.370   3.259
    1C        C  549   2.995   4.408   3.380
    1C        C  550   2.828   4.282   3.505
    1C        C  551   2.935   4.373   3.504
    1C        C  552   2.781   4.234   3.630
    1C        C  553   2.829   4.289   3.751
    1C        C  554   2.703   4.124   3.875
    1C        C  555   2.784   4.239   3.875
    1C        C  556   2.664   4.063   3.996
    1C        C  557   2.706   4.121   4.118
    1C        C  558   2.602   3.941   4.246
    1C        C  559   2.666   4.067   4.243
    1C        C  560   2.569   3.880   4.369
    1C        C  561   2.588   3.953   4.489
    1C        C  562   2.535   3.749   4.615
    1C        C  563   2.564   3.888   4.612
    1C        C  564   2.519   3.681   4.738
    1C        C  565   2.518   3.757   4.858
    1C        C  566   2.531   3.542   4.978
    1C        C  567   2.522   3.681   4.975
    1C        C  568   3.328   4.475   2.045
    1C        C  569   3.394   4.522   2.159
    1C        C  570   3.181   4.479   2.278
    1C        C  571   3.321   4.508   2.280
    1C        C  572   3.111   4.464   2.400
    1C        C  573   3.178   4.486   2.522
    1C        C  574   2.985   4.405   2.647
    1C        C  575   3.112   4.465   2.645
    1C        C  576   2.927   4.366   2.770
    1C        C  577   2.989   4.406   2.891
    1C        C  578   2.823   4.278   3.016
    1C        C  579   2.930   4.371   3.014
    1C        C  580   2.777   4.223   3.138
    1C        C  581   2.828   4.276   3.259
    1C        C  582   2.697   4.116   3.385
    1C        C  583   2.778   4.232   3.383
    1C        C  584   2.663   4.055   3.508
    1C        C  585   2.701   4.117   3.630
    1C        C  586   2.600   3.936   3.757
    1C        C  587   2.662   4.063   3.754
    1C        C  588   2.578   3.869   3.879
    1C        C  589   2.605   3.935   4.001
    1C        C  590   2.542   3.736   4.127
    1C        C  591   2.577   3.873   4.125
    1C        C  592   2.525   3.672   4.251
    1C        C  593   2.533   3.744   4.373
    1C        C  594   2.516   3.533   4.500
    1C        C  595   2.525   3.674   4.496
    1C        C  596   2.519   3.464   4.623
    1C        C  597   2.516   3.539   4.742
    1C        C  598   2.530   3.324   4.863
    1C        C  599   2.525   3.465   4.862
    1C        C  600   2.537   3.245   4.979
    1C        C  601   3.193   4.445   2.044
    1C        C  602   2.980   4.390   2.158
    1C        C  603   3.113   4.445   2.159
    1C        C  604   2.923   4.360   2.285
    1C        C  605   2.984   4.403   2.405
    1C        C  606   2.815   4.274   2.527
    1C        C  607   2.922   4.366   2.527
    1C        C  608   2.766   4.225   2.650
    1C        C  609   2.819   4.275   2.771
    1C        C  610   2.683   4.116   2.896
    1C        C  611   2.772   4.226   2.895
    1C        C  612   2.646   4.054   3.018
    1C        C  613   2.691   4.111   3.139
    1C        C  614   2.590   3.931   3.266
    1C        C  615   2.656   4.056   3.264
    1C        C  616   2.568   3.866   3.389
    1C        C  617   2.599   3.929   3.512
    1C        C  618   2.542   3.729   3.638
    1C        C  619   2.577   3.866   3.636
    1C        C  620   2.522   3.662   3.761
    1C        C  621   2.537   3.734   3.881
    1C        C  622   2.515   3.526   4.010
    1C        C  623   2.528   3.666   4.005
    1C        C  624   2.522   3.457   4.134
    1C        C  625   2.519   3.531   4.254
    1C        C  626   2.542   3.324   4.380
    1C        C  627   2.517   3.463   4.378
    1C        C  628   2.560   3.253   4.501
    1C        C  629   2.537   3.324   4.622
    1C        C  630   2.594   3.118   4.746
    1C        C  631   2.545   3.251   4.743
    1C        C  632   2.618   3.049   4.868
    1C        C  633   2.561   3.107   4.986
    1C        C  634   2.779   4.302   2.052
    1C        C  635   2.889   4.388   2.048
    1C        C  636   2.745   4.231   2.168
    1C        C  637   2.807   4.278   2.285
    1C        C  638   2.680   4.107   2.410
    1C        C  639   2.762   4.222   2.407
    1C        C  640   2.640   4.050   2.533
    1C        C  641   2.679   4.113   2.653
    1C        C  642   2.592   3.921   2.779
    1C        C  643   2.646   4.052   2.776
    1C        C  644   2.566   3.855   2.901
    1C        C  645   2.592   3.924   3.022
    1C        C  646   2.531   3.724   3.150
    1C        C  647   2.566   3.861   3.145
    1C        C  648   2.518   3.655   3.272
    1C        C  649   2.537   3.728   3.392
    1C        C  650   2.511   3.520   3.520
    1C        C  651   2.531   3.660   3.515
    1C        C  652   2.513   3.451   3.643
    1C        C  653   2.507   3.521   3.765
    1C        C  654   2.534   3.314   3.889
    1C        C  655   2.510   3.453   3.889
    1C        C  656   2.553   3.248   4.013
    1C        C  657   2.539   3.317   4.136
    1C        C  658   2.601   3.117   4.259
    1C        C  659   2.557   3.252   4.260
    1C        C  660   2.635   3.054   4.381
    1C        C  661   2.606   3.120   4.503
    1C        C  662   2.705   2.934   4.625
    1C        C  663   2.631   3.054   4.625
    1C        C  664   2.749   2.875   4.746
    1C        C  665   2.699   2.931   4.867
    1C        C  666   2.743   2.866   4.983
    1C        C  667   2.689   4.022   2.054
    1C        C  668   2.682   4.104   2.168
    1C        C  669   2.590   3.913   2.294
    1C        C  670   2.642   4.045   2.289
    1C        C  671   2.564   3.847   2.417
    1C        C  672   2.585   3.920   2.536
    1C        C  673   2.517   3.720   2.663
    1C        C  674   2.562   3.854   2.658
    1C        C  675   2.509   3.648   2.784
    1C        C  676   2.526   3.720   2.905
    1C        C  677   2.509   3.512   3.030
    1C        C  678   2.516   3.653   3.029
    1C        C  679   2.508   3.441   3.153
    1C        C  680   2.507   3.514   3.274
    1C        C  681   2.535   3.308   3.402
    1C        C  682   2.511   3.447   3.399
    1C        C  683   2.556   3.241   3.524
    1C        C  684   2.540   3.312   3.645
    1C        C  685   2.603   3.112   3.771
    1C        C  686   2.553   3.244   3.768
    1C        C  687   2.632   3.051   3.895
    1C        C  688   2.600   3.115   4.016
    1C        C  689   2.706   2.932   4.139
    1C        C  690   2.627   3.049   4.138
    1C        C  691   2.754   2.879   4.261
    1C        C  692   2.711   2.935   4.383
    1C        C  693   2.753   2.877   4.505
    1C        C  694   2.639   3.892   2.062
    1C        C  695   2.531   3.703   2.176
    1C        C  696   2.581   3.835   2.176
    1C        C  697   2.511   3.639   2.300
    1C        C  698   2.528   3.711   2.420
    1C        C  699   2.487   3.505   2.544
    1C        C  700   2.505   3.645   2.543
    1C        C  701   2.495   3.434   2.666
    1C        C  702   2.503   3.507   2.787
    1C        C  703   2.530   3.298   2.910
    1C        C  704   2.513   3.438   2.910
    1C        C  705   2.547   3.232   3.034
    1C        C  706   2.534   3.303   3.156
    1C        C  707   2.597   3.104   3.279
    1C        C  708   2.551   3.238   3.280
    1C        C  709   2.630   3.044   3.403
    1C        C  710   2.608   3.109   3.526
    1C        C  711   2.711   2.927   3.649
    1C        C  712   2.636   3.047   3.650
    1C        C  713   2.755   2.876   3.773
    1C        C  714   2.709   2.932   3.895
    1C        C  715   2.749   2.874   4.017
    1C        C  716   2.448   3.500   2.065
    1C        C  717   2.496   3.631   2.061
    1C        C  718   2.470   3.421   2.182
    1C        C  719   2.486   3.498   2.301
    1C        C  720   2.517   3.292   2.425
    1C        C  721   2.494   3.431   2.425
    1C        C  722   2.537   3.222   2.546
    1C        C  723   2.526   3.297   2.666
    1C        C  724   2.593   3.096   2.791
    1C        C  725   2.545   3.229   2.788
    1C        C  726   2.628   3.036   2.914
    1C        C  727   2.598   3.100   3.036
    1C        C  728   2.707   2.920   3.159
    1C        C  729   2.629   3.037   3.159
    1C        C  730   2.747   2.867   3.284
    1C        C  731   2.701   2.922   3.405
    1C        C  732   2.749   2.868   3.527
    1C        C  733   2.488   3.195   2.074
    1C        C  734   2.487   3.279   2.186
    1C        C  735   2.585   3.087   2.305
    1C        C  736   2.522   3.214   2.307
    1C        C  737   2.611   3.019   2.426
    1C        C  738   2.587   3.090   2.546
    1C        C  739   2.695   2.909   2.669
    1C        C  740   2.623   3.031   2.669
    1C        C  741   2.739   2.853   2.791
    1C        C  742   2.697   2.912   2.913
    1C        C  743   2.744   2.861   3.036
    1C        C  744   2.550   3.071   2.070
    1C        C  745   2.685   2.898   2.186
    1C        C  746   2.615   3.021   2.184
    1C        C  747   2.728   2.839   2.306
    1C        C  748   2.687   2.900   2.427
    1C        C  749   2.734   2.846   2.549
    1C        C  750   2.735   2.836   2.071
    1C        C  751   3.652   2.333   1.960
    1C        O  752   3.721   2.227   1.969
    1C        O  753   3.662   2.383   1.829
    1C        C  754   4.619   3.047   1.982
    1C        O  755   4.593   3.029   1.860
    1C        O  756   4.758   3.037   1.998
    1C        C  757   4.420   4.205   1.930
    1C        O  758   4.510   4.293   1.935
    1C        O  759   4.389   4.149   1.806
    1C        C  760   3.589   4.659   1.942
    1C        O  761   3.666   4.754   1.911
    1C        O  762   3.542   4.615   1.817
    1C        C  763   2.864   4.503   1.957
    1C        O  764   2.907   4.504   1.839
    1C        O  765   2.822   4.627   2.005
    1C        C  766   2.312   3.495   2.007
    1C        O  767   2.290   3.412   1.914
    1C        O  768   2.196   3.535   2.075
    1C        C  769   4.696   3.586   5.052
    1C        O  770   4.691   3.599   5.177
    1C        O  771   4.825   3.616   5.006
    1C        C  772   4.281   4.460   5.027
    1C        O  773   4.258   4.473   5.150
    1C        O  774   4.406   4.512   4.993
    1C        C  775   4.144   2.509   5.073
    1C        O  776   4.239   2.435   5.036
    1C        O  777   4.177   2.568   5.196
    1C        C  778   2.875   4.549   5.046
    1C        O  779   2.846   4.661   4.997
    1C        O  780   2.843   4.539   5.182
    1C        C  781   2.489   3.030   5.090
    1C        O  782   2.393   2.953   5.061
    1C        O  783   2.512   3.064   5.222
    1C        C  784   2.402   4.014   5.038
    1C        O  785   2.293   4.051   4.987
    1C        O  786   2.387   3.977   5.172
    1C        C  787   2.943   2.420   2.013
    1C        O  788   2.938   2.436   1.888
    1C        O  789   2.855   2.331   2.072
    1C        C  790   3.182   2.358   5.037
    1C        O  791   3.146   2.255   4.974
    1C        O  792   3.178   2.339   5.176
    1C        H  793   4.275   3.020   5.065
    1C        H  794   4.145   2.822   5.062
    1C        H  795   4.527   3.117   5.040
    1C        H  796   4.492   3.371   5.063
    1C        H  797   4.577   3.814   5.039
    1C        H  798   4.445   4.000   5.047
    1C        H  799   4.287   4.165   5.054
    1C        H  800   4.048   4.561   5.008
    1C        H  801   3.816   4.646   5.013
    1C        H  802   3.590   4.633   5.037
    1C        H  803   3.393   4.485   5.046
    1C        H  804   3.160   4.455   5.054
    1C        H  805   3.888   2.495   5.066
    1C        H  806   3.670   2.437   5.068
    1C        H  807   3.008   2.555   5.068
    1C        H  808   3.436   2.455   5.068
    1C        H  809   2.852   2.713   5.073
    1C        H  810   2.712   2.911   5.075
    1C        H  811   2.523   3.289   5.075
    1C        H  812   2.521   3.497   5.075
    1C        H  813   2.517   3.734   5.068
    1C        H  814   2.555   4.201   5.013
    1C        H  815   2.793   4.275   5.047
    1C        H  816   2.721   2.890   1.979
    1C        H  817   2.806   2.655   1.992
    1C        H  818   3.209   2.430   1.989
    1C        H  819   3.425   2.392   1.987
    1C        H  820   3.840   2.525   1.972
    1C        H  821   4.081   2.573   1.987
    1C        H  822   4.275   2.700   1.984
    1C        H  823   4.421   2.889   1.977
    1C        H  824   4.609   3.313   1.981
    1C        H  825   4.483   3.517   1.964
    1C        H  826   4.532   3.756   1.957
    1C        H  827   3.815   4.532   1.960
    1C        H  828   3.937   4.324   1.966
    1C        H  829   4.158   4.241   1.952
    1C        H  830   4.528   3.987   1.981
    1C        H  831   2.653   3.831   1.975
    1C        H  832   2.752   4.049   1.971
    1C        H  833   2.710   4.300   1.970
    1C        H  834   3.387   4.411   1.982
    1C        H  835   3.141   4.425   1.952
    1C        H  836   2.507   3.003   1.999
    1C        H  837   2.410   3.209   2.001
    1C        H  838   2.464   3.687   1.975
    2V3OU   H29  839   2.805   3.548   5.943
    2V3OU   C27  840   2.784   3.506   6.045
    2V3OU   H27  841   2.732   3.573   6.118
    2V3OU   H28  842   2.730   3.409   6.040
    2V3OU   O11  843   2.908   3.471   6.108
    2V3OU   C15  844   2.919   3.392   6.220
    2V3OU   C13  845   3.049   3.371   6.270
    2V3OU   C14  846   3.071   3.267   6.361
    2V3OU   C16  847   2.968   3.185   6.405
    2V3OU    H6  848   2.992   3.100   6.471
    2V3OU   C12  849   3.208   3.225   6.398
    2V3OU    O2  850   3.241   3.132   6.475
    2V3OU   C10  851   3.317   3.305   6.339
    2V3OU    C8  852   3.449   3.273   6.367
    2V3OU   O10  853   3.486   3.155   6.424
    2V3OU   H26  854   3.400   3.109   6.428
    2V3OU    C6  855   3.563   3.351   6.330
    2V3OU    C5  856   3.535   3.468   6.259
    2V3OU    C4  857   3.702   3.297   6.328
    2V3OU    H4  858   3.720   3.235   6.420
    2V3OU    H5  859   3.708   3.228   6.239
    2V3OU    C2  860   3.820   3.394   6.320
    2V3OU    O6  861   3.810   3.480   6.433
    2V3OU   H21  862   3.762   3.558   6.400
    2V3OU    C3  863   3.782   3.493   6.210
    2V3OU    H2  864   3.861   3.571   6.196
    2V3OU    H3  865   3.780   3.434   6.114
    2V3OU   C25  866   3.957   3.325   6.305
    2V3OU    O7  867   4.004   3.291   6.197
    2V3OU   C26  868   4.030   3.293   6.435
    2V3OU   H22  869   4.060   3.390   6.484
    2V3OU   H23  870   4.116   3.225   6.413
    2V3OU    O8  871   3.964   3.214   6.531
    2V3OU   H24  872   3.926   3.269   6.600
    2V3OU    C1  873   3.647   3.561   6.222
    2V3OU    H1  874   3.623   3.620   6.128
    2V3OU    O3  875   3.656   3.656   6.329
    2V3OU   C19  876   3.617   3.793   6.313
    2V3OU    H9  877   3.525   3.795   6.248
    2V3OU    O4  878   3.716   3.851   6.231
    2V3OU   C20  879   3.847   3.872   6.284
    2V3OU   H10  880   3.902   3.774   6.293
    2V3OU   C24  881   3.610   3.858   6.451
    2V3OU   H16  882   3.549   3.792   6.518
    2V3OU   H17  883   3.564   3.960   6.447
    2V3OU   C23  884   3.749   3.880   6.511
    2V3OU   H15  885   3.793   3.779   6.539
    2V3OU    N1  886   3.739   3.956   6.634
    2V3OU   H19  887   3.814   3.927   6.693
    2V3OU   H20  888   3.658   3.933   6.689
    2V3OU   C21  889   3.850   3.951   6.415
    2V3OU   H11  890   3.952   3.932   6.459
    2V3OU    O5  891   3.836   4.092   6.398
    2V3OU   H18  892   3.778   4.108   6.475
    2V3OU   C22  893   3.915   3.950   6.172
    2V3OU   H12  894   3.862   4.047   6.149
    2V3OU   H13  895   3.909   3.894   6.075
    2V3OU   H14  896   4.025   3.961   6.190
    2V3OU   C11  897   3.157   3.467   6.245
    2V3OU    O1  898   3.132   3.587   6.221
    2V3OU    C9  899   3.298   3.426   6.267
    2V3OU    C7  900   3.402   3.506   6.224
    2V3OU    O9  901   3.384   3.620   6.148
    2V3OU   H25  902   3.289   3.630   6.127
    2V3OU   C17  903   2.814   3.310   6.265
    2V3OU    H7  904   2.712   3.348   6.256
    2V3OU   C18  905   2.839   3.213   6.362
    2V3OU    H8  906   2.756   3.144   6.384
    3SOL     OW  907   2.927   3.321   4.286
    3SOL    HW1  908   2.972   3.273   4.361
    3SOL    HW2  909   2.874   3.398   4.322
    4SOL     OW  910   6.760   5.931   0.875
    4SOL    HW1  911   6.855   5.906   0.888
    4SOL    HW2  912   6.740   5.940   0.777
    5SOL     OW  913   4.119   2.566   0.721
    5SOL    HW1  914   4.143   2.641   0.783
    5SOL    HW2  915   4.200   2.510   0.703
    6SOL     OW  916   3.762   1.535   2.141
    6SOL    HW1  917   3.792   1.486   2.059
    6SOL    HW2  918   3.789   1.631   2.133
    7SOL     OW  919   2.376   2.589   4.401
    7SOL    HW1  920   2.386   2.600   4.302
    7SOL    HW2  921   2.385   2.493   4.425
    8SOL     OW  922   1.330   2.547   5.450
    8SOL    HW1  923   1.350   2.490   5.530
    8SOL    HW2  924   1.275   2.625   5.477
    9SOL     OW  925   1.497   2.059   6.054
    9SOL    HW1  926   1.536   2.146   6.026
    9SOL    HW2  927   1.398   2.070   6.067
   10SOL     OW  928   5.564   5.325   1.451
   10SOL    HW1  929   5.499   5.250   1.462
   10SOL    HW2  930   5.656   5.288   1.442
   11SOL     OW  931   3.208   2.271   0.687
   11SOL    HW1  932   3.176   2.366   0.700
   11SOL    HW2  933   3.242   2.260   0.594
   12SOL     OW  934   5.369   5.133   2.071
   12SOL    HW1  935   5.383   5.041   2.106
   12SOL    HW2  936   5.437   5.195   2.110
   13SOL     OW  937   5.341   6.202   2.058
   13SOL    HW1  938   5.291   6.217   1.972
   13SOL    HW2  939   5.327   6.108   2.088
   14SOL     OW  940   4.361   6.328   0.308
   14SOL    HW1  941   4.322   6.252   0.256
   14SOL    HW2  942   4.461   6.329   0.296
   15SOL     OW  943   0.533   5.776   6.366
   15SOL    HW1  944   0.572   5.868   6.360
   15SOL    HW2  945   0.603   5.708   6.343
   16SOL     OW  946   2.086   5.870   4.520
   16SOL    HW1  947   2.144   5.911   4.449
   16SOL    HW2  948   1.992   5.863   4.487
   17SOL     OW  949   0.055   1.402   4.572
   17SOL    HW1  950   0.129   1.342   4.603
   17SOL    HW2  951   0.046   1.479   4.635
   18SOL     OW  952   3.009   0.721   5.505
   18SOL    HW1  953   2.949   0.711   5.426
   18SOL    HW2  954   2.995   0.811   5.546
   19SOL     OW  955   2.793   5.846   2.484
   19SOL    HW1  956   2.741   5.854   2.569
   19SOL    HW2  957   2.874   5.905   2.488
   20SOL     OW  958   6.732   2.241   5.990
   20SOL    HW1  959   6.781   2.180   5.927
   20SOL    HW2  960   6.698   2.320   5.939
   21SOL     OW  961   2.094   4.104   2.318
   21SOL    HW1  962   2.105   4.116   2.417
   21SOL    HW2  963   2.155   4.166   2.270
   22SOL     OW  964   0.874   1.246   6.938
   22SOL    HW1  965   0.956   1.293   6.905
   22SOL    HW2  966   0.794   1.305   6.927
   23SOL     OW  967   6.724   5.460   0.447
   23SOL    HW1  968   6.660   5.384   0.457
   23SOL    HW2  969   6.743   5.499   0.537
   24SOL     OW  970   5.281   1.396   0.154
   24SOL    HW1  971   5.198   1.350   0.186
   24SOL    HW2  972   5.279   1.401   0.055
   25SOL     OW  973   1.552   1.036   4.320
   25SOL    HW1  974   1.503   1.114   4.358
   25SOL    HW2  975   1.502   1.000   4.241
   26SOL     OW  976   1.824   0.753   6.437
   26SOL    HW1  977   1.913   0.706   6.435
   26SOL    HW2  978   1.839   0.852   6.441
   27SOL     OW  979   6.874   0.177   2.392
   27SOL    HW1  980   6.913   0.099   2.440
   27SOL    HW2  981   6.814   0.228   2.453
   28SOL     OW  982   1.325   0.559   5.308
   28SOL    HW1  983   1.303   0.628   5.239
   28SOL    HW2  984   1.424   0.550   5.316
   29SOL     OW  985   5.603   0.845   1.378
   29SOL    HW1  986   5.516   0.816   1.418
   29SOL    HW2  987   5.598   0.942   1.354
   30SOL     OW  988   4.780   0.430   4.901
   30SOL    HW1  989   4.746   0.337   4.888
   30SOL    HW2  990   4.771   0.482   4.816
   31SOL     OW  991   6.562   4.839   4.106
   31SOL    HW1  992   6.540   4.857   4.011
   31SOL    HW2  993   6.635   4.900   4.136
   32SOL     OW  994   2.618   1.145   1.081
   32SOL    HW1  995   2.629   1.068   1.145
   32SOL    HW2  996   2.617   1.110   0.987
   33SOL     OW  997   2.079   4.827   5.556
   33SOL    HW1  998   2.142   4.765   5.508
   33SOL    HW2  999   2.125   4.913   5.575
   34SOL     OW 1000   1.792   5.738   5.565
   34SOL    HW1 1001   1.828   5.756   5.656
   34SOL    HW2 1002   1.725   5.808   5.541
   35SOL     OW 1003   1.558   3.399   5.195
   35SOL    HW1 1004   1.502   3.319   5.214
   35SOL    HW2 1005   1.528   3.475   5.253
   36SOL     OW 1006   5.735   1.161   3.969
   36SOL    HW1 1007   5.700   1.236   3.913
   36SOL    HW2 1008   5.827   1.136   3.938
   37SOL     OW 1009   1.852   6.587   4.314
   37SOL    HW1 1010   1.870   6.674   4.266
   37SOL    HW2 1011   1.763   6.592   4.359
   38SOL     OW 1012   1.213   4.175   1.995
   38SOL    HW1 1013   1.270   4.257   1.986
   38SOL    HW2 1014   1.200   4.155   2.092
   39SOL     OW 1015   6.680   5.237   1.175
   39SOL    HW1 1016   6.765   5.188   1.195
   39SOL    HW2 1017   6.648   5.283   1.258
   40SOL     OW 1018   3.609   0.627   6.638
   40SOL    HW1 1019   3.708   0.624   6.646
   40SOL    HW2 1020   3.570   0.543   6.674
   41SOL     OW 1021   5.099   3.874   1.788
   41SOL    HW1 1022   5.062   3.952   1.738
   41SOL    HW2 1023   5.056   3.790   1.755
   42SOL     OW 1024   2.924   3.484   6.558
   42SOL    HW1 1025   2.861   3.546   6.509
   42SOL    HW2 1026   3.014   3.526   6.564
   43SOL     OW 1027   5.086   0.108   4.981
   43SOL    HW1 1028   5.181   0.101   4.951
   43SOL    HW2 1029   5.034   0.031   4.945
   44SOL     OW 1030   6.168   1.197   5.953
   44SOL    HW1 1031   6.125   1.118   5.996
   44SOL    HW2 1032   6.242   1.166   5.893
   45SOL     OW 1033   2.569   4.389   5.923
   45SOL    HW1 1034   2.600   4.318   5.986
   45SOL    HW2 1035   2.568   4.352   5.830
   46SOL     OW 1036   0.974   4.672   4.607
   46SOL    HW1 1037   0.877   4.692   4.613
   46SOL    HW2 1038   0.990   4.576   4.629
   47SOL     OW 1039   6.229   4.089   6.736
   47SOL    HW1 1040   6.307   4.027   6.737
   47SOL    HW2 1041   6.243   4.158   6.665
   48SOL     OW 1042   0.356   4.318   0.666
   48SOL    HW1 1043   0.263   4.337   0.635
   48SOL    HW2 1044   0.381   4.224   0.645
   49SOL     OW 1045   3.213   2.339   6.321
   49SOL    HW1 1046   3.199   2.379   6.412
   49SOL    HW2 1047   3.126   2.338   6.272
   50SOL     OW 1048   5.097   2.337   0.205
   50SOL    HW1 1049   5.124   2.286   0.124
   50SOL    HW2 1050   5.098   2.276   0.285
   51SOL     OW 1051   0.657   6.181   2.182
   51SOL    HW1 1052   0.686   6.101   2.128
   51SOL    HW2 1053   0.694   6.264   2.141
   52SOL     OW 1054   5.574   1.882   2.446
   52SOL    HW1 1055   5.580   1.783   2.458
   52SOL    HW2 1056   5.528   1.922   2.525
   53SOL     OW 1057   4.504   0.804   0.695
   53SOL    HW1 1058   4.601   0.826   0.688
   53SOL    HW2 1059   4.493   0.717   0.742
   54SOL     OW 1060   6.330   0.170   6.577
   54SOL    HW1 1061   6.278   0.133   6.500
   54SOL    HW2 1062   6.300   0.126   6.662
   55SOL     OW 1063   1.901   3.838   5.724
   55SOL    HW1 1064   1.808   3.834   5.687
   55SOL    HW2 1065   1.911   3.770   5.797
   56SOL     OW 1066   0.519   2.412   6.895
   56SOL    HW1 1067   0.527   2.472   6.815
   56SOL    HW2 1068   0.604   2.359   6.905
   57SOL     OW 1069   3.882   5.964   1.646
   57SOL    HW1 1070   3.885   6.063   1.639
   57SOL    HW2 1071   3.804   5.936   1.701
   58SOL     OW 1072   1.146   0.417   6.629
   58SOL    HW1 1073   1.059   0.458   6.600
   58SOL    HW2 1074   1.149   0.410   6.728
   59SOL     OW 1075   4.226   3.107   6.667
   59SOL    HW1 1076   4.243   3.206   6.675
   59SOL    HW2 1077   4.136   3.086   6.704
   60SOL     OW 1078   6.874   3.489   2.581
   60SOL    HW1 1079   6.839   3.445   2.497
   60SOL    HW2 1080   6.826   3.451   2.660
   61SOL     OW 1081   1.326   5.592   3.167
   61SOL    HW1 1082   1.344   5.571   3.071
   61SOL    HW2 1083   1.284   5.682   3.174
   62SOL     OW 1084   5.403   2.743   3.227
   62SOL    HW1 1085   5.311   2.780   3.236
   62SOL    HW2 1086   5.444   2.776   3.142
   63SOL     OW 1087   3.661   0.198   5.988
   63SOL    HW1 1088   3.754   0.233   5.994
   63SOL    HW2 1089   3.603   0.263   5.940
   64SOL     OW 1090   1.742   2.185   6.239
   64SOL    HW1 1091   1.775   2.241   6.315
   64SOL    HW2 1092   1.796   2.205   6.158
   65SOL     OW 1093   1.065   5.081   5.395
   65SOL    HW1 1094   1.077   4.984   5.417
   65SOL    HW2 1095   1.085   5.096   5.298
   66SOL     OW 1096   4.637   0.926   1.380
   66SOL    HW1 1097   4.539   0.939   1.390
   66SOL    HW2 1098   4.685   0.976   1.452
   67SOL     OW 1099   0.020   3.621   1.119
   67SOL    HW1 1100   6.980   3.694   1.144
   67SOL    HW2 1101   0.062   3.641   1.031
   68SOL     OW 1102   0.586   0.837   6.135
   68SOL    HW1 1103   0.508   0.889   6.101
   68SOL    HW2 1104   0.648   0.815   6.059
   69SOL     OW 1105   1.417   6.735   6.664
   69SOL    HW1 1106   1.383   6.767   6.752
   69SOL    HW2 1107   1.414   6.811   6.598
   70SOL     OW 1108   4.661   4.506   3.170
   70SOL    HW1 1109   4.592   4.466   3.109
   70SOL    HW2 1110   4.740   4.444   3.175
   71SOL     OW 1111   4.810   1.876   5.227
   71SOL    HW1 1112   4.789   1.802   5.163
   71SOL    HW2 1113   4.729   1.933   5.240
   72SOL     OW 1114   0.143   1.076   2.206
   72SOL    HW1 1115   0.053   1.115   2.186
   72SOL    HW2 1116   0.139   0.977   2.195
   73SOL     OW 1117   2.620   0.827   1.223
   73SOL    HW1 1118   2.688   0.805   1.293
   73SOL    HW2 1119   2.630   0.765   1.146
   74SOL     OW 1120   2.618   1.189   6.987
   74SOL    HW1 1121   2.651   1.281   6.968
   74SOL    HW2 1122   2.523   1.193   7.017
   75SOL     OW 1123   2.164   2.688   0.954
   75SOL    HW1 1124   2.135   2.700   0.859
   75SOL    HW2 1125   2.219   2.768   0.982
   76SOL     OW 1126   3.762   5.241   5.995
   76SOL    HW1 1127   3.795   5.326   6.036
   76SOL    HW2 1128   3.675   5.258   5.949
   77SOL     OW 1129   6.851   4.997   4.475
   77SOL    HW1 1130   6.906   5.009   4.558
   77SOL    HW2 1131   6.866   4.906   4.437
   78SOL     OW 1132   5.490   1.469   1.489
   78SOL    HW1 1133   5.589   1.463   1.501
   78SOL    HW2 1134   5.456   1.385   1.448
   79SOL     OW 1135   1.174   4.366   4.508
   79SOL    HW1 1136   1.128   4.369   4.419
   79SOL    HW2 1137   1.271   4.343   4.494
   80SOL     OW 1138   3.582   1.991   5.275
   80SOL    HW1 1139   3.613   2.060   5.341
   80SOL    HW2 1140   3.495   1.953   5.306
   81SOL     OW 1141   3.639   5.175   2.430
   81SOL    HW1 1142   3.667   5.103   2.366
   81SOL    HW2 1143   3.563   5.142   2.486
   82SOL     OW 1144   3.271   0.515   2.089
   82SOL    HW1 1145   3.349   0.460   2.059
   82SOL    HW2 1146   3.261   0.507   2.188
   83SOL     OW 1147   5.419   0.926   4.498
   83SOL    HW1 1148   5.516   0.921   4.475
   83SOL    HW2 1149   5.371   0.848   4.458
   84SOL     OW 1150   5.976   2.532   3.044
   84SOL    HW1 1151   5.967   2.483   2.957
   84SOL    HW2 1152   5.889   2.576   3.066
   85SOL     OW 1153   2.165   5.870   3.405
   85SOL    HW1 1154   2.126   5.884   3.496
   85SOL    HW2 1155   2.211   5.781   3.402
   86SOL     OW 1156   4.731   0.866   0.160
   86SOL    HW1 1157   4.668   0.909   0.095
   86SOL    HW2 1158   4.688   0.864   0.251
   87SOL     OW 1159   2.949   3.000   6.779
   87SOL    HW1 1160   2.911   2.944   6.852
   87SOL    HW2 1161   3.000   2.942   6.715
   88SOL     OW 1162   1.910   2.725   1.455
   88SOL    HW1 1163   1.959   2.644   1.486
   88SOL    HW2 1164   1.872   2.774   1.533
   89SOL     OW 1165   3.328   3.640   5.235
   89SOL    HW1 1166   3.231   3.625   5.213
   89SOL    HW2 1167   3.338   3.729   5.279
   90SOL     OW 1168   6.699   4.503   1.933
   90SOL    HW1 1169   6.743   4.428   1.983
   90SOL    HW2 1170   6.645   4.465   1.858
   91SOL     OW 1171   4.563   5.844   1.027
   91SOL    HW1 1172   4.653   5.806   1.009
   91SOL    HW2 1173   4.572   5.933   1.071
   92SOL     OW 1174   5.834   5.076   0.335
   92SOL    HW1 1175   5.931   5.081   0.310
   92SOL    HW2 1176   5.788   5.007   0.278
   93SOL     OW 1177   3.093   3.843   1.896
   93SOL    HW1 1178   3.189   3.820   1.913
   93SOL    HW2 1179   3.076   3.937   1.925
   94SOL     OW 1180   3.151   1.667   4.448
   94SOL    HW1 1181   3.200   1.596   4.498
   94SOL    HW2 1182   3.179   1.664   4.352
   95SOL     OW 1183   0.582   6.978   3.769
   95SOL    HW1 1184   0.613   6.935   3.853
   95SOL    HW2 1185   0.608   0.052   3.770
   96SOL     OW 1186   0.320   5.788   6.543
   96SOL    HW1 1187   0.341   5.836   6.628
   96SOL    HW2 1188   0.401   5.784   6.485
   97SOL     OW 1189   3.542   4.694   5.267
   97SOL    HW1 1190   3.451   4.693   5.309
   97SOL    HW2 1191   3.554   4.779   5.215
   98SOL     OW 1192   0.567   3.015   4.984
   98SOL    HW1 1193   0.607   2.938   5.035
   98SOL    HW2 1194   0.640   3.067   4.941
   99SOL     OW 1195   4.294   4.802   5.005
   99SOL    HW1 1196   4.329   4.709   4.988
   99SOL    HW2 1197   4.368   4.868   4.992
  100SOL     OW 1198   1.222   0.652   5.074
  100SOL    HW1 1199   1.312   0.625   5.040
  100SOL    HW2 1200   1.176   0.708   5.006
  101SOL     OW 1201   5.352   3.334   2.700
  101SOL    HW1 1202   5.298   3.250   2.703
  101SOL    HW2 1203   5.393   3.350   2.790
  102SOL     OW 1204   3.689   0.321   6.918
  102SOL    HW1 1205   3.753   0.270   6.975
  102SOL    HW2 1206   3.718   0.417   6.914
  103SOL     OW 1207   1.334   1.907   1.712
  103SOL    HW1 1208   1.322   2.004   1.733
  103SOL    HW2 1209   1.356   1.857   1.796
  104SOL     OW 1210   6.887   4.694   1.728
  104SOL    HW1 1211   6.850   4.760   1.794
  104SOL    HW2 1212   6.945   4.628   1.776
  105SOL     OW 1213   0.086   0.613   5.159
  105SOL    HW1 1214   0.134   0.654   5.081
  105SOL    HW2 1215   0.083   0.514   5.148
  106SOL     OW 1216   4.376   3.035   1.727
  106SOL    HW1 1217   4.333   3.125   1.716
  106SOL    HW2 1218   4.456   3.044   1.786
  107SOL     OW 1219   4.588   6.660   2.176
  107SOL    HW1 1220   4.517   6.712   2.128
  107SOL    HW2 1221   4.559   6.565   2.185
  108SOL     OW 1222   3.651   1.723   4.688
  108SOL    HW1 1223   3.730   1.767   4.731
  108SOL    HW2 1224   3.681   1.672   4.608
  109SOL     OW 1225   1.716   1.088   5.252
  109SOL    HW1 1226   1.740   1.122   5.343
  109SOL    HW2 1227   1.799   1.058   5.205
  110SOL     OW 1228   4.056   4.404   5.589
  110SOL    HW1 1229   3.984   4.413   5.521
  110SOL    HW2 1230   4.017   4.418   5.680
  111SOL     OW 1231   6.188   3.302   2.047
  111SOL    HW1 1232   6.160   3.284   1.952
  111SOL    HW2 1233   6.195   3.400   2.062
  112SOL     OW 1234   4.587   6.885   4.913
  112SOL    HW1 1235   4.524   6.925   4.847
  112SOL    HW2 1236   4.573   6.928   5.002
  113SOL     OW 1237   0.586   5.153   2.459
  113SOL    HW1 1238   0.566   5.056   2.451
  113SOL    HW2 1239   0.682   5.170   2.437
  114SOL     OW 1240   0.054   2.244   1.808
  114SOL    HW1 1241   7.013   2.181   1.766
  114SOL    HW2 1242   0.074   2.319   1.745
  115SOL     OW 1243   4.207   1.081   2.922
  115SOL    HW1 1244   4.158   1.042   2.844
  115SOL    HW2 1245   4.152   1.153   2.963
  116SOL     OW 1246   6.545   5.554   1.063
  116SOL    HW1 1247   6.641   5.570   1.086
  116SOL    HW2 1248   6.493   5.639   1.078
  117SOL     OW 1249   2.825   1.754   0.218
  117SOL    HW1 1250   2.891   1.805   0.273
  117SOL    HW2 1251   2.756   1.714   0.278
  118SOL     OW 1252   7.007   2.160   2.090
  118SOL    HW1 1253   6.941   2.178   2.163
  118SOL    HW2 1254   7.015   2.061   2.076
  119SOL     OW 1255   6.206   6.593   4.831
  119SOL    HW1 1256   6.273   6.531   4.791
  119SOL    HW2 1257   6.182   6.563   4.923
  120SOL     OW 1258   4.348   1.967   4.478
  120SOL    HW1 1259   4.310   1.916   4.556
  120SOL    HW2 1260   4.322   2.064   4.487
  121SOL     OW 1261   0.217   5.554   6.077
  121SOL    HW1 1262   0.203   5.506   6.163
  121SOL    HW2 1263   0.293   5.618   6.087
  122SOL     OW 1264   6.781   5.009   5.960
  122SOL    HW1 1265   6.825   4.995   6.049
  122SOL    HW2 1266   6.687   4.974   5.964
  123SOL     OW 1267   0.840   3.153   1.305
  123SOL    HW1 1268   0.782   3.160   1.224
  123SOL    HW2 1269   0.845   3.057   1.334
  124SOL     OW 1270   1.892   3.504   6.769
  124SOL    HW1 1271   1.978   3.546   6.741
  124SOL    HW2 1272   1.884   3.413   6.729
  125SOL     OW 1273   4.448   2.175   0.533
  125SOL    HW1 1274   4.395   2.124   0.601
  125SOL    HW2 1275   4.546   2.163   0.550
  126SOL     OW 1276   3.541   3.653   4.864
  126SOL    HW1 1277   3.520   3.749   4.849
  126SOL    HW2 1278   3.466   3.597   4.830
  127SOL     OW 1279   0.397   5.096   6.140
  127SOL    HW1 1280   0.320   5.139   6.093
  127SOL    HW2 1281   0.389   4.997   6.133
  128SOL     OW 1282   4.253   4.211   6.190
  128SOL    HW1 1283   4.320   4.273   6.151
  128SOL    HW2 1284   4.281   4.116   6.172
  129SOL     OW 1285   1.061   4.613   1.638
  129SOL    HW1 1286   1.080   4.703   1.677
  129SOL    HW2 1287   1.051   4.622   1.539
  130SOL     OW 1288   6.017   3.601   5.048
  130SOL    HW1 1289   6.102   3.548   5.057
  130SOL    HW2 1290   6.018   3.651   4.962
  131SOL     OW 1291   1.159   3.428   3.065
  131SOL    HW1 1292   1.207   3.503   3.111
  131SOL    HW2 1293   1.162   3.444   2.966
  132SOL     OW 1294   4.665   3.005   1.370
  132SOL    HW1 1295   4.664   3.053   1.457
  132SOL    HW2 1296   4.625   2.914   1.381
  133SOL     OW 1297   4.176   4.608   6.281
  133SOL    HW1 1298   4.274   4.595   6.263
  133SOL    HW2 1299   4.147   4.545   6.353
  134SOL     OW 1300   6.555   2.173   0.705
  134SOL    HW1 1301   6.597   2.165   0.614
  134SOL    HW2 1302   6.530   2.082   0.738
  135SOL     OW 1303   4.505   4.676   3.756
  135SOL    HW1 1304   4.506   4.729   3.841
  135SOL    HW2 1305   4.426   4.703   3.701
  136SOL     OW 1306   3.919   6.474   6.523
  136SOL    HW1 1307   3.849   6.546   6.518
  136SOL    HW2 1308   4.010   6.517   6.528
  137SOL     OW 1309   2.187   4.048   6.947
  137SOL    HW1 1310   2.119   4.098   6.894
  137SOL    HW2 1311   2.268   4.030   6.890
  138SOL     OW 1312   0.936   5.993   6.925
  138SOL    HW1 1313   0.896   5.921   6.982
  138SOL    HW2 1314   0.948   6.076   6.980
  139SOL     OW 1315   0.377   1.036   1.064
  139SOL    HW1 1316   0.321   0.969   1.113
  139SOL    HW2 1317   0.436   0.988   0.999
  140SOL     OW 1318   3.867   0.305   1.743
  140SOL    HW1 1319   3.908   0.214   1.739
  140SOL    HW2 1320   3.767   0.298   1.741
  141SOL     OW 1321   0.978   1.292   6.587
  141SOL    HW1 1322   0.883   1.279   6.615
  141SOL    HW2 1323   1.039   1.270   6.662
  142SOL     OW 1324   1.723   3.739   6.807
  142SOL    HW1 1325   1.759   3.661   6.756
  142SOL    HW2 1326   1.632   3.763   6.772
  143SOL     OW 1327   4.990   5.539   1.742
  143SOL    HW1 1328   5.032   5.463   1.693
  143SOL    HW2 1329   4.993   5.621   1.685
  144SOL     OW 1330   2.801   5.508   2.993
  144SOL    HW1 1331   2.813   5.410   2.975
  144SOL    HW2 1332   2.891   5.552   3.001
  145SOL     OW 1333   0.285   5.495   3.569
  145SOL    HW1 1334   0.318   5.487   3.475
  145SOL    HW2 1335   0.227   5.416   3.590
  146SOL     OW 1336   6.769   0.798   5.715
  146SOL    HW1 1337   6.825   0.810   5.632
  146SOL    HW2 1338   6.816   0.839   5.793
  147SOL     OW 1339   5.661   1.016   5.345
  147SOL    HW1 1340   5.623   1.016   5.253
  147SOL    HW2 1341   5.761   1.017   5.339
  148SOL     OW 1342   1.776   6.653   1.431
  148SOL    HW1 1343   1.680   6.645   1.404
  148SOL    HW2 1344   1.791   6.602   1.515
  149SOL     OW 1345   1.790   2.926   4.769
  149SOL    HW1 1346   1.842   3.008   4.744
  149SOL    HW2 1347   1.836   2.845   4.731
  150SOL     OW 1348   4.953   2.681   5.868
  150SOL    HW1 1349   4.951   2.592   5.821
  150SOL    HW2 1350   4.883   2.740   5.829
  151SOL     OW 1351   5.962   2.960   1.390
  151SOL    HW1 1352   6.030   3.020   1.350
  151SOL    HW2 1353   5.988   2.938   1.484
  152SOL     OW 1354   0.081   2.760   0.777
  152SOL    HW1 1355   0.142   2.822   0.727
  152SOL    HW2 1356   0.081   2.671   0.733
  153SOL     OW 1357   1.442   1.928   3.629
  153SOL    HW1 1358   1.455   1.925   3.530
  153SOL    HW2 1359   1.521   1.973   3.671
  154SOL     OW 1360   0.164   1.525   3.736
  154SOL    HW1 1361   0.128   1.521   3.643
  154SOL    HW2 1362   0.127   1.605   3.783
  155SOL     OW 1363   5.711   4.778   3.426
  155SOL    HW1 1364   5.730   4.709   3.496
  155SOL    HW2 1365   5.744   4.745   3.337
  156SOL     OW 1366   4.769   0.728   1.744
  156SOL    HW1 1367   4.768   0.723   1.844
  156SOL    HW2 1368   4.860   0.705   1.710
  157SOL     OW 1369   4.981   0.256   1.060
  157SOL    HW1 1370   4.887   0.241   1.090
  157SOL    HW2 1371   5.025   0.321   1.123
  158SOL     OW 1372   0.958   3.579   3.903
  158SOL    HW1 1373   0.952   3.500   3.842
  158SOL    HW2 1374   0.884   3.574   3.970
  159SOL     OW 1375   6.422   5.213   0.054
  159SOL    HW1 1376   6.377   5.272   7.010
  159SOL    HW2 1377   6.470   5.270   0.121
  160SOL     OW 1378   4.290   0.661   0.994
  160SOL    HW1 1379   4.226   0.736   1.012
  160SOL    HW2 1380   4.379   0.682   1.034
  161SOL     OW 1381   7.020   6.537   0.418
  161SOL    HW1 1382   6.927   6.558   0.448
  161SOL    HW2 1383   7.020   6.517   0.320
  162SOL     OW 1384   4.591   6.876   5.884
  162SOL    HW1 1385   4.557   6.894   5.791
  162SOL    HW2 1386   4.582   6.779   5.904
  163SOL     OW 1387   0.862   3.675   2.736
  163SOL    HW1 1388   0.945   3.697   2.683
  163SOL    HW2 1389   0.882   3.601   2.799
  164SOL     OW 1390   1.617   2.021   2.439
  164SOL    HW1 1391   1.662   2.021   2.528
  164SOL    HW2 1392   1.549   1.947   2.436
  165SOL     OW 1393   0.403   6.403   4.152
  165SOL    HW1 1394   0.388   6.481   4.212
  165SOL    HW2 1395   0.465   6.429   4.078
  166SOL     OW 1396   0.531   4.535   3.910
  166SOL    HW1 1397   0.619   4.492   3.929
  166SOL    HW2 1398   0.458   4.485   3.956
  167SOL     OW 1399   1.266   1.368   3.366
  167SOL    HW1 1400   1.295   1.339   3.457
  167SOL    HW2 1401   1.170   1.342   3.352
  168SOL     OW 1402   2.909   3.521   2.768
  168SOL    HW1 1403   2.948   3.434   2.798
  168SOL    HW2 1404   2.906   3.524   2.668
  169SOL     OW 1405   5.393   2.353   7.005
  169SOL    HW1 1406   5.306   2.305   7.002
  169SOL    HW2 1407   5.377   2.451   7.013
  170SOL     OW 1408   6.721   5.383   1.728
  170SOL    HW1 1409   6.681   5.469   1.697
  170SOL    HW2 1410   6.813   5.373   1.690
  171SOL     OW 1411   3.106   2.504   0.685
  171SOL    HW1 1412   3.038   2.504   0.612
  171SOL    HW2 1413   3.066   2.540   0.769
  172SOL     OW 1414   1.511   1.317   6.848
  172SOL    HW1 1415   1.593   1.265   6.823
  172SOL    HW2 1416   1.483   1.292   6.941
  173SOL     OW 1417   5.967   0.933   4.931
  173SOL    HW1 1418   5.922   0.884   5.006
  173SOL    HW2 1419   5.986   1.027   4.960
  174SOL     OW 1420   5.973   4.264   5.516
  174SOL    HW1 1421   5.920   4.267   5.601
  174SOL    HW2 1422   5.999   4.170   5.496
  175SOL     OW 1423   0.435   6.540   2.700
  175SOL    HW1 1424   0.412   6.552   2.603
  175SOL    HW2 1425   0.431   6.628   2.746
  176SOL     OW 1426   6.720   3.534   0.956
  176SOL    HW1 1427   6.788   3.465   0.981
  176SOL    HW2 1428   6.741   3.620   1.003
  177SOL     OW 1429   6.684   2.323   3.830
  177SOL    HW1 1430   6.774   2.360   3.853
  177SOL    HW2 1431   6.654   2.260   3.902
  178SOL     OW 1432   2.162   5.781   4.776
  178SOL    HW1 1433   2.238   5.844   4.790
  178SOL    HW2 1434   2.124   5.795   4.685
  179SOL     OW 1435   3.672   4.069   2.102
  179SOL    HW1 1436   3.663   3.995   2.169
  179SOL    HW2 1437   3.590   4.072   2.045
  180SOL     OW 1438   4.666   1.655   6.472
  180SOL    HW1 1439   4.632   1.644   6.566
  180SOL    HW2 1440   4.696   1.750   6.458
  181SOL     OW 1441   3.849   0.278   5.337
  181SOL    HW1 1442   3.867   0.376   5.339
  181SOL    HW2 1443   3.789   0.253   5.413
  182SOL     OW 1444   2.951   3.047   5.599
  182SOL    HW1 1445   2.867   3.088   5.564
  182SOL    HW2 1446   3.027   3.110   5.581
  183SOL     OW 1447   2.846   1.435   3.274
  183SOL    HW1 1448   2.894   1.453   3.361
  183SOL    HW2 1449   2.748   1.451   3.287
  184SOL     OW 1450   4.979   5.153   3.291
  184SOL    HW1 1451   5.032   5.193   3.366
  184SOL    HW2 1452   5.011   5.191   3.204
  185SOL     OW 1453   0.098   6.729   4.793
  185SOL    HW1 1454   0.147   6.644   4.812
  185SOL    HW2 1455   0.145   6.805   4.839
  186SOL     OW 1456   2.850   5.983   6.011
  186SOL    HW1 1457   2.781   5.969   5.939
  186SOL    HW2 1458   2.880   6.078   6.009
  187SOL     OW 1459   4.011   5.738   1.220
  187SOL    HW1 1460   3.957   5.693   1.149
  187SOL    HW2 1461   4.068   5.809   1.179
  188SOL     OW 1462   1.592   3.885   3.495
  188SOL    HW1 1463   1.689   3.886   3.470
  188SOL    HW2 1464   1.542   3.824   3.433
  189SOL     OW 1465   5.321   4.461   5.964
  189SOL    HW1 1466   5.232   4.500   5.940
  189SOL    HW2 1467   5.312   4.413   6.052
  190SOL     OW 1468   6.018   6.930   0.681
  190SOL    HW1 1469   5.958   6.906   0.757
  190SOL    HW2 1470   5.999   6.869   0.604
  191SOL     OW 1471   1.793   2.558   5.409
  191SOL    HW1 1472   1.833   2.615   5.338
  191SOL    HW2 1473   1.816   2.462   5.392
  192SOL     OW 1474   7.013   6.748   1.507
  192SOL    HW1 1475   6.960   6.665   1.524
  192SOL    HW2 1476   0.083   6.724   1.479
  193SOL     OW 1477   3.213   0.614   1.758
  193SOL    HW1 1478   3.129   0.621   1.704
  193SOL    HW2 1479   3.196   0.648   1.850
  194SOL     OW 1480   4.328   6.224   2.963
  194SOL    HW1 1481   4.342   6.232   3.062
  194SOL    HW2 1482   4.252   6.283   2.935
  195SOL     OW 1483   3.222   0.568   0.926
  195SOL    HW1 1484   3.303   0.536   0.877
  195SOL    HW2 1485   3.163   0.620   0.865
  196SOL     OW 1486   4.529   2.774   1.396
  196SOL    HW1 1487   4.528   2.778   1.496
  196SOL    HW2 1488   4.568   2.687   1.367
  197SOL     OW 1489   1.925   6.167   0.491
  197SOL    HW1 1490   1.975   6.147   0.574
  197SOL    HW2 1491   1.971   6.125   0.413
  198SOL     OW 1492   4.880   6.782   6.614
  198SOL    HW1 1493   4.935   6.865   6.597
  198SOL    HW2 1494   4.865   6.772   6.712
  199SOL     OW 1495   2.157   0.358   3.222
  199SOL    HW1 1496   2.129   0.416   3.146
  199SOL    HW2 1497   2.231   0.403   3.273
  200SOL     OW 1498   1.354   3.904   4.320
  200SOL    HW1 1499   1.257   3.931   4.316
  200SOL    HW2 1500   1.394   3.936   4.406
  201SOL     OW 1501   4.532   1.652   6.735
  201SOL    HW1 1502   4.433   1.663   6.743
  201SOL    HW2 1503   4.578   1.715   6.798
  202SOL     OW 1504   4.298   0.644   2.922
  202SOL    HW1 1505   4.210   0.616   2.886
  202SOL    HW2 1506   4.333   0.721   2.868
  203SOL     OW 1507   5.795   2.627   0.424
  203SOL    HW1 1508   5.817   2.589   0.513
  203SOL    HW2 1509   5.747   2.558   0.369
  204SOL     OW 1510   1.595   6.187   1.092
  204SOL    HW1 1511   1.611   6.272   1.142
  204SOL    HW2 1512   1.553   6.119   1.153
  205SOL     OW 1513   5.585   0.695   1.104
  205SOL    HW1 1514   5.552   0.784   1.134
  205SOL    HW2 1515   5.644   0.656   1.174
  206SOL     OW 1516   6.769   6.116   1.231
  206SOL    HW1 1517   6.759   6.161   1.142
  206SOL    HW2 1518   6.751   6.018   1.221
  207SOL     OW 1519   6.364   2.032   6.119
  207SOL    HW1 1520   6.319   2.049   6.207
  207SOL    HW2 1521   6.383   1.934   6.110
  208SOL     OW 1522   4.037   4.248   0.059
  208SOL    HW1 1523   4.109   4.234   7.015
  208SOL    HW2 1524   3.948   4.232   0.017
  209SOL     OW 1525   7.014   6.459   3.917
  209SOL    HW1 1526   0.070   6.405   3.945
  209SOL    HW2 1527   7.005   6.456   3.817
  210SOL     OW 1528   3.994   2.168   0.514
  210SOL    HW1 1529   3.968   2.183   0.419
  210SOL    HW2 1530   3.992   2.256   0.563
  211SOL     OW 1531   1.091   3.379   1.647
  211SOL    HW1 1532   1.095   3.470   1.607
  211SOL    HW2 1533   1.096   3.386   1.747
  212SOL     OW 1534   1.086   5.470   5.155
  212SOL    HW1 1535   1.144   5.417   5.093
  212SOL    HW2 1536   1.122   5.462   5.248
  213SOL     OW 1537   3.676   2.360   0.111
  213SOL    HW1 1538   3.742   2.400   0.047
  213SOL    HW2 1539   3.607   2.428   0.136
  214SOL     OW 1540   1.496   6.198   3.311
  214SOL    HW1 1541   1.467   6.159   3.224
  214SOL    HW2 1542   1.582   6.248   3.298
  215SOL     OW 1543   2.998   3.879   3.088
  215SOL    HW1 1544   2.946   3.944   3.033
  215SOL    HW2 1545   2.967   3.786   3.069
  216SOL     OW 1546   2.810   0.297   5.593
  216SOL    HW1 1547   2.890   0.249   5.558
  216SOL    HW2 1548   2.782   0.256   5.680
  217SOL     OW 1549   6.810   2.373   4.968
  217SOL    HW1 1550   6.735   2.347   5.030
  217SOL    HW2 1551   6.874   2.432   5.017
  218SOL     OW 1552   2.642   3.834   5.711
  218SOL    HW1 1553   2.681   3.923   5.733
  218SOL    HW2 1554   2.551   3.846   5.672
  219SOL     OW 1555   3.511   5.248   0.469
  219SOL    HW1 1556   3.485   5.232   0.564
  219SOL    HW2 1557   3.529   5.160   0.424
  220SOL     OW 1558   1.640   4.458   0.120
  220SOL    HW1 1559   1.636   4.359   0.134
  220SOL    HW2 1560   1.549   4.497   0.128
  221SOL     OW 1561   5.793   2.477   4.827
  221SOL    HW1 1562   5.779   2.380   4.844
  221SOL    HW2 1563   5.878   2.490   4.776
  222SOL     OW 1564   1.870   6.519   4.781
  222SOL    HW1 1565   1.797   6.486   4.720
  222SOL    HW2 1566   1.831   6.582   4.848
  223SOL     OW 1567   5.957   5.030   2.581
  223SOL    HW1 1568   5.951   5.125   2.612
  223SOL    HW2 1569   6.000   5.026   2.492
  224SOL     OW 1570   4.255   2.299   2.403
  224SOL    HW1 1571   4.217   2.309   2.496
  224SOL    HW2 1572   4.353   2.322   2.405
  225SOL     OW 1573   5.239   6.695   1.336
  225SOL    HW1 1574   5.243   6.714   1.434
  225SOL    HW2 1575   5.199   6.773   1.289
  226SOL     OW 1576   0.681   5.481   2.701
  226SOL    HW1 1577   0.581   5.475   2.700
  226SOL    HW2 1578   0.714   5.485   2.795
  227SOL     OW 1579   1.347   3.972   3.229
  227SOL    HW1 1580   1.311   3.933   3.144
  227SOL    HW2 1581   1.446   3.955   3.234
  228SOL     OW 1582   4.097   6.583   2.667
  228SOL    HW1 1583   4.151   6.668   2.667
  228SOL    HW2 1584   4.158   6.505   2.654
  229SOL     OW 1585   6.618   5.279   2.825
  229SOL    HW1 1586   6.572   5.221   2.758
  229SOL    HW2 1587   6.663   5.222   2.894
  230SOL     OW 1588   0.971   4.664   6.125
  230SOL    HW1 1589   0.936   4.707   6.209
  230SOL    HW2 1590   0.994   4.569   6.144
  231SOL     OW 1591   0.389   2.277   6.553
  231SOL    HW1 1592   0.296   2.253   6.581
  231SOL    HW2 1593   0.426   2.347   6.615
  232SOL     OW 1594   1.200   3.971   6.096
  232SOL    HW1 1595   1.268   4.043   6.107
  232SOL    HW2 1596   1.175   3.963   5.999
  233SOL     OW 1597   3.145   6.887   6.999
  233SOL    HW1 1598   3.096   6.971   0.002
  233SOL    HW2 1599   3.085   6.829   6.944
  234SOL     OW 1600   2.626   4.676   6.303
  234SOL    HW1 1601   2.639   4.653   6.399
  234SOL    HW2 1602   2.570   4.606   6.259
  235SOL     OW 1603   3.248   3.207   5.736
  235SOL    HW1 1604   3.222   3.221   5.641
  235SOL    HW2 1605   3.203   3.276   5.794
  236SOL     OW 1606   0.440   2.214   5.943
  236SOL    HW1 1607   0.352   2.184   5.978
  236SOL    HW2 1608   0.501   2.134   5.932
  237SOL     OW 1609   6.829   6.557   1.613
  237SOL    HW1 1610   6.793   6.587   1.524
  237SOL    HW2 1611   6.816   6.630   1.680
  238SOL     OW 1612   0.182   1.657   2.601
  238SOL    HW1 1613   0.116   1.730   2.621
  238SOL    HW2 1614   0.257   1.661   2.668
  239SOL     OW 1615   6.502   5.541   0.636
  239SOL    HW1 1616   6.555   5.497   0.709
  239SOL    HW2 1617   6.439   5.608   0.677
  240SOL     OW 1618   0.237   2.682   5.383
  240SOL    HW1 1619   0.276   2.647   5.298
  240SOL    HW2 1620   0.268   2.628   5.460
  241SOL     OW 1621   5.536   2.554   4.898
  241SOL    HW1 1622   5.496   2.487   4.836
  241SOL    HW2 1623   5.636   2.553   4.887
  242SOL     OW 1624   2.688   2.462   4.185
  242SOL    HW1 1625   2.755   2.457   4.259
  242SOL    HW2 1626   2.608   2.406   4.208
  243SOL     OW 1627   4.956   1.032   6.931
  243SOL    HW1 1628   4.881   0.993   6.879
  243SOL    HW2 1629   4.945   1.131   6.938
  244SOL     OW 1630   0.730   1.812   5.924
  244SOL    HW1 1631   0.809   1.761   5.957
  244SOL    HW2 1632   0.709   1.785   5.830
  245SOL     OW 1633   4.981   2.864   3.661
  245SOL    HW1 1634   5.031   2.904   3.738
  245SOL    HW2 1635   5.022   2.894   3.575
  246SOL     OW 1636   4.869   2.955   4.154
  246SOL    HW1 1637   4.859   3.046   4.114
  246SOL    HW2 1638   4.819   2.951   4.240
  247SOL     OW 1639   3.076   0.535   2.890
  247SOL    HW1 1640   3.137   0.479   2.834
  247SOL    HW2 1641   3.127   0.613   2.926
  248SOL     OW 1642   0.182   1.803   2.332
  248SOL    HW1 1643   0.201   1.728   2.396
  248SOL    HW2 1644   0.193   1.891   2.379
  249SOL     OW 1645   2.111   5.570   5.208
  249SOL    HW1 1646   2.024   5.619   5.210
  249SOL    HW2 1647   2.095   5.473   5.226
  250SOL     OW 1648   5.344   2.325   0.450
  250SOL    HW1 1649   5.345   2.407   0.392
  250SOL    HW2 1650   5.367   2.351   0.544
  251SOL     OW 1651   2.101   0.815   0.734
  251SOL    HW1 1652   2.167   0.890   0.733
  251SOL    HW2 1653   2.029   0.834   0.668
  252SOL     OW 1654   0.450   2.084   0.122
  252SOL    HW1 1655   0.437   2.003   0.180
  252SOL    HW2 1656   0.545   2.113   0.128
  253SOL     OW 1657   2.020   4.400   6.341
  253SOL    HW1 1658   2.050   4.427   6.249
  253SOL    HW2 1659   1.920   4.390   6.341
  254SOL     OW 1660   4.671   3.716   6.079
  254SOL    HW1 1661   4.596   3.754   6.025
  254SOL    HW2 1662   4.690   3.776   6.158
  255SOL     OW 1663   4.156   2.233   2.171
  255SOL    HW1 1664   4.166   2.278   2.260
  255SOL    HW2 1665   4.235   2.254   2.114
  256SOL     OW 1666   6.651   5.785   1.427
  256SOL    HW1 1667   6.555   5.812   1.414
  256SOL    HW2 1668   6.702   5.801   1.343
  257SOL     OW 1669   2.495   5.809   5.926
  257SOL    HW1 1670   2.488   5.838   6.022
  257SOL    HW2 1671   2.456   5.717   5.917
  258SOL     OW 1672   4.320   4.821   4.355
  258SOL    HW1 1673   4.268   4.798   4.273
  258SOL    HW2 1674   4.268   4.795   4.436
  259SOL     OW 1675   0.724   1.994   2.903
  259SOL    HW1 1676   0.626   1.997   2.924
  259SOL    HW2 1677   0.737   1.954   2.812
  260SOL     OW 1678   6.659   6.506   5.819
  260SOL    HW1 1679   6.698   6.570   5.885
  260SOL    HW2 1680   6.586   6.453   5.862
  261SOL     OW 1681   0.742   1.311   3.950
  261SOL    HW1 1682   0.738   1.294   4.048
  261SOL    HW2 1683   0.668   1.373   3.923
  262SOL     OW 1684   1.141   4.943   1.673
  262SOL    HW1 1685   1.132   4.984   1.582
  262SOL    HW2 1686   1.067   4.977   1.731
  263SOL     OW 1687   0.616   4.358   4.196
  263SOL    HW1 1688   0.685   4.349   4.124
  263SOL    HW2 1689   0.529   4.321   4.164
  264SOL     OW 1690   3.019   4.340   0.125
  264SOL    HW1 1691   2.978   4.293   0.047
  264SOL    HW2 1692   3.070   4.274   0.180
  265SOL     OW 1693   3.980   5.483   3.579
  265SOL    HW1 1694   3.887   5.517   3.560
  265SOL    HW2 1695   4.029   5.471   3.493
  266SOL     OW 1696   4.239   3.669   7.002
  266SOL    HW1 1697   4.334   3.688   6.976
  266SOL    HW2 1698   4.223   3.570   7.000
  267SOL     OW 1699   2.038   2.440   5.925
  267SOL    HW1 1700   2.000   2.526   5.892
  267SOL    HW2 1701   2.083   2.456   6.013
  268SOL     OW 1702   2.169   4.446   3.732
  268SOL    HW1 1703   2.200   4.356   3.702
  268SOL    HW2 1704   2.102   4.436   3.805
  269SOL     OW 1705   2.324   2.158   5.342
  269SOL    HW1 1706   2.338   2.178   5.245
  269SOL    HW2 1707   2.233   2.120   5.356
  270SOL     OW 1708   5.029   6.300   4.960
  270SOL    HW1 1709   4.954   6.308   5.026
  270SOL    HW2 1710   5.013   6.222   4.900
  271SOL     OW 1711   2.147   1.855   0.406
  271SOL    HW1 1712   2.111   1.913   0.334
  271SOL    HW2 1713   2.118   1.760   0.390
  272SOL     OW 1714   4.449   5.209   0.332
  272SOL    HW1 1715   4.414   5.223   0.239
  272SOL    HW2 1716   4.398   5.266   0.396
  273SOL     OW 1717   1.730   5.875   4.023
  273SOL    HW1 1718   1.662   5.909   4.088
  273SOL    HW2 1719   1.821   5.884   4.063
  274SOL     OW 1720   5.776   2.085   1.793
  274SOL    HW1 1721   5.779   2.176   1.751
  274SOL    HW2 1722   5.683   2.047   1.784
  275SOL     OW 1723   5.854   5.663   5.877
  275SOL    HW1 1724   5.839   5.717   5.794
  275SOL    HW2 1725   5.885   5.722   5.951
  276SOL     OW 1726   0.555   0.270   4.224
  276SOL    HW1 1727   0.477   0.220   4.260
  276SOL    HW2 1728   0.537   0.294   4.128
  277SOL     OW 1729   4.100   2.802   5.322
  277SOL    HW1 1730   4.110   2.710   5.284
  277SOL    HW2 1731   4.023   2.804   5.385
  278SOL     OW 1732   5.833   4.050   3.174
  278SOL    HW1 1733   5.928   4.022   3.188
  278SOL    HW2 1734   5.776   3.969   3.157
  279SOL     OW 1735   0.214   4.005   3.664
  279SOL    HW1 1736   0.206   4.081   3.600
  279SOL    HW2 1737   0.192   4.037   3.756
  280SOL     OW 1738   4.272   2.089   3.541
  280SOL    HW1 1739   4.308   2.064   3.451
  280SOL    HW2 1740   4.298   2.020   3.608
  281SOL     OW 1741   4.749   5.850   5.323
  281SOL    HW1 1742   4.744   5.931   5.382
  281SOL    HW2 1743   4.670   5.791   5.342
  282SOL     OW 1744   0.925   2.480   0.270
  282SOL    HW1 1745   1.008   2.530   0.296
  282SOL    HW2 1746   0.938   2.383   0.287
  283SOL     OW 1747   6.229   3.763   3.652
  283SOL    HW1 1748   6.155   3.697   3.666
  283SOL    HW2 1749   6.239   3.782   3.554
  284SOL     OW 1750   5.438   6.851   2.381
  284SOL    HW1 1751   5.436   6.756   2.352
  284SOL    HW2 1752   5.390   6.861   2.468
  285SOL     OW 1753   3.870   6.432   6.213
  285SOL    HW1 1754   3.916   6.425   6.301
  285SOL    HW2 1755   3.796   6.498   6.219
  286SOL     OW 1756   2.802   5.018   5.577
  286SOL    HW1 1757   2.890   4.975   5.599
  286SOL    HW2 1758   2.767   5.065   5.658
  287SOL     OW 1759   3.327   5.579   0.363
  287SOL    HW1 1760   3.277   5.658   0.399
  287SOL    HW2 1761   3.265   5.501   0.356
  288SOL     OW 1762   4.392   1.396   0.172
  288SOL    HW1 1763   4.478   1.389   0.122
  288SOL    HW2 1764   4.410   1.425   0.266
  289SOL     OW 1765   5.300   5.048   5.003
  289SOL    HW1 1766   5.276   4.960   5.043
  289SOL    HW2 1767   5.248   5.120   5.048
  290SOL     OW 1768   3.531   0.666   5.541
  290SOL    HW1 1769   3.514   0.683   5.444
  290SOL    HW2 1770   3.629   0.658   5.558
  291SOL     OW 1771   5.296   1.233   5.179
  291SOL    HW1 1772   5.387   1.270   5.159
  291SOL    HW2 1773   5.232   1.308   5.197
  292SOL     OW 1774   3.440   0.297   3.840
  292SOL    HW1 1775   3.377   0.228   3.877
  292SOL    HW2 1776   3.406   0.388   3.863
  293SOL     OW 1777   5.417   0.474   2.826
  293SOL    HW1 1778   5.483   0.506   2.895
  293SOL    HW2 1779   5.352   0.546   2.806
  294SOL     OW 1780   6.779   1.776   6.379
  294SOL    HW1 1781   6.721   1.855   6.401
  294SOL    HW2 1782   6.810   1.733   6.463
  295SOL     OW 1783   0.455   0.604   4.978
  295SOL    HW1 1784   0.439   0.588   4.880
  295SOL    HW2 1785   0.437   0.520   5.029
  296SOL     OW 1786   0.870   1.692   1.646
  296SOL    HW1 1787   0.839   1.597   1.649
  296SOL    HW2 1788   0.882   1.720   1.551
  297SOL     OW 1789   5.150   3.234   3.321
  297SOL    HW1 1790   5.189   3.170   3.255
  297SOL    HW2 1791   5.223   3.284   3.367
  298SOL     OW 1792   4.118   0.903   5.866
  298SOL    HW1 1793   4.083   0.951   5.786
  298SOL    HW2 1794   4.193   0.956   5.907
  299SOL     OW 1795   0.713   1.409   6.034
  299SOL    HW1 1796   0.789   1.446   6.087
  299SOL    HW2 1797   0.713   1.310   6.042
  300SOL     OW 1798   4.556   6.405   3.566
  300SOL    HW1 1799   4.521   6.465   3.638
  300SOL    HW2 1800   4.499   6.323   3.561
  301SOL     OW 1801   0.202   6.317   5.693
  301SOL    HW1 1802   0.119   6.262   5.681
  301SOL    HW2 1803   0.177   6.413   5.703
  302SOL     OW 1804   7.013   6.857   2.001
  302SOL    HW1 1805   0.069   6.821   1.951
  302SOL    HW2 1806   0.011   6.862   2.098
  303SOL     OW 1807   5.462   5.977   2.410
  303SOL    HW1 1808   5.473   5.920   2.491
  303SOL    HW2 1809   5.366   5.983   2.385
  304SOL     OW 1810   1.927   0.095   4.523
  304SOL    HW1 1811   1.828   0.086   4.509
  304SOL    HW2 1812   1.949   0.076   4.619
  305SOL     OW 1813   1.338   2.087   1.208
  305SOL    HW1 1814   1.418   2.032   1.235
  305SOL    HW2 1815   1.364   2.149   1.134
  306SOL     OW 1816   0.219   0.171   2.398
  306SOL    HW1 1817   0.273   0.124   2.469
  306SOL    HW2 1818   0.211   0.268   2.422
  307SOL     OW 1819   3.723   3.401   3.558
  307SOL    HW1 1820   3.663   3.480   3.571
  307SOL    HW2 1821   3.776   3.413   3.474
  308SOL     OW 1822   6.389   1.348   2.251
  308SOL    HW1 1823   6.478   1.340   2.297
  308SOL    HW2 1824   6.340   1.261   2.259
  309SOL     OW 1825   1.821   4.761   0.141
  309SOL    HW1 1826   1.852   4.854   0.120
  309SOL    HW2 1827   1.858   4.698   0.072
  310SOL     OW 1828   5.032   6.767   4.835
  310SOL    HW1 1829   4.973   6.686   4.824
  310SOL    HW2 1830   4.976   6.849   4.840
  311SOL     OW 1831   1.169   6.481   1.958
  311SOL    HW1 1832   1.155   6.574   1.991
  311SOL    HW2 1833   1.205   6.483   1.865
  312SOL     OW 1834   3.445   0.481   4.405
  312SOL    HW1 1835   3.390   0.527   4.474
  312SOL    HW2 1836   3.386   0.425   4.347
  313SOL     OW 1837   2.951   3.199   2.764
  313SOL    HW1 1838   3.028   3.164   2.710
  313SOL    HW2 1839   2.868   3.148   2.741
  314SOL     OW 1840   3.083   5.672   6.464
  314SOL    HW1 1841   3.128   5.720   6.540
  314SOL    HW2 1842   3.152   5.625   6.409
  315SOL     OW 1843   5.867   0.492   4.266
  315SOL    HW1 1844   5.955   0.487   4.313
  315SOL    HW2 1845   5.807   0.419   4.300
  316SOL     OW 1846   3.358   1.018   5.956
  316SOL    HW1 1847   3.433   1.080   5.979
  316SOL    HW2 1848   3.285   1.029   6.023
  317SOL     OW 1849   0.742   2.252   1.121
  317SOL    HW1 1850   0.716   2.158   1.145
  317SOL    HW2 1851   0.732   2.264   1.022
  318SOL     OW 1852   0.671   0.251   3.435
  318SOL    HW1 1853   0.603   0.317   3.403
  318SOL    HW2 1854   0.666   0.168   3.379
  319SOL     OW 1855   0.187   0.820   3.164
  319SOL    HW1 1856   0.099   0.823   3.116
  319SOL    HW2 1857   0.235   0.735   3.139
  320SOL     OW 1858   4.941   1.566   0.248
  320SOL    HW1 1859   4.954   1.475   0.285
  320SOL    HW2 1860   4.966   1.566   0.151
  321SOL     OW 1861   4.530   2.999   0.768
  321SOL    HW1 1862   4.573   3.058   0.700
  321SOL    HW2 1863   4.487   3.055   0.838
  322SOL     OW 1864   3.602   2.743   6.679
  322SOL    HW1 1865   3.619   2.692   6.764
  322SOL    HW2 1866   3.626   2.839   6.693
  323SOL     OW 1867   1.446   3.373   2.535
  323SOL    HW1 1868   1.510   3.333   2.469
  323SOL    HW2 1869   1.430   3.309   2.610
  324SOL     OW 1870   0.023   0.281   3.477
  324SOL    HW1 1871   0.064   0.190   3.466
  324SOL    HW2 1872   0.078   0.335   3.540
  325SOL     OW 1873   6.328   3.659   1.028
  325SOL    HW1 1874   6.364   3.703   1.110
  325SOL    HW2 1875   6.348   3.561   1.031
  326SOL     OW 1876   0.367   5.821   6.904
  326SOL    HW1 1877   0.412   5.854   6.821
  326SOL    HW2 1878   0.319   5.897   6.948
  327SOL     OW 1879   3.909   6.219   6.615
  327SOL    HW1 1880   3.875   6.310   6.592
  327SOL    HW2 1881   3.866   6.151   6.556
  328SOL     OW 1882   1.120   5.056   3.595
  328SOL    HW1 1883   1.176   5.121   3.544
  328SOL    HW2 1884   1.090   4.983   3.533
  329SOL     OW 1885   3.454   3.172   1.911
  329SOL    HW1 1886   3.355   3.174   1.927
  329SOL    HW2 1887   3.474   3.212   1.822
  330SOL     OW 1888   2.689   3.279   7.015
  330SOL    HW1 1889   2.716   3.200   0.047
  330SOL    HW2 1890   2.728   3.270   6.924
  331SOL     OW 1891   5.180   4.763   4.822
  331SOL    HW1 1892   5.213   4.767   4.728
  331SOL    HW2 1893   5.109   4.832   4.836
  332SOL     OW 1894   5.993   2.281   3.173
  332SOL    HW1 1895   6.025   2.294   3.266
  332SOL    HW2 1896   6.003   2.366   3.122
  333SOL     OW 1897   4.017   6.665   4.125
  333SOL    HW1 1898   3.940   6.607   4.153
  333SOL    HW2 1899   4.087   6.663   4.197
  334SOL     OW 1900   2.964   3.559   4.026
  334SOL    HW1 1901   2.968   3.559   4.126
  334SOL    HW2 1902   2.939   3.468   3.994
  335SOL     OW 1903   3.245   0.895   1.160
  335SOL    HW1 1904   3.225   0.964   1.230
  335SOL    HW2 1905   3.160   0.865   1.117
  336SOL     OW 1906   4.405   2.082   4.823
  336SOL    HW1 1907   4.341   2.011   4.792
  336SOL    HW2 1908   4.464   2.044   4.895
  337SOL     OW 1909   6.916   1.159   5.302
  337SOL    HW1 1910   6.948   1.096   5.231
  337SOL    HW2 1911   6.929   1.117   5.392
  338SOL     OW 1912   4.570   1.278   1.514
  338SOL    HW1 1913   4.626   1.298   1.434
  338SOL    HW2 1914   4.601   1.334   1.591
  339SOL     OW 1915   4.266   4.848   5.844
  339SOL    HW1 1916   4.192   4.795   5.885
  339SOL    HW2 1917   4.279   4.820   5.749
  340SOL     OW 1918   5.070   3.210   5.062
  340SOL    HW1 1919   5.072   3.111   5.051
  340SOL    HW2 1920   5.073   3.253   4.972
  341SOL     OW 1921   7.011   0.119   1.966
  341SOL    HW1 1922   6.986   0.023   1.956
  341SOL    HW2 1923   0.048   0.130   2.045
  342SOL     OW 1924   4.495   1.591   2.289
  342SOL    HW1 1925   4.421   1.559   2.349
  342SOL    HW2 1926   4.526   1.681   2.320
  343SOL     OW 1927   5.437   0.548   0.898
  343SOL    HW1 1928   5.491   0.604   0.961
  343SOL    HW2 1929   5.347   0.590   0.884
  344SOL     OW 1930   6.754   3.154   1.453
  344SOL    HW1 1931   6.826   3.100   1.409
  344SOL    HW2 1932   6.795   3.220   1.516
  345SOL     OW 1933   6.720   2.489   4.166
  345SOL    HW1 1934   6.754   2.477   4.072
  345SOL    HW2 1935   6.676   2.405   4.197
  346SOL     OW 1936   2.058   5.974   2.662
  346SOL    HW1 1937   1.959   5.965   2.655
  346SOL    HW2 1938   2.095   5.896   2.713
  347SOL     OW 1939   2.533   4.622   1.464
  347SOL    HW1 1940   2.455   4.681   1.444
  347SOL    HW2 1941   2.600   4.673   1.518
  348SOL     OW 1942   5.032   4.688   1.952
  348SOL    HW1 1943   5.109   4.667   1.892
  348SOL    HW2 1944   4.998   4.604   1.994
  349SOL     OW 1945   5.327   4.518   0.691
  349SOL    HW1 1946   5.290   4.435   0.732
  349SOL    HW2 1947   5.415   4.498   0.649
  350SOL     OW 1948   2.493   1.688   0.166
  350SOL    HW1 1949   2.441   1.757   0.116
  350SOL    HW2 1950   2.533   1.624   0.102
  351SOL     OW 1951   3.306   3.909   1.011
  351SOL    HW1 1952   3.229   3.951   1.060
  351SOL    HW2 1953   3.272   3.837   0.951
  352SOL     OW 1954   4.462   6.340   2.191
  352SOL    HW1 1955   4.525   6.327   2.268
  352SOL    HW2 1956   4.373   6.370   2.225
  353SOL     OW 1957   2.261   6.740   0.511
  353SOL    HW1 1958   2.163   6.754   0.517
  353SOL    HW2 1959   2.280   6.647   0.479
  354SOL     OW 1960   1.333   2.038   0.493
  354SOL    HW1 1961   1.355   1.962   0.555
  354SOL    HW2 1962   1.378   2.121   0.525
  355SOL     OW 1963   0.550   2.869   3.467
  355SOL    HW1 1964   0.608   2.831   3.540
  355SOL    HW2 1965   0.606   2.887   3.386
  356SOL     OW 1966   2.732   0.392   5.347
  356SOL    HW1 1967   2.778   0.481   5.346
  356SOL    HW2 1968   2.742   0.351   5.437
  357SOL     OW 1969   5.912   5.994   4.407
  357SOL    HW1 1970   5.937   5.927   4.478
  357SOL    HW2 1971   5.989   6.005   4.344
  358SOL     OW 1972   3.331   5.774   6.569
  358SOL    HW1 1973   3.421   5.779   6.526
  358SOL    HW2 1974   3.314   5.856   6.623
  359SOL     OW 1975   1.336   2.083   2.134
  359SOL    HW1 1976   1.331   1.991   2.093
  359SOL    HW2 1977   1.389   2.143   2.075
  360SOL     OW 1978   2.155   4.005   3.646
  360SOL    HW1 1979   2.161   3.913   3.684
  360SOL    HW2 1980   2.153   3.999   3.546
  361SOL     OW 1981   0.245   1.890   1.753
  361SOL    HW1 1982   0.266   1.959   1.823
  361SOL    HW2 1983   0.260   1.928   1.662
  362SOL     OW 1984   3.818   4.061   2.650
  362SOL    HW1 1985   3.856   4.006   2.724
  362SOL    HW2 1986   3.735   4.106   2.682
  363SOL     OW 1987   4.486   5.373   1.049
  363SOL    HW1 1988   4.477   5.388   0.950
  363SOL    HW2 1989   4.568   5.418   1.082
  364SOL     OW 1990   1.039   0.998   0.288
  364SOL    HW1 1991   1.014   0.907   0.323
  364SOL    HW2 1992   0.965   1.032   0.230
  365SOL     OW 1993   5.800   0.700   4.081
  365SOL    HW1 1994   5.823   0.629   4.148
  365SOL    HW2 1995   5.739   0.767   4.124
  366SOL     OW 1996   5.178   1.819   0.141
  366SOL    HW1 1997   5.085   1.850   0.159
  366SOL    HW2 1998   5.178   1.762   0.058
  367SOL     OW 1999   5.552   0.784   6.614
  367SOL    HW1 2000   5.539   0.685   6.618
  367SOL    HW2 2001   5.507   0.820   6.532
  368SOL     OW 2002   1.768   2.151   5.519
  368SOL    HW1 2003   1.737   2.149   5.424
  368SOL    HW2 2004   1.786   2.057   5.550
  369SOL     OW 2005   6.079   4.509   0.464
  369SOL    HW1 2006   6.154   4.573   0.446
  369SOL    HW2 2007   6.095   4.424   0.415
  370SOL     OW 2008   2.298   2.560   3.291
  370SOL    HW1 2009   2.278   2.497   3.367
  370SOL    HW2 2010   2.292   2.654   3.324
  371SOL     OW 2011   1.808   6.091   0.158
  371SOL    HW1 2012   1.898   6.077   0.201
  371SOL    HW2 2013   1.802   6.034   0.077
  372SOL     OW 2014   2.131   5.594   5.910
  372SOL    HW1 2015   2.229   5.608   5.928
  372SOL    HW2 2016   2.116   5.497   5.890
  373SOL     OW 2017   6.604   4.650   3.067
  373SOL    HW1 2018   6.569   4.739   3.094
  373SOL    HW2 2019   6.538   4.579   3.093
  374SOL     OW 2020   2.967   1.734   2.312
  374SOL    HW1 2021   2.932   1.749   2.404
  374SOL    HW2 2022   3.064   1.757   2.309
  375SOL     OW 2023   1.101   6.135   4.247
  375SOL    HW1 2024   1.139   6.046   4.224
  375SOL    HW2 2025   1.060   6.176   4.165
  376SOL     OW 2026   4.037   0.553   2.921
  376SOL    HW1 2027   3.992   0.466   2.944
  376SOL    HW2 2028   4.005   0.624   2.983
  377SOL     OW 2029   2.965   1.974   6.404
  377SOL    HW1 2030   2.982   1.876   6.413
  377SOL    HW2 2031   2.875   1.989   6.365
  378SOL     OW 2032   3.937   1.177   1.895
  378SOL    HW1 2033   4.025   1.177   1.847
  378SOL    HW2 2034   3.863   1.159   1.830
  379SOL     OW 2035   4.321   2.718   6.479
  379SOL    HW1 2036   4.393   2.785   6.497
  379SOL    HW2 2037   4.304   2.664   6.562
  380SOL     OW 2038   4.236   2.046   0.694
  380SOL    HW1 2039   4.236   1.956   0.738
  380SOL    HW2 2040   4.164   2.050   0.625
  381SOL     OW 2041   2.125   4.086   3.047
  381SOL    HW1 2042   2.093   4.111   2.956
  381SOL    HW2 2043   2.212   4.133   3.066
  382SOL     OW 2044   5.760   6.939   6.888
  382SOL    HW1 2045   5.714   6.939   6.977
  382SOL    HW2 2046   5.790   0.009   6.866
  383SOL     OW 2047   4.227   3.032   0.655
  383SOL    HW1 2048   4.285   3.014   0.735
  383SOL    HW2 2049   4.220   2.948   0.600
  384SOL     OW 2050   0.284   3.746   4.972
  384SOL    HW1 2051   0.277   3.649   4.950
  384SOL    HW2 2052   0.377   3.767   4.999
  385SOL     OW 2053   4.570   2.677   0.835
  385SOL    HW1 2054   4.569   2.775   0.855
  385SOL    HW2 2055   4.506   2.658   0.760
  386SOL     OW 2056   4.133   6.442   5.221
  386SOL    HW1 2057   4.169   6.525   5.264
  386SOL    HW2 2058   4.076   6.466   5.143
  387SOL     OW 2059   2.904   6.119   4.130
  387SOL    HW1 2060   2.971   6.085   4.196
  387SOL    HW2 2061   2.866   6.042   4.078
  388SOL     OW 2062   1.676   5.337   6.123
  388SOL    HW1 2063   1.732   5.256   6.144
  388SOL    HW2 2064   1.732   5.404   6.075
  389SOL     OW 2065   2.572   2.741   1.281
  389SOL    HW1 2066   2.496   2.806   1.288
  389SOL    HW2 2067   2.653   2.780   1.324
  390SOL     OW 2068   2.530   1.151   4.821
  390SOL    HW1 2069   2.533   1.195   4.731
  390SOL    HW2 2070   2.623   1.128   4.850
  391SOL     OW 2071   1.529   2.376   6.855
  391SOL    HW1 2072   1.546   2.286   6.895
  391SOL    HW2 2073   1.430   2.391   6.847
  392SOL     OW 2074   3.549   5.882   4.385
  392SOL    HW1 2075   3.500   5.828   4.454
  392SOL    HW2 2076   3.647   5.880   4.404
  393SOL     OW 2077   5.840   3.931   5.687
  393SOL    HW1 2078   5.783   3.853   5.662
  393SOL    HW2 2079   5.880   3.970   5.604
  394SOL     OW 2080   2.143   0.851   6.356
  394SOL    HW1 2081   2.102   0.902   6.281
  394SOL    HW2 2082   2.239   0.875   6.365
  395SOL     OW 2083   0.002   3.184   0.833
  395SOL    HW1 2084   0.043   3.114   0.891
  395SOL    HW2 2085   0.030   3.169   0.738
  396SOL     OW 2086   3.505   3.262   5.261
  396SOL    HW1 2087   3.416   3.308   5.251
  396SOL    HW2 2088   3.547   3.291   5.347
  397SOL     OW 2089   4.106   1.426   6.700
  397SOL    HW1 2090   4.081   1.359   6.770
  397SOL    HW2 2091   4.077   1.393   6.610
  398SOL     OW 2092   0.846   4.714   2.459
  398SOL    HW1 2093   0.933   4.751   2.427
  398SOL    HW2 2094   0.861   4.657   2.540
  399SOL     OW 2095   5.021   4.566   2.333
  399SOL    HW1 2096   5.011   4.467   2.339
  399SOL    HW2 2097   4.965   4.600   2.257
  400SOL     OW 2098   2.813   5.047   4.341
  400SOL    HW1 2099   2.877   4.979   4.375
  400SOL    HW2 2100   2.749   5.005   4.276
  401SOL     OW 2101   5.710   1.395   0.387
  401SOL    HW1 2102   5.659   1.460   0.330
  401SOL    HW2 2103   5.711   1.428   0.482
  402SOL     OW 2104   6.827   4.549   1.003
  402SOL    HW1 2105   6.873   4.515   0.921
  402SOL    HW2 2106   6.745   4.601   0.976
  403SOL     OW 2107   5.175   4.547   0.463
  403SOL    HW1 2108   5.209   4.536   0.556
  403SOL    HW2 2109   5.167   4.645   0.442
  404SOL     OW 2110   0.657   6.619   4.441
  404SOL    HW1 2111   0.700   6.671   4.367
  404SOL    HW2 2112   0.686   6.523   4.436
  405SOL     OW 2113   0.891   2.876   1.391
  405SOL    HW1 2114   0.815   2.852   1.452
  405SOL    HW2 2115   0.978   2.858   1.438
  406SOL     OW 2116   0.722   2.193   3.234
  406SOL    HW1 2117   0.744   2.102   3.198
  406SOL    HW2 2118   0.784   2.216   3.308
  407SOL     OW 2119   3.012   1.729   3.655
  407SOL    HW1 2120   3.071   1.752   3.733
  407SOL    HW2 2121   2.991   1.813   3.604
  408SOL     OW 2122   2.407   0.568   3.615
  408SOL    HW1 2123   2.373   0.517   3.694
  408SOL    HW2 2124   2.422   0.663   3.640
  409SOL     OW 2125   6.708   3.168   4.306
  409SOL    HW1 2126   6.662   3.234   4.247
  409SOL    HW2 2127   6.803   3.158   4.277
  410SOL     OW 2128   2.967   6.771   6.506
  410SOL    HW1 2129   2.972   6.822   6.592
  410SOL    HW2 2130   2.992   6.831   6.430
  411SOL     OW 2131   0.563   3.215   4.685
  411SOL    HW1 2132   0.642   3.234   4.743
  411SOL    HW2 2133   0.485   3.190   4.743
  412SOL     OW 2134   4.661   0.136   2.247
  412SOL    HW1 2135   4.590   0.199   2.277
  412SOL    HW2 2136   4.747   0.187   2.234
  413SOL     OW 2137   2.324   0.361   2.512
  413SOL    HW1 2138   2.314   0.346   2.610
  413SOL    HW2 2139   2.420   0.361   2.487
  414SOL     OW 2140   4.851   4.291   0.657
  414SOL    HW1 2141   4.794   4.219   0.698
  414SOL    HW2 2142   4.889   4.258   0.571
  415SOL     OW 2143   3.895   6.776   2.385
  415SOL    HW1 2144   3.974   6.744   2.333
  415SOL    HW2 2145   3.913   6.869   2.419
  416SOL     OW 2146   3.646   5.621   6.809
  416SOL    HW1 2147   3.656   5.635   6.711
  416SOL    HW2 2148   3.568   5.673   6.843
  417SOL     OW 2149   5.433   4.619   1.380
  417SOL    HW1 2150   5.453   4.524   1.402
  417SOL    HW2 2151   5.491   4.649   1.304
  418SOL     OW 2152   6.521   5.252   0.433
  418SOL    HW1 2153   6.426   5.283   0.441
  418SOL    HW2 2154   6.529   5.159   0.469
  419SOL     OW 2155   5.551   6.173   1.051
  419SOL    HW1 2156   5.518   6.153   0.959
  419SOL    HW2 2157   5.539   6.271   1.070
  420SOL     OW 2158   4.636   4.549   0.153
  420SOL    HW1 2159   4.678   4.614   0.216
  420SOL    HW2 2160   4.678   4.558   0.062
  421SOL     OW 2161   1.495   6.427   6.468
  421SOL    HW1 2162   1.416   6.482   6.441
  421SOL    HW2 2163   1.475   6.379   6.554
  422SOL     OW 2164   5.375   4.520   6.795
  422SOL    HW1 2165   5.449   4.588   6.799
  422SOL    HW2 2166   5.344   4.510   6.700
  423SOL     OW 2167   1.088   3.327   5.746
  423SOL    HW1 2168   1.082   3.369   5.836
  423SOL    HW2 2169   1.177   3.349   5.705
  424SOL     OW 2170   1.810   3.669   0.045
  424SOL    HW1 2171   1.817   3.735   6.993
  424SOL    HW2 2172   1.765   3.586   0.012
  425SOL     OW 2173   3.006   6.731   0.284
  425SOL    HW1 2174   2.922   6.749   0.233
  425SOL    HW2 2175   3.043   6.816   0.319
  426SOL     OW 2176   6.326   4.338   6.022
  426SOL    HW1 2177   6.265   4.333   5.943
  426SOL    HW2 2178   6.383   4.420   6.015
  427SOL     OW 2179   4.851   3.213   0.596
  427SOL    HW1 2180   4.944   3.246   0.612
  427SOL    HW2 2181   4.815   3.174   0.680
  428SOL     OW 2182   3.688   1.883   5.593
  428SOL    HW1 2183   3.723   1.947   5.525
  428SOL    HW2 2184   3.760   1.862   5.659
  429SOL     OW 2185   2.993   5.733   0.004
  429SOL    HW1 2186   2.996   5.818   0.056
  429SOL    HW2 2187   2.898   5.711   7.005
  430SOL     OW 2188   2.581   6.968   4.483
  430SOL    HW1 2189   2.551   6.995   4.575
  430SOL    HW2 2190   2.502   6.942   4.428
  431SOL     OW 2191   3.279   1.402   6.471
  431SOL    HW1 2192   3.278   1.502   6.470
  431SOL    HW2 2193   3.275   1.369   6.565
  432SOL     OW 2194   0.146   1.644   0.937
  432SOL    HW1 2195   0.148   1.559   0.989
  432SOL    HW2 2196   0.066   1.698   0.963
  433SOL     OW 2197   2.792   6.218   4.662
  433SOL    HW1 2198   2.845   6.303   4.663
  433SOL    HW2 2199   2.783   6.186   4.568
  434SOL     OW 2200   6.189   3.429   1.265
  434SOL    HW1 2201   6.178   3.360   1.336
  434SOL    HW2 2202   6.222   3.514   1.306
  435SOL     OW 2203   3.982   3.080   1.037
  435SOL    HW1 2204   4.015   3.112   1.125
  435SOL    HW2 2205   3.922   3.001   1.050
  436SOL     OW 2206   2.780   0.317   0.323
  436SOL    HW1 2207   2.799   0.414   0.311
  436SOL    HW2 2208   2.815   0.286   0.411
  437SOL     OW 2209   6.789   0.208   5.641
  437SOL    HW1 2210   6.856   0.148   5.596
  437SOL    HW2 2211   6.721   0.237   5.574
  438SOL     OW 2212   2.021   3.342   1.739
  438SOL    HW1 2213   2.072   3.298   1.813
  438SOL    HW2 2214   1.950   3.401   1.778
  439SOL     OW 2215   6.199   4.443   2.350
  439SOL    HW1 2216   6.282   4.388   2.361
  439SOL    HW2 2217   6.206   4.497   2.267
  440SOL     OW 2218   1.441   3.323   3.087
  440SOL    HW1 2219   1.476   3.401   3.036
  440SOL    HW2 2220   1.341   3.327   3.091
  441SOL     OW 2221   1.042   1.218   3.215
  441SOL    HW1 2222   1.051   1.125   3.180
  441SOL    HW2 2223   0.993   1.217   3.303
  442SOL     OW 2224   0.115   4.568   6.924
  442SOL    HW1 2225   0.078   4.574   6.832
  442SOL    HW2 2226   0.157   4.478   6.938
  443SOL     OW 2227   0.963   4.436   5.333
  443SOL    HW1 2228   0.925   4.524   5.305
  443SOL    HW2 2229   0.986   4.383   5.251
  444SOL     OW 2230   4.821   3.286   6.603
  444SOL    HW1 2231   4.904   3.309   6.552
  444SOL    HW2 2232   4.845   3.232   6.684
  445SOL     OW 2233   1.954   4.583   3.056
  445SOL    HW1 2234   2.018   4.542   2.991
  445SOL    HW2 2235   1.911   4.663   3.014
  446SOL     OW 2236   3.825   5.332   4.076
  446SOL    HW1 2237   3.732   5.348   4.041
  446SOL    HW2 2238   3.875   5.273   4.013
  447SOL     OW 2239   0.594   6.159   0.193
  447SOL    HW1 2240   0.627   6.138   0.285
  447SOL    HW2 2241   0.562   6.075   0.149
  448SOL     OW 2242   4.301   0.744   6.198
  448SOL    HW1 2243   4.208   0.766   6.169
  448SOL    HW2 2244   4.362   0.747   6.119
  449SOL     OW 2245   6.024   6.540   4.243
  449SOL    HW1 2246   6.031   6.453   4.194
  449SOL    HW2 2247   5.971   6.527   4.326
  450SOL     OW 2248   6.930   5.874   3.562
  450SOL    HW1 2249   7.001   5.806   3.545
  450SOL    HW2 2250   6.854   5.859   3.498
  451SOL     OW 2251   6.061   2.731   3.892
  451SOL    HW1 2252   6.159   2.723   3.909
  451SOL    HW2 2253   6.016   2.645   3.918
  452SOL     OW 2254   6.710   5.118   6.371
  452SOL    HW1 2255   6.621   5.090   6.335
  452SOL    HW2 2256   6.716   5.218   6.369
  453SOL     OW 2257   3.127   0.476   5.612
  453SOL    HW1 2258   3.072   0.552   5.576
  453SOL    HW2 2259   3.097   0.391   5.569
  454SOL     OW 2260   0.969   6.515   0.304
  454SOL    HW1 2261   1.038   6.565   0.251
  454SOL    HW2 2262   1.015   6.458   0.372
  455SOL     OW 2263   4.585   0.878   4.797
  455SOL    HW1 2264   4.617   0.867   4.891
  455SOL    HW2 2265   4.521   0.955   4.792
  456SOL     OW 2266   4.700   5.643   6.978
  456SOL    HW1 2267   4.770   5.688   6.922
  456SOL    HW2 2268   4.727   5.647   0.051
  457SOL     OW 2269   0.777   4.673   1.485
  457SOL    HW1 2270   0.848   4.610   1.457
  457SOL    HW2 2271   0.709   4.625   1.540
  458SOL     OW 2272   6.438   6.362   5.876
  458SOL    HW1 2273   6.456   6.274   5.921
  458SOL    HW2 2274   6.389   6.422   5.939
  459SOL     OW 2275   1.794   0.464   3.569
  459SOL    HW1 2276   1.865   0.530   3.545
  459SOL    HW2 2277   1.704   0.503   3.552
  460SOL     OW 2278   6.845   1.565   3.856
  460SOL    HW1 2279   6.847   1.662   3.831
  460SOL    HW2 2280   6.751   1.531   3.853
  461SOL     OW 2281   5.253   6.139   5.781
  461SOL    HW1 2282   5.299   6.094   5.705
  461SOL    HW2 2283   5.310   6.133   5.863
  462SOL     OW 2284   3.169   2.584   6.965
  462SOL    HW1 2285   3.170   2.597   0.041
  462SOL    HW2 2286   3.124   2.497   6.943
  463SOL     OW 2287   0.077   5.936   1.480
  463SOL    HW1 2288   7.010   5.946   1.522
  463SOL    HW2 2289   0.135   6.012   1.508
  464SOL     OW 2290   1.819   1.182   5.481
  464SOL    HW1 2291   1.794   1.278   5.494
  464SOL    HW2 2292   1.852   1.144   5.567
  465SOL     OW 2293   6.810   3.114   5.237
  465SOL    HW1 2294   6.740   3.112   5.166
  465SOL    HW2 2295   6.879   3.045   5.217
  466SOL     OW 2296   2.571   0.627   3.235
  466SOL    HW1 2297   2.669   0.642   3.221
  466SOL    HW2 2298   2.520   0.667   3.159
  467SOL     OW 2299   1.376   1.359   4.880
  467SOL    HW1 2300   1.419   1.342   4.791
  467SOL    HW2 2301   1.354   1.271   4.923
  468SOL     OW 2302   3.453   4.125   1.900
  468SOL    HW1 2303   3.498   4.193   1.844
  468SOL    HW2 2304   3.436   4.042   1.846
  469SOL     OW 2305   2.742   4.585   6.871
  469SOL    HW1 2306   2.799   4.627   6.941
  469SOL    HW2 2307   2.649   4.619   6.879
  470SOL     OW 2308   3.649   0.507   2.687
  470SOL    HW1 2309   3.599   0.477   2.768
  470SOL    HW2 2310   3.619   0.598   2.661
  471SOL     OW 2311   2.809   1.917   4.747
  471SOL    HW1 2312   2.895   1.908   4.697
  471SOL    HW2 2313   2.797   1.839   4.808
  472SOL     OW 2314   4.160   4.305   5.338
  472SOL    HW1 2315   4.154   4.374   5.410
  472SOL    HW2 2316   4.188   4.349   5.252
  473SOL     OW 2317   1.146   4.127   3.759
  473SOL    HW1 2318   1.184   4.037   3.784
  473SOL    HW2 2319   1.094   4.163   3.837
  474SOL     OW 2320   4.768   4.688   4.978
  474SOL    HW1 2321   4.739   4.699   4.883
  474SOL    HW2 2322   4.833   4.760   5.002
  475SOL     OW 2323   1.264   6.602   6.421
  475SOL    HW1 2324   1.310   6.687   6.445
  475SOL    HW2 2325   1.186   6.623   6.362
  476SOL     OW 2326   0.114   5.097   2.321
  476SOL    HW1 2327   0.035   5.060   2.272
  476SOL    HW2 2328   0.193   5.101   2.260
  477SOL     OW 2329   1.372   5.607   4.176
  477SOL    HW1 2330   1.307   5.560   4.117
  477SOL    HW2 2331   1.431   5.540   4.221
  478SOL     OW 2332   1.619   5.222   3.378
  478SOL    HW1 2333   1.548   5.285   3.411
  478SOL    HW2 2334   1.599   5.129   3.409
  479SOL     OW 2335   3.447   1.617   1.432
  479SOL    HW1 2336   3.373   1.645   1.371
  479SOL    HW2 2337   3.437   1.662   1.520
  480SOL     OW 2338   1.292   6.416   2.625
  480SOL    HW1 2339   1.312   6.514   2.621
  480SOL    HW2 2340   1.223   6.399   2.695
  481SOL     OW 2341   2.963   6.671   1.642
  481SOL    HW1 2342   2.983   6.598   1.707
  481SOL    HW2 2343   3.011   6.754   1.669
  482SOL     OW 2344   5.744   5.069   1.500
  482SOL    HW1 2345   5.668   5.066   1.564
  482SOL    HW2 2346   5.782   4.977   1.488
  483SOL     OW 2347   6.057   1.963   0.938
  483SOL    HW1 2348   6.023   2.024   1.009
  483SOL    HW2 2349   6.140   2.002   0.898
  484SOL     OW 2350   6.866   2.367   5.453
  484SOL    HW1 2351   6.787   2.377   5.394
  484SOL    HW2 2352   6.948   2.355   5.398
  485SOL     OW 2353   4.126   5.398   2.009
  485SOL    HW1 2354   4.051   5.373   1.948
  485SOL    HW2 2355   4.195   5.450   1.958
  486SOL     OW 2356   0.584   0.599   6.263
  486SOL    HW1 2357   0.503   0.541   6.252
  486SOL    HW2 2358   0.567   0.688   6.222
  487SOL     OW 2359   6.474   3.083   6.589
  487SOL    HW1 2360   6.435   3.012   6.647
  487SOL    HW2 2361   6.438   3.173   6.616
  488SOL     OW 2362   0.358   3.222   2.385
  488SOL    HW1 2363   0.433   3.201   2.321
  488SOL    HW2 2364   0.289   3.150   2.380
  489SOL     OW 2365   3.201   6.058   5.836
  489SOL    HW1 2366   3.216   6.101   5.747
  489SOL    HW2 2367   3.191   5.959   5.825
  490SOL     OW 2368   5.122   6.281   4.532
  490SOL    HW1 2369   5.186   6.320   4.466
  490SOL    HW2 2370   5.057   6.352   4.561
  491SOL     OW 2371   0.269   2.273   3.137
  491SOL    HW1 2372   0.270   2.291   3.039
  491SOL    HW2 2373   0.283   2.176   3.154
  492SOL     OW 2374   1.695   1.035   4.838
  492SOL    HW1 2375   1.739   0.948   4.814
  492SOL    HW2 2376   1.623   1.018   4.905
  493SOL     OW 2377   6.261   4.119   3.893
  493SOL    HW1 2378   6.203   4.038   3.898
  493SOL    HW2 2379   6.242   4.169   3.808
  494SOL     OW 2380   6.573   1.663   6.873
  494SOL    HW1 2381   6.668   1.688   6.853
  494SOL    HW2 2382   6.569   1.566   6.897
  495SOL     OW 2383   3.940   4.502   1.001
  495SOL    HW1 2384   3.895   4.438   0.938
  495SOL    HW2 2385   3.942   4.593   0.959
  496SOL     OW 2386   6.269   3.111   3.485
  496SOL    HW1 2387   6.285   3.116   3.387
  496SOL    HW2 2388   6.319   3.033   3.523
  497SOL     OW 2389   4.221   0.453   3.998
  497SOL    HW1 2390   4.303   0.403   3.972
  497SOL    HW2 2391   4.245   0.524   4.064
  498SOL     OW 2392   1.014   3.405   2.800
  498SOL    HW1 2393   0.983   3.316   2.768
  498SOL    HW2 2394   1.079   3.443   2.734
  499SOL     OW 2395   3.464   1.652   5.230
  499SOL    HW1 2396   3.409   1.712   5.172
  499SOL    HW2 2397   3.448   1.674   5.326
  500SOL     OW 2398   1.322   4.024   2.646
  500SOL    HW1 2399   1.361   4.029   2.738
  500SOL    HW2 2400   1.391   4.052   2.579
  501SOL     OW 2401   0.773   4.927   6.574
  501SOL    HW1 2402   0.677   4.914   6.600
  501SOL    HW2 2403   0.830   4.929   6.656
  502SOL     OW 2404   3.042   5.136   6.478
  502SOL    HW1 2405   3.059   5.183   6.392
  502SOL    HW2 2406   3.076   5.191   6.554
  503SOL     OW 2407   5.521   5.696   4.797
  503SOL    HW1 2408   5.469   5.620   4.759
  503SOL    HW2 2409   5.494   5.781   4.751
  504SOL     OW 2410   1.872   5.492   4.204
  504SOL    HW1 2411   1.957   5.441   4.217
  504SOL    HW2 2412   1.868   5.567   4.270
  505SOL     OW 2413   4.471   6.866   5.614
  505SOL    HW1 2414   4.392   6.899   5.667
  505SOL    HW2 2415   4.454   6.772   5.585
  506SOL     OW 2416   2.367   3.501   6.848
  506SOL    HW1 2417   2.373   3.583   6.790
  506SOL    HW2 2418   2.450   3.492   6.902
  507SOL     OW 2419   3.635   1.565   4.045
  507SOL    HW1 2420   3.639   1.508   3.962
  507SOL    HW2 2421   3.696   1.644   4.033
  508SOL     OW 2422   6.205   4.509   4.041
  508SOL    HW1 2423   6.159   4.455   4.112
  508SOL    HW2 2424   6.212   4.604   4.072
  509SOL     OW 2425   4.661   2.297   1.851
  509SOL    HW1 2426   4.650   2.391   1.882
  509SOL    HW2 2427   4.758   2.278   1.836
  510SOL     OW 2428   0.292   3.950   4.215
  510SOL    HW1 2429   0.389   3.962   4.194
  510SOL    HW2 2430   0.279   3.864   4.264
  511SOL     OW 2431   0.273   6.143   1.122
  511SOL    HW1 2432   0.272   6.049   1.158
  511SOL    HW2 2433   0.367   6.176   1.117
  512SOL     OW 2434   0.577   3.781   6.549
  512SOL    HW1 2435   0.534   3.721   6.480
  512SOL    HW2 2436   0.608   3.725   6.626
  513SOL     OW 2437   0.031   5.631   4.577
  513SOL    HW1 2438   0.120   5.586   4.568
  513SOL    HW2 2439   0.007   5.675   4.491
  514SOL     OW 2440   5.849   1.667   3.762
  514SOL    HW1 2441   5.845   1.628   3.854
  514SOL    HW2 2442   5.920   1.619   3.709
  515SOL     OW 2443   1.716   6.296   0.340
  515SOL    HW1 2444   1.762   6.296   0.429
  515SOL    HW2 2445   1.740   6.212   0.291
  516SOL     OW 2446   1.404   5.056   2.312
  516SOL    HW1 2447   1.385   4.972   2.363
  516SOL    HW2 2448   1.385   5.135   2.370
  517SOL     OW 2449   5.004   0.598   6.807
  517SOL    HW1 2450   5.079   0.536   6.785
  517SOL    HW2 2451   4.924   0.575   6.753
  518SOL     OW 2452   2.782   1.870   0.571
  518SOL    HW1 2453   2.752   1.780   0.537
  518SOL    HW2 2454   2.876   1.887   0.542
  519SOL     OW 2455   0.509   6.795   0.790
  519SOL    HW1 2456   0.447   6.731   0.834
  519SOL    HW2 2457   0.515   6.774   0.692
  520SOL     OW 2458   6.442   4.181   5.212
  520SOL    HW1 2459   6.351   4.216   5.236
  520SOL    HW2 2460   6.464   4.104   5.271
  521SOL     OW 2461   6.535   0.826   0.962
  521SOL    HW1 2462   6.619   0.836   0.908
  521SOL    HW2 2463   6.513   0.913   1.006
  522SOL     OW 2464   3.680   3.564   5.402
  522SOL    HW1 2465   3.754   3.507   5.436
  522SOL    HW2 2466   3.627   3.512   5.335
  523SOL     OW 2467   6.602   6.430   5.052
  523SOL    HW1 2468   6.571   6.345   5.009
  523SOL    HW2 2469   6.701   6.437   5.044
  524SOL     OW 2470   4.327   1.388   5.642
  524SOL    HW1 2471   4.238   1.434   5.642
  524SOL    HW2 2472   4.341   1.343   5.731
  525SOL     OW 2473   2.638   2.870   6.505
  525SOL    HW1 2474   2.681   2.947   6.552
  525SOL    HW2 2475   2.702   2.792   6.503
  526SOL     OW 2476   4.531   5.941   4.857
  526SOL    HW1 2477   4.451   5.997   4.835
  526SOL    HW2 2478   4.614   5.993   4.836
  527SOL     OW 2479   1.004   2.257   0.104
  527SOL    HW1 2480   0.977   2.169   0.142
  527SOL    HW2 2481   0.924   2.305   0.069
  528SOL     OW 2482   2.291   0.486   5.354
  528SOL    HW1 2483   2.360   0.433   5.403
  528SOL    HW2 2484   2.278   0.574   5.400
  529SOL     OW 2485   6.833   4.526   4.389
  529SOL    HW1 2486   6.821   4.493   4.482
  529SOL    HW2 2487   6.743   4.536   4.346
  530SOL     OW 2488   1.603   2.782   5.105
  530SOL    HW1 2489   1.548   2.718   5.158
  530SOL    HW2 2490   1.651   2.732   5.033
  531SOL     OW 2491   0.210   0.639   0.326
  531SOL    HW1 2492   0.185   0.547   0.297
  531SOL    HW2 2493   0.151   0.706   0.281
  532SOL     OW 2494   2.096   0.278   5.256
  532SOL    HW1 2495   2.159   0.351   5.283
  532SOL    HW2 2496   2.124   0.192   5.300
  533SOL     OW 2497   5.612   0.100   4.731
  533SOL    HW1 2498   5.568   0.175   4.681
  533SOL    HW2 2499   5.684   0.061   4.675
  534SOL     OW 2500   3.928   5.748   2.191
  534SOL    HW1 2501   3.959   5.655   2.208
  534SOL    HW2 2502   3.950   5.806   2.269
  535SOL     OW 2503   6.852   4.165   3.058
  535SOL    HW1 2504   6.875   4.068   3.056
  535SOL    HW2 2505   6.790   4.183   3.135
  536SOL     OW 2506   1.260   5.695   0.708
  536SOL    HW1 2507   1.196   5.767   0.735
  536SOL    HW2 2508   1.348   5.708   0.753
  537SOL     OW 2509   2.136   0.228   2.889
  537SOL    HW1 2510   2.088   0.141   2.901
  537SOL    HW2 2511   2.103   0.272   2.805
  538SOL     OW 2512   1.425   4.389   3.671
  538SOL    HW1 2513   1.437   4.313   3.734
  538SOL    HW2 2514   1.352   4.366   3.605
  539SOL     OW 2515   1.425   5.301   1.254
  539SOL    HW1 2516   1.366   5.276   1.177
  539SOL    HW2 2517   1.370   5.337   1.329
  540SOL     OW 2518   1.538   2.644   1.258
  540SOL    HW1 2519   1.509   2.675   1.167
  540SOL    HW2 2520   1.635   2.621   1.256
  541SOL     OW 2521   3.780   5.376   5.109
  541SOL    HW1 2522   3.696   5.323   5.100
  541SOL    HW2 2523   3.857   5.324   5.073
  542SOL     OW 2524   5.963   6.074   0.130
  542SOL    HW1 2525   5.983   6.094   0.034
  542SOL    HW2 2526   5.867   6.097   0.150
  543SOL     OW 2527   0.254   6.023   0.005
  543SOL    HW1 2528   0.324   6.094   7.021
  543SOL    HW2 2529   0.209   6.030   0.094
  544SOL     OW 2530   1.178   5.803   6.689
  544SOL    HW1 2531   1.214   5.765   6.604
  544SOL    HW2 2532   1.248   5.860   6.733
  545SOL     OW 2533   3.389   1.833   3.750
  545SOL    HW1 2534   3.417   1.928   3.737
  545SOL    HW2 2535   3.466   1.772   3.730
  546SOL     OW 2536   1.372   3.119   6.945
  546SOL    HW1 2537   1.333   3.068   6.869
  546SOL    HW2 2538   1.411   3.204   6.912
  547SOL     OW 2539   3.168   2.241   0.112
  547SOL    HW1 2540   3.210   2.241   0.022
  547SOL    HW2 2541   3.145   2.147   0.139
  548SOL     OW 2542   3.170   3.320   5.246
  548SOL    HW1 2543   3.126   3.408   5.232
  548SOL    HW2 2544   3.178   3.271   5.159
  549SOL     OW 2545   0.567   3.901   1.523
  549SOL    HW1 2546   0.565   3.821   1.583
  549SOL    HW2 2547   0.540   3.873   1.431
  550SOL     OW 2548   6.969   3.708   1.544
  550SOL    HW1 2549   6.963   3.750   1.635
  550SOL    HW2 2550   0.003   3.625   1.550
  551SOL     OW 2551   6.733   1.870   6.686
  551SOL    HW1 2552   6.755   1.968   6.690
  551SOL    HW2 2553   6.775   1.823   6.764
  552SOL     OW 2554   4.869   5.556   0.451
  552SOL    HW1 2555   4.931   5.550   0.530
  552SOL    HW2 2556   4.776   5.536   0.480
  553SOL     OW 2557   1.528   1.811   1.499
  553SOL    HW1 2558   1.558   1.883   1.562
  553SOL    HW2 2559   1.431   1.822   1.479
  554SOL     OW 2560   4.802   5.678   4.983
  554SOL    HW1 2561   4.874   5.609   4.982
  554SOL    HW2 2562   4.787   5.713   4.890
  555SOL     OW 2563   1.880   4.407   4.618
  555SOL    HW1 2564   1.791   4.386   4.659
  555SOL    HW2 2565   1.866   4.454   4.531
  556SOL     OW 2566   5.756   3.098   3.042
  556SOL    HW1 2567   5.764   3.189   3.084
  556SOL    HW2 2568   5.833   3.084   2.980
  557SOL     OW 2569   6.797   5.428   6.152
  557SOL    HW1 2570   6.750   5.424   6.241
  557SOL    HW2 2571   6.883   5.378   6.158
  558SOL     OW 2572   4.304   3.722   5.526
  558SOL    HW1 2573   4.303   3.661   5.447
  558SOL    HW2 2574   4.377   3.789   5.515
  559SOL     OW 2575   6.064   5.804   6.010
  559SOL    HW1 2576   6.088   5.800   5.913
  559SOL    HW2 2577   6.134   5.757   6.064
  560SOL     OW 2578   3.865   6.535   0.118
  560SOL    HW1 2579   3.834   6.496   0.031
  560SOL    HW2 2580   3.922   6.615   0.101
  561SOL     OW 2581   5.366   6.371   1.145
  561SOL    HW1 2582   5.448   6.423   1.168
  561SOL    HW2 2583   5.311   6.422   1.079
  562SOL     OW 2584   6.524   0.630   6.876
  562SOL    HW1 2585   6.524   0.624   6.776
  562SOL    HW2 2586   6.440   0.674   6.907
  563SOL     OW 2587   3.245   0.089   4.894
  563SOL    HW1 2588   3.193   0.025   4.837
  563SOL    HW2 2589   3.192   0.172   4.909
  564SOL     OW 2590   0.248   1.865   6.566
  564SOL    HW1 2591   0.244   1.877   6.466
  564SOL    HW2 2592   0.251   1.768   6.588
  565SOL     OW 2593   4.666   4.398   5.256
  565SOL    HW1 2594   4.706   4.315   5.293
  565SOL    HW2 2595   4.738   4.464   5.234
  566SOL     OW 2596   5.666   5.134   2.384
  566SOL    HW1 2597   5.646   5.039   2.409
  566SOL    HW2 2598   5.581   5.180   2.358
  567SOL     OW 2599   3.995   3.843   4.250
  567SOL    HW1 2600   3.977   3.749   4.221
  567SOL    HW2 2601   4.005   3.845   4.350
  568SOL     OW 2602   1.929   1.214   6.025
  568SOL    HW1 2603   1.973   1.304   6.027
  568SOL    HW2 2604   1.978   1.152   6.087
  569SOL     OW 2605   2.555   3.502   0.051
  569SOL    HW1 2606   2.583   3.549   0.135
  569SOL    HW2 2607   2.594   3.410   0.050
  570SOL     OW 2608   0.245   5.861   0.983
  570SOL    HW1 2609   0.278   5.843   1.076
  570SOL    HW2 2610   0.324   5.864   0.921
  571SOL     OW 2611   4.391   5.287   3.041
  571SOL    HW1 2612   4.480   5.250   3.015
  571SOL    HW2 2613   4.323   5.214   3.045
  572SOL     OW 2614   2.171   4.397   4.701
  572SOL    HW1 2615   2.193   4.341   4.781
  572SOL    HW2 2616   2.074   4.386   4.678
  573SOL     OW 2617   3.934   2.522   6.409
  573SOL    HW1 2618   3.969   2.595   6.352
  573SOL    HW2 2619   3.961   2.433   6.370
  574SOL     OW 2620   2.809   1.246   4.231
  574SOL    HW1 2621   2.747   1.325   4.229
  574SOL    HW2 2622   2.899   1.275   4.261
  575SOL     OW 2623   5.690   2.072   6.307
  575SOL    HW1 2624   5.677   1.996   6.371
  575SOL    HW2 2625   5.669   2.158   6.353
  576SOL     OW 2626   0.868   2.247   2.582
  576SOL    HW1 2627   0.874   2.308   2.662
  576SOL    HW2 2628   0.936   2.275   2.514
  577SOL     OW 2629   3.065   2.205   4.278
  577SOL    HW1 2630   2.993   2.263   4.317
  577SOL    HW2 2631   3.038   2.109   4.287
  578SOL     OW 2632   0.107   3.541   4.630
  578SOL    HW1 2633   0.101   3.484   4.547
  578SOL    HW2 2634   0.072   3.632   4.609
  579SOL     OW 2635   3.737   3.496   0.313
  579SOL    HW1 2636   3.774   3.403   0.302
  579SOL    HW2 2637   3.809   3.563   0.296
  580SOL     OW 2638   0.717   6.068   6.769
  580SOL    HW1 2639   0.724   5.974   6.736
  580SOL    HW2 2640   0.804   6.095   6.811
  581SOL     OW 2641   4.127   3.280   2.233
  581SOL    HW1 2642   4.218   3.241   2.246
  581SOL    HW2 2643   4.121   3.368   2.281
  582SOL     OW 2644   6.320   4.268   1.902
  582SOL    HW1 2645   6.377   4.238   1.826
  582SOL    HW2 2646   6.317   4.367   1.905
  583SOL     OW 2647   2.579   5.727   6.807
  583SOL    HW1 2648   2.595   5.632   6.782
  583SOL    HW2 2649   2.643   5.786   6.757
  584SOL     OW 2650   0.828   5.321   5.082
  584SOL    HW1 2651   0.848   5.223   5.076
  584SOL    HW2 2652   0.893   5.364   5.145
  585SOL     OW 2653   6.176   1.432   5.757
  585SOL    HW1 2654   6.274   1.450   5.763
  585SOL    HW2 2655   6.155   1.344   5.800
  586SOL     OW 2656   2.516   5.930   1.003
  586SOL    HW1 2657   2.572   6.012   0.992
  586SOL    HW2 2658   2.535   5.888   1.091
  587SOL     OW 2659   1.264   3.623   5.924
  587SOL    HW1 2660   1.211   3.604   6.007
  587SOL    HW2 2661   1.345   3.565   5.923
  588SOL     OW 2662   2.211   0.066   1.647
  588SOL    HW1 2663   2.286   0.005   1.620
  588SOL    HW2 2664   2.124   0.021   1.630
  589SOL     OW 2665   4.551   5.255   2.373
  589SOL    HW1 2666   4.601   5.216   2.450
  589SOL    HW2 2667   4.477   5.313   2.408
  590SOL     OW 2668   6.589   2.135   1.626
  590SOL    HW1 2669   6.552   2.154   1.535
  590SOL    HW2 2670   6.534   2.065   1.671
  591SOL     OW 2671   2.865   6.328   2.907
  591SOL    HW1 2672   2.959   6.361   2.904
  591SOL    HW2 2673   2.847   6.288   2.997
  592SOL     OW 2674   5.513   0.496   6.720
  592SOL    HW1 2675   5.560   0.430   6.660
  592SOL    HW2 2676   5.575   0.523   6.794
  593SOL     OW 2677   6.108   1.403   4.252
  593SOL    HW1 2678   6.125   1.305   4.240
  593SOL    HW2 2679   6.196   1.451   4.259
  594SOL     OW 2680   5.241   3.017   1.894
  594SOL    HW1 2681   5.203   3.097   1.848
  594SOL    HW2 2682   5.197   2.935   1.858
  595SOL     OW 2683   4.788   6.969   3.930
  595SOL    HW1 2684   4.696   6.990   3.898
  595SOL    HW2 2685   4.783   6.909   4.010
  596SOL     OW 2686   0.998   3.917   2.244
  596SOL    HW1 2687   1.007   3.824   2.208
  596SOL    HW2 2688   0.934   3.969   2.187
  597SOL     OW 2689   4.556   2.460   5.854
  597SOL    HW1 2690   4.491   2.384   5.858
  597SOL    HW2 2691   4.505   2.547   5.849
  598SOL     OW 2692   3.027   3.967   1.126
  598SOL    HW1 2693   2.961   4.030   1.167
  598SOL    HW2 2694   3.036   3.885   1.183
  599SOL     OW 2695   7.000   6.725   3.313
  599SOL    HW1 2696   6.998   6.632   3.349
  599SOL    HW2 2697   0.017   6.725   3.221
  600SOL     OW 2698   2.473   1.274   1.591
  600SOL    HW1 2699   2.479   1.183   1.550
  600SOL    HW2 2700   2.550   1.330   1.560
  601SOL     OW 2701   2.347   4.742   3.523
  601SOL    HW1 2702   2.414   4.673   3.548
  601SOL    HW2 2703   2.341   4.749   3.423
  602SOL     OW 2704   0.332   0.660   1.822
  602SOL    HW1 2705   0.338   0.742   1.879
  602SOL    HW2 2706   0.275   0.592   1.868
  603SOL     OW 2707   3.827   1.742   3.234
  603SOL    HW1 2708   3.880   1.693   3.303
  603SOL    HW2 2709   3.878   1.746   3.148
  604SOL     OW 2710   0.723   4.311   5.492
  604SOL    HW1 2711   0.782   4.231   5.499
  604SOL    HW2 2712   0.713   4.338   5.396
  605SOL     OW 2713   5.920   6.949   4.784
  605SOL    HW1 2714   5.856   6.874   4.768
  605SOL    HW2 2715   6.004   6.913   4.825
  606SOL     OW 2716   3.657   6.975   2.550
  606SOL    HW1 2717   3.713   0.032   2.530
  606SOL    HW2 2718   3.685   6.936   2.638
  607SOL     OW 2719   4.228   0.804   4.032
  607SOL    HW1 2720   4.133   0.832   4.048
  607SOL    HW2 2721   4.261   0.754   4.112
  608SOL     OW 2722   5.160   2.108   1.754
  608SOL    HW1 2723   5.221   2.077   1.826
  608SOL    HW2 2724   5.196   2.081   1.665
  609SOL     OW 2725   2.890   3.482   4.809
  609SOL    HW1 2726   2.830   3.511   4.884
  609SOL    HW2 2727   2.930   3.394   4.832
  610SOL     OW 2728   5.952   1.558   4.674
  610SOL    HW1 2729   5.925   1.645   4.632
  610SOL    HW2 2730   6.045   1.566   4.710
  611SOL     OW 2731   6.046   6.980   0.038
  611SOL    HW1 2732   6.015   6.951   6.970
  611SOL    HW2 2733   6.010   0.048   0.058
  612SOL     OW 2734   2.437   5.312   5.808
  612SOL    HW1 2735   2.444   5.325   5.709
  612SOL    HW2 2736   2.434   5.214   5.828
  613SOL     OW 2737   3.868   1.663   6.848
  613SOL    HW1 2738   3.881   1.674   6.750
  613SOL    HW2 2739   3.877   1.752   6.893
  614SOL     OW 2740   5.593   3.383   1.212
  614SOL    HW1 2741   5.616   3.298   1.259
  614SOL    HW2 2742   5.526   3.434   1.266
  615SOL     OW 2743   5.008   0.165   0.813
  615SOL    HW1 2744   5.011   0.211   0.902
  615SOL    HW2 2745   5.073   0.089   0.813
  616SOL     OW 2746   5.663   0.529   4.678
  616SOL    HW1 2747   5.590   0.592   4.701
  616SOL    HW2 2748   5.746   0.555   4.728
  617SOL     OW 2749   0.039   6.093   5.685
  617SOL    HW1 2750   6.965   6.097   5.705
  617SOL    HW2 2751   0.069   5.998   5.680
  618SOL     OW 2752   5.725   4.823   0.287
  618SOL    HW1 2753   5.792   4.757   0.254
  618SOL    HW2 2754   5.669   4.781   0.359
  619SOL     OW 2755   2.736   6.737   5.758
  619SOL    HW1 2756   2.794   6.661   5.730
  619SOL    HW2 2757   2.640   6.707   5.761
  620SOL     OW 2758   4.923   2.064   2.440
  620SOL    HW1 2759   4.976   1.993   2.394
  620SOL    HW2 2760   4.878   2.026   2.521
  621SOL     OW 2761   2.975   0.423   6.578
  621SOL    HW1 2762   2.953   0.364   6.500
  621SOL    HW2 2763   3.071   0.414   6.602
  622SOL     OW 2764   0.211   3.153   5.532
  622SOL    HW1 2765   0.201   3.166   5.434
  622SOL    HW2 2766   0.265   3.071   5.550
  623SOL     OW 2767   6.550   0.259   3.023
  623SOL    HW1 2768   6.569   0.171   2.981
  623SOL    HW2 2769   6.568   0.255   3.121
  624SOL     OW 2770   6.828   1.625   5.813
  624SOL    HW1 2771   6.876   1.689   5.874
  624SOL    HW2 2772   6.822   1.536   5.857
  625SOL     OW 2773   3.675   1.033   1.089
  625SOL    HW1 2774   3.650   0.951   1.141
  625SOL    HW2 2775   3.674   1.112   1.150
  626SOL     OW 2776   0.146   5.943   3.073
  626SOL    HW1 2777   0.198   5.858   3.064
  626SOL    HW2 2778   0.207   6.021   3.060
  627SOL     OW 2779   6.492   5.948   0.656
  627SOL    HW1 2780   6.449   5.917   0.741
  627SOL    HW2 2781   6.575   5.895   0.639
  628SOL     OW 2782   3.585   4.893   6.062
  628SOL    HW1 2783   3.669   4.896   6.007
  628SOL    HW2 2784   3.508   4.925   6.007
  629SOL     OW 2785   1.299   6.860   0.088
  629SOL    HW1 2786   1.351   6.878   0.004
  629SOL    HW2 2787   1.360   6.860   0.166
  630SOL     OW 2788   0.135   1.858   1.260
  630SOL    HW1 2789   0.080   1.838   1.179
  630SOL    HW2 2790   0.208   1.922   1.235
  631SOL     OW 2791   1.566   2.886   3.558
  631SOL    HW1 2792   1.628   2.922   3.628
  631SOL    HW2 2793   1.618   2.836   3.489
  632SOL     OW 2794   2.759   4.052   0.728
  632SOL    HW1 2795   2.749   3.993   0.648
  632SOL    HW2 2796   2.838   4.023   0.782
  633SOL     OW 2797   1.648   5.651   0.610
  633SOL    HW1 2798   1.738   5.625   0.645
  633SOL    HW2 2799   1.623   5.591   0.534
  634SOL     OW 2800   2.934   3.228   4.922
  634SOL    HW1 2801   2.907   3.255   5.014
  634SOL    HW2 2802   2.863   3.170   4.881
  635SOL     OW 2803   5.591   7.006   6.236
  635SOL    HW1 2804   5.524   7.008   6.311
  635SOL    HW2 2805   5.666   6.945   6.260
  636SOL     OW 2806   2.816   1.049   5.083
  636SOL    HW1 2807   2.783   1.131   5.131
  636SOL    HW2 2808   2.913   1.059   5.062
  637SOL     OW 2809   0.256   1.351   2.899
  637SOL    HW1 2810   0.238   1.362   2.997
  637SOL    HW2 2811   0.191   1.287   2.860
  638SOL     OW 2812   6.608   3.111   5.069
  638SOL    HW1 2813   6.559   3.064   5.142
  638SOL    HW2 2814   6.557   3.100   4.983
  639SOL     OW 2815   5.869   4.235   2.203
  639SOL    HW1 2816   5.813   4.163   2.245
  639SOL    HW2 2817   5.885   4.307   2.270
  640SOL     OW 2818   0.200   3.048   2.229
  640SOL    HW1 2819   0.103   3.029   2.247
  640SOL    HW2 2820   0.211   3.082   2.136
  641SOL     OW 2821   2.617   5.431   4.639
  641SOL    HW1 2822   2.581   5.366   4.573
  641SOL    HW2 2823   2.707   5.463   4.608
  642SOL     OW 2824   0.110   5.302   4.829
  642SOL    HW1 2825   0.152   5.384   4.868
  642SOL    HW2 2826   0.182   5.238   4.801
  643SOL     OW 2827   4.409   5.191   0.691
  643SOL    HW1 2828   4.429   5.268   0.631
  643SOL    HW2 2829   4.323   5.207   0.739
  644SOL     OW 2830   6.495   6.206   5.357
  644SOL    HW1 2831   6.538   6.289   5.320
  644SOL    HW2 2832   6.537   6.182   5.444
  645SOL     OW 2833   4.209   5.771   2.570
  645SOL    HW1 2834   4.299   5.798   2.604
  645SOL    HW2 2835   4.164   5.713   2.638
  646SOL     OW 2836   3.632   2.142   4.770
  646SOL    HW1 2837   3.676   2.225   4.804
  646SOL    HW2 2838   3.594   2.090   4.846
  647SOL     OW 2839   3.677   2.610   6.433
  647SOL    HW1 2840   3.765   2.563   6.432
  647SOL    HW2 2841   3.674   2.673   6.511
  648SOL     OW 2842   6.248   1.207   3.659
  648SOL    HW1 2843   6.295   1.294   3.668
  648SOL    HW2 2844   6.298   1.149   3.594
  649SOL     OW 2845   2.771   5.399   0.486
  649SOL    HW1 2846   2.860   5.420   0.445
  649SOL    HW2 2847   2.744   5.305   0.461
  650SOL     OW 2848   0.445   3.471   0.922
  650SOL    HW1 2849   0.516   3.467   0.852
  650SOL    HW2 2850   0.443   3.385   0.972
  651SOL     OW 2851   0.291   0.317   3.680
  651SOL    HW1 2852   0.245   0.229   3.694
  651SOL    HW2 2853   0.375   0.320   3.733
  652SOL     OW 2854   4.250   5.296   1.198
  652SOL    HW1 2855   4.251   5.259   1.290
  652SOL    HW2 2856   4.343   5.320   1.170
  653SOL     OW 2857   1.339   6.319   2.393
  653SOL    HW1 2858   1.389   6.388   2.341
  653SOL    HW2 2859   1.310   6.358   2.481
  654SOL     OW 2860   0.794   0.054   5.609
  654SOL    HW1 2861   0.819   0.136   5.557
  654SOL    HW2 2862   0.720   0.077   5.673
  655SOL     OW 2863   0.895   3.746   1.293
  655SOL    HW1 2864   0.980   3.710   1.330
  655SOL    HW2 2865   0.818   3.694   1.328
  656SOL     OW 2866   3.028   6.303   6.820
  656SOL    HW1 2867   3.064   6.273   6.732
  656SOL    HW2 2868   3.091   6.276   6.893
  657SOL     OW 2869   3.748   3.217   3.253
  657SOL    HW1 2870   3.741   3.154   3.330
  657SOL    HW2 2871   3.829   3.274   3.263
  658SOL     OW 2872   1.242   1.463   4.057
  658SOL    HW1 2873   1.216   1.531   3.989
  658SOL    HW2 2874   1.200   1.375   4.035
  659SOL     OW 2875   1.942   5.423   6.520
  659SOL    HW1 2876   2.003   5.450   6.595
  659SOL    HW2 2877   1.925   5.501   6.461
  660SOL     OW 2878   5.702   4.429   2.816
  660SOL    HW1 2879   5.776   4.364   2.835
  660SOL    HW2 2880   5.657   4.453   2.902
  661SOL     OW 2881   4.264   5.273   3.894
  661SOL    HW1 2882   4.221   5.263   3.804
  661SOL    HW2 2883   4.236   5.359   3.935
  662SOL     OW 2884   4.815   3.726   0.373
  662SOL    HW1 2885   4.819   3.732   0.273
  662SOL    HW2 2886   4.756   3.650   0.399
  663SOL     OW 2887   0.178   4.405   0.191
  663SOL    HW1 2888   0.126   4.393   0.106
  663SOL    HW2 2889   0.215   4.317   0.221
  664SOL     OW 2890   1.653   7.013   6.216
  664SOL    HW1 2891   1.680   0.072   6.164
  664SOL    HW2 2892   1.641   6.937   6.153
  665SOL     OW 2893   2.904   4.840   2.903
  665SOL    HW1 2894   2.930   4.827   2.807
  665SOL    HW2 2895   2.904   4.938   2.925
  666SOL     OW 2896   3.211   1.283   6.732
  666SOL    HW1 2897   3.282   1.212   6.724
  666SOL    HW2 2898   3.126   1.242   6.766
  667SOL     OW 2899   1.672   3.429   2.231
  667SOL    HW1 2900   1.648   3.506   2.172
  667SOL    HW2 2901   1.696   3.350   2.175
  668SOL     OW 2902   4.840   0.393   0.734
  668SOL    HW1 2903   4.877   0.308   0.773
  668SOL    HW2 2904   4.796   0.447   0.806
  669SOL     OW 2905   0.821   5.741   2.838
  669SOL    HW1 2906   0.867   5.666   2.792
  669SOL    HW2 2907   0.788   5.807   2.771
  670SOL     OW 2908   3.842   3.482   3.000
  670SOL    HW1 2909   3.875   3.559   3.055
  670SOL    HW2 2910   3.920   3.428   2.968
  671SOL     OW 2911   1.613   0.794   6.630
  671SOL    HW1 2912   1.687   0.771   6.567
  671SOL    HW2 2913   1.528   0.753   6.597
  672SOL     OW 2914   0.854   2.459   2.759
  672SOL    HW1 2915   0.871   2.432   2.853
  672SOL    HW2 2916   0.931   2.513   2.725
  673SOL     OW 2917   4.825   0.649   0.065
  673SOL    HW1 2918   4.801   0.734   0.111
  673SOL    HW2 2919   4.820   0.661   6.989
  674SOL     OW 2920   0.174   2.110   4.770
  674SOL    HW1 2921   0.198   2.110   4.673
  674SOL    HW2 2922   0.115   2.032   4.790
  675SOL     OW 2923   6.294   6.630   3.731
  675SOL    HW1 2924   6.319   6.597   3.822
  675SOL    HW2 2925   6.299   6.730   3.728
  676SOL     OW 2926   2.916   5.573   4.270
  676SOL    HW1 2927   2.819   5.553   4.255
  676SOL    HW2 2928   2.926   5.663   4.311
  677SOL     OW 2929   4.320   6.490   0.613
  677SOL    HW1 2930   4.302   6.428   0.538
  677SOL    HW2 2931   4.390   6.556   0.586
  678SOL     OW 2932   2.294   1.234   5.500
  678SOL    HW1 2933   2.264   1.141   5.482
  678SOL    HW2 2934   2.241   1.273   5.576
  679SOL     OW 2935   6.151   0.834   2.235
  679SOL    HW1 2936   6.133   0.886   2.152
  679SOL    HW2 2937   6.250   0.822   2.245
  680SOL     OW 2938   5.849   4.444   4.590
  680SOL    HW1 2939   5.833   4.470   4.685
  680SOL    HW2 2940   5.841   4.525   4.532
  681SOL     OW 2941   1.225   6.565   2.210
  681SOL    HW1 2942   1.229   6.504   2.131
  681SOL    HW2 2943   1.133   6.562   2.249
  682SOL     OW 2944   0.084   0.418   6.180
  682SOL    HW1 2945   0.040   0.502   6.148
  682SOL    HW2 2946   0.055   0.341   6.122
  683SOL     OW 2947   4.773   1.569   1.012
  683SOL    HW1 2948   4.801   1.494   0.953
  683SOL    HW2 2949   4.834   1.574   1.091
  684SOL     OW 2950   0.273   5.910   6.060
  684SOL    HW1 2951   0.328   5.826   6.053
  684SOL    HW2 2952   0.225   5.911   6.148
  685SOL     OW 2953   6.149   0.585   6.695
  685SOL    HW1 2954   6.179   0.494   6.725
  685SOL    HW2 2955   6.200   0.612   6.614
  686SOL     OW 2956   6.003   4.898   2.943
  686SOL    HW1 2957   6.031   4.975   3.001
  686SOL    HW2 2958   6.006   4.926   2.847
  687SOL     OW 2959   5.841   2.363   5.614
  687SOL    HW1 2960   5.910   2.382   5.545
  687SOL    HW2 2961   5.817   2.448   5.662
  688SOL     OW 2962   6.733   3.338   5.034
  688SOL    HW1 2963   6.683   3.252   5.031
  688SOL    HW2 2964   6.767   3.354   5.127
  689SOL     OW 2965   6.020   4.246   4.847
  689SOL    HW1 2966   5.978   4.180   4.909
  689SOL    HW2 2967   6.119   4.249   4.863
  690SOL     OW 2968   0.292   3.364   3.896
  690SOL    HW1 2969   0.215   3.320   3.944
  690SOL    HW2 2970   0.262   3.453   3.862
  691SOL     OW 2971   0.075   3.216   6.674
  691SOL    HW1 2972   0.064   3.163   6.590
  691SOL    HW2 2973   0.041   3.163   6.752
  692SOL     OW 2974   2.856   6.978   2.979
  692SOL    HW1 2975   2.777   6.985   3.041
  692SOL    HW2 2976   2.868   0.041   2.930
  693SOL     OW 2977   6.129   1.864   2.914
  693SOL    HW1 2978   6.060   1.918   2.961
  693SOL    HW2 2979   6.219   1.903   2.930
  694SOL     OW 2980   1.309   0.140   2.209
  694SOL    HW1 2981   1.224   0.091   2.229
  694SOL    HW2 2982   1.361   0.152   2.294
  695SOL     OW 2983   4.688   5.502   6.356
  695SOL    HW1 2984   4.601   5.536   6.319
  695SOL    HW2 2985   4.753   5.577   6.362
  696SOL     OW 2986   5.151   6.795   2.510
  696SOL    HW1 2987   5.103   6.855   2.574
  696SOL    HW2 2988   5.190   6.717   2.560
  697SOL     OW 2989   1.732   4.128   4.046
  697SOL    HW1 2990   1.792   4.179   4.107
  697SOL    HW2 2991   1.718   4.180   3.962
  698SOL     OW 2992   5.277   5.941   4.152
  698SOL    HW1 2993   5.377   5.946   4.160
  698SOL    HW2 2994   5.253   5.897   4.066
  699SOL     OW 2995   0.960   4.276   6.620
  699SOL    HW1 2996   1.024   4.225   6.563
  699SOL    HW2 2997   0.981   4.261   6.716
  700SOL     OW 2998   2.217   1.755   4.394
  700SOL    HW1 2999   2.240   1.671   4.345
  700SOL    HW2 3000   2.120   1.756   4.416
  701SOL     OW 3001   0.926   4.690   5.837
  701SOL    HW1 3002   0.917   4.591   5.828
  701SOL    HW2 3003   0.885   4.719   5.923
  702SOL     OW 3004   5.370   5.930   5.001
  702SOL    HW1 3005   5.398   6.016   4.959
  702SOL    HW2 3006   5.411   5.921   5.091
  703SOL     OW 3007   4.843   4.175   6.430
  703SOL    HW1 3008   4.791   4.182   6.515
  703SOL    HW2 3009   4.780   4.177   6.352
  704SOL     OW 3010   2.356   0.340   1.665
  704SOL    HW1 3011   2.363   0.380   1.573
  704SOL    HW2 3012   2.305   0.254   1.660
  705SOL     OW 3013   6.937   2.094   3.618
  705SOL    HW1 3014   6.846   2.114   3.581
  705SOL    HW2 3015   6.973   2.012   3.575
  706SOL     OW 3016   5.131   2.668   3.923
  706SOL    HW1 3017   5.046   2.618   3.906
  706SOL    HW2 3018   5.175   2.689   3.835
  707SOL     OW 3019   4.679   1.971   2.580
  707SOL    HW1 3020   4.635   2.058   2.600
  707SOL    HW2 3021   4.690   1.919   2.665
  708SOL     OW 3022   4.559   0.360   2.004
  708SOL    HW1 3023   4.544   0.459   2.011
  708SOL    HW2 3024   4.642   0.335   2.054
  709SOL     OW 3025   0.964   5.542   0.173
  709SOL    HW1 3026   0.877   5.501   0.145
  709SOL    HW2 3027   0.993   5.610   0.105
  710SOL     OW 3028   3.008   3.270   2.352
  710SOL    HW1 3029   3.041   3.236   2.265
  710SOL    HW2 3030   3.045   3.214   2.427
  711SOL     OW 3031   0.982   1.209   4.787
  711SOL    HW1 3032   0.940   1.194   4.876
  711SOL    HW2 3033   0.958   1.301   4.754
  712SOL     OW 3034   1.191   3.658   2.236
  712SOL    HW1 3035   1.258   3.716   2.192
  712SOL    HW2 3036   1.167   3.582   2.175
  713SOL     OW 3037   3.011   3.900   3.718
  713SOL    HW1 3038   2.990   3.803   3.728
  713SOL    HW2 3039   3.015   3.943   3.808
  714SOL     OW 3040   5.058   4.913   5.623
  714SOL    HW1 3041   5.063   4.934   5.721
  714SOL    HW2 3042   5.011   4.987   5.575
  715SOL     OW 3043   4.979   0.574   6.486
  715SOL    HW1 3044   4.952   0.656   6.536
  715SOL    HW2 3045   5.078   0.566   6.486
  716SOL     OW 3046   6.646   5.117   1.856
  716SOL    HW1 3047   6.685   5.209   1.850
  716SOL    HW2 3048   6.719   5.050   1.865
  717SOL     OW 3049   6.072   3.131   0.163
  717SOL    HW1 3050   6.099   3.179   0.247
  717SOL    HW2 3051   6.152   3.115   0.106
  718SOL     OW 3052   2.482   3.083   6.791
  718SOL    HW1 3053   2.419   3.132   6.731
  718SOL    HW2 3054   2.576   3.095   6.757
  719SOL     OW 3055   4.765   5.258   0.452
  719SOL    HW1 3056   4.775   5.319   0.530
  719SOL    HW2 3057   4.672   5.223   0.448
  720SOL     OW 3058   2.924   1.093   5.964
  720SOL    HW1 3059   2.825   1.083   5.975
  720SOL    HW2 3060   2.959   1.014   5.914
  721SOL     OW 3061   1.155   6.514   5.537
  721SOL    HW1 3062   1.191   6.428   5.574
  721SOL    HW2 3063   1.182   6.523   5.441
  722SOL     OW 3064   4.460   6.601   5.505
  722SOL    HW1 3065   4.510   6.611   5.419
  722SOL    HW2 3066   4.519   6.556   5.573
  723SOL     OW 3067   1.733   3.433   1.850
  723SOL    HW1 3068   1.680   3.478   1.923
  723SOL    HW2 3069   1.675   3.365   1.805
  724SOL     OW 3070   6.599   0.470   4.569
  724SOL    HW1 3071   6.539   0.549   4.555
  724SOL    HW2 3072   6.602   0.449   4.667
  725SOL     OW 3073   2.722   4.770   1.635
  725SOL    HW1 3074   2.817   4.792   1.658
  725SOL    HW2 3075   2.678   4.727   1.714
  726SOL     OW 3076   4.542   6.648   6.023
  726SOL    HW1 3077   4.626   6.627   6.072
  726SOL    HW2 3078   4.470   6.673   6.088
  727SOL     OW 3079   2.303   4.230   3.612
  727SOL    HW1 3080   2.253   4.143   3.608
  727SOL    HW2 3081   2.365   4.229   3.690
  728SOL     OW 3082   0.208   3.152   5.278
  728SOL    HW1 3083   0.133   3.101   5.236
  728SOL    HW2 3084   0.220   3.239   5.230
  729SOL     OW 3085   3.067   0.753   0.806
  729SOL    HW1 3086   3.057   0.852   0.808
  729SOL    HW2 3087   3.011   0.715   0.733
  730SOL     OW 3088   5.282   1.493   5.299
  730SOL    HW1 3089   5.342   1.556   5.249
  730SOL    HW2 3090   5.217   1.545   5.354
  731SOL     OW 3091   0.034   2.780   4.267
  731SOL    HW1 3092   6.986   2.764   4.199
  731SOL    HW2 3093   7.015   2.791   4.357
  732SOL     OW 3094   6.631   3.239   3.444
  732SOL    HW1 3095   6.727   3.265   3.432
  732SOL    HW2 3096   6.618   3.145   3.413
  733SOL     OW 3097   4.577   5.106   4.517
  733SOL    HW1 3098   4.585   5.014   4.477
  733SOL    HW2 3099   4.552   5.171   4.446
  734SOL     OW 3100   0.896   5.101   7.022
  734SOL    HW1 3101   0.992   5.085   7.000
  734SOL    HW2 3102   0.860   5.024   0.051
  735SOL     OW 3103   2.626   4.671   0.102
  735SOL    HW1 3104   2.546   4.627   0.143
  735SOL    HW2 3105   2.709   4.622   0.130
  736SOL     OW 3106   5.674   1.166   2.907
  736SOL    HW1 3107   5.758   1.114   2.922
  736SOL    HW2 3108   5.672   1.200   2.813
  737SOL     OW 3109   5.770   4.059   0.580
  737SOL    HW1 3110   5.825   4.137   0.551
  737SOL    HW2 3111   5.678   4.067   0.544
  738SOL     OW 3112   0.864   4.487   2.986
  738SOL    HW1 3113   0.784   4.454   3.036
  738SOL    HW2 3114   0.899   4.570   3.029
  739SOL     OW 3115   4.506   5.974   6.411
  739SOL    HW1 3116   4.523   6.070   6.387
  739SOL    HW2 3117   4.587   5.936   6.456
  740SOL     OW 3118   5.513   0.467   0.476
  740SOL    HW1 3119   5.491   0.433   0.385
  740SOL    HW2 3120   5.593   0.418   0.512
  741SOL     OW 3121   2.616   0.284   4.061
  741SOL    HW1 3122   2.624   0.219   3.986
  741SOL    HW2 3123   2.662   0.369   4.037
  742SOL     OW 3124   1.219   6.848   2.198
  742SOL    HW1 3125   1.228   6.750   2.178
  742SOL    HW2 3126   1.304   6.881   2.239
  743SOL     OW 3127   1.869   3.007   4.464
  743SOL    HW1 3128   1.826   2.917   4.452
  743SOL    HW2 3129   1.803   3.070   4.504
  744SOL     OW 3130   0.419   5.353   0.880
  744SOL    HW1 3131   0.445   5.400   0.796
  744SOL    HW2 3132   0.326   5.317   0.870
  745SOL     OW 3133   1.814   5.698   3.206
  745SOL    HW1 3134   1.843   5.615   3.158
  745SOL    HW2 3135   1.890   5.763   3.208
  746SOL     OW 3136   2.969   0.630   3.738
  746SOL    HW1 3137   3.019   0.547   3.763
  746SOL    HW2 3138   2.875   0.625   3.773
  747SOL     OW 3139   6.319   4.247   1.544
  747SOL    HW1 3140   6.294   4.342   1.564
  747SOL    HW2 3141   6.338   4.237   1.446
  748SOL     OW 3142   3.982   3.044   2.198
  748SOL    HW1 3143   4.044   3.122   2.199
  748SOL    HW2 3144   4.012   2.979   2.128
  749SOL     OW 3145   6.350   1.810   5.042
  749SOL    HW1 3146   6.263   1.820   5.091
  749SOL    HW2 3147   6.401   1.734   5.081
  750SOL     OW 3148   2.985   3.462   1.341
  750SOL    HW1 3149   2.905   3.445   1.399
  750SOL    HW2 3150   2.956   3.473   1.246
  751SOL     OW 3151   5.272   1.330   0.521
  751SOL    HW1 3152   5.314   1.421   0.512
  751SOL    HW2 3153   5.260   1.308   0.617
  752SOL     OW 3154   4.690   1.053   1.874
  752SOL    HW1 3155   4.782   1.033   1.908
  752SOL    HW2 3156   4.624   1.035   1.946
  753SOL     OW 3157   2.628   1.221   2.584
  753SOL    HW1 3158   2.574   1.191   2.506
  753SOL    HW2 3159   2.720   1.181   2.578
  754SOL     OW 3160   5.326   5.764   7.020
  754SOL    HW1 3161   5.360   5.791   6.929
  754SOL    HW2 3162   5.250   5.700   7.009
  755SOL     OW 3163   6.915   5.849   2.988
  755SOL    HW1 3164   6.960   5.780   2.932
  755SOL    HW2 3165   6.984   5.896   3.044
  756SOL     OW 3166   3.400   6.515   3.646
  756SOL    HW1 3167   3.397   6.554   3.554
  756SOL    HW2 3168   3.494   6.520   3.682
  757SOL     OW 3169   6.484   1.196   4.942
  757SOL    HW1 3170   6.526   1.283   4.918
  757SOL    HW2 3171   6.487   1.134   4.864
  758SOL     OW 3172   4.579   2.044   1.914
  758SOL    HW1 3173   4.494   2.018   1.867
  758SOL    HW2 3174   4.610   2.133   1.881
  759SOL     OW 3175   1.816   0.464   0.585
  759SOL    HW1 3176   1.803   0.374   0.626
  759SOL    HW2 3177   1.837   0.531   0.657
  760SOL     OW 3178   4.697   2.137   5.816
  760SOL    HW1 3179   4.729   2.043   5.811
  760SOL    HW2 3180   4.598   2.140   5.802
  761SOL     OW 3181   5.577   1.678   0.004
  761SOL    HW1 3182   5.671   1.709   0.011
  761SOL    HW2 3183   5.548   1.639   0.092
  762SOL     OW 3184   2.117   5.290   4.178
  762SOL    HW1 3185   2.072   5.208   4.142
  762SOL    HW2 3186   2.197   5.312   4.122
  763SOL     OW 3187   5.783   5.352   6.735
  763SOL    HW1 3188   5.760   5.385   6.827
  763SOL    HW2 3189   5.834   5.423   6.686
  764SOL     OW 3190   4.749   1.150   2.662
  764SOL    HW1 3191   4.787   1.221   2.722
  764SOL    HW2 3192   4.761   1.060   2.705
  765SOL     OW 3193   6.552   6.712   3.260
  765SOL    HW1 3194   6.527   6.780   3.191
  765SOL    HW2 3195   6.610   6.754   3.329
  766SOL     OW 3196   0.289   6.533   0.024
  766SOL    HW1 3197   0.351   6.506   0.098
  766SOL    HW2 3198   0.280   6.458   6.982
  767SOL     OW 3199   5.849   6.958   1.191
  767SOL    HW1 3200   5.841   0.034   1.180
  767SOL    HW2 3201   5.906   6.938   1.270
  768SOL     OW 3202   3.201   6.741   3.743
  768SOL    HW1 3203   3.258   6.659   3.744
  768SOL    HW2 3204   3.165   6.758   3.834
  769SOL     OW 3205   2.996   0.741   6.621
  769SOL    HW1 3206   3.047   0.729   6.706
  769SOL    HW2 3207   2.965   0.651   6.589
  770SOL     OW 3208   2.857   5.058   3.270
  770SOL    HW1 3209   2.794   4.981   3.259
  770SOL    HW2 3210   2.912   5.068   3.187
  771SOL     OW 3211   0.238   5.481   4.475
  771SOL    HW1 3212   0.300   5.536   4.531
  771SOL    HW2 3213   0.283   5.455   4.390
  772SOL     OW 3214   6.780   4.503   5.200
  772SOL    HW1 3215   6.764   4.413   5.160
  772SOL    HW2 3216   6.730   4.572   5.148
  773SOL     OW 3217   0.405   3.757   1.890
  773SOL    HW1 3218   0.462   3.722   1.816
  773SOL    HW2 3219   0.375   3.682   1.949
  774SOL     OW 3220   1.441   1.305   1.508
  774SOL    HW1 3221   1.473   1.343   1.595
  774SOL    HW2 3222   1.467   1.209   1.502
  775SOL     OW 3223   1.322   2.393   4.354
  775SOL    HW1 3224   1.323   2.293   4.351
  775SOL    HW2 3225   1.232   2.425   4.385
  776SOL     OW 3226   2.178   0.030   5.363
  776SOL    HW1 3227   2.165   0.052   5.459
  776SOL    HW2 3228   2.134   6.965   5.342
  777SOL     OW 3229   4.317   0.355   0.604
  777SOL    HW1 3230   4.325   0.398   0.514
  777SOL    HW2 3231   4.223   0.363   0.637
  778SOL     OW 3232   4.256   5.695   4.225
  778SOL    HW1 3233   4.335   5.738   4.268
  778SOL    HW2 3234   4.241   5.605   4.266
  779SOL     OW 3235   1.153   0.857   2.888
  779SOL    HW1 3236   1.209   0.929   2.929
  779SOL    HW2 3237   1.180   0.843   2.793
  780SOL     OW 3238   5.018   3.437   5.232
  780SOL    HW1 3239   5.093   3.474   5.287
  780SOL    HW2 3240   5.056   3.377   5.161
  781SOL     OW 3241   0.851   2.028   6.635
  781SOL    HW1 3242   0.765   2.059   6.594
  781SOL    HW2 3243   0.898   1.966   6.572
  782SOL     OW 3244   0.377   4.056   0.634
  782SOL    HW1 3245   0.334   4.006   0.560
  782SOL    HW2 3246   0.444   3.998   0.680
  783SOL     OW 3247   2.296   4.060   0.300
  783SOL    HW1 3248   2.237   4.016   0.368
  783SOL    HW2 3249   2.333   3.990   0.239
  784SOL     OW 3250   5.083   6.215   3.676
  784SOL    HW1 3251   5.131   6.163   3.746
  784SOL    HW2 3252   4.985   6.211   3.693
  785SOL     OW 3253   5.978   2.255   4.058
  785SOL    HW1 3254   5.940   2.163   4.060
  785SOL    HW2 3255   6.012   2.280   4.149
  786SOL     OW 3256   6.449   6.928   0.131
  786SOL    HW1 3257   6.524   6.985   0.163
  786SOL    HW2 3258   6.370   6.939   0.192
  787SOL     OW 3259   4.327   1.228   6.755
  787SOL    HW1 3260   4.256   1.293   6.781
  787SOL    HW2 3261   4.325   1.150   6.818
  788SOL     OW 3262   0.850   4.783   3.680
  788SOL    HW1 3263   0.759   4.744   3.691
  788SOL    HW2 3264   0.899   4.777   3.767
  789SOL     OW 3265   5.970   3.503   1.099
  789SOL    HW1 3266   6.060   3.481   1.136
  789SOL    HW2 3267   5.928   3.421   1.062
  790SOL     OW 3268   3.642   0.620   3.775
  790SOL    HW1 3269   3.556   0.667   3.755
  790SOL    HW2 3270   3.635   0.575   3.864
  791SOL     OW 3271   3.800   2.069   4.487
  791SOL    HW1 3272   3.779   2.053   4.583
  791SOL    HW2 3273   3.723   2.041   4.430
  792SOL     OW 3274   5.729   6.911   3.689
  792SOL    HW1 3275   5.761   6.874   3.602
  792SOL    HW2 3276   5.778   6.868   3.765
  793SOL     OW 3277   6.767   0.047   5.869
  793SOL    HW1 3278   6.673   0.020   5.890
  793SOL    HW2 3279   6.768   0.099   5.784
  794SOL     OW 3280   3.625   5.168   4.835
  794SOL    HW1 3281   3.678   5.085   4.818
  794SOL    HW2 3282   3.551   5.176   4.768
  795SOL     OW 3283   4.699   4.911   6.313
  795SOL    HW1 3284   4.604   4.938   6.322
  795SOL    HW2 3285   4.753   4.989   6.281
  796SOL     OW 3286   0.516   1.953   5.983
  796SOL    HW1 3287   0.603   1.908   5.965
  796SOL    HW2 3288   0.442   1.901   5.940
  797SOL     OW 3289   5.988   2.791   5.392
  797SOL    HW1 3290   5.978   2.791   5.292
  797SOL    HW2 3291   6.083   2.812   5.416
  798SOL     OW 3292   6.261   0.872   5.210
  798SOL    HW1 3293   6.283   0.899   5.304
  798SOL    HW2 3294   6.319   0.921   5.146
  799SOL     OW 3295   6.819   3.700   3.806
  799SOL    HW1 3296   6.910   3.736   3.827
  799SOL    HW2 3297   6.816   3.672   3.710
  800SOL     OW 3298   6.633   1.534   1.668
  800SOL    HW1 3299   6.664   1.549   1.762
  800SOL    HW2 3300   6.658   1.441   1.638
  801SOL     OW 3301   0.467   2.090   4.018
  801SOL    HW1 3302   0.547   2.040   3.985
  801SOL    HW2 3303   0.392   2.027   4.035
  802SOL     OW 3304   5.921   1.299   1.143
  802SOL    HW1 3305   5.949   1.394   1.160
  802SOL    HW2 3306   5.992   1.252   1.091
  803SOL     OW 3307   1.677   0.471   4.789
  803SOL    HW1 3308   1.651   0.510   4.701
  803SOL    HW2 3309   1.696   0.374   4.779
  804SOL     OW 3310   6.531   6.894   1.235
  804SOL    HW1 3311   6.514   6.799   1.261
  804SOL    HW2 3312   6.587   6.896   1.152
  805SOL     OW 3313   1.326   3.383   5.624
  805SOL    HW1 3314   1.374   3.470   5.634
  805SOL    HW2 3315   1.390   3.313   5.594
  806SOL     OW 3316   4.870   0.790   0.831
  806SOL    HW1 3317   4.926   0.726   0.778
  806SOL    HW2 3318   4.821   0.852   0.769
  807SOL     OW 3319   1.051   0.076   2.839
  807SOL    HW1 3320   1.112   0.139   2.888
  807SOL    HW2 3321   1.026   0.115   2.751
  808SOL     OW 3322   6.199   3.620   5.307
  808SOL    HW1 3323   6.197   3.598   5.210
  808SOL    HW2 3324   6.171   3.540   5.360
  809SOL     OW 3325   0.808   5.399   6.088
  809SOL    HW1 3326   0.714   5.369   6.068
  809SOL    HW2 3327   0.871   5.324   6.069
  810SOL     OW 3328   6.454   4.965   6.767
  810SOL    HW1 3329   6.511   5.047   6.766
  810SOL    HW2 3330   6.458   4.923   6.857
  811SOL     OW 3331   4.439   5.076   3.646
  811SOL    HW1 3332   4.352   5.027   3.650
  811SOL    HW2 3333   4.463   5.110   3.737
  812SOL     OW 3334   0.701   0.615   2.326
  812SOL    HW1 3335   0.633   0.632   2.397
  812SOL    HW2 3336   0.656   0.615   2.237
  813SOL     OW 3337   5.917   5.659   1.966
  813SOL    HW1 3338   5.933   5.561   1.965
  813SOL    HW2 3339   5.844   5.681   1.900
  814SOL     OW 3340   5.571   5.577   1.315
  814SOL    HW1 3341   5.563   5.496   1.373
  814SOL    HW2 3342   5.484   5.593   1.268
  815SOL     OW 3343   0.706   1.519   6.961
  815SOL    HW1 3344   0.726   1.561   0.026
  815SOL    HW2 3345   0.616   1.477   6.964
  816SOL     OW 3346   6.087   0.716   1.221
  816SOL    HW1 3347   6.174   0.731   1.175
  816SOL    HW2 3348   6.095   0.639   1.285
  817SOL     OW 3349   0.604   2.029   1.508
  817SOL    HW1 3350   0.573   1.937   1.527
  817SOL    HW2 3351   0.704   2.034   1.518
  818SOL     OW 3352   6.138   1.521   2.189
  818SOL    HW1 3353   6.134   1.582   2.111
  818SOL    HW2 3354   6.216   1.459   2.179
  819SOL     OW 3355   0.344   4.927   3.092
  819SOL    HW1 3356   0.444   4.933   3.093
  819SOL    HW2 3357   0.317   4.832   3.108
  820SOL     OW 3358   1.517   2.847   4.818
  820SOL    HW1 3359   1.600   2.900   4.803
  820SOL    HW2 3360   1.503   2.832   4.916
  821SOL     OW 3361   1.555   4.019   0.371
  821SOL    HW1 3362   1.644   3.994   0.410
  821SOL    HW2 3363   1.498   3.937   0.362
  822SOL     OW 3364   1.543   3.657   4.982
  822SOL    HW1 3365   1.641   3.648   5.000
  822SOL    HW2 3366   1.503   3.720   5.049
  823SOL     OW 3367   3.068   3.311   0.970
  823SOL    HW1 3368   3.127   3.363   1.032
  823SOL    HW2 3369   3.093   3.214   0.974
  824SOL     OW 3370   6.060   2.412   5.915
  824SOL    HW1 3371   6.113   2.438   5.834
  824SOL    HW2 3372   6.028   2.495   5.962
  825SOL     OW 3373   1.578   4.355   2.063
  825SOL    HW1 3374   1.634   4.274   2.081
  825SOL    HW2 3375   1.636   4.436   2.065
  826SOL     OW 3376   0.952   4.409   5.757
  826SOL    HW1 3377   0.969   4.348   5.835
  826SOL    HW2 3378   0.854   4.417   5.741
  827SOL     OW 3379   4.000   5.285   1.097
  827SOL    HW1 3380   4.096   5.281   1.123
  827SOL    HW2 3381   3.982   5.370   1.047
  828SOL     OW 3382   6.452   6.850   5.273
  828SOL    HW1 3383   6.418   6.936   5.235
  828SOL    HW2 3384   6.433   6.775   5.210
  829SOL     OW 3385   3.677   2.958   4.924
  829SOL    HW1 3386   3.656   3.050   4.956
  829SOL    HW2 3387   3.699   2.900   5.002
  830SOL     OW 3388   4.445   3.775   5.918
  830SOL    HW1 3389   4.350   3.753   5.894
  830SOL    HW2 3390   4.506   3.711   5.872
  831SOL     OW 3391   6.489   0.096   4.851
  831SOL    HW1 3392   6.468   7.021   4.860
  831SOL    HW2 3393   6.416   0.150   4.892
  832SOL     OW 3394   2.117   1.274   5.726
  832SOL    HW1 3395   2.049   1.202   5.737
  832SOL    HW2 3396   2.084   1.344   5.663
  833SOL     OW 3397   0.868   6.860   5.442
  833SOL    HW1 3398   0.967   6.868   5.439
  833SOL    HW2 3399   0.829   6.942   5.486
  834SOL     OW 3400   3.198   4.618   5.832
  834SOL    HW1 3401   3.141   4.612   5.750
  834SOL    HW2 3402   3.266   4.690   5.821
  835SOL     OW 3403   4.610   0.815   3.104
  835SOL    HW1 3404   4.565   0.883   3.047
  835SOL    HW2 3405   4.620   0.850   3.197
  836SOL     OW 3406   2.481   0.499   6.789
  836SOL    HW1 3407   2.508   0.409   6.823
  836SOL    HW2 3408   2.383   0.499   6.770
  837SOL     OW 3409   3.937   0.832   5.137
  837SOL    HW1 3410   3.968   0.910   5.190
  837SOL    HW2 3411   3.846   0.805   5.167
  838SOL     OW 3412   1.352   4.577   2.243
  838SOL    HW1 3413   1.327   4.485   2.274
  838SOL    HW2 3414   1.344   4.640   2.320
  839SOL     OW 3415   3.439   0.982   1.738
  839SOL    HW1 3416   3.380   1.015   1.664
  839SOL    HW2 3417   3.387   0.982   1.824
  840SOL     OW 3418   0.583   1.648   6.181
  840SOL    HW1 3419   0.584   1.651   6.281
  840SOL    HW2 3420   0.675   1.632   6.147
  841SOL     OW 3421   0.340   3.692   0.510
  841SOL    HW1 3422   0.397   3.700   0.592
  841SOL    HW2 3423   0.247   3.670   0.537
  842SOL     OW 3424   3.481   5.517   3.303
  842SOL    HW1 3425   3.420   5.556   3.234
  842SOL    HW2 3426   3.470   5.566   3.389
  843SOL     OW 3427   6.717   4.201   2.385
  843SOL    HW1 3428   6.671   4.289   2.399
  843SOL    HW2 3429   6.797   4.196   2.444
  844SOL     OW 3430   5.438   5.419   0.002
  844SOL    HW1 3431   5.380   5.451   0.078
  844SOL    HW2 3432   5.382   5.407   6.943
  845SOL     OW 3433   1.750   5.391   4.541
  845SOL    HW1 3434   1.823   5.336   4.502
  845SOL    HW2 3435   1.721   5.350   4.628
  846SOL     OW 3436   5.205   3.078   6.996
  846SOL    HW1 3437   5.152   3.149   0.020
  846SOL    HW2 3438   5.298   3.077   0.011
  847SOL     OW 3439   5.302   4.028   2.074
  847SOL    HW1 3440   5.295   4.111   2.018
  847SOL    HW2 3441   5.394   4.021   2.112
  848SOL     OW 3442   6.607   0.296   5.445
  848SOL    HW1 3443   6.517   0.277   5.485
  848SOL    HW2 3444   6.602   0.379   5.389
  849SOL     OW 3445   0.739   5.401   4.248
  849SOL    HW1 3446   0.696   5.423   4.161
  849SOL    HW2 3447   0.772   5.485   4.291
  850SOL     OW 3448   3.733   0.436   3.361
  850SOL    HW1 3449   3.678   0.382   3.298
  850SOL    HW2 3450   3.715   0.533   3.347
  851SOL     OW 3451   0.428   0.676   5.280
  851SOL    HW1 3452   0.414   0.578   5.296
  851SOL    HW2 3453   0.440   0.693   5.183
  852SOL     OW 3454   2.762   4.583   6.040
  852SOL    HW1 3455   2.663   4.572   6.037
  852SOL    HW2 3456   2.798   4.589   5.946
  853SOL     OW 3457   1.425   3.778   0.860
  853SOL    HW1 3458   1.390   3.711   0.796
  853SOL    HW2 3459   1.517   3.751   0.890
  854SOL     OW 3460   6.518   5.113   2.097
  854SOL    HW1 3461   6.562   5.103   2.007
  854SOL    HW2 3462   6.420   5.096   2.087
  855SOL     OW 3463   5.235   0.717   0.839
  855SOL    HW1 3464   5.187   0.712   0.752
  855SOL    HW2 3465   5.171   0.745   0.911
  856SOL     OW 3466   0.870   1.349   5.160
  856SOL    HW1 3467   0.941   1.278   5.154
  856SOL    HW2 3468   0.858   1.374   5.256
  857SOL     OW 3469   6.361   3.871   1.688
  857SOL    HW1 3470   6.272   3.879   1.735
  857SOL    HW2 3471   6.375   3.951   1.630
  858SOL     OW 3472   3.461   3.439   1.192
  858SOL    HW1 3473   3.553   3.471   1.171
  858SOL    HW2 3474   3.417   3.502   1.256
  859SOL     OW 3475   0.021   4.861   0.583
  859SOL    HW1 3476   0.007   4.777   0.635
  859SOL    HW2 3477   0.070   4.927   0.640
  860SOL     OW 3478   2.239   4.474   0.769
  860SOL    HW1 3479   2.321   4.521   0.737
  860SOL    HW2 3480   2.240   4.379   0.738
  861SOL     OW 3481   3.469   4.684   6.192
  861SOL    HW1 3482   3.502   4.761   6.137
  861SOL    HW2 3483   3.373   4.696   6.213
  862SOL     OW 3484   4.800   4.054   3.684
  862SOL    HW1 3485   4.752   4.107   3.615
  862SOL    HW2 3486   4.838   4.115   3.753
  863SOL     OW 3487   5.821   2.257   1.045
  863SOL    HW1 3488   5.822   2.170   1.095
  863SOL    HW2 3489   5.911   2.272   1.003
  864SOL     OW 3490   6.806   4.618   2.581
  864SOL    HW1 3491   6.870   4.694   2.571
  864SOL    HW2 3492   6.750   4.633   2.662
  865SOL     OW 3493   1.893   0.728   3.781
  865SOL    HW1 3494   1.958   0.695   3.849
  865SOL    HW2 3495   1.942   0.751   3.697
  866SOL     OW 3496   3.897   1.151   0.773
  866SOL    HW1 3497   3.842   1.078   0.813
  866SOL    HW2 3498   3.938   1.120   0.688
  867SOL     OW 3499   2.059   1.460   6.259
  867SOL    HW1 3500   2.064   1.500   6.167
  867SOL    HW2 3501   2.049   1.533   6.326
  868SOL     OW 3502   5.947   2.740   3.298
  868SOL    HW1 3503   5.980   2.782   3.383
  868SOL    HW2 3504   5.972   2.644   3.297
  869SOL     OW 3505   6.952   4.376   1.529
  869SOL    HW1 3506   6.868   4.421   1.559
  869SOL    HW2 3507   6.952   4.281   1.559
  870SOL     OW 3508   6.763   2.586   0.497
  870SOL    HW1 3509   6.794   2.659   0.559
  870SOL    HW2 3510   6.709   2.520   0.548
  871SOL     OW 3511   6.257   4.096   0.864
  871SOL    HW1 3512   6.192   4.058   0.930
  871SOL    HW2 3513   6.208   4.121   0.780
  872SOL     OW 3514   6.182   2.119   2.038
  872SOL    HW1 3515   6.193   2.207   1.992
  872SOL    HW2 3516   6.233   2.119   2.124
  873SOL     OW 3517   3.969   6.825   4.856
  873SOL    HW1 3518   4.063   6.791   4.855
  873SOL    HW2 3519   3.933   6.826   4.762
  874SOL     OW 3520   0.211   3.920   6.444
  874SOL    HW1 3521   0.129   3.958   6.488
  874SOL    HW2 3522   0.198   3.822   6.428
  875SOL     OW 3523   6.024   5.195   6.780
  875SOL    HW1 3524   6.011   5.117   6.840
  875SOL    HW2 3525   5.936   5.240   6.764
  876SOL     OW 3526   0.977   2.255   0.753
  876SOL    HW1 3527   0.891   2.246   0.803
  876SOL    HW2 3528   1.053   2.231   0.814
  877SOL     OW 3529   5.808   5.914   0.540
  877SOL    HW1 3530   5.814   5.846   0.467
  877SOL    HW2 3531   5.740   5.984   0.515
  878SOL     OW 3532   3.495   2.387   0.492
  878SOL    HW1 3533   3.524   2.476   0.459
  878SOL    HW2 3534   3.575   2.330   0.510
  879SOL     OW 3535   4.146   2.001   2.684
  879SOL    HW1 3536   4.232   1.972   2.727
  879SOL    HW2 3537   4.162   2.021   2.588
  880SOL     OW 3538   4.531   5.197   1.788
  880SOL    HW1 3539   4.487   5.246   1.863
  880SOL    HW2 3540   4.628   5.221   1.784
  881SOL     OW 3541   4.701   5.035   3.605
  881SOL    HW1 3542   4.750   5.096   3.668
  881SOL    HW2 3543   4.604   5.057   3.606
  882SOL     OW 3544   0.857   2.251   4.422
  882SOL    HW1 3545   0.767   2.256   4.466
  882SOL    HW2 3546   0.894   2.344   4.411
  883SOL     OW 3547   3.422   4.524   0.255
  883SOL    HW1 3548   3.379   4.522   0.345
  883SOL    HW2 3549   3.351   4.536   0.185
  884SOL     OW 3550   4.047   3.947   1.958
  884SOL    HW1 3551   3.954   3.979   1.938
  884SOL    HW2 3552   4.055   3.927   2.055
  885SOL     OW 3553   4.626   6.394   6.196
  885SOL    HW1 3554   4.533   6.410   6.162
  885SOL    HW2 3555   4.661   6.478   6.238
  886SOL     OW 3556   4.086   1.912   6.847
  886SOL    HW1 3557   4.019   1.895   6.919
  886SOL    HW2 3558   4.075   2.005   6.812
  887SOL     OW 3559   5.506   6.817   5.921
  887SOL    HW1 3560   5.467   6.807   5.829
  887SOL    HW2 3561   5.471   6.901   5.963
  888SOL     OW 3562   6.306   6.456   3.007
  888SOL    HW1 3563   6.338   6.415   3.092
  888SOL    HW2 3564   6.379   6.510   2.966
  889SOL     OW 3565   1.097   0.104   4.329
  889SOL    HW1 3566   1.111   0.097   4.230
  889SOL    HW2 3567   1.000   0.098   4.350
  890SOL     OW 3568   1.859   4.351   2.231
  890SOL    HW1 3569   1.892   4.371   2.323
  890SOL    HW2 3570   1.928   4.380   2.164
  891SOL     OW 3571   5.477   3.824   6.458
  891SOL    HW1 3572   5.378   3.830   6.461
  891SOL    HW2 3573   5.516   3.914   6.480
  892SOL     OW 3574   2.481   5.128   1.336
  892SOL    HW1 3575   2.444   5.154   1.425
  892SOL    HW2 3576   2.572   5.087   1.349
  893SOL     OW 3577   1.852   6.550   1.875
  893SOL    HW1 3578   1.844   6.632   1.818
  893SOL    HW2 3579   1.767   6.498   1.870
  894SOL     OW 3580   0.969   5.497   4.344
  894SOL    HW1 3581   0.972   5.488   4.443
  894SOL    HW2 3582   0.997   5.410   4.302
  895SOL     OW 3583   2.549   0.918   4.411
  895SOL    HW1 3584   2.528   1.010   4.445
  895SOL    HW2 3585   2.477   0.855   4.439
  896SOL     OW 3586   5.133   6.951   3.456
  896SOL    HW1 3587   5.080   6.955   3.541
  896SOL    HW2 3588   5.148   0.020   3.422
  897SOL     OW 3589   5.143   1.726   6.246
  897SOL    HW1 3590   5.103   1.805   6.200
  897SOL    HW2 3591   5.073   1.679   6.299
  898SOL     OW 3592   5.886   5.877   3.973
  898SOL    HW1 3593   5.846   5.952   3.922
  898SOL    HW2 3594   5.856   5.881   4.068
  899SOL     OW 3595   1.424   4.232   0.060
  899SOL    HW1 3596   1.400   4.323   0.094
  899SOL    HW2 3597   1.513   4.205   0.096
  900SOL     OW 3598   0.539   5.931   3.570
  900SOL    HW1 3599   0.572   6.024   3.581
  900SOL    HW2 3600   0.440   5.929   3.585
  901SOL     OW 3601   5.482   1.821   3.464
  901SOL    HW1 3602   5.442   1.852   3.550
  901SOL    HW2 3603   5.578   1.796   3.478
  902SOL     OW 3604   0.990   6.221   0.035
  902SOL    HW1 3605   1.010   6.315   0.007
  902SOL    HW2 3606   1.066   6.186   0.090
  903SOL     OW 3607   0.512   4.881   6.655
  903SOL    HW1 3608   0.491   4.972   6.690
  903SOL    HW2 3609   0.503   4.814   6.728
  904SOL     OW 3610   1.653   0.884   3.840
  904SOL    HW1 3611   1.731   0.824   3.821
  904SOL    HW2 3612   1.611   0.913   3.754
  905SOL     OW 3613   6.207   2.162   4.965
  905SOL    HW1 3614   6.170   2.102   4.894
  905SOL    HW2 3615   6.296   2.127   4.994
  906SOL     OW 3616   6.292   4.124   5.566
  906SOL    HW1 3617   6.313   4.060   5.639
  906SOL    HW2 3618   6.212   4.092   5.515
  907SOL     OW 3619   0.277   3.141   1.949
  907SOL    HW1 3620   0.256   3.052   1.908
  907SOL    HW2 3621   0.260   3.213   1.882
  908SOL     OW 3622   2.706   0.901   3.243
  908SOL    HW1 3623   2.752   0.834   3.184
  908SOL    HW2 3624   2.609   0.905   3.220
  909SOL     OW 3625   4.259   6.766   0.946
  909SOL    HW1 3626   4.211   6.807   1.023
  909SOL    HW2 3627   4.256   6.828   0.868
  910SOL     OW 3628   1.639   1.484   2.248
  910SOL    HW1 3629   1.607   1.576   2.270
  910SOL    HW2 3630   1.627   1.467   2.150
  911SOL     OW 3631   0.618   3.953   0.836
  911SOL    HW1 3632   0.697   3.901   0.866
  911SOL    HW2 3633   0.639   4.051   0.839
  912SOL     OW 3634   0.726   1.022   6.323
  912SOL    HW1 3635   0.739   1.025   6.422
  912SOL    HW2 3636   0.702   0.929   6.296
  913SOL     OW 3637   2.050   1.234   2.209
  913SOL    HW1 3638   2.016   1.327   2.196
  913SOL    HW2 3639   2.066   1.191   2.119
  914SOL     OW 3640   3.058   5.861   2.125
  914SOL    HW1 3641   3.103   5.784   2.079
  914SOL    HW2 3642   3.055   5.939   2.063
  915SOL     OW 3643   1.628   2.588   0.386
  915SOL    HW1 3644   1.708   2.647   0.381
  915SOL    HW2 3645   1.605   2.555   0.295
  916SOL     OW 3646   1.666   3.214   2.405
  916SOL    HW1 3647   1.677   3.144   2.334
  916SOL    HW2 3648   1.694   3.303   2.369
  917SOL     OW 3649   3.824   1.668   6.566
  917SOL    HW1 3650   3.872   1.745   6.526
  917SOL    HW2 3651   3.830   1.589   6.505
  918SOL     OW 3652   0.388   1.986   5.217
  918SOL    HW1 3653   0.310   1.978   5.155
  918SOL    HW2 3654   0.446   2.062   5.187
  919SOL     OW 3655   1.392   0.028   1.041
  919SOL    HW1 3656   1.310   0.058   0.993
  919SOL    HW2 3657   1.372   0.016   1.138
  920SOL     OW 3658   1.620   1.184   3.359
  920SOL    HW1 3659   1.620   1.280   3.389
  920SOL    HW2 3660   1.648   1.180   3.263
  921SOL     OW 3661   3.777   3.999   0.741
  921SOL    HW1 3662   3.839   3.944   0.686
  921SOL    HW2 3663   3.753   4.083   0.691
  922SOL     OW 3664   2.054   5.041   6.602
  922SOL    HW1 3665   2.091   4.965   6.656
  922SOL    HW2 3666   2.127   5.104   6.578
  923SOL     OW 3667   3.837   1.180   6.824
  923SOL    HW1 3668   3.876   1.167   6.733
  923SOL    HW2 3669   3.755   1.237   6.818
  924SOL     OW 3670   6.680   4.957   2.797
  924SOL    HW1 3671   6.675   4.857   2.794
  924SOL    HW2 3672   6.597   4.995   2.755
  925SOL     OW 3673   6.793   1.966   3.104
  925SOL    HW1 3674   6.739   1.885   3.080
  925SOL    HW2 3675   6.800   2.027   3.025
  926SOL     OW 3676   4.637   6.110   1.131
  926SOL    HW1 3677   4.714   6.155   1.086
  926SOL    HW2 3678   4.593   6.174   1.194
  927SOL     OW 3679   4.413   5.809   5.132
  927SOL    HW1 3680   4.426   5.839   5.037
  927SOL    HW2 3681   4.361   5.879   5.181
  928SOL     OW 3682   0.434   1.322   1.185
  928SOL    HW1 3683   0.361   1.334   1.253
  928SOL    HW2 3684   0.398   1.273   1.105
  929SOL     OW 3685   6.854   2.646   2.105
  929SOL    HW1 3686   6.932   2.700   2.137
  929SOL    HW2 3687   6.887   2.557   2.074
  930SOL     OW 3688   5.693   5.493   2.268
  930SOL    HW1 3689   5.715   5.586   2.239
  930SOL    HW2 3690   5.598   5.490   2.299
  931SOL     OW 3691   1.547   2.917   1.771
  931SOL    HW1 3692   1.491   2.870   1.703
  931SOL    HW2 3693   1.489   2.949   1.846
  932SOL     OW 3694   4.173   6.235   1.390
  932SOL    HW1 3695   4.236   6.230   1.313
  932SOL    HW2 3696   4.223   6.218   1.475
  933SOL     OW 3697   1.238   6.887   3.522
  933SOL    HW1 3698   1.159   6.948   3.517
  933SOL    HW2 3699   1.297   6.913   3.598
  934SOL     OW 3700   3.374   0.883   5.385
  934SOL    HW1 3701   3.367   0.898   5.484
  934SOL    HW2 3702   3.289   0.913   5.341
  935SOL     OW 3703   1.467   3.872   5.425
  935SOL    HW1 3704   1.519   3.877   5.510
  935SOL    HW2 3705   1.430   3.962   5.403
  936SOL     OW 3706   0.587   2.489   1.343
  936SOL    HW1 3707   0.679   2.475   1.305
  936SOL    HW2 3708   0.539   2.557   1.288
  937SOL     OW 3709   5.294   2.349   3.807
  937SOL    HW1 3710   5.309   2.418   3.877
  937SOL    HW2 3711   5.334   2.381   3.721
  938SOL     OW 3712   0.265   1.070   6.724
  938SOL    HW1 3713   0.205   1.137   6.681
  938SOL    HW2 3714   0.353   1.068   6.677
  939SOL     OW 3715   6.334   1.132   5.512
  939SOL    HW1 3716   6.411   1.070   5.510
  939SOL    HW2 3717   6.312   1.156   5.606
  940SOL     OW 3718   0.266   0.592   4.321
  940SOL    HW1 3719   0.220   0.681   4.315
  940SOL    HW2 3720   0.200   0.522   4.347
  941SOL     OW 3721   5.755   2.648   5.368
  941SOL    HW1 3722   5.843   2.696   5.371
  941SOL    HW2 3723   5.751   2.579   5.440
  942SOL     OW 3724   4.877   0.473   4.598
  942SOL    HW1 3725   4.793   0.440   4.555
  942SOL    HW2 3726   4.864   0.567   4.630
  943SOL     OW 3727   5.520   1.902   0.571
  943SOL    HW1 3728   5.525   1.973   0.500
  943SOL    HW2 3729   5.457   1.830   0.540
  944SOL     OW 3730   4.839   4.044   4.720
  944SOL    HW1 3731   4.815   4.078   4.811
  944SOL    HW2 3732   4.868   3.948   4.726
  945SOL     OW 3733   5.357   3.368   6.066
  945SOL    HW1 3734   5.296   3.293   6.094
  945SOL    HW2 3735   5.400   3.346   5.979
  946SOL     OW 3736   5.813   3.785   6.696
  946SOL    HW1 3737   5.808   3.885   6.689
  946SOL    HW2 3738   5.721   3.747   6.691
  947SOL     OW 3739   0.753   3.032   5.589
  947SOL    HW1 3740   0.691   2.954   5.577
  947SOL    HW2 3741   0.710   3.099   5.650
  948SOL     OW 3742   3.829   1.547   0.472
  948SOL    HW1 3743   3.819   1.567   0.569
  948SOL    HW2 3744   3.786   1.459   0.451
  949SOL     OW 3745   5.691   6.015   0.083
  949SOL    HW1 3746   5.620   5.970   0.137
  949SOL    HW2 3747   5.682   5.988   7.010
  950SOL     OW 3748   4.150   5.220   0.831
  950SOL    HW1 3749   4.090   5.267   0.767
  950SOL    HW2 3750   4.105   5.211   0.920
  951SOL     OW 3751   0.927   3.074   4.127
  951SOL    HW1 3752   0.891   3.021   4.051
  951SOL    HW2 3753   0.924   3.020   4.211
  952SOL     OW 3754   5.275   1.716   1.160
  952SOL    HW1 3755   5.308   1.735   1.068
  952SOL    HW2 3756   5.270   1.802   1.212
  953SOL     OW 3757   3.811   6.631   6.004
  953SOL    HW1 3758   3.786   6.726   5.986
  953SOL    HW2 3759   3.838   6.621   6.100
  954SOL     OW 3760   6.651   0.607   1.659
  954SOL    HW1 3761   6.744   0.640   1.674
  954SOL    HW2 3762   6.623   0.551   1.737
  955SOL     OW 3763   0.475   6.745   2.391
  955SOL    HW1 3764   0.558   6.698   2.362
  955SOL    HW2 3765   0.487   6.844   2.380
  956SOL     OW 3766   1.617   2.596   0.780
  956SOL    HW1 3767   1.698   2.612   0.722
  956SOL    HW2 3768   1.551   2.670   0.764
  957SOL     OW 3769   1.933   6.781   4.964
  957SOL    HW1 3770   2.004   6.712   4.968
  957SOL    HW2 3771   1.881   6.780   5.050
  958SOL     OW 3772   4.922   2.918   0.200
  958SOL    HW1 3773   4.875   3.005   0.216
  958SOL    HW2 3774   5.015   2.924   0.238
  959SOL     OW 3775   1.740   3.257   1.538
  959SOL    HW1 3776   1.675   3.258   1.462
  959SOL    HW2 3777   1.833   3.261   1.502
  960SOL     OW 3778   1.732   5.302   5.426
  960SOL    HW1 3779   1.746   5.208   5.393
  960SOL    HW2 3780   1.712   5.300   5.524
  961SOL     OW 3781   3.477   0.198   0.023
  961SOL    HW1 3782   3.393   0.252   0.033
  961SOL    HW2 3783   3.546   0.254   7.000
  962SOL     OW 3784   1.139   6.417   3.779
  962SOL    HW1 3785   1.144   6.514   3.753
  962SOL    HW2 3786   1.107   6.363   3.701
  963SOL     OW 3787   6.070   0.063   2.081
  963SOL    HW1 3788   6.104   0.024   1.995
  963SOL    HW2 3789   6.125   0.142   2.106
  964SOL     OW 3790   5.547   3.515   1.764
  964SOL    HW1 3791   5.476   3.572   1.723
  964SOL    HW2 3792   5.538   3.421   1.732
  965SOL     OW 3793   1.785   1.700   6.917
  965SOL    HW1 3794   1.861   1.673   6.857
  965SOL    HW2 3795   1.753   1.792   6.891
  966SOL     OW 3796   6.659   2.560   1.836
  966SOL    HW1 3797   6.710   2.607   1.908
  966SOL    HW2 3798   6.718   2.547   1.757
  967SOL     OW 3799   0.812   5.753   2.410
  967SOL    HW1 3800   0.881   5.757   2.482
  967SOL    HW2 3801   0.729   5.800   2.441
  968SOL     OW 3802   6.826   4.133   1.012
  968SOL    HW1 3803   6.903   4.072   0.991
  968SOL    HW2 3804   6.813   4.197   0.936
  969SOL     OW 3805   4.192   6.901   6.934
  969SOL    HW1 3806   4.194   6.816   6.987
  969SOL    HW2 3807   4.098   6.922   6.909
  970SOL     OW 3808   4.747   3.063   5.905
  970SOL    HW1 3809   4.757   3.054   5.805
  970SOL    HW2 3810   4.651   3.057   5.929
  971SOL     OW 3811   0.067   2.718   0.206
  971SOL    HW1 3812   0.085   2.747   0.112
  971SOL    HW2 3813   6.991   2.717   0.222
  972SOL     OW 3814   5.474   6.932   0.601
  972SOL    HW1 3815   5.519   7.003   0.655
  972SOL    HW2 3816   5.413   6.878   0.660
  973SOL     OW 3817   5.785   3.445   5.393
  973SOL    HW1 3818   5.830   3.520   5.442
  973SOL    HW2 3819   5.767   3.473   5.299
  974SOL     OW 3820   2.729   0.763   4.763
  974SOL    HW1 3821   2.629   0.768   4.774
  974SOL    HW2 3822   2.750   0.730   4.671
  975SOL     OW 3823   3.071   6.948   5.466
  975SOL    HW1 3824   3.051   6.926   5.370
  975SOL    HW2 3825   3.164   6.922   5.488
  976SOL     OW 3826   0.182   5.308   3.769
  976SOL    HW1 3827   0.188   5.243   3.694
  976SOL    HW2 3828   0.238   5.278   3.846
  977SOL     OW 3829   1.124   2.958   1.656
  977SOL    HW1 3830   1.162   3.034   1.603
  977SOL    HW2 3831   1.032   2.981   1.686
  978SOL     OW 3832   5.438   3.514   5.218
  978SOL    HW1 3833   5.522   3.558   5.250
  978SOL    HW2 3834   5.383   3.581   5.169
  979SOL     OW 3835   5.735   1.311   3.562
  979SOL    HW1 3836   5.650   1.322   3.511
  979SOL    HW2 3837   5.803   1.377   3.529
  980SOL     OW 3838   6.930   0.364   4.914
  980SOL    HW1 3839   6.986   0.389   4.993
  980SOL    HW2 3840   6.859   0.300   4.942
  981SOL     OW 3841   6.481   3.212   5.770
  981SOL    HW1 3842   6.477   3.237   5.674
  981SOL    HW2 3843   6.552   3.143   5.784
  982SOL     OW 3844   1.772   3.788   1.223
  982SOL    HW1 3845   1.823   3.873   1.237
  982SOL    HW2 3846   1.678   3.810   1.199
  983SOL     OW 3847   5.488   2.125   3.388
  983SOL    HW1 3848   5.483   2.044   3.329
  983SOL    HW2 3849   5.571   2.177   3.366
  984SOL     OW 3850   5.265   2.538   5.560
  984SOL    HW1 3851   5.182   2.484   5.573
  984SOL    HW2 3852   5.345   2.477   5.566
  985SOL     OW 3853   2.535   5.035   0.742
  985SOL    HW1 3854   2.537   5.119   0.688
  985SOL    HW2 3855   2.443   4.996   0.739
  986SOL     OW 3856   4.225   4.560   6.973
  986SOL    HW1 3857   4.158   4.546   0.023
  986SOL    HW2 3858   4.259   4.654   6.976
  987SOL     OW 3859   3.350   6.670   2.439
  987SOL    HW1 3860   3.446   6.695   2.447
  987SOL    HW2 3861   3.340   6.598   2.369
  988SOL     OW 3862   3.504   3.206   1.652
  988SOL    HW1 3863   3.423   3.206   1.593
  988SOL    HW2 3864   3.578   3.254   1.606
  989SOL     OW 3865   0.416   0.545   4.723
  989SOL    HW1 3866   0.445   0.622   4.667
  989SOL    HW2 3867   0.331   0.507   4.687
  990SOL     OW 3868   4.724   6.055   2.660
  990SOL    HW1 3869   4.722   6.154   2.669
  990SOL    HW2 3870   4.639   6.016   2.697
  991SOL     OW 3871   5.964   1.579   5.134
  991SOL    HW1 3872   6.000   1.671   5.121
  991SOL    HW2 3873   5.929   1.544   5.047
  992SOL     OW 3874   7.003   3.110   1.346
  992SOL    HW1 3875   0.061   3.059   1.317
  992SOL    HW2 3876   7.013   3.206   1.320
  993SOL     OW 3877   3.996   5.760   4.603
  993SOL    HW1 3878   3.977   5.662   4.591
  993SOL    HW2 3879   4.059   5.791   4.532
  994SOL     OW 3880   3.051   3.171   2.102
  994SOL    HW1 3881   3.135   3.216   2.071
  994SOL    HW2 3882   2.977   3.190   2.037
  995SOL     OW 3883   0.249   1.263   4.694
  995SOL    HW1 3884   0.315   1.213   4.750
  995SOL    HW2 3885   0.298   1.320   4.628
  996SOL     OW 3886   0.873   3.539   0.736
  996SOL    HW1 3887   0.895   3.556   0.640
  996SOL    HW2 3888   0.949   3.570   0.793
  997SOL     OW 3889   0.321   1.390   0.743
  997SOL    HW1 3890   0.335   1.456   0.817
  997SOL    HW2 3891   0.229   1.352   0.751
  998SOL     OW 3892   5.015   6.962   3.760
  998SOL    HW1 3893   5.088   6.918   3.813
  998SOL    HW2 3894   4.931   6.962   3.814
  999SOL     OW 3895   6.571   5.335   1.443
  999SOL    HW1 3896   6.471   5.339   1.441
  999SOL    HW2 3897   6.605   5.388   1.520
 1000SOL     OW 3898   4.602   2.414   4.183
 1000SOL    HW1 3899   4.551   2.345   4.133
 1000SOL    HW2 3900   4.584   2.405   4.281
 1001SOL     OW 3901   4.080   1.326   5.993
 1001SOL    HW1 3902   4.146   1.302   5.923
 1001SOL    HW2 3903   4.034   1.411   5.968
 1002SOL     OW 3904   0.283   1.367   0.144
 1002SOL    HW1 3905   0.216   1.293   0.138
 1002SOL    HW2 3906   0.330   1.362   0.232
 1003SOL     OW 3907   4.823   4.649   3.352
 1003SOL    HW1 3908   4.793   4.677   3.443
 1003SOL    HW2 3909   4.743   4.634   3.294
 1004SOL     OW 3910   6.170   5.744   0.480
 1004SOL    HW1 3911   6.158   5.842   0.464
 1004SOL    HW2 3912   6.217   5.703   0.401
 1005SOL     OW 3913   6.808   5.417   3.695
 1005SOL    HW1 3914   6.791   5.333   3.747
 1005SOL    HW2 3915   6.723   5.468   3.685
 1006SOL     OW 3916   2.153   3.872   0.416
 1006SOL    HW1 3917   2.218   3.819   0.470
 1006SOL    HW2 3918   2.080   3.812   0.382
 1007SOL     OW 3919   1.096   0.964   3.437
 1007SOL    HW1 3920   1.082   1.022   3.517
 1007SOL    HW2 3921   1.149   0.883   3.463
 1008SOL     OW 3922   2.644   2.147   4.446
 1008SOL    HW1 3923   2.591   2.205   4.384
 1008SOL    HW2 3924   2.582   2.085   4.495
 1009SOL     OW 3925   2.581   5.906   5.450
 1009SOL    HW1 3926   2.636   5.885   5.531
 1009SOL    HW2 3927   2.630   5.971   5.392
 1010SOL     OW 3928   4.536   0.467   6.340
 1010SOL    HW1 3929   4.613   0.502   6.287
 1010SOL    HW2 3930   4.511   0.534   6.411
 1011SOL     OW 3931   3.232   5.914   3.749
 1011SOL    HW1 3932   3.301   5.929   3.679
 1011SOL    HW2 3933   3.175   5.996   3.758
 1012SOL     OW 3934   3.728   5.424   0.745
 1012SOL    HW1 3935   3.661   5.488   0.706
 1012SOL    HW2 3936   3.684   5.336   0.761
 1013SOL     OW 3937   0.495   1.041   0.182
 1013SOL    HW1 3938   0.470   0.951   0.146
 1013SOL    HW2 3939   0.515   1.033   0.280
 1014SOL     OW 3940   5.019   0.300   6.575
 1014SOL    HW1 3941   4.959   0.368   6.531
 1014SOL    HW2 3942   5.087   0.268   6.509
 1015SOL     OW 3943   3.381   0.074   4.589
 1015SOL    HW1 3944   3.396   0.087   4.687
 1015SOL    HW2 3945   3.394   7.000   4.567
 1016SOL     OW 3946   4.410   2.286   2.041
 1016SOL    HW1 3947   4.469   2.312   1.965
 1016SOL    HW2 3948   4.394   2.366   2.099
 1017SOL     OW 3949   4.989   0.841   6.611
 1017SOL    HW1 3950   5.051   0.821   6.687
 1017SOL    HW2 3951   5.020   0.925   6.565
 1018SOL     OW 3952   1.311   2.540   1.730
 1018SOL    HW1 3953   1.292   2.463   1.668
 1018SOL    HW2 3954   1.319   2.624   1.677
 1019SOL     OW 3955   6.030   1.266   0.425
 1019SOL    HW1 3956   5.972   1.266   0.344
 1019SOL    HW2 3957   5.978   1.298   0.504
 1020SOL     OW 3958   3.304   1.817   1.576
 1020SOL    HW1 3959   3.246   1.865   1.510
 1020SOL    HW2 3960   3.389   1.868   1.590
 1021SOL     OW 3961   6.646   1.190   0.536
 1021SOL    HW1 3962   6.597   1.277   0.537
 1021SOL    HW2 3963   6.583   1.117   0.511
 1022SOL     OW 3964   3.511   2.536   6.878
 1022SOL    HW1 3965   3.555   2.459   6.831
 1022SOL    HW2 3966   3.481   2.508   6.969
 1023SOL     OW 3967   6.431   0.689   4.582
 1023SOL    HW1 3968   6.455   0.784   4.561
 1023SOL    HW2 3969   6.332   0.680   4.588
 1024SOL     OW 3970   6.735   1.470   4.298
 1024SOL    HW1 3971   6.793   1.547   4.325
 1024SOL    HW2 3972   6.787   1.406   4.242
 1025SOL     OW 3973   3.282   4.084   1.627
 1025SOL    HW1 3974   3.335   4.168   1.620
 1025SOL    HW2 3975   3.202   4.099   1.684
 1026SOL     OW 3976   0.941   2.853   6.382
 1026SOL    HW1 3977   0.856   2.879   6.336
 1026SOL    HW2 3978   0.920   2.821   6.475
 1027SOL     OW 3979   2.478   4.432   1.718
 1027SOL    HW1 3980   2.436   4.450   1.629
 1027SOL    HW2 3981   2.407   4.408   1.784
 1028SOL     OW 3982   0.732   5.659   0.781
 1028SOL    HW1 3983   0.644   5.681   0.823
 1028SOL    HW2 3984   0.792   5.739   0.789
 1029SOL     OW 3985   3.539   1.098   5.365
 1029SOL    HW1 3986   3.467   1.035   5.337
 1029SOL    HW2 3987   3.543   1.174   5.301
 1030SOL     OW 3988   3.869   4.416   5.356
 1030SOL    HW1 3989   3.787   4.442   5.407
 1030SOL    HW2 3990   3.857   4.323   5.320
 1031SOL     OW 3991   2.096   5.063   1.193
 1031SOL    HW1 3992   2.168   5.132   1.200
 1031SOL    HW2 3993   2.127   4.987   1.137
 1032SOL     OW 3994   1.254   1.535   5.051
 1032SOL    HW1 3995   1.224   1.612   4.996
 1032SOL    HW2 3996   1.300   1.468   4.993
 1033SOL     OW 3997   2.265   6.081   3.081
 1033SOL    HW1 3998   2.243   6.087   3.179
 1033SOL    HW2 3999   2.196   6.130   3.028
 1034SOL     OW 4000   0.938   7.014   1.893
 1034SOL    HW1 4001   0.878   0.032   1.824
 1034SOL    HW2 4002   1.033   0.013   1.870
 1035SOL     OW 4003   3.176   0.768   3.593
 1035SOL    HW1 4004   3.157   0.818   3.509
 1035SOL    HW2 4005   3.093   0.720   3.622
 1036SOL     OW 4006   4.449   6.665   6.579
 1036SOL    HW1 4007   4.485   6.573   6.596
 1036SOL    HW2 4008   4.513   6.715   6.521
 1037SOL     OW 4009   3.008   1.719   6.410
 1037SOL    HW1 4010   3.107   1.704   6.407
 1037SOL    HW2 4011   2.961   1.642   6.369
 1038SOL     OW 4012   2.645   1.460   4.978
 1038SOL    HW1 4013   2.649   1.418   4.887
 1038SOL    HW2 4014   2.552   1.456   5.013
 1039SOL     OW 4015   3.993   2.147   3.491
 1039SOL    HW1 4016   3.917   2.153   3.556
 1039SOL    HW2 4017   4.078   2.136   3.541
 1040SOL     OW 4018   5.763   3.485   4.534
 1040SOL    HW1 4019   5.667   3.502   4.511
 1040SOL    HW2 4020   5.768   3.410   4.600
 1041SOL     OW 4021   1.808   6.958   4.207
 1041SOL    HW1 4022   1.863   7.000   4.134
 1041SOL    HW2 4023   1.869   6.923   4.279
 1042SOL     OW 4024   4.585   3.832   0.933
 1042SOL    HW1 4025   4.666   3.862   0.985
 1042SOL    HW2 4026   4.515   3.800   0.997
 1043SOL     OW 4027   3.511   0.117   6.524
 1043SOL    HW1 4028   3.521   0.127   6.425
 1043SOL    HW2 4029   3.514   0.020   6.548
 1044SOL     OW 4030   3.762   4.000   2.402
 1044SOL    HW1 4031   3.801   4.021   2.491
 1044SOL    HW2 4032   3.716   4.081   2.366
 1045SOL     OW 4033   3.808   1.013   3.005
 1045SOL    HW1 4034   3.723   0.989   3.053
 1045SOL    HW2 4035   3.881   1.028   3.071
 1046SOL     OW 4036   3.609   0.725   2.543
 1046SOL    HW1 4037   3.608   0.800   2.608
 1046SOL    HW2 4038   3.699   0.720   2.499
 1047SOL     OW 4039   0.539   5.278   2.079
 1047SOL    HW1 4040   0.581   5.187   2.089
 1047SOL    HW2 4041   0.600   5.347   2.118
 1048SOL     OW 4042   6.411   4.960   5.106
 1048SOL    HW1 4043   6.353   4.904   5.165
 1048SOL    HW2 4044   6.461   4.902   5.042
 1049SOL     OW 4045   0.457   3.370   4.904
 1049SOL    HW1 4046   0.412   3.394   4.990
 1049SOL    HW2 4047   0.555   3.390   4.912
 1050SOL     OW 4048   2.533   0.644   0.167
 1050SOL    HW1 4049   2.444   0.630   0.212
 1050SOL    HW2 4050   2.522   0.708   0.091
 1051SOL     OW 4051   4.956   4.454   2.626
 1051SOL    HW1 4052   5.045   4.462   2.670
 1051SOL    HW2 4053   4.968   4.432   2.530
 1052SOL     OW 4054   4.128   0.217   4.693
 1052SOL    HW1 4055   4.196   0.275   4.650
 1052SOL    HW2 4056   4.067   0.179   4.623
 1053SOL     OW 4057   3.651   5.031   3.370
 1053SOL    HW1 4058   3.565   4.995   3.408
 1053SOL    HW2 4059   3.728   4.998   3.425
 1054SOL     OW 4060   4.165   5.925   4.451
 1054SOL    HW1 4061   4.125   5.972   4.372
 1054SOL    HW2 4062   4.235   5.983   4.492
 1055SOL     OW 4063   3.651   5.310   3.806
 1055SOL    HW1 4064   3.633   5.409   3.803
 1055SOL    HW2 4065   3.720   5.287   3.738
 1056SOL     OW 4066   2.098   5.700   6.160
 1056SOL    HW1 4067   2.095   5.648   6.075
 1056SOL    HW2 4068   2.006   5.707   6.198
 1057SOL     OW 4069   3.713   3.815   1.250
 1057SOL    HW1 4070   3.735   3.782   1.342
 1057SOL    HW2 4071   3.798   3.824   1.197
 1058SOL     OW 4072   2.924   6.522   2.085
 1058SOL    HW1 4073   2.906   6.438   2.135
 1058SOL    HW2 4074   2.846   6.584   2.094
 1059SOL     OW 4075   3.337   0.350   0.376
 1059SOL    HW1 4076   3.323   0.372   0.279
 1059SOL    HW2 4077   3.307   0.257   0.394
 1060SOL     OW 4078   2.487   1.162   4.470
 1060SOL    HW1 4079   2.507   1.239   4.410
 1060SOL    HW2 4080   2.399   1.176   4.516
 1061SOL     OW 4081   3.280   5.797   1.509
 1061SOL    HW1 4082   3.309   5.874   1.452
 1061SOL    HW2 4083   3.187   5.771   1.486
 1062SOL     OW 4084   4.996   4.827   5.230
 1062SOL    HW1 4085   5.039   4.817   5.141
 1062SOL    HW2 4086   4.974   4.923   5.246
 1063SOL     OW 4087   2.732   2.727   6.126
 1063SOL    HW1 4088   2.659   2.757   6.187
 1063SOL    HW2 4089   2.692   2.699   6.038
 1064SOL     OW 4090   0.337   3.533   2.009
 1064SOL    HW1 4091   0.302   3.505   2.098
 1064SOL    HW2 4092   0.269   3.512   1.938
 1065SOL     OW 4093   3.950   4.869   5.595
 1065SOL    HW1 4094   3.877   4.808   5.565
 1065SOL    HW2 4095   4.034   4.849   5.545
 1066SOL     OW 4096   4.170   6.534   3.181
 1066SOL    HW1 4097   4.107   6.460   3.159
 1066SOL    HW2 4098   4.210   6.518   3.271
 1067SOL     OW 4099   2.475   2.982   0.727
 1067SOL    HW1 4100   2.472   2.882   0.721
 1067SOL    HW2 4101   2.564   3.010   0.763
 1068SOL     OW 4102   0.442   4.485   0.855
 1068SOL    HW1 4103   0.383   4.560   0.825
 1068SOL    HW2 4104   0.440   4.411   0.787
 1069SOL     OW 4105   3.686   3.289   2.264
 1069SOL    HW1 4106   3.714   3.221   2.332
 1069SOL    HW2 4107   3.738   3.275   2.180
 1070SOL     OW 4108   2.482   6.488   0.799
 1070SOL    HW1 4109   2.401   6.460   0.850
 1070SOL    HW2 4110   2.538   6.407   0.780
 1071SOL     OW 4111   4.791   5.850   3.774
 1071SOL    HW1 4112   4.768   5.754   3.757
 1071SOL    HW2 4113   4.846   5.885   3.698
 1072SOL     OW 4114   3.580   5.409   2.760
 1072SOL    HW1 4115   3.548   5.504   2.758
 1072SOL    HW2 4116   3.649   5.396   2.688
 1073SOL     OW 4117   2.322   5.454   3.028
 1073SOL    HW1 4118   2.381   5.374   3.026
 1073SOL    HW2 4119   2.354   5.518   3.098
 1074SOL     OW 4120   1.493   5.586   2.292
 1074SOL    HW1 4121   1.477   5.643   2.373
 1074SOL    HW2 4122   1.565   5.520   2.311
 1075SOL     OW 4123   1.134   4.484   2.999
 1075SOL    HW1 4124   1.159   4.469   3.095
 1075SOL    HW2 4125   1.036   4.474   2.988
 1076SOL     OW 4126   6.998   3.965   2.774
 1076SOL    HW1 4127   0.017   3.904   2.708
 1076SOL    HW2 4128   0.035   4.044   2.790
 1077SOL     OW 4129   5.433   0.891   1.705
 1077SOL    HW1 4130   5.356   0.920   1.762
 1077SOL    HW2 4131   5.398   0.857   1.617
 1078SOL     OW 4132   0.603   3.415   1.962
 1078SOL    HW1 4133   0.509   3.451   1.967
 1078SOL    HW2 4134   0.664   3.486   1.926
 1079SOL     OW 4135   2.060   5.543   2.958
 1079SOL    HW1 4136   2.159   5.527   2.965
 1079SOL    HW2 4137   2.021   5.551   3.049
 1080SOL     OW 4138   1.624   5.736   3.801
 1080SOL    HW1 4139   1.659   5.777   3.885
 1080SOL    HW2 4140   1.698   5.728   3.734
 1081SOL     OW 4141   1.775   0.834   0.288
 1081SOL    HW1 4142   1.770   0.913   0.227
 1081SOL    HW2 4143   1.684   0.815   0.325
 1082SOL     OW 4144   1.989   6.878   0.576
 1082SOL    HW1 4145   1.969   6.936   0.497
 1082SOL    HW2 4146   1.945   6.789   0.563
 1083SOL     OW 4147   3.326   2.328   1.753
 1083SOL    HW1 4148   3.385   2.247   1.748
 1083SOL    HW2 4149   3.231   2.299   1.767
 1084SOL     OW 4150   6.486   3.428   1.112
 1084SOL    HW1 4151   6.517   3.387   1.197
 1084SOL    HW2 4152   6.561   3.478   1.069
 1085SOL     OW 4153   1.533   4.980   3.487
 1085SOL    HW1 4154   1.593   4.903   3.508
 1085SOL    HW2 4155   1.487   5.010   3.571
 1086SOL     OW 4156   3.783   4.887   2.241
 1086SOL    HW1 4157   3.771   4.892   2.340
 1086SOL    HW2 4158   3.776   4.792   2.211
 1087SOL     OW 4159   3.801   3.690   4.755
 1087SOL    HW1 4160   3.874   3.664   4.692
 1087SOL    HW2 4161   3.722   3.630   4.742
 1088SOL     OW 4162   6.120   4.425   2.624
 1088SOL    HW1 4163   6.150   4.445   2.530
 1088SOL    HW2 4164   6.151   4.334   2.651
 1089SOL     OW 4165   6.515   6.652   2.925
 1089SOL    HW1 4166   6.552   6.598   3.001
 1089SOL    HW2 4167   6.462   6.729   2.960
 1090SOL     OW 4168   1.802   1.637   6.034
 1090SOL    HW1 4169   1.752   1.584   6.102
 1090SOL    HW2 4170   1.768   1.615   5.943
 1091SOL     OW 4171   1.100   2.970   5.486
 1091SOL    HW1 4172   1.067   3.061   5.511
 1091SOL    HW2 4173   1.177   2.978   5.423
 1092SOL     OW 4174   2.264   4.585   1.098
 1092SOL    HW1 4175   2.220   4.631   1.021
 1092SOL    HW2 4176   2.195   4.557   1.165
 1093SOL     OW 4177   7.007   2.370   1.543
 1093SOL    HW1 4178   0.076   2.386   1.507
 1093SOL    HW2 4179   6.978   2.277   1.521
 1094SOL     OW 4180   0.599   6.840   1.809
 1094SOL    HW1 4181   0.589   6.898   1.727
 1094SOL    HW2 4182   0.684   6.864   1.856
 1095SOL     OW 4183   6.641   3.610   5.582
 1095SOL    HW1 4184   6.693   3.667   5.519
 1095SOL    HW2 4185   6.697   3.532   5.611
 1096SOL     OW 4186   3.672   3.464   2.051
 1096SOL    HW1 4187   3.703   3.506   1.966
 1096SOL    HW2 4188   3.641   3.371   2.032
 1097SOL     OW 4189   2.595   4.278   5.681
 1097SOL    HW1 4190   2.515   4.237   5.637
 1097SOL    HW2 4191   2.652   4.322   5.611
 1098SOL     OW 4192   4.160   0.550   2.643
 1098SOL    HW1 4193   4.173   0.638   2.597
 1098SOL    HW2 4194   4.099   0.561   2.721
 1099SOL     OW 4195   3.433   0.421   2.517
 1099SOL    HW1 4196   3.475   0.347   2.464
 1099SOL    HW2 4197   3.478   0.507   2.495
 1100SOL     OW 4198   6.708   0.897   6.881
 1100SOL    HW1 4199   6.668   0.815   6.923
 1100SOL    HW2 4200   6.659   0.918   6.796
 1101SOL     OW 4201   5.530   3.229   1.434
 1101SOL    HW1 4202   5.542   3.231   1.533
 1101SOL    HW2 4203   5.459   3.162   1.410
 1102SOL     OW 4204   0.195   4.275   3.815
 1102SOL    HW1 4205   0.221   4.266   3.719
 1102SOL    HW2 4206   0.109   4.324   3.822
 1103SOL     OW 4207   0.127   3.480   0.076
 1103SOL    HW1 4208   0.194   3.542   0.117
 1103SOL    HW2 4209   0.037   3.498   0.115
 1104SOL     OW 4210   2.808   5.360   6.410
 1104SOL    HW1 4211   2.715   5.322   6.401
 1104SOL    HW2 4212   2.861   5.301   6.471
 1105SOL     OW 4213   3.851   5.197   1.303
 1105SOL    HW1 4214   3.907   5.210   1.222
 1105SOL    HW2 4215   3.863   5.275   1.365
 1106SOL     OW 4216   1.285   0.970   6.074
 1106SOL    HW1 4217   1.203   0.915   6.061
 1106SOL    HW2 4218   1.259   1.067   6.080
 1107SOL     OW 4219   6.582   0.498   1.002
 1107SOL    HW1 4220   6.657   0.438   1.030
 1107SOL    HW2 4221   6.501   0.477   1.057
 1108SOL     OW 4222   0.962   0.690   0.083
 1108SOL    HW1 4223   0.945   0.625   0.157
 1108SOL    HW2 4224   1.036   0.752   0.110
 1109SOL     OW 4225   5.092   0.804   3.682
 1109SOL    HW1 4226   5.173   0.747   3.668
 1109SOL    HW2 4227   5.069   0.806   3.779
 1110SOL     OW 4228   3.693   2.939   2.238
 1110SOL    HW1 4229   3.783   2.975   2.215
 1110SOL    HW2 4230   3.690   2.918   2.336
 1111SOL     OW 4231   4.734   0.020   6.590
 1111SOL    HW1 4232   4.830   0.040   6.571
 1111SOL    HW2 4233   4.720   0.015   6.688
 1112SOL     OW 4234   0.935   1.200   2.492
 1112SOL    HW1 4235   0.943   1.285   2.440
 1112SOL    HW2 4236   1.002   1.134   2.458
 1113SOL     OW 4237   6.111   4.046   1.505
 1113SOL    HW1 4238   6.188   4.107   1.484
 1113SOL    HW2 4239   6.026   4.098   1.504
 1114SOL     OW 4240   5.670   0.992   5.609
 1114SOL    HW1 4241   5.688   1.008   5.512
 1114SOL    HW2 4242   5.573   1.007   5.628
 1115SOL     OW 4243   2.521   4.113   0.859
 1115SOL    HW1 4244   2.516   4.142   0.954
 1115SOL    HW2 4245   2.600   4.053   0.847
 1116SOL     OW 4246   3.911   6.781   6.518
 1116SOL    HW1 4247   3.970   6.802   6.440
 1116SOL    HW2 4248   3.830   6.840   6.516
 1117SOL     OW 4249   2.555   2.398   1.031
 1117SOL    HW1 4250   2.469   2.403   0.980
 1117SOL    HW2 4251   2.608   2.480   1.015
 1118SOL     OW 4252   1.600   3.049   2.162
 1118SOL    HW1 4253   1.653   2.971   2.196
 1118SOL    HW2 4254   1.505   3.020   2.147
 1119SOL     OW 4255   3.045   3.768   2.711
 1119SOL    HW1 4256   3.005   3.694   2.765
 1119SOL    HW2 4257   3.142   3.748   2.694
 1120SOL     OW 4258   4.809   1.183   4.204
 1120SOL    HW1 4259   4.748   1.117   4.248
 1120SOL    HW2 4260   4.864   1.229   4.273
 1121SOL     OW 4261   5.245   3.141   2.890
 1121SOL    HW1 4262   5.283   3.069   2.832
 1121SOL    HW2 4263   5.249   3.112   2.986
 1122SOL     OW 4264   4.216   5.040   6.850
 1122SOL    HW1 4265   4.205   5.049   6.751
 1122SOL    HW2 4266   4.306   5.075   6.877
 1123SOL     OW 4267   3.869   1.482   1.894
 1123SOL    HW1 4268   3.902   1.544   1.823
 1123SOL    HW2 4269   3.936   1.409   1.908
 1124SOL     OW 4270   1.822   5.035   4.517
 1124SOL    HW1 4271   1.824   5.022   4.616
 1124SOL    HW2 4272   1.889   5.106   4.492
 1125SOL     OW 4273   2.858   3.230   5.184
 1125SOL    HW1 4274   2.846   3.318   5.230
 1125SOL    HW2 4275   2.823   3.156   5.241
 1126SOL     OW 4276   6.542   0.419   2.293
 1126SOL    HW1 4277   6.636   0.440   2.268
 1126SOL    HW2 4278   6.531   0.320   2.303
 1127SOL     OW 4279   1.892   5.642   6.383
 1127SOL    HW1 4280   1.821   5.660   6.315
 1127SOL    HW2 4281   1.945   5.725   6.399
 1128SOL     OW 4282   2.564   1.742   4.137
 1128SOL    HW1 4283   2.526   1.769   4.226
 1128SOL    HW2 4284   2.517   1.792   4.065
 1129SOL     OW 4285   4.603   0.031   6.255
 1129SOL    HW1 4286   4.587   0.056   6.159
 1129SOL    HW2 4287   4.701   0.035   6.274
 1130SOL     OW 4288   0.457   5.655   6.104
 1130SOL    HW1 4289   0.472   5.686   6.198
 1130SOL    HW2 4290   0.538   5.676   6.048
 1131SOL     OW 4291   0.464   5.045   5.482
 1131SOL    HW1 4292   0.434   5.006   5.395
 1131SOL    HW2 4293   0.564   5.043   5.488
 1132SOL     OW 4294   5.304   0.185   5.215
 1132SOL    HW1 4295   5.399   0.202   5.190
 1132SOL    HW2 4296   5.288   0.087   5.220
 1133SOL     OW 4297   0.203   2.555   6.623
 1133SOL    HW1 4298   0.108   2.567   6.593
 1133SOL    HW2 4299   0.245   2.645   6.636
 1134SOL     OW 4300   6.756   2.771   6.196
 1134SOL    HW1 4301   6.670   2.778   6.146
 1134SOL    HW2 4302   6.768   2.677   6.228
 1135SOL     OW 4303   6.440   1.757   3.977
 1135SOL    HW1 4304   6.432   1.741   4.075
 1135SOL    HW2 4305   6.537   1.768   3.953
 1136SOL     OW 4306   3.497   5.184   4.007
 1136SOL    HW1 4307   3.534   5.220   3.921
 1136SOL    HW2 4308   3.409   5.228   4.026
 1137SOL     OW 4309   1.589   0.838   5.846
 1137SOL    HW1 4310   1.512   0.901   5.850
 1137SOL    HW2 4311   1.581   0.780   5.765
 1138SOL     OW 4312   0.815   4.095   6.012
 1138SOL    HW1 4313   0.811   4.059   5.919
 1138SOL    HW2 4314   0.747   4.048   6.069
 1139SOL     OW 4315   0.804   6.645   1.344
 1139SOL    HW1 4316   0.799   6.697   1.430
 1139SOL    HW2 4317   0.832   6.551   1.364
 1140SOL     OW 4318   3.504   1.700   3.401
 1140SOL    HW1 4319   3.407   1.696   3.424
 1140SOL    HW2 4320   3.530   1.619   3.350
 1141SOL     OW 4321   6.824   6.352   5.603
 1141SOL    HW1 4322   6.726   6.328   5.601
 1141SOL    HW2 4323   6.862   6.325   5.691
 1142SOL     OW 4324   6.307   0.860   4.346
 1142SOL    HW1 4325   6.250   0.922   4.399
 1142SOL    HW2 4326   6.403   0.889   4.352
 1143SOL     OW 4327   4.419   1.704   1.893
 1143SOL    HW1 4328   4.499   1.649   1.917
 1143SOL    HW2 4329   4.449   1.787   1.846
 1144SOL     OW 4330   1.128   0.003   5.205
 1144SOL    HW1 4331   1.169   0.009   5.297
 1144SOL    HW2 4332   1.118   0.095   5.167
 1145SOL     OW 4333   2.058   4.672   4.970
 1145SOL    HW1 4334   1.985   4.630   4.916
 1145SOL    HW2 4335   2.136   4.690   4.911
 1146SOL     OW 4336   6.339   1.699   0.971
 1146SOL    HW1 4337   6.281   1.653   0.903
 1146SOL    HW2 4338   6.290   1.704   1.058
 1147SOL     OW 4339   6.351   3.385   2.242
 1147SOL    HW1 4340   6.302   3.331   2.174
 1147SOL    HW2 4341   6.301   3.384   2.328
 1148SOL     OW 4342   4.971   1.225   6.604
 1148SOL    HW1 4343   4.969   1.279   6.520
 1148SOL    HW2 4344   5.065   1.197   6.624
 1149SOL     OW 4345   6.257   2.691   3.522
 1149SOL    HW1 4346   6.261   2.648   3.612
 1149SOL    HW2 4347   6.186   2.762   3.523
 1150SOL     OW 4348   1.402   5.041   5.604
 1150SOL    HW1 4349   1.391   5.140   5.619
 1150SOL    HW2 4350   1.450   5.026   5.517
 1151SOL     OW 4351   3.402   5.281   6.994
 1151SOL    HW1 4352   3.302   5.288   6.991
 1151SOL    HW2 4353   3.429   5.214   0.040
 1152SOL     OW 4354   0.500   1.393   4.224
 1152SOL    HW1 4355   0.501   1.475   4.282
 1152SOL    HW2 4356   0.421   1.395   4.163
 1153SOL     OW 4357   2.457   4.894   2.882
 1153SOL    HW1 4358   2.523   4.852   2.944
 1153SOL    HW2 4359   2.504   4.930   2.802
 1154SOL     OW 4360   1.727   4.131   2.127
 1154SOL    HW1 4361   1.778   4.194   2.186
 1154SOL    HW2 4362   1.789   4.065   2.086
 1155SOL     OW 4363   4.215   6.866   2.681
 1155SOL    HW1 4364   4.313   6.871   2.665
 1155SOL    HW2 4365   4.166   6.903   2.602
 1156SOL     OW 4366   1.350   1.686   3.697
 1156SOL    HW1 4367   1.429   1.648   3.744
 1156SOL    HW2 4368   1.371   1.779   3.665
 1157SOL     OW 4369   1.294   3.475   4.477
 1157SOL    HW1 4370   1.358   3.408   4.438
 1157SOL    HW2 4371   1.201   3.439   4.471
 1158SOL     OW 4372   4.278   5.810   6.264
 1158SOL    HW1 4373   4.219   5.855   6.330
 1158SOL    HW2 4374   4.348   5.874   6.233
 1159SOL     OW 4375   5.815   4.829   2.678
 1159SOL    HW1 4376   5.877   4.906   2.662
 1159SOL    HW2 4377   5.854   4.746   2.638
 1160SOL     OW 4378   2.754   2.719   1.017
 1160SOL    HW1 4379   2.692   2.784   1.061
 1160SOL    HW2 4380   2.790   2.656   1.086
 1161SOL     OW 4381   4.146   0.914   4.480
 1161SOL    HW1 4382   4.099   0.981   4.537
 1161SOL    HW2 4383   4.162   0.953   4.389
 1162SOL     OW 4384   4.117   4.909   1.410
 1162SOL    HW1 4385   4.081   4.831   1.359
 1162SOL    HW2 4386   4.170   4.876   1.488
 1163SOL     OW 4387   5.263   1.096   2.371
 1163SOL    HW1 4388   5.361   1.110   2.354
 1163SOL    HW2 4389   5.251   1.031   2.446
 1164SOL     OW 4390   6.290   3.429   4.115
 1164SOL    HW1 4391   6.370   3.369   4.105
 1164SOL    HW2 4392   6.213   3.390   4.065
 1165SOL     OW 4393   1.732   4.776   2.595
 1165SOL    HW1 4394   1.640   4.792   2.630
 1165SOL    HW2 4395   1.730   4.700   2.530
 1166SOL     OW 4396   3.545   2.413   6.556
 1166SOL    HW1 4397   3.446   2.427   6.557
 1166SOL    HW2 4398   3.591   2.497   6.528
 1167SOL     OW 4399   4.043   1.855   5.177
 1167SOL    HW1 4400   3.980   1.804   5.236
 1167SOL    HW2 4401   3.992   1.893   5.100
 1168SOL     OW 4402   6.004   6.614   3.059
 1168SOL    HW1 4403   6.076   6.674   3.023
 1168SOL    HW2 4404   6.045   6.530   3.094
 1169SOL     OW 4405   0.764   3.765   1.003
 1169SOL    HW1 4406   0.850   3.718   0.982
 1169SOL    HW2 4407   0.768   3.802   1.095
 1170SOL     OW 4408   2.829   0.357   1.128
 1170SOL    HW1 4409   2.849   0.264   1.160
 1170SOL    HW2 4410   2.878   0.374   1.042
 1171SOL     OW 4411   2.810   0.584   0.018
 1171SOL    HW1 4412   2.758   0.560   0.100
 1171SOL    HW2 4413   2.755   0.644   6.983
 1172SOL     OW 4414   3.060   3.668   4.937
 1172SOL    HW1 4415   3.060   3.764   4.908
 1172SOL    HW2 4416   2.994   3.616   4.882
 1173SOL     OW 4417   4.867   0.410   6.326
 1173SOL    HW1 4418   4.889   0.441   6.233
 1173SOL    HW2 4419   4.906   0.473   6.393
 1174SOL     OW 4420   3.481   5.991   6.914
 1174SOL    HW1 4421   3.563   6.010   6.968
 1174SOL    HW2 4422   3.453   5.896   6.929
 1175SOL     OW 4423   6.966   5.070   4.858
 1175SOL    HW1 4424   6.870   5.080   4.886
 1175SOL    HW2 4425   7.010   5.160   4.857
 1176SOL     OW 4426   6.275   3.250   1.082
 1176SOL    HW1 4427   6.369   3.281   1.095
 1176SOL    HW2 4428   6.213   3.307   1.137
 1177SOL     OW 4429   5.813   3.441   6.977
 1177SOL    HW1 4430   5.803   3.383   0.035
 1177SOL    HW2 4431   5.831   3.535   7.006
 1178SOL     OW 4432   5.261   4.191   2.398
 1178SOL    HW1 4433   5.311   4.276   2.418
 1178SOL    HW2 4434   5.259   4.134   2.480
 1179SOL     OW 4435   1.990   5.814   5.782
 1179SOL    HW1 4436   1.999   5.716   5.798
 1179SOL    HW2 4437   2.047   5.864   5.848
 1180SOL     OW 4438   1.749   1.335   3.698
 1180SOL    HW1 4439   1.826   1.339   3.634
 1180SOL    HW2 4440   1.767   1.395   3.775
 1181SOL     OW 4441   1.975   4.312   2.746
 1181SOL    HW1 4442   1.938   4.283   2.834
 1181SOL    HW2 4443   2.029   4.395   2.757
 1182SOL     OW 4444   1.283   3.929   3.867
 1182SOL    HW1 4445   1.335   3.972   3.942
 1182SOL    HW2 4446   1.225   3.857   3.904
 1183SOL     OW 4447   4.819   6.012   0.628
 1183SOL    HW1 4448   4.869   6.082   0.578
 1183SOL    HW2 4449   4.765   5.957   0.563
 1184SOL     OW 4450   3.623   3.047   6.118
 1184SOL    HW1 4451   3.564   3.099   6.057
 1184SOL    HW2 4452   3.631   2.953   6.084
 1185SOL     OW 4453   2.699   1.310   6.492
 1185SOL    HW1 4454   2.740   1.241   6.431
 1185SOL    HW2 4455   2.602   1.321   6.470
 1186SOL     OW 4456   3.314   0.838   4.833
 1186SOL    HW1 4457   3.293   0.929   4.869
 1186SOL    HW2 4458   3.378   0.792   4.894
 1187SOL     OW 4459   0.671   1.895   5.378
 1187SOL    HW1 4460   0.639   1.871   5.286
 1187SOL    HW2 4461   0.746   1.961   5.370
 1188SOL     OW 4462   1.339   0.671   4.746
 1188SOL    HW1 4463   1.264   0.694   4.809
 1188SOL    HW2 4464   1.425   0.669   4.796
 1189SOL     OW 4465   0.553   1.068   1.300
 1189SOL    HW1 4466   0.493   1.063   1.380
 1189SOL    HW2 4467   0.499   1.085   1.218
 1190SOL     OW 4468   4.362   4.920   2.750
 1190SOL    HW1 4469   4.440   4.911   2.688
 1190SOL    HW2 4470   4.387   4.885   2.840
 1191SOL     OW 4471   3.168   4.410   1.133
 1191SOL    HW1 4472   3.160   4.355   1.216
 1191SOL    HW2 4473   3.209   4.355   1.061
 1192SOL     OW 4474   4.621   4.859   2.586
 1192SOL    HW1 4475   4.549   4.812   2.535
 1192SOL    HW2 4476   4.685   4.792   2.623
 1193SOL     OW 4477   4.225   6.907   3.827
 1193SOL    HW1 4478   4.159   6.859   3.769
 1193SOL    HW2 4479   4.201   7.004   3.832
 1194SOL     OW 4480   5.963   1.281   1.452
 1194SOL    HW1 4481   5.964   1.183   1.470
 1194SOL    HW2 4482   5.980   1.297   1.354
 1195SOL     OW 4483   3.596   6.439   0.106
 1195SOL    HW1 4484   3.654   6.409   0.030
 1195SOL    HW2 4485   3.535   6.513   0.075
 1196SOL     OW 4486   1.096   5.082   3.227
 1196SOL    HW1 4487   1.053   5.132   3.303
 1196SOL    HW2 4488   1.175   5.032   3.261
 1197SOL     OW 4489   3.231   4.910   6.822
 1197SOL    HW1 4490   3.320   4.872   6.849
 1197SOL    HW2 4491   3.232   4.931   6.724
 1198SOL     OW 4492   3.672   1.076   2.289
 1198SOL    HW1 4493   3.663   1.171   2.317
 1198SOL    HW2 4494   3.750   1.067   2.227
 1199SOL     OW 4495   3.034   3.936   4.248
 1199SOL    HW1 4496   3.133   3.929   4.262
 1199SOL    HW2 4497   3.016   3.959   4.152
 1200SOL     OW 4498   4.120   3.181   1.279
 1200SOL    HW1 4499   4.219   3.192   1.288
 1200SOL    HW2 4500   4.083   3.138   1.361
 1201SOL     OW 4501   1.229   1.084   4.789
 1201SOL    HW1 4502   1.248   1.031   4.707
 1201SOL    HW2 4503   1.134   1.117   4.787
 1202SOL     OW 4504   6.208   0.118   4.920
 1202SOL    HW1 4505   6.181   0.038   4.866
 1202SOL    HW2 4506   6.144   0.192   4.903
 1203SOL     OW 4507   6.331   6.629   1.400
 1203SOL    HW1 4508   6.426   6.599   1.398
 1203SOL    HW2 4509   6.311   6.671   1.489
 1204SOL     OW 4510   1.444   6.914   6.898
 1204SOL    HW1 4511   1.535   6.885   6.869
 1204SOL    HW2 4512   1.407   6.980   6.833
 1205SOL     OW 4513   0.846   3.304   5.209
 1205SOL    HW1 4514   0.855   3.400   5.237
 1205SOL    HW2 4515   0.936   3.261   5.207
 1206SOL     OW 4516   0.258   2.116   4.497
 1206SOL    HW1 4517   0.291   2.209   4.512
 1206SOL    HW2 4518   0.317   2.070   4.430
 1207SOL     OW 4519   5.845   6.690   6.853
 1207SOL    HW1 4520   5.815   6.785   6.848
 1207SOL    HW2 4521   5.920   6.675   6.789
 1208SOL     OW 4522   3.536   3.637   3.028
 1208SOL    HW1 4523   3.580   3.674   2.946
 1208SOL    HW2 4524   3.461   3.697   3.056
 1209SOL     OW 4525   6.678   4.283   5.068
 1209SOL    HW1 4526   6.598   4.273   5.128
 1209SOL    HW2 4527   6.650   4.268   4.973
 1210SOL     OW 4528   2.571   6.888   2.768
 1210SOL    HW1 4529   2.654   6.833   2.758
 1210SOL    HW2 4530   2.584   6.978   2.727
 1211SOL     OW 4531   1.245   3.174   3.448
 1211SOL    HW1 4532   1.327   3.231   3.443
 1211SOL    HW2 4533   1.209   3.159   3.356
 1212SOL     OW 4534   0.963   4.137   3.527
 1212SOL    HW1 4535   1.017   4.121   3.609
 1212SOL    HW2 4536   0.949   4.051   3.478
 1213SOL     OW 4537   5.537   3.313   5.390
 1213SOL    HW1 4538   5.469   3.373   5.347
 1213SOL    HW2 4539   5.626   3.359   5.392
 1214SOL     OW 4540   1.433   2.254   1.944
 1214SOL    HW1 4541   1.371   2.225   1.871
 1214SOL    HW2 4542   1.493   2.327   1.909
 1215SOL     OW 4543   6.916   5.066   2.194
 1215SOL    HW1 4544   6.925   5.165   2.180
 1215SOL    HW2 4545   6.829   5.035   2.155
 1216SOL     OW 4546   2.935   0.110   1.724
 1216SOL    HW1 4547   2.857   0.135   1.666
 1216SOL    HW2 4548   2.941   0.011   1.730
 1217SOL     OW 4549   1.931   1.905   2.446
 1217SOL    HW1 4550   1.923   1.831   2.513
 1217SOL    HW2 4551   1.844   1.954   2.439
 1218SOL     OW 4552   0.178   3.571   3.759
 1218SOL    HW1 4553   0.254   3.548   3.698
 1218SOL    HW2 4554   0.097   3.520   3.732
 1219SOL     OW 4555   2.481   5.830   3.695
 1219SOL    HW1 4556   2.386   5.846   3.718
 1219SOL    HW2 4557   2.509   5.739   3.726
 1220SOL     OW 4558   5.883   4.545   2.615
 1220SOL    HW1 4559   5.812   4.500   2.670
 1220SOL    HW2 4560   5.972   4.509   2.641
 1221SOL     OW 4561   5.014   4.401   6.412
 1221SOL    HW1 4562   4.976   4.320   6.458
 1221SOL    HW2 4563   4.959   4.481   6.434
 1222SOL     OW 4564   6.310   5.056   1.148
 1222SOL    HW1 4565   6.365   4.997   1.207
 1222SOL    HW2 4566   6.326   5.152   1.172
 1223SOL     OW 4567   6.787   4.899   5.188
 1223SOL    HW1 4568   6.709   4.917   5.249
 1223SOL    HW2 4569   6.868   4.880   5.243
 1224SOL     OW 4570   4.529   4.506   1.203
 1224SOL    HW1 4571   4.490   4.455   1.126
 1224SOL    HW2 4572   4.627   4.523   1.186
 1225SOL     OW 4573   3.574   2.034   6.756
 1225SOL    HW1 4574   3.639   2.011   6.684
 1225SOL    HW2 4575   3.578   1.965   6.828
 1226SOL     OW 4576   5.516   5.551   0.642
 1226SOL    HW1 4577   5.610   5.528   0.667
 1226SOL    HW2 4578   5.464   5.467   0.627
 1227SOL     OW 4579   5.164   4.870   7.002
 1227SOL    HW1 4580   5.203   4.778   6.995
 1227SOL    HW2 4581   5.065   4.864   7.010
 1228SOL     OW 4582   3.994   3.955   3.985
 1228SOL    HW1 4583   4.073   4.006   3.950
 1228SOL    HW2 4584   4.002   3.946   4.084
 1229SOL     OW 4585   2.305   5.811   2.995
 1229SOL    HW1 4586   2.277   5.907   2.992
 1229SOL    HW2 4587   2.338   5.789   3.087
 1230SOL     OW 4588   5.308   5.672   0.877
 1230SOL    HW1 4589   5.299   5.572   0.876
 1230SOL    HW2 4590   5.340   5.704   0.788
 1231SOL     OW 4591   2.263   1.603   6.887
 1231SOL    HW1 4592   2.233   1.528   6.947
 1231SOL    HW2 4593   2.275   1.686   6.941
 1232SOL     OW 4594   2.930   1.339   5.356
 1232SOL    HW1 4595   2.856   1.310   5.296
 1232SOL    HW2 4596   2.914   1.433   5.387
 1233SOL     OW 4597   6.677   5.535   4.863
 1233SOL    HW1 4598   6.611   5.551   4.789
 1233SOL    HW2 4599   6.770   5.541   4.827
 1234SOL     OW 4600   6.342   4.677   0.036
 1234SOL    HW1 4601   6.339   4.662   6.961
 1234SOL    HW2 4602   6.419   4.738   0.058
 1235SOL     OW 4603   6.043   5.003   1.155
 1235SOL    HW1 4604   6.009   5.010   1.062
 1235SOL    HW2 4605   6.143   5.008   1.155
 1236SOL     OW 4606   1.754   1.076   2.489
 1236SOL    HW1 4607   1.714   0.985   2.502
 1236SOL    HW2 4608   1.836   1.085   2.546
 1237SOL     OW 4609   1.016   0.435   4.234
 1237SOL    HW1 4610   0.936   0.381   4.207
 1237SOL    HW2 4611   0.986   0.516   4.285
 1238SOL     OW 4612   0.689   0.482   4.801
 1238SOL    HW1 4613   0.703   0.440   4.891
 1238SOL    HW2 4614   0.592   0.476   4.776
 1239SOL     OW 4615   4.619   4.928   3.946
 1239SOL    HW1 4616   4.615   5.016   3.899
 1239SOL    HW2 4617   4.713   4.893   3.941
 1240SOL     OW 4618   0.431   3.729   1.017
 1240SOL    HW1 4619   0.421   3.635   0.987
 1240SOL    HW2 4620   0.522   3.762   0.993
 1241SOL     OW 4621   4.023   4.746   5.926
 1241SOL    HW1 4622   4.011   4.761   6.024
 1241SOL    HW2 4623   3.974   4.817   5.875
 1242SOL     OW 4624   2.113   4.932   0.927
 1242SOL    HW1 4625   2.189   4.983   0.888
 1242SOL    HW2 4626   2.083   4.862   0.862
 1243SOL     OW 4627   1.238   3.513   3.479
 1243SOL    HW1 4628   1.212   3.475   3.568
 1243SOL    HW2 4629   1.317   3.464   3.443
 1244SOL     OW 4630   6.102   6.991   5.177
 1244SOL    HW1 4631   6.202   6.994   5.185
 1244SOL    HW2 4632   6.064   0.056   5.206
 1245SOL     OW 4633   4.810   6.481   1.378
 1245SOL    HW1 4634   4.809   6.557   1.443
 1245SOL    HW2 4635   4.841   6.514   1.289
 1246SOL     OW 4636   5.640   1.865   1.176
 1246SOL    HW1 4637   5.564   1.838   1.235
 1246SOL    HW2 4638   5.614   1.947   1.124
 1247SOL     OW 4639   6.082   6.748   2.403
 1247SOL    HW1 4640   6.017   6.802   2.350
 1247SOL    HW2 4641   6.147   6.704   2.341
 1248SOL     OW 4642   0.842   6.754   4.283
 1248SOL    HW1 4643   0.819   6.816   4.208
 1248SOL    HW2 4644   0.908   6.799   4.344
 1249SOL     OW 4645   5.953   6.222   6.625
 1249SOL    HW1 4646   5.878   6.227   6.560
 1249SOL    HW2 4647   6.005   6.138   6.611
 1250SOL     OW 4648   0.632   4.532   4.982
 1250SOL    HW1 4649   0.676   4.454   4.937
 1250SOL    HW2 4650   0.597   4.594   4.912
 1251SOL     OW 4651   2.868   0.181   2.747
 1251SOL    HW1 4652   2.772   0.176   2.719
 1251SOL    HW2 4653   2.914   0.096   2.725
 1252SOL     OW 4654   2.407   5.230   6.680
 1252SOL    HW1 4655   2.468   5.173   6.625
 1252SOL    HW2 4656   2.351   5.172   6.740
 1253SOL     OW 4657   3.133   6.337   0.067
 1253SOL    HW1 4658   3.039   6.301   0.063
 1253SOL    HW2 4659   3.135   6.419   0.123
 1254SOL     OW 4660   6.503   1.724   3.293
 1254SOL    HW1 4661   6.601   1.740   3.306
 1254SOL    HW2 4662   6.479   1.633   3.327
 1255SOL     OW 4663   5.953   1.951   6.017
 1255SOL    HW1 4664   6.011   1.898   5.954
 1255SOL    HW2 4665   5.995   2.040   6.033
 1256SOL     OW 4666   0.392   5.594   4.679
 1256SOL    HW1 4667   0.379   5.685   4.640
 1256SOL    HW2 4668   0.377   5.598   4.778
 1257SOL     OW 4669   6.684   6.423   3.429
 1257SOL    HW1 4670   6.652   6.503   3.480
 1257SOL    HW2 4671   6.620   6.403   3.354
 1258SOL     OW 4672   4.384   5.564   6.312
 1258SOL    HW1 4673   4.326   5.486   6.290
 1258SOL    HW2 4674   4.331   5.649   6.302
 1259SOL     OW 4675   5.368   6.985   5.495
 1259SOL    HW1 4676   5.417   6.948   5.417
 1259SOL    HW2 4677   5.270   6.986   5.475
 1260SOL     OW 4678   3.052   1.246   0.958
 1260SOL    HW1 4679   3.113   1.258   1.036
 1260SOL    HW2 4680   2.977   1.312   0.964
 1261SOL     OW 4681   0.087   4.234   5.242
 1261SOL    HW1 4682   0.120   4.253   5.150
 1261SOL    HW2 4683   0.148   4.170   5.287
 1262SOL     OW 4684   4.251   5.598   1.836
 1262SOL    HW1 4685   4.322   5.553   1.783
 1262SOL    HW2 4686   4.210   5.672   1.783
 1263SOL     OW 4687   6.929   1.880   0.595
 1263SOL    HW1 4688   6.950   1.788   0.629
 1263SOL    HW2 4689   7.012   1.936   0.596
 1264SOL     OW 4690   6.353   2.427   4.605
 1264SOL    HW1 4691   6.361   2.436   4.704
 1264SOL    HW2 4692   6.397   2.506   4.561
 1265SOL     OW 4693   6.480   5.875   4.722
 1265SOL    HW1 4694   6.543   5.804   4.690
 1265SOL    HW2 4695   6.410   5.892   4.652
 1266SOL     OW 4696   2.892   0.916   3.636
 1266SOL    HW1 4697   2.933   0.849   3.697
 1266SOL    HW2 4698   2.863   0.997   3.688
 1267SOL     OW 4699   0.429   4.536   2.901
 1267SOL    HW1 4700   0.347   4.534   2.845
 1267SOL    HW2 4701   0.408   4.579   2.989
 1268SOL     OW 4702   5.988   4.602   6.867
 1268SOL    HW1 4703   5.960   4.696   6.885
 1268SOL    HW2 4704   6.043   4.599   6.784
 1269SOL     OW 4705   6.910   4.952   6.212
 1269SOL    HW1 4706   6.852   4.968   6.292
 1269SOL    HW2 4707   7.005   4.946   6.240
 1270SOL     OW 4708   1.449   2.073   4.683
 1270SOL    HW1 4709   1.545   2.070   4.657
 1270SOL    HW2 4710   1.440   2.058   4.782
 1271SOL     OW 4711   5.233   2.645   3.526
 1271SOL    HW1 4712   5.172   2.614   3.453
 1271SOL    HW2 4713   5.304   2.576   3.542
 1272SOL     OW 4714   6.101   0.150   1.374
 1272SOL    HW1 4715   6.097   0.058   1.414
 1272SOL    HW2 4716   6.107   0.142   1.274
 1273SOL     OW 4717   2.632   6.226   5.570
 1273SOL    HW1 4718   2.596   6.154   5.629
 1273SOL    HW2 4719   2.556   6.279   5.532
 1274SOL     OW 4720   5.813   1.828   2.245
 1274SOL    HW1 4721   5.884   1.881   2.291
 1274SOL    HW2 4722   5.724   1.846   2.287
 1275SOL     OW 4723   3.853   1.746   4.036
 1275SOL    HW1 4724   3.858   1.667   3.976
 1275SOL    HW2 4725   3.783   1.809   4.003
 1276SOL     OW 4726   6.460   0.144   2.600
 1276SOL    HW1 4727   6.393   0.134   2.674
 1276SOL    HW2 4728   6.417   0.191   2.523
 1277SOL     OW 4729   0.497   2.208   5.064
 1277SOL    HW1 4730   0.468   2.190   4.970
 1277SOL    HW2 4731   0.591   2.242   5.064
 1278SOL     OW 4732   2.961   1.257   5.726
 1278SOL    HW1 4733   2.971   1.172   5.675
 1278SOL    HW2 4734   2.964   1.238   5.824
 1279SOL     OW 4735   2.279   4.904   0.703
 1279SOL    HW1 4736   2.324   4.819   0.678
 1279SOL    HW2 4737   2.218   4.933   0.629
 1280SOL     OW 4738   1.756   5.850   2.586
 1280SOL    HW1 4739   1.753   5.922   2.656
 1280SOL    HW2 4740   1.735   5.890   2.497
 1281SOL     OW 4741   1.035   6.849   3.920
 1281SOL    HW1 4742   0.970   6.775   3.935
 1281SOL    HW2 4743   1.124   6.812   3.894
 1282SOL     OW 4744   1.102   0.280   2.398
 1282SOL    HW1 4745   1.095   0.188   2.359
 1282SOL    HW2 4746   1.033   0.340   2.357
 1283SOL     OW 4747   4.717   4.036   5.229
 1283SOL    HW1 4748   4.643   4.026   5.297
 1283SOL    HW2 4749   4.785   4.100   5.264
 1284SOL     OW 4750   2.605   2.031   2.551
 1284SOL    HW1 4751   2.651   2.117   2.573
 1284SOL    HW2 4752   2.591   2.024   2.453
 1285SOL     OW 4753   5.759   2.723   6.516
 1285SOL    HW1 4754   5.830   2.657   6.541
 1285SOL    HW2 4755   5.669   2.687   6.542
 1286SOL     OW 4756   6.169   6.220   1.636
 1286SOL    HW1 4757   6.144   6.306   1.680
 1286SOL    HW2 4758   6.198   6.153   1.705
 1287SOL     OW 4759   6.241   4.664   6.110
 1287SOL    HW1 4760   6.215   4.740   6.170
 1287SOL    HW2 4761   6.335   4.637   6.129
 1288SOL     OW 4762   6.724   2.867   3.815
 1288SOL    HW1 4763   6.766   2.811   3.743
 1288SOL    HW2 4764   6.704   2.809   3.894
 1289SOL     OW 4765   6.899   5.095   2.654
 1289SOL    HW1 4766   6.821   5.048   2.695
 1289SOL    HW2 4767   6.867   5.149   2.576
 1290SOL     OW 4768   0.190   0.014   1.003
 1290SOL    HW1 4769   0.174   0.105   0.967
 1290SOL    HW2 4770   0.144   6.969   0.945
 1291SOL     OW 4771   1.345   6.673   0.808
 1291SOL    HW1 4772   1.376   6.648   0.716
 1291SOL    HW2 4773   1.405   6.743   0.846
 1292SOL     OW 4774   0.920   5.661   6.624
 1292SOL    HW1 4775   0.987   5.720   6.669
 1292SOL    HW2 4776   0.948   5.644   6.530
 1293SOL     OW 4777   6.266   2.926   5.824
 1293SOL    HW1 4778   6.272   2.967   5.915
 1293SOL    HW2 4779   6.260   2.998   5.755
 1294SOL     OW 4780   0.485   1.846   3.334
 1294SOL    HW1 4781   0.581   1.846   3.362
 1294SOL    HW2 4782   0.434   1.778   3.386
 1295SOL     OW 4783   4.610   3.385   1.552
 1295SOL    HW1 4784   4.621   3.423   1.644
 1295SOL    HW2 4785   4.610   3.459   1.485
 1296SOL     OW 4786   3.873   2.432   6.955
 1296SOL    HW1 4787   3.819   2.412   6.874
 1296SOL    HW2 4788   3.964   2.462   6.929
 1297SOL     OW 4789   6.272   1.010   6.553
 1297SOL    HW1 4790   6.196   1.004   6.618
 1297SOL    HW2 4791   6.307   1.104   6.550
 1298SOL     OW 4792   6.430   2.935   3.647
 1298SOL    HW1 4793   6.507   2.999   3.637
 1298SOL    HW2 4794   6.462   2.853   3.695
 1299SOL     OW 4795   1.407   3.268   4.367
 1299SOL    HW1 4796   1.317   3.265   4.323
 1299SOL    HW2 4797   1.477   3.292   4.300
 1300SOL     OW 4798   3.337   3.535   1.453
 1300SOL    HW1 4799   3.312   3.449   1.497
 1300SOL    HW2 4800   3.339   3.609   1.521
 1301SOL     OW 4801   0.563   0.650   2.572
 1301SOL    HW1 4802   0.529   0.597   2.650
 1301SOL    HW2 4803   0.563   0.747   2.595
 1302SOL     OW 4804   2.425   5.692   5.483
 1302SOL    HW1 4805   2.444   5.787   5.456
 1302SOL    HW2 4806   2.484   5.667   5.560
 1303SOL     OW 4807   3.166   0.341   1.152
 1303SOL    HW1 4808   3.144   0.245   1.134
 1303SOL    HW2 4809   3.126   0.399   1.081
 1304SOL     OW 4810   3.528   0.732   6.401
 1304SOL    HW1 4811   3.542   0.681   6.486
 1304SOL    HW2 4812   3.433   0.721   6.371
 1305SOL     OW 4813   6.042   6.337   3.744
 1305SOL    HW1 4814   6.099   6.273   3.796
 1305SOL    HW2 4815   6.024   6.300   3.653
 1306SOL     OW 4816   1.501   5.012   4.638
 1306SOL    HW1 4817   1.446   4.970   4.710
 1306SOL    HW2 4818   1.593   4.972   4.639
 1307SOL     OW 4819   1.277   2.130   4.361
 1307SOL    HW1 4820   1.285   2.045   4.309
 1307SOL    HW2 4821   1.282   2.109   4.459
 1308SOL     OW 4822   4.634   6.278   2.976
 1308SOL    HW1 4823   4.535   6.268   2.986
 1308SOL    HW2 4824   4.677   6.188   2.971
 1309SOL     OW 4825   5.906   2.906   4.902
 1309SOL    HW1 4826   5.894   2.825   4.844
 1309SOL    HW2 4827   5.822   2.921   4.954
 1310SOL     OW 4828   4.958   3.967   5.458
 1310SOL    HW1 4829   4.928   4.054   5.497
 1310SOL    HW2 4830   4.956   3.972   5.359
 1311SOL     OW 4831   5.247   5.157   5.489
 1311SOL    HW1 4832   5.310   5.228   5.520
 1311SOL    HW2 4833   5.262   5.073   5.542
 1312SOL     OW 4834   6.287   0.319   2.468
 1312SOL    HW1 4835   6.243   0.298   2.380
 1312SOL    HW2 4836   6.346   0.399   2.457
 1313SOL     OW 4837   3.127   5.084   5.155
 1313SOL    HW1 4838   3.063   5.058   5.084
 1313SOL    HW2 4839   3.147   5.005   5.213
 1314SOL     OW 4840   5.661   1.965   5.499
 1314SOL    HW1 4841   5.622   2.012   5.419
 1314SOL    HW2 4842   5.681   2.032   5.570
 1315SOL     OW 4843   2.320   6.926   3.368
 1315SOL    HW1 4844   2.413   6.891   3.380
 1315SOL    HW2 4845   2.319   6.992   3.294
 1316SOL     OW 4846   3.332   6.351   2.613
 1316SOL    HW1 4847   3.252   6.410   2.605
 1316SOL    HW2 4848   3.415   6.407   2.623
 1317SOL     OW 4849   0.178   4.018   3.968
 1317SOL    HW1 4850   0.216   3.993   4.057
 1317SOL    HW2 4851   0.191   4.115   3.952
 1318SOL     OW 4852   0.483   6.191   1.408
 1318SOL    HW1 4853   0.515   6.188   1.313
 1318SOL    HW2 4854   0.504   6.280   1.448
 1319SOL     OW 4855   6.291   0.716   6.927
 1319SOL    HW1 4856   6.260   0.686   6.836
 1319SOL    HW2 4857   6.214   0.713   6.991
 1320SOL     OW 4858   5.426   6.027   5.591
 1320SOL    HW1 4859   5.505   6.043   5.651
 1320SOL    HW2 4860   5.431   5.934   5.554
 1321SOL     OW 4861   3.020   1.494   6.743
 1321SOL    HW1 4862   3.101   1.437   6.758
 1321SOL    HW2 4863   3.043   1.590   6.759
 1322SOL     OW 4864   5.331   1.421   6.011
 1322SOL    HW1 4865   5.261   1.450   5.946
 1322SOL    HW2 4866   5.336   1.488   6.086
 1323SOL     OW 4867   5.916   0.957   4.033
 1323SOL    HW1 4868   5.829   0.976   4.077
 1323SOL    HW2 4869   5.918   0.862   4.001
 1324SOL     OW 4870   0.882   3.353   0.108
 1324SOL    HW1 4871   0.949   3.287   0.075
 1324SOL    HW2 4872   0.851   3.327   0.200
 1325SOL     OW 4873   3.678   5.333   3.383
 1325SOL    HW1 4874   3.603   5.397   3.372
 1325SOL    HW2 4875   3.649   5.241   3.355
 1326SOL     OW 4876   5.241   4.111   4.536
 1326SOL    HW1 4877   5.174   4.122   4.609
 1326SOL    HW2 4878   5.203   4.147   4.451
 1327SOL     OW 4879   2.912   5.659   3.642
 1327SOL    HW1 4880   2.909   5.684   3.546
 1327SOL    HW2 4881   2.828   5.609   3.666
 1328SOL     OW 4882   1.719   1.660   0.276
 1328SOL    HW1 4883   1.668   1.586   0.320
 1328SOL    HW2 4884   1.709   1.744   0.328
 1329SOL     OW 4885   0.857   0.220   1.493
 1329SOL    HW1 4886   0.769   0.265   1.481
 1329SOL    HW2 4887   0.929   0.279   1.456
 1330SOL     OW 4888   4.845   6.514   0.797
 1330SOL    HW1 4889   4.846   6.439   0.863
 1330SOL    HW2 4890   4.847   6.601   0.847
 1331SOL     OW 4891   6.902   1.556   1.854
 1331SOL    HW1 4892   6.934   1.631   1.795
 1331SOL    HW2 4893   6.974   1.533   1.920
 1332SOL     OW 4894   4.144   1.707   1.031
 1332SOL    HW1 4895   4.128   1.767   0.953
 1332SOL    HW2 4896   4.074   1.635   1.033
 1333SOL     OW 4897   4.090   3.552   4.642
 1333SOL    HW1 4898   4.054   3.459   4.642
 1333SOL    HW2 4899   4.132   3.572   4.730
 1334SOL     OW 4900   0.549   4.356   3.611
 1334SOL    HW1 4901   0.511   4.387   3.524
 1334SOL    HW2 4902   0.648   4.343   3.602
 1335SOL     OW 4903   2.714   5.676   1.951
 1335SOL    HW1 4904   2.658   5.609   1.902
 1335SOL    HW2 4905   2.687   5.677   2.047
 1336SOL     OW 4906   0.163   0.529   4.666
 1336SOL    HW1 4907   0.076   0.509   4.621
 1336SOL    HW2 4908   0.150   0.603   4.732
 1337SOL     OW 4909   3.248   0.465   6.641
 1337SOL    HW1 4910   3.332   0.411   6.630
 1337SOL    HW2 4911   3.268   0.561   6.622
 1338SOL     OW 4912   3.753   5.512   1.343
 1338SOL    HW1 4913   3.799   5.600   1.358
 1338SOL    HW2 4914   3.760   5.486   1.246
 1339SOL     OW 4915   0.376   4.812   6.172
 1339SOL    HW1 4916   0.461   4.774   6.208
 1339SOL    HW2 4917   0.337   4.749   6.105
 1340SOL     OW 4918   1.946   0.974   6.214
 1340SOL    HW1 4919   1.873   0.987   6.282
 1340SOL    HW2 4920   1.913   0.914   6.141
 1341SOL     OW 4921   6.281   2.544   4.184
 1341SOL    HW1 4922   6.362   2.567   4.238
 1341SOL    HW2 4923   6.198   2.564   4.237
 1342SOL     OW 4924   0.260   6.161   1.993
 1342SOL    HW1 4925   0.199   6.160   1.914
 1342SOL    HW2 4926   0.296   6.253   2.006
 1343SOL     OW 4927   3.427   5.189   3.461
 1343SOL    HW1 4928   3.360   5.263   3.469
 1343SOL    HW2 4929   3.493   5.196   3.535
 1344SOL     OW 4930   5.108   1.406   2.881
 1344SOL    HW1 4931   5.094   1.491   2.931
 1344SOL    HW2 4932   5.141   1.426   2.789
 1345SOL     OW 4933   0.909   6.999   3.109
 1345SOL    HW1 4934   0.904   7.010   3.009
 1345SOL    HW2 4935   0.992   0.019   3.144
 1346SOL     OW 4936   0.302   0.924   3.744
 1346SOL    HW1 4937   0.375   0.992   3.746
 1346SOL    HW2 4938   0.307   0.868   3.827
 1347SOL     OW 4939   5.093   0.538   3.483
 1347SOL    HW1 4940   5.168   0.588   3.526
 1347SOL    HW2 4941   5.106   0.536   3.384
 1348SOL     OW 4942   4.677   6.181   4.706
 1348SOL    HW1 4943   4.764   6.170   4.754
 1348SOL    HW2 4944   4.689   6.153   4.610
 1349SOL     OW 4945   4.636   2.640   0.450
 1349SOL    HW1 4946   4.727   2.677   0.432
 1349SOL    HW2 4947   4.568   2.713   0.445
 1350SOL     OW 4948   3.608   0.152   4.983
 1350SOL    HW1 4949   3.614   0.086   4.908
 1350SOL    HW2 4950   3.701   0.179   5.010
 1351SOL     OW 4951   1.117   1.653   4.573
 1351SOL    HW1 4952   1.129   1.613   4.482
 1351SOL    HW2 4953   1.145   1.749   4.571
 1352SOL     OW 4954   0.834   6.643   3.921
 1352SOL    HW1 4955   0.826   6.549   3.953
 1352SOL    HW2 4956   0.776   6.702   3.977
 1353SOL     OW 4957   2.100   2.417   4.594
 1353SOL    HW1 4958   2.095   2.451   4.688
 1353SOL    HW2 4959   2.007   2.403   4.559
 1354SOL     OW 4960   0.464   6.768   0.529
 1354SOL    HW1 4961   0.379   6.716   0.520
 1354SOL    HW2 4962   0.455   6.856   0.483
 1355SOL     OW 4963   3.898   3.314   0.014
 1355SOL    HW1 4964   3.948   3.268   6.963
 1355SOL    HW2 4965   3.873   3.406   7.008
 1356SOL     OW 4966   3.159   2.770   1.608
 1356SOL    HW1 4967   3.185   2.851   1.660
 1356SOL    HW2 4968   3.146   2.795   1.512
 1357SOL     OW 4969   2.909   2.962   6.035
 1357SOL    HW1 4970   2.889   2.912   5.951
 1357SOL    HW2 4971   2.852   2.927   6.109
 1358SOL     OW 4972   2.248   3.740   5.758
 1358SOL    HW1 4973   2.184   3.667   5.782
 1358SOL    HW2 4974   2.197   3.817   5.720
 1359SOL     OW 4975   0.005   0.843   0.187
 1359SOL    HW1 4976   6.961   0.785   0.234
 1359SOL    HW2 4977   7.004   0.851   0.091
 1360SOL     OW 4978   3.318   2.903   4.296
 1360SOL    HW1 4979   3.241   2.915   4.234
 1360SOL    HW2 4980   3.360   2.814   4.280
 1361SOL     OW 4981   0.533   6.204   1.103
 1361SOL    HW1 4982   0.501   6.228   1.012
 1361SOL    HW2 4983   0.631   6.225   1.111
 1362SOL     OW 4984   3.258   1.953   6.480
 1362SOL    HW1 4985   3.169   1.998   6.478
 1362SOL    HW2 4986   3.328   2.019   6.506
 1363SOL     OW 4987   6.705   6.947   1.020
 1363SOL    HW1 4988   6.770   7.010   0.979
 1363SOL    HW2 4989   6.626   6.936   0.959
 1364SOL     OW 4990   1.254   3.841   1.073
 1364SOL    HW1 4991   1.193   3.916   1.046
 1364SOL    HW2 4992   1.311   3.814   0.995
 1365SOL     OW 4993   0.662   3.840   5.564
 1365SOL    HW1 4994   0.570   3.825   5.602
 1365SOL    HW2 4995   0.730   3.810   5.631
 1366SOL     OW 4996   4.393   0.446   1.187
 1366SOL    HW1 4997   4.434   0.472   1.274
 1366SOL    HW2 4998   4.384   0.527   1.129
 1367SOL     OW 4999   1.653   0.128   4.342
 1367SOL    HW1 5000   1.654   0.228   4.334
 1367SOL    HW2 5001   1.690   0.088   4.259
 1368SOL     OW 5002   1.347   6.904   4.633
 1368SOL    HW1 5003   1.314   6.810   4.646
 1368SOL    HW2 5004   1.414   6.905   4.559
 1369SOL     OW 5005   2.540   5.566   3.874
 1369SOL    HW1 5006   2.572   5.639   3.934
 1369SOL    HW2 5007   2.618   5.510   3.845
 1370SOL     OW 5008   6.830   2.486   3.054
 1370SOL    HW1 5009   6.741   2.444   3.036
 1370SOL    HW2 5010   6.868   2.450   3.139
 1371SOL     OW 5011   6.286   2.416   5.667
 1371SOL    HW1 5012   6.200   2.424   5.616
 1371SOL    HW2 5013   6.306   2.320   5.683
 1372SOL     OW 5014   5.517   2.884   1.374
 1372SOL    HW1 5015   5.504   2.929   1.286
 1372SOL    HW2 5016   5.428   2.853   1.409
 1373SOL     OW 5017   5.780   2.709   2.138
 1373SOL    HW1 5018   5.861   2.759   2.170
 1373SOL    HW2 5019   5.755   2.743   2.047
 1374SOL     OW 5020   3.961   3.706   1.812
 1374SOL    HW1 5021   3.995   3.794   1.846
 1374SOL    HW2 5022   3.969   3.637   1.884
 1375SOL     OW 5023   5.537   4.629   4.653
 1375SOL    HW1 5024   5.460   4.676   4.610
 1375SOL    HW2 5025   5.505   4.546   4.698
 1376SOL     OW 5026   3.034   4.597   6.186
 1376SOL    HW1 5027   2.942   4.619   6.152
 1376SOL    HW2 5028   3.050   4.499   6.177
 1377SOL     OW 5029   2.151   1.716   2.901
 1377SOL    HW1 5030   2.091   1.729   2.822
 1377SOL    HW2 5031   2.173   1.618   2.910
 1378SOL     OW 5032   5.570   2.715   4.376
 1378SOL    HW1 5033   5.612   2.700   4.466
 1378SOL    HW2 5034   5.632   2.685   4.304
 1379SOL     OW 5035   4.733   5.665   0.223
 1379SOL    HW1 5036   4.780   5.651   0.310
 1379SOL    HW2 5037   4.645   5.617   0.224
 1380SOL     OW 5038   0.311   5.961   2.732
 1380SOL    HW1 5039   0.362   6.038   2.693
 1380SOL    HW2 5040   0.214   5.974   2.714
 1381SOL     OW 5041   6.216   2.559   6.148
 1381SOL    HW1 5042   6.213   2.534   6.245
 1381SOL    HW2 5043   6.149   2.631   6.130
 1382SOL     OW 5044   5.083   2.469   6.778
 1382SOL    HW1 5045   5.095   2.432   6.870
 1382SOL    HW2 5046   4.996   2.517   6.773
 1383SOL     OW 5047   7.016   0.777   0.774
 1383SOL    HW1 5048   0.050   0.846   0.817
 1383SOL    HW2 5049   6.955   0.820   0.708
 1384SOL     OW 5050   5.969   1.849   1.806
 1384SOL    HW1 5051   6.067   1.867   1.812
 1384SOL    HW2 5052   5.921   1.934   1.784
 1385SOL     OW 5053   0.284   5.893   1.274
 1385SOL    HW1 5054   0.209   5.921   1.333
 1385SOL    HW2 5055   0.352   5.843   1.329
 1386SOL     OW 5056   2.105   5.704   4.206
 1386SOL    HW1 5057   2.091   5.668   4.114
 1386SOL    HW2 5058   2.058   5.792   4.215
 1387SOL     OW 5059   2.492   6.107   1.670
 1387SOL    HW1 5060   2.505   6.017   1.710
 1387SOL    HW2 5061   2.489   6.099   1.570
 1388SOL     OW 5062   6.741   0.253   1.965
 1388SOL    HW1 5063   6.685   0.193   2.022
 1388SOL    HW2 5064   6.835   0.218   1.962
 1389SOL     OW 5065   6.264   1.108   2.223
 1389SOL    HW1 5066   6.173   1.105   2.179
 1389SOL    HW2 5067   6.261   1.056   2.308
 1390SOL     OW 5068   1.562   1.818   4.920
 1390SOL    HW1 5069   1.655   1.812   4.883
 1390SOL    HW2 5070   1.532   1.914   4.919
 1391SOL     OW 5071   0.194   2.978   3.331
 1391SOL    HW1 5072   0.144   2.945   3.251
 1391SOL    HW2 5073   0.223   2.900   3.387
 1392SOL     OW 5074   4.883   4.433   4.448
 1392SOL    HW1 5075   4.857   4.400   4.539
 1392SOL    HW2 5076   4.800   4.448   4.394
 1393SOL     OW 5077   3.431   5.840   6.150
 1393SOL    HW1 5078   3.417   5.920   6.092
 1393SOL    HW2 5079   3.478   5.868   6.235
 1394SOL     OW 5080   1.387   5.869   6.421
 1394SOL    HW1 5081   1.349   5.825   6.339
 1394SOL    HW2 5082   1.391   5.968   6.407
 1395SOL     OW 5083   3.511   4.495   5.979
 1395SOL    HW1 5084   3.495   4.540   5.892
 1395SOL    HW2 5085   3.507   4.563   6.053
 1396SOL     OW 5086   6.216   6.069   3.655
 1396SOL    HW1 5087   6.287   6.127   3.615
 1396SOL    HW2 5088   6.169   6.019   3.582
 1397SOL     OW 5089   4.529   6.117   5.794
 1397SOL    HW1 5090   4.552   6.141   5.889
 1397SOL    HW2 5091   4.430   6.100   5.788
 1398SOL     OW 5092   2.035   1.006   4.272
 1398SOL    HW1 5093   2.030   1.090   4.218
 1398SOL    HW2 5094   1.948   0.991   4.319
 1399SOL     OW 5095   3.399   5.992   1.961
 1399SOL    HW1 5096   3.336   6.053   1.912
 1399SOL    HW2 5097   3.441   6.042   2.036
 1400SOL     OW 5098   2.112   6.336   2.326
 1400SOL    HW1 5099   2.144   6.285   2.406
 1400SOL    HW2 5100   2.122   6.279   2.244
 1401SOL     OW 5101   6.664   1.345   4.510
 1401SOL    HW1 5102   6.733   1.364   4.580
 1401SOL    HW2 5103   6.693   1.385   4.423
 1402SOL     OW 5104   6.761   3.107   0.301
 1402SOL    HW1 5105   6.858   3.105   0.327
 1402SOL    HW2 5106   6.706   3.071   0.376
 1403SOL     OW 5107   3.525   0.201   2.378
 1403SOL    HW1 5108   3.432   0.173   2.353
 1403SOL    HW2 5109   3.554   0.151   2.460
 1404SOL     OW 5110   5.763   1.697   0.583
 1404SOL    HW1 5111   5.671   1.724   0.556
 1404SOL    HW2 5112   5.791   1.750   0.663
 1405SOL     OW 5113   3.187   2.725   1.152
 1405SOL    HW1 5114   3.274   2.695   1.190
 1405SOL    HW2 5115   3.133   2.771   1.223
 1406SOL     OW 5116   1.660   4.299   1.370
 1406SOL    HW1 5117   1.621   4.215   1.406
 1406SOL    HW2 5118   1.755   4.307   1.397
 1407SOL     OW 5119   6.248   2.535   3.080
 1407SOL    HW1 5120   6.154   2.569   3.070
 1407SOL    HW2 5121   6.312   2.607   3.056
 1408SOL     OW 5122   6.290   0.281   6.056
 1408SOL    HW1 5123   6.356   0.319   6.121
 1408SOL    HW2 5124   6.209   0.250   6.105
 1409SOL     OW 5125   0.439   1.745   4.648
 1409SOL    HW1 5126   0.513   1.806   4.620
 1409SOL    HW2 5127   0.416   1.684   4.572
 1410SOL     OW 5128   0.027   3.144   6.952
 1410SOL    HW1 5129   0.051   3.229   6.999
 1410SOL    HW2 5130   6.961   3.112   6.984
 1411SOL     OW 5131   1.671   6.947   1.480
 1411SOL    HW1 5132   1.588   6.892   1.484
 1411SOL    HW2 5133   1.648   0.018   1.454
 1412SOL     OW 5134   1.082   3.170   0.057
 1412SOL    HW1 5135   1.081   3.074   0.086
 1412SOL    HW2 5136   1.164   3.187   0.001
 1413SOL     OW 5137   2.926   0.240   3.967
 1413SOL    HW1 5138   2.926   0.224   4.066
 1413SOL    HW2 5139   2.843   0.201   3.927
 1414SOL     OW 5140   3.004   0.928   1.549
 1414SOL    HW1 5141   3.028   0.842   1.592
 1414SOL    HW2 5142   3.072   0.951   1.479
 1415SOL     OW 5143   4.245   6.194   5.987
 1415SOL    HW1 5144   4.281   6.125   6.050
 1415SOL    HW2 5145   4.260   6.164   5.893
 1416SOL     OW 5146   4.692   5.628   3.328
 1416SOL    HW1 5147   4.649   5.718   3.321
 1416SOL    HW2 5148   4.778   5.636   3.378
 1417SOL     OW 5149   3.252   2.575   5.939
 1417SOL    HW1 5150   3.227   2.579   6.035
 1417SOL    HW2 5151   3.171   2.589   5.882
 1418SOL     OW 5152   3.075   4.009   2.809
 1418SOL    HW1 5153   3.050   3.923   2.766
 1418SOL    HW2 5154   3.079   4.081   2.740
 1419SOL     OW 5155   4.557   6.413   4.671
 1419SOL    HW1 5156   4.594   6.322   4.691
 1419SOL    HW2 5157   4.590   6.479   4.739
 1420SOL     OW 5158   6.952   5.332   2.152
 1420SOL    HW1 5159   7.022   5.360   2.218
 1420SOL    HW2 5160   6.888   5.407   2.139
 1421SOL     OW 5161   3.497   1.095   2.737
 1421SOL    HW1 5162   3.457   1.180   2.702
 1421SOL    HW2 5163   3.586   1.080   2.693
 1422SOL     OW 5164   2.802   6.161   6.998
 1422SOL    HW1 5165   2.807   6.225   6.922
 1422SOL    HW2 5166   2.830   6.207   0.060
 1423SOL     OW 5167   5.146   0.484   2.486
 1423SOL    HW1 5168   5.224   0.546   2.476
 1423SOL    HW2 5169   5.082   0.522   2.554
 1424SOL     OW 5170   6.268   5.007   2.949
 1424SOL    HW1 5171   6.257   5.105   2.931
 1424SOL    HW2 5172   6.287   4.960   2.863
 1425SOL     OW 5173   1.920   0.052   4.934
 1425SOL    HW1 5174   2.011   0.067   4.973
 1425SOL    HW2 5175   1.883   6.989   4.967
 1426SOL     OW 5176   1.542   1.281   5.661
 1426SOL    HW1 5177   1.603   1.356   5.635
 1426SOL    HW2 5178   1.461   1.282   5.603
 1427SOL     OW 5179   6.152   0.890   4.706
 1427SOL    HW1 5180   6.120   0.796   4.694
 1427SOL    HW2 5181   6.102   0.933   4.781
 1428SOL     OW 5182   5.412   1.133   0.261
 1428SOL    HW1 5183   5.336   1.106   0.202
 1428SOL    HW2 5184   5.430   1.231   0.249
 1429SOL     OW 5185   5.514   0.182   0.387
 1429SOL    HW1 5186   5.551   0.167   0.479
 1429SOL    HW2 5187   5.575   0.242   0.336
 1430SOL     OW 5188   2.038   4.628   4.027
 1430SOL    HW1 5189   2.028   4.703   3.961
 1430SOL    HW2 5190   2.121   4.642   4.080
 1431SOL     OW 5191   1.381   0.606   1.193
 1431SOL    HW1 5192   1.379   0.523   1.248
 1431SOL    HW2 5193   1.460   0.603   1.131
 1432SOL     OW 5194   2.794   0.390   1.801
 1432SOL    HW1 5195   2.773   0.377   1.898
 1432SOL    HW2 5196   2.855   0.318   1.770
 1433SOL     OW 5197   4.643   0.934   3.862
 1433SOL    HW1 5198   4.557   0.883   3.855
 1433SOL    HW2 5199   4.627   1.019   3.912
 1434SOL     OW 5200   0.902   0.851   5.216
 1434SOL    HW1 5201   0.839   0.882   5.145
 1434SOL    HW2 5202   0.943   0.764   5.189
 1435SOL     OW 5203   6.971   1.806   3.201
 1435SOL    HW1 5204   6.988   1.738   3.130
 1435SOL    HW2 5205   6.907   1.875   3.167
 1436SOL     OW 5206   3.994   3.776   0.690
 1436SOL    HW1 5207   4.062   3.792   0.618
 1436SOL    HW2 5208   3.924   3.713   0.655
 1437SOL     OW 5209   3.922   1.060   2.171
 1437SOL    HW1 5210   4.008   1.010   2.184
 1437SOL    HW2 5211   3.918   1.096   2.078
 1438SOL     OW 5212   2.209   0.587   1.128
 1438SOL    HW1 5213   2.272   0.664   1.139
 1438SOL    HW2 5214   2.135   0.612   1.065
 1439SOL     OW 5215   0.775   5.448   2.983
 1439SOL    HW1 5216   0.746   5.482   3.073
 1439SOL    HW2 5217   0.870   5.419   2.988
 1440SOL     OW 5218   2.561   3.115   1.711
 1440SOL    HW1 5219   2.508   3.059   1.648
 1440SOL    HW2 5220   2.658   3.111   1.686
 1441SOL     OW 5221   5.011   6.091   0.852
 1441SOL    HW1 5222   5.096   6.080   0.801
 1441SOL    HW2 5223   4.935   6.049   0.801
 1442SOL     OW 5224   5.226   5.937   0.392
 1442SOL    HW1 5225   5.155   5.871   0.366
 1442SOL    HW2 5226   5.306   5.924   0.333
 1443SOL     OW 5227   0.102   2.859   2.767
 1443SOL    HW1 5228   0.172   2.789   2.780
 1443SOL    HW2 5229   0.025   2.840   2.828
 1444SOL     OW 5230   0.072   4.967   6.774
 1444SOL    HW1 5231   0.019   4.885   6.798
 1444SOL    HW2 5232   0.031   5.011   6.695
 1445SOL     OW 5233   0.840   3.775   1.596
 1445SOL    HW1 5234   0.836   3.874   1.578
 1445SOL    HW2 5235   0.754   3.745   1.637
 1446SOL     OW 5236   6.256   6.870   0.986
 1446SOL    HW1 5237   6.354   6.886   0.981
 1446SOL    HW2 5238   6.227   6.812   0.910
 1447SOL     OW 5239   5.602   5.321   4.316
 1447SOL    HW1 5240   5.504   5.340   4.323
 1447SOL    HW2 5241   5.622   5.230   4.351
 1448SOL     OW 5242   0.959   3.198   5.556
 1448SOL    HW1 5243   0.870   3.155   5.568
 1448SOL    HW2 5244   0.979   3.256   5.635
 1449SOL     OW 5245   2.186   3.153   3.264
 1449SOL    HW1 5246   2.173   3.105   3.177
 1449SOL    HW2 5247   2.196   3.251   3.247
 1450SOL     OW 5248   2.522   2.303   3.767
 1450SOL    HW1 5249   2.448   2.257   3.816
 1450SOL    HW2 5250   2.486   2.384   3.720
 1451SOL     OW 5251   2.849   1.050   2.577
 1451SOL    HW1 5252   2.865   1.014   2.669
 1451SOL    HW2 5253   2.934   1.090   2.542
 1452SOL     OW 5254   5.219   2.924   6.775
 1452SOL    HW1 5255   5.213   2.980   6.858
 1452SOL    HW2 5256   5.209   2.983   6.694
 1453SOL     OW 5257   6.732   4.343   5.522
 1453SOL    HW1 5258   6.799   4.276   5.491
 1453SOL    HW2 5259   6.640   4.311   5.499
 1454SOL     OW 5260   3.288   2.058   3.564
 1454SOL    HW1 5261   3.199   2.103   3.552
 1454SOL    HW2 5262   3.279   1.961   3.540
 1455SOL     OW 5263   0.359   5.959   1.771
 1455SOL    HW1 5264   0.339   6.012   1.853
 1455SOL    HW2 5265   0.412   6.015   1.707
 1456SOL     OW 5266   6.325   5.238   4.327
 1456SOL    HW1 5267   6.238   5.258   4.372
 1456SOL    HW2 5268   6.369   5.161   4.373
 1457SOL     OW 5269   1.151   5.370   6.050
 1457SOL    HW1 5270   1.208   5.414   6.120
 1457SOL    HW2 5271   1.097   5.297   6.091
 1458SOL     OW 5272   5.242   5.254   5.227
 1458SOL    HW1 5273   5.225   5.352   5.236
 1458SOL    HW2 5274   5.220   5.208   5.313
 1459SOL     OW 5275   5.765   6.758   5.343
 1459SOL    HW1 5276   5.673   6.725   5.361
 1459SOL    HW2 5277   5.776   6.849   5.384
 1460SOL     OW 5278   1.314   6.572   4.906
 1460SOL    HW1 5279   1.276   6.480   4.906
 1460SOL    HW2 5280   1.281   6.621   4.824
 1461SOL     OW 5281   6.667   3.315   4.082
 1461SOL    HW1 5282   6.724   3.257   4.024
 1461SOL    HW2 5283   6.687   3.411   4.063
 1462SOL     OW 5284   0.389   1.062   1.524
 1462SOL    HW1 5285   0.407   1.093   1.618
 1462SOL    HW2 5286   0.307   1.005   1.523
 1463SOL     OW 5287   2.272   5.388   6.900
 1463SOL    HW1 5288   2.258   5.424   6.808
 1463SOL    HW2 5289   2.315   5.298   6.896
 1464SOL     OW 5290   1.107   4.216   4.066
 1464SOL    HW1 5291   1.205   4.217   4.087
 1464SOL    HW2 5292   1.055   4.204   4.151
 1465SOL     OW 5293   1.053   3.390   4.398
 1465SOL    HW1 5294   0.969   3.434   4.369
 1465SOL    HW2 5295   1.076   3.316   4.334
 1466SOL     OW 5296   5.494   2.210   2.603
 1466SOL    HW1 5297   5.532   2.192   2.512
 1466SOL    HW2 5298   5.396   2.229   2.595
 1467SOL     OW 5299   0.609   0.975   3.907
 1467SOL    HW1 5300   0.653   1.024   3.982
 1467SOL    HW2 5301   0.562   1.040   3.847
 1468SOL     OW 5302   2.959   5.307   2.504
 1468SOL    HW1 5303   3.058   5.309   2.514
 1468SOL    HW2 5304   2.918   5.379   2.560
 1469SOL     OW 5305   6.082   3.923   3.274
 1469SOL    HW1 5306   6.081   3.823   3.273
 1469SOL    HW2 5307   6.125   3.955   3.358
 1470SOL     OW 5308   6.147   1.667   1.961
 1470SOL    HW1 5309   6.102   1.598   1.905
 1470SOL    HW2 5310   6.184   1.739   1.902
 1471SOL     OW 5311   4.519   6.849   1.223
 1471SOL    HW1 5312   4.570   6.841   1.136
 1471SOL    HW2 5313   4.423   6.869   1.204
 1472SOL     OW 5314   1.822   0.190   6.105
 1472SOL    HW1 5315   1.863   0.223   6.189
 1472SOL    HW2 5316   1.760   0.259   6.068
 1473SOL     OW 5317   1.359   5.604   3.809
 1473SOL    HW1 5318   1.451   5.625   3.842
 1473SOL    HW2 5319   1.298   5.587   3.886
 1474SOL     OW 5320   2.688   4.838   1.214
 1474SOL    HW1 5321   2.630   4.913   1.179
 1474SOL    HW2 5322   2.727   4.865   1.302
 1475SOL     OW 5323   5.400   0.369   6.199
 1475SOL    HW1 5324   5.411   0.460   6.240
 1475SOL    HW2 5325   5.490   0.328   6.185
 1476SOL     OW 5326   5.045   0.678   0.411
 1476SOL    HW1 5327   5.049   0.761   0.466
 1476SOL    HW2 5328   5.077   0.698   0.318
 1477SOL     OW 5329   3.470   4.637   1.526
 1477SOL    HW1 5330   3.455   4.559   1.465
 1477SOL    HW2 5331   3.383   4.667   1.564
 1478SOL     OW 5332   4.615   5.384   6.939
 1478SOL    HW1 5333   4.632   5.474   6.899
 1478SOL    HW2 5334   4.662   5.377   0.004
 1479SOL     OW 5335   4.089   3.432   1.410
 1479SOL    HW1 5336   4.142   3.457   1.491
 1479SOL    HW2 5337   4.138   3.361   1.359
 1480SOL     OW 5338   2.933   0.222   4.255
 1480SOL    HW1 5339   2.844   0.193   4.291
 1480SOL    HW2 5340   2.956   0.312   4.292
 1481SOL     OW 5341   5.258   2.971   6.325
 1481SOL    HW1 5342   5.347   2.943   6.288
 1481SOL    HW2 5343   5.191   2.898   6.310
 1482SOL     OW 5344   5.393   1.230   1.414
 1482SOL    HW1 5345   5.466   1.202   1.351
 1482SOL    HW2 5346   5.307   1.238   1.363
 1483SOL     OW 5347   5.804   0.967   0.066
 1483SOL    HW1 5348   5.764   1.059   0.060
 1483SOL    HW2 5349   5.772   0.912   7.012
 1484SOL     OW 5350   3.685   5.374   5.408
 1484SOL    HW1 5351   3.734   5.382   5.321
 1484SOL    HW2 5352   3.669   5.277   5.428
 1485SOL     OW 5353   5.133   2.880   3.426
 1485SOL    HW1 5354   5.153   2.790   3.463
 1485SOL    HW2 5355   5.143   2.880   3.327
 1486SOL     OW 5356   4.798   6.286   3.702
 1486SOL    HW1 5357   4.846   6.373   3.710
 1486SOL    HW2 5358   4.699   6.301   3.711
 1487SOL     OW 5359   6.654   0.653   0.189
 1487SOL    HW1 5360   6.704   0.582   0.138
 1487SOL    HW2 5361   6.597   0.609   0.258
 1488SOL     OW 5362   6.618   2.093   2.627
 1488SOL    HW1 5363   6.702   2.118   2.578
 1488SOL    HW2 5364   6.607   1.994   2.623
 1489SOL     OW 5365   2.794   4.318   0.467
 1489SOL    HW1 5366   2.756   4.301   0.558
 1489SOL    HW2 5367   2.832   4.411   0.463
 1490SOL     OW 5368   6.312   2.360   1.924
 1490SOL    HW1 5369   6.317   2.439   1.985
 1490SOL    HW2 5370   6.402   2.317   1.919
 1491SOL     OW 5371   6.027   2.612   4.322
 1491SOL    HW1 5372   6.007   2.519   4.353
 1491SOL    HW2 5373   5.950   2.646   4.267
 1492SOL     OW 5374   6.243   1.503   3.470
 1492SOL    HW1 5375   6.202   1.579   3.419
 1492SOL    HW2 5376   6.328   1.476   3.426
 1493SOL     OW 5377   5.803   1.643   6.059
 1493SOL    HW1 5378   5.790   1.620   5.962
 1493SOL    HW2 5379   5.714   1.659   6.102
 1494SOL     OW 5380   6.435   4.947   6.252
 1494SOL    HW1 5381   6.484   4.886   6.315
 1494SOL    HW2 5382   6.463   4.927   6.158
 1495SOL     OW 5383   6.596   4.055   4.350
 1495SOL    HW1 5384   6.584   4.106   4.265
 1495SOL    HW2 5385   6.554   4.106   4.425
 1496SOL     OW 5386   6.133   6.439   5.717
 1496SOL    HW1 5387   6.179   6.374   5.656
 1496SOL    HW2 5388   6.166   6.531   5.699
 1497SOL     OW 5389   6.310   2.538   2.122
 1497SOL    HW1 5390   6.343   2.627   2.152
 1497SOL    HW2 5391   6.295   2.479   2.202
 1498SOL     OW 5392   3.275   3.470   0.654
 1498SOL    HW1 5393   3.175   3.467   0.652
 1498SOL    HW2 5394   3.310   3.377   0.666
 1499SOL     OW 5395   0.221   4.594   4.605
 1499SOL    HW1 5396   0.250   4.550   4.690
 1499SOL    HW2 5397   0.300   4.612   4.547
 1500SOL     OW 5398   0.372   5.859   2.254
 1500SOL    HW1 5399   0.369   5.956   2.232
 1500SOL    HW2 5400   0.457   5.819   2.218
 1501SOL     OW 5401   6.104   1.733   0.338
 1501SOL    HW1 5402   6.095   1.647   0.287
 1501SOL    HW2 5403   6.196   1.770   0.326
 1502SOL     OW 5404   6.436   0.382   5.840
 1502SOL    HW1 5405   6.390   0.356   5.925
 1502SOL    HW2 5406   6.535   0.380   5.854
 1503SOL     OW 5407   0.724   4.685   1.137
 1503SOL    HW1 5408   0.652   4.748   1.164
 1503SOL    HW2 5409   0.800   4.692   1.202
 1504SOL     OW 5410   1.966   6.840   2.447
 1504SOL    HW1 5411   1.920   6.923   2.478
 1504SOL    HW2 5412   1.946   6.824   2.350
 1505SOL     OW 5413   6.302   5.139   4.935
 1505SOL    HW1 5414   6.348   5.074   4.996
 1505SOL    HW2 5415   6.337   5.231   4.951
 1506SOL     OW 5416   0.697   1.413   0.704
 1506SOL    HW1 5417   0.773   1.352   0.725
 1506SOL    HW2 5418   0.666   1.459   0.787
 1507SOL     OW 5419   1.709   2.659   3.960
 1507SOL    HW1 5420   1.665   2.579   3.920
 1507SOL    HW2 5421   1.640   2.730   3.977
 1508SOL     OW 5422   1.945   0.886   1.336
 1508SOL    HW1 5423   1.954   0.959   1.269
 1508SOL    HW2 5424   2.032   0.835   1.342
 1509SOL     OW 5425   4.993   1.259   4.393
 1509SOL    HW1 5426   5.089   1.232   4.392
 1509SOL    HW2 5427   4.973   1.308   4.478
 1510SOL     OW 5428   3.519   6.232   4.591
 1510SOL    HW1 5429   3.452   6.273   4.529
 1510SOL    HW2 5430   3.477   6.156   4.640
 1511SOL     OW 5431   3.072   3.574   5.187
 1511SOL    HW1 5432   2.982   3.598   5.222
 1511SOL    HW2 5433   3.083   3.612   5.095
 1512SOL     OW 5434   5.651   6.773   1.080
 1512SOL    HW1 5435   5.721   6.722   1.030
 1512SOL    HW2 5436   5.686   6.864   1.103
 1513SOL     OW 5437   2.202   0.195   5.836
 1513SOL    HW1 5438   2.108   0.161   5.838
 1513SOL    HW2 5439   2.214   0.258   5.760
 1514SOL     OW 5440   3.114   2.809   6.353
 1514SOL    HW1 5441   3.168   2.840   6.275
 1514SOL    HW2 5442   3.055   2.733   6.325
 1515SOL     OW 5443   4.370   0.587   2.255
 1515SOL    HW1 5444   4.442   0.597   2.187
 1515SOL    HW2 5445   4.337   0.677   2.283
 1516SOL     OW 5446   5.708   0.012   5.500
 1516SOL    HW1 5447   5.678   6.975   5.574
 1516SOL    HW2 5448   5.806   0.026   5.507
 1517SOL     OW 5449   3.331   6.374   4.043
 1517SOL    HW1 5450   3.234   6.359   4.062
 1517SOL    HW2 5451   3.364   6.303   3.981
 1518SOL     OW 5452   0.773   3.114   6.412
 1518SOL    HW1 5453   0.768   3.119   6.511
 1518SOL    HW2 5454   0.808   3.200   6.375
 1519SOL     OW 5455   6.618   5.167   6.870
 1519SOL    HW1 5456   6.616   5.262   6.840
 1519SOL    HW2 5457   6.553   5.154   6.945
 1520SOL     OW 5458   0.647   6.165   3.281
 1520SOL    HW1 5459   0.689   6.250   3.249
 1520SOL    HW2 5460   0.703   6.087   3.254
 1521SOL     OW 5461   2.234   5.264   6.140
 1521SOL    HW1 5462   2.300   5.322   6.187
 1521SOL    HW2 5463   2.172   5.223   6.207
 1522SOL     OW 5464   6.144   6.007   3.938
 1522SOL    HW1 5465   6.172   5.998   3.843
 1522SOL    HW2 5466   6.074   5.939   3.960
 1523SOL     OW 5467   3.593   6.400   0.861
 1523SOL    HW1 5468   3.599   6.466   0.786
 1523SOL    HW2 5469   3.505   6.353   0.857
 1524SOL     OW 5470   2.195   1.445   2.928
 1524SOL    HW1 5471   2.200   1.394   2.842
 1524SOL    HW2 5472   2.287   1.461   2.964
 1525SOL     OW 5473   5.707   4.305   6.961
 1525SOL    HW1 5474   5.794   4.289   6.913
 1525SOL    HW2 5475   5.632   4.298   6.895
 1526SOL     OW 5476   1.135   1.794   0.819
 1526SOL    HW1 5477   1.039   1.766   0.823
 1526SOL    HW2 5478   1.193   1.716   0.840
 1527SOL     OW 5479   4.342   2.034   3.259
 1527SOL    HW1 5480   4.427   2.061   3.214
 1527SOL    HW2 5481   4.281   2.113   3.266
 1528SOL     OW 5482   3.488   4.122   2.311
 1528SOL    HW1 5483   3.484   4.202   2.251
 1528SOL    HW2 5484   3.481   4.039   2.256
 1529SOL     OW 5485   4.505   1.734   6.037
 1529SOL    HW1 5486   4.555   1.789   6.103
 1529SOL    HW2 5487   4.415   1.710   6.074
 1530SOL     OW 5488   2.852   6.543   1.032
 1530SOL    HW1 5489   2.854   6.493   0.945
 1530SOL    HW2 5490   2.914   6.621   1.027
 1531SOL     OW 5491   4.700   6.459   4.419
 1531SOL    HW1 5492   4.680   6.423   4.328
 1531SOL    HW2 5493   4.650   6.405   4.488
 1532SOL     OW 5494   3.664   5.443   7.006
 1532SOL    HW1 5495   3.589   5.378   7.013
 1532SOL    HW2 5496   3.659   5.492   6.919
 1533SOL     OW 5497   5.714   5.963   1.113
 1533SOL    HW1 5498   5.653   6.037   1.086
 1533SOL    HW2 5499   5.662   5.878   1.120
 1534SOL     OW 5500   3.126   4.209   6.778
 1534SOL    HW1 5501   3.175   4.217   6.692
 1534SOL    HW2 5502   3.080   4.295   6.798
 1535SOL     OW 5503   5.437   4.634   3.905
 1535SOL    HW1 5504   5.531   4.664   3.892
 1535SOL    HW2 5505   5.419   4.621   4.003
 1536SOL     OW 5506   4.840   3.607   6.752
 1536SOL    HW1 5507   4.833   3.687   6.811
 1536SOL    HW2 5508   4.764   3.606   6.687
 1537SOL     OW 5509   2.703   5.051   3.000
 1537SOL    HW1 5510   2.624   5.052   2.938
 1537SOL    HW2 5511   2.674   5.018   3.090
 1538SOL     OW 5512   2.509   1.566   0.680
 1538SOL    HW1 5513   2.506   1.579   0.581
 1538SOL    HW2 5514   2.438   1.502   0.707
 1539SOL     OW 5515   5.956   3.281   0.810
 1539SOL    HW1 5516   5.929   3.231   0.893
 1539SOL    HW2 5517   6.001   3.366   0.836
 1540SOL     OW 5518   3.492   0.113   3.595
 1540SOL    HW1 5519   3.462   0.171   3.671
 1540SOL    HW2 5520   3.442   0.026   3.599
 1541SOL     OW 5521   3.837   3.165   5.980
 1541SOL    HW1 5522   3.924   3.177   6.028
 1541SOL    HW2 5523   3.770   3.125   6.043
 1542SOL     OW 5524   0.277   6.400   2.270
 1542SOL    HW1 5525   0.298   6.463   2.345
 1542SOL    HW2 5526   0.293   6.306   2.300
 1543SOL     OW 5527   2.887   4.572   0.502
 1543SOL    HW1 5528   2.972   4.624   0.507
 1543SOL    HW2 5529   2.829   4.595   0.579
 1544SOL     OW 5530   3.853   3.462   3.961
 1544SOL    HW1 5531   3.807   3.484   3.875
 1544SOL    HW2 5532   3.952   3.454   3.945
 1545SOL     OW 5533   5.823   5.974   1.723
 1545SOL    HW1 5534   5.775   5.890   1.750
 1545SOL    HW2 5535   5.859   6.019   1.804
 1546SOL     OW 5536   5.694   6.319   6.212
 1546SOL    HW1 5537   5.715   6.283   6.121
 1546SOL    HW2 5538   5.619   6.385   6.205
 1547SOL     OW 5539   2.099   3.133   6.460
 1547SOL    HW1 5540   2.175   3.193   6.435
 1547SOL    HW2 5541   2.135   3.047   6.496
 1548SOL     OW 5542   6.504   2.211   0.213
 1548SOL    HW1 5543   6.477   2.123   0.252
 1548SOL    HW2 5544   6.426   2.251   0.165
 1549SOL     OW 5545   5.133   1.038   4.694
 1549SOL    HW1 5546   5.106   1.117   4.639
 1549SOL    HW2 5547   5.218   1.059   4.742
 1550SOL     OW 5548   3.906   3.018   4.226
 1550SOL    HW1 5549   4.003   2.994   4.218
 1550SOL    HW2 5550   3.855   2.977   4.151
 1551SOL     OW 5551   6.601   4.896   5.457
 1551SOL    HW1 5552   6.531   4.827   5.475
 1551SOL    HW2 5553   6.656   4.910   5.539
 1552SOL     OW 5554   2.123   4.232   1.293
 1552SOL    HW1 5555   2.211   4.216   1.337
 1552SOL    HW2 5556   2.135   4.228   1.194
 1553SOL     OW 5557   2.050   1.521   6.010
 1553SOL    HW1 5558   2.102   1.530   5.925
 1553SOL    HW2 5559   1.964   1.571   6.002
 1554SOL     OW 5560   3.645   1.898   3.917
 1554SOL    HW1 5561   3.645   1.853   3.828
 1554SOL    HW2 5562   3.556   1.939   3.934
 1555SOL     OW 5563   6.301   4.428   6.292
 1555SOL    HW1 5564   6.217   4.481   6.286
 1555SOL    HW2 5565   6.316   4.380   6.206
 1556SOL     OW 5566   2.030   0.912   5.813
 1556SOL    HW1 5567   2.069   0.820   5.807
 1556SOL    HW2 5568   2.079   0.964   5.883
 1557SOL     OW 5569   0.311   2.883   5.649
 1557SOL    HW1 5570   0.404   2.867   5.616
 1557SOL    HW2 5571   0.248   2.820   5.604
 1558SOL     OW 5572   0.382   0.104   4.734
 1558SOL    HW1 5573   0.376   0.023   4.792
 1558SOL    HW2 5574   0.297   0.156   4.739
 1559SOL     OW 5575   1.364   1.717   6.398
 1559SOL    HW1 5576   1.326   1.798   6.442
 1559SOL    HW2 5577   1.421   1.745   6.321
 1560SOL     OW 5578   6.858   0.514   6.438
 1560SOL    HW1 5579   6.857   0.589   6.503
 1560SOL    HW2 5580   6.953   0.485   6.423
 1561SOL     OW 5581   5.680   5.762   1.820
 1561SOL    HW1 5582   5.626   5.837   1.858
 1561SOL    HW2 5583   5.634   5.725   1.739
 1562SOL     OW 5584   6.227   0.569   3.737
 1562SOL    HW1 5585   6.140   0.521   3.720
 1562SOL    HW2 5586   6.247   0.568   3.835
 1563SOL     OW 5587   3.774   6.783   5.048
 1563SOL    HW1 5588   3.808   6.768   5.141
 1563SOL    HW2 5589   3.852   6.796   4.986
 1564SOL     OW 5590   0.816   2.486   2.382
 1564SOL    HW1 5591   0.726   2.500   2.342
 1564SOL    HW2 5592   0.816   2.517   2.477
 1565SOL     OW 5593   5.886   4.652   1.235
 1565SOL    HW1 5594   5.876   4.751   1.229
 1565SOL    HW2 5595   5.943   4.629   1.315
 1566SOL     OW 5596   6.346   4.629   3.239
 1566SOL    HW1 5597   6.391   4.716   3.259
 1566SOL    HW2 5598   6.390   4.556   3.291
 1567SOL     OW 5599   6.053   6.014   5.087
 1567SOL    HW1 5600   6.039   5.925   5.130
 1567SOL    HW2 5601   6.131   6.060   5.130
 1568SOL     OW 5602   0.624   0.122   0.146
 1568SOL    HW1 5603   0.683   0.172   0.083
 1568SOL    HW2 5604   0.528   0.143   0.125
 1569SOL     OW 5605   3.504   6.437   5.016
 1569SOL    HW1 5606   3.551   6.384   4.945
 1569SOL    HW2 5607   3.569   6.500   5.059
 1570SOL     OW 5608   3.328   1.930   1.882
 1570SOL    HW1 5609   3.271   1.992   1.829
 1570SOL    HW2 5610   3.370   1.979   1.958
 1571SOL     OW 5611   6.838   3.863   0.895
 1571SOL    HW1 5612   6.773   3.859   0.818
 1571SOL    HW2 5613   6.789   3.850   0.981
 1572SOL     OW 5614   1.483   5.731   2.519
 1572SOL    HW1 5615   1.505   5.828   2.522
 1572SOL    HW2 5616   1.546   5.680   2.578
 1573SOL     OW 5617   3.926   0.391   0.905
 1573SOL    HW1 5618   3.876   0.318   0.951
 1573SOL    HW2 5619   3.904   0.390   0.807
 1574SOL     OW 5620   5.998   2.687   2.612
 1574SOL    HW1 5621   5.944   2.771   2.612
 1574SOL    HW2 5622   6.083   2.702   2.560
 1575SOL     OW 5623   3.277   2.272   0.409
 1575SOL    HW1 5624   3.371   2.305   0.417
 1575SOL    HW2 5625   3.231   2.320   0.334
 1576SOL     OW 5626   6.517   5.795   3.431
 1576SOL    HW1 5627   6.601   5.819   3.382
 1576SOL    HW2 5628   6.522   5.829   3.525
 1577SOL     OW 5629   1.535   0.501   0.204
 1577SOL    HW1 5630   1.478   0.420   0.214
 1577SOL    HW2 5631   1.584   0.497   0.117
 1578SOL     OW 5632   5.565   5.663   4.352
 1578SOL    HW1 5633   5.601   5.633   4.264
 1578SOL    HW2 5634   5.622   5.625   4.426
 1579SOL     OW 5635   0.296   6.915   3.182
 1579SOL    HW1 5636   0.267   6.981   3.252
 1579SOL    HW2 5637   0.224   6.847   3.170
 1580SOL     OW 5638   3.221   3.637   5.920
 1580SOL    HW1 5639   3.286   3.634   5.845
 1580SOL    HW2 5640   3.187   3.731   5.931
 1581SOL     OW 5641   6.568   4.133   3.822
 1581SOL    HW1 5642   6.598   4.107   3.730
 1581SOL    HW2 5643   6.468   4.122   3.828
 1582SOL     OW 5644   6.175   5.717   4.719
 1582SOL    HW1 5645   6.148   5.623   4.741
 1582SOL    HW2 5646   6.273   5.728   4.737
 1583SOL     OW 5647   2.277   1.827   2.502
 1583SOL    HW1 5648   2.244   1.768   2.429
 1583SOL    HW2 5649   2.237   1.918   2.492
 1584SOL     OW 5650   1.930   0.510   6.039
 1584SOL    HW1 5651   1.937   0.436   6.106
 1584SOL    HW2 5652   1.899   0.594   6.084
 1585SOL     OW 5653   5.930   1.051   5.383
 1585SOL    HW1 5654   6.021   1.062   5.343
 1585SOL    HW2 5655   5.932   1.083   5.478
 1586SOL     OW 5656   3.768   4.116   3.097
 1586SOL    HW1 5657   3.761   4.077   3.189
 1586SOL    HW2 5658   3.818   4.203   3.101
 1587SOL     OW 5659   2.447   6.381   6.266
 1587SOL    HW1 5660   2.500   6.339   6.193
 1587SOL    HW2 5661   2.492   6.365   6.354
 1588SOL     OW 5662   5.856   3.625   1.363
 1588SOL    HW1 5663   5.867   3.584   1.272
 1588SOL    HW2 5664   5.915   3.706   1.370
 1589SOL     OW 5665   5.190   4.239   3.589
 1589SOL    HW1 5666   5.165   4.271   3.680
 1589SOL    HW2 5667   5.257   4.302   3.549
 1590SOL     OW 5668   2.008   6.851   5.318
 1590SOL    HW1 5669   1.961   6.881   5.235
 1590SOL    HW2 5670   1.951   6.870   5.398
 1591SOL     OW 5671   0.627   4.197   1.205
 1591SOL    HW1 5672   0.708   4.140   1.213
 1591SOL    HW2 5673   0.653   4.293   1.215
 1592SOL     OW 5674   2.980   3.683   3.311
 1592SOL    HW1 5675   2.955   3.758   3.373
 1592SOL    HW2 5676   2.914   3.677   3.237
 1593SOL     OW 5677   1.154   5.034   4.980
 1593SOL    HW1 5678   1.059   5.005   4.964
 1593SOL    HW2 5679   1.217   4.970   4.936
 1594SOL     OW 5680   0.852   4.897   3.320
 1594SOL    HW1 5681   0.817   4.989   3.335
 1594SOL    HW2 5682   0.928   4.879   3.382
 1595SOL     OW 5683   0.131   5.086   5.681
 1595SOL    HW1 5684   0.055   5.117   5.738
 1595SOL    HW2 5685   0.199   5.039   5.738
 1596SOL     OW 5686   2.785   4.866   0.247
 1596SOL    HW1 5687   2.741   4.798   0.188
 1596SOL    HW2 5688   2.719   4.901   0.313
 1597SOL     OW 5689   2.500   6.732   0.685
 1597SOL    HW1 5690   2.486   6.641   0.724
 1597SOL    HW2 5691   2.426   6.752   0.620
 1598SOL     OW 5692   6.887   5.802   1.640
 1598SOL    HW1 5693   6.964   5.739   1.630
 1598SOL    HW2 5694   6.801   5.752   1.626
 1599SOL     OW 5695   3.106   4.746   0.492
 1599SOL    HW1 5696   3.127   4.761   0.588
 1599SOL    HW2 5697   3.151   4.816   0.437
 1600SOL     OW 5698   3.123   1.313   5.169
 1600SOL    HW1 5699   3.071   1.308   5.254
 1600SOL    HW2 5700   3.066   1.354   5.097
 1601SOL     OW 5701   0.867   4.977   4.979
 1601SOL    HW1 5702   0.855   5.001   4.883
 1601SOL    HW2 5703   0.787   4.927   5.011
 1602SOL     OW 5704   0.331   4.385   2.180
 1602SOL    HW1 5705   0.285   4.301   2.151
 1602SOL    HW2 5706   0.425   4.364   2.207
 1603SOL     OW 5707   6.019   6.474   1.006
 1603SOL    HW1 5708   5.983   6.399   1.061
 1603SOL    HW2 5709   6.106   6.505   1.044
 1604SOL     OW 5710   0.170   5.724   5.205
 1604SOL    HW1 5711   0.179   5.640   5.259
 1604SOL    HW2 5712   0.261   5.760   5.183
 1605SOL     OW 5713   5.147   6.607   2.935
 1605SOL    HW1 5714   5.104   6.694   2.961
 1605SOL    HW2 5715   5.241   6.606   2.968
 1606SOL     OW 5716   5.091   0.028   5.506
 1606SOL    HW1 5717   5.069   0.057   5.413
 1606SOL    HW2 5718   5.011   0.040   5.565
 1607SOL     OW 5719   4.815   3.086   0.828
 1607SOL    HW1 5720   4.743   3.018   0.839
 1607SOL    HW2 5721   4.792   3.168   0.880
 1608SOL     OW 5722   2.269   0.320   0.624
 1608SOL    HW1 5723   2.359   0.294   0.588
 1608SOL    HW2 5724   2.213   0.238   0.636
 1609SOL     OW 5725   5.410   1.322   5.475
 1609SOL    HW1 5726   5.356   1.390   5.424
 1609SOL    HW2 5727   5.351   1.244   5.498
 1610SOL     OW 5728   5.965   6.316   4.090
 1610SOL    HW1 5729   5.916   6.268   4.017
 1610SOL    HW2 5730   5.904   6.325   4.169
 1611SOL     OW 5731   3.862   3.043   1.426
 1611SOL    HW1 5732   3.892   2.963   1.374
 1611SOL    HW2 5733   3.764   3.034   1.447
 1612SOL     OW 5734   3.279   1.044   4.229
 1612SOL    HW1 5735   3.222   1.081   4.302
 1612SOL    HW2 5736   3.363   1.006   4.268
 1613SOL     OW 5737   1.366   6.536   1.048
 1613SOL    HW1 5738   1.338   6.603   0.979
 1613SOL    HW2 5739   1.466   6.532   1.053
 1614SOL     OW 5740   0.732   2.989   6.162
 1614SOL    HW1 5741   0.821   3.022   6.132
 1614SOL    HW2 5742   0.714   3.021   6.255
 1615SOL     OW 5743   6.072   5.031   6.105
 1615SOL    HW1 5744   5.990   5.000   6.058
 1615SOL    HW2 5745   6.102   4.960   6.170
 1616SOL     OW 5746   2.255   1.757   5.335
 1616SOL    HW1 5747   2.330   1.821   5.325
 1616SOL    HW2 5748   2.287   1.674   5.382
 1617SOL     OW 5749   4.679   0.649   3.949
 1617SOL    HW1 5750   4.722   0.733   3.918
 1617SOL    HW2 5751   4.748   0.578   3.960
 1618SOL     OW 5752   5.722   2.052   1.420
 1618SOL    HW1 5753   5.628   2.059   1.386
 1618SOL    HW2 5754   5.721   2.009   1.510
 1619SOL     OW 5755   2.036   2.725   4.692
 1619SOL    HW1 5756   2.070   2.743   4.600
 1619SOL    HW2 5757   2.094   2.769   4.759
 1620SOL     OW 5758   3.760   5.561   1.908
 1620SOL    HW1 5759   3.756   5.574   1.809
 1620SOL    HW2 5760   3.849   5.594   1.943
 1621SOL     OW 5761   2.060   1.410   1.678
 1621SOL    HW1 5762   1.962   1.405   1.658
 1621SOL    HW2 5763   2.073   1.446   1.771
 1622SOL     OW 5764   2.104   2.099   4.668
 1622SOL    HW1 5765   2.194   2.142   4.667
 1622SOL    HW2 5766   2.053   2.130   4.748
 1623SOL     OW 5767   2.782   2.349   4.712
 1623SOL    HW1 5768   2.704   2.409   4.732
 1623SOL    HW2 5769   2.760   2.255   4.739
 1624SOL     OW 5770   2.359   0.632   0.386
 1624SOL    HW1 5771   2.437   0.591   0.432
 1624SOL    HW2 5772   2.276   0.581   0.409
 1625SOL     OW 5773   0.101   5.403   2.325
 1625SOL    HW1 5774   0.124   5.314   2.364
 1625SOL    HW2 5775   0.183   5.444   2.284
 1626SOL     OW 5776   2.076   3.257   5.896
 1626SOL    HW1 5777   2.164   3.301   5.918
 1626SOL    HW2 5778   2.083   3.211   5.808
 1627SOL     OW 5779   5.256   3.355   3.998
 1627SOL    HW1 5780   5.316   3.289   4.043
 1627SOL    HW2 5781   5.177   3.373   4.056
 1628SOL     OW 5782   2.950   3.127   0.349
 1628SOL    HW1 5783   3.002   3.137   0.264
 1628SOL    HW2 5784   3.012   3.096   0.422
 1629SOL     OW 5785   4.069   2.063   3.067
 1629SOL    HW1 5786   4.025   2.031   2.983
 1629SOL    HW2 5787   4.066   2.163   3.070
 1630SOL     OW 5788   0.024   4.861   4.687
 1630SOL    HW1 5789   0.007   4.918   4.767
 1630SOL    HW2 5790   0.090   4.789   4.710
 1631SOL     OW 5791   0.482   6.686   5.867
 1631SOL    HW1 5792   0.476   6.588   5.886
 1631SOL    HW2 5793   0.577   6.716   5.871
 1632SOL     OW 5794   5.189   6.939   1.240
 1632SOL    HW1 5795   5.214   7.007   1.309
 1632SOL    HW2 5796   5.263   6.930   1.174
 1633SOL     OW 5797   5.674   3.020   3.590
 1633SOL    HW1 5798   5.616   2.965   3.649
 1633SOL    HW2 5799   5.713   2.962   3.518
 1634SOL     OW 5800   3.800   0.763   0.120
 1634SOL    HW1 5801   3.758   0.852   0.135
 1634SOL    HW2 5802   3.841   0.730   0.206
 1635SOL     OW 5803   1.023   5.137   4.566
 1635SOL    HW1 5804   1.100   5.073   4.559
 1635SOL    HW2 5805   0.987   5.156   4.475
 1636SOL     OW 5806   2.665   6.686   1.271
 1636SOL    HW1 5807   2.736   6.657   1.207
 1636SOL    HW2 5808   2.575   6.667   1.231
 1637SOL     OW 5809   0.179   3.118   2.727
 1637SOL    HW1 5810   0.279   3.113   2.740
 1637SOL    HW2 5811   0.140   3.027   2.733
 1638SOL     OW 5812   1.340   2.930   5.338
 1638SOL    HW1 5813   1.360   3.023   5.308
 1638SOL    HW2 5814   1.415   2.869   5.311
 1639SOL     OW 5815   4.810   4.676   2.682
 1639SOL    HW1 5816   4.855   4.592   2.651
 1639SOL    HW2 5817   4.858   4.711   2.763
 1640SOL     OW 5818   5.473   0.455   1.334
 1640SOL    HW1 5819   5.475   0.396   1.415
 1640SOL    HW2 5820   5.559   0.505   1.327
 1641SOL     OW 5821   6.704   2.814   5.437
 1641SOL    HW1 5822   6.798   2.803   5.405
 1641SOL    HW2 5823   6.641   2.775   5.370
 1642SOL     OW 5824   0.288   2.101   1.238
 1642SOL    HW1 5825   0.369   2.150   1.269
 1642SOL    HW2 5826   0.216   2.167   1.214
 1643SOL     OW 5827   3.713   0.474   6.309
 1643SOL    HW1 5828   3.700   0.556   6.364
 1643SOL    HW2 5829   3.780   0.492   6.237
 1644SOL     OW 5830   3.015   0.418   0.680
 1644SOL    HW1 5831   3.041   0.447   0.587
 1644SOL    HW2 5832   3.081   0.353   0.715
 1645SOL     OW 5833   2.123   6.418   5.844
 1645SOL    HW1 5834   2.092   6.342   5.786
 1645SOL    HW2 5835   2.156   6.492   5.787
 1646SOL     OW 5836   1.390   3.808   0.338
 1646SOL    HW1 5837   1.296   3.819   0.306
 1646SOL    HW2 5838   1.408   3.711   0.355
 1647SOL     OW 5839   6.044   2.860   3.562
 1647SOL    HW1 5840   6.059   2.955   3.590
 1647SOL    HW2 5841   5.999   2.811   3.637
 1648SOL     OW 5842   4.379   0.149   2.358
 1648SOL    HW1 5843   4.446   0.084   2.393
 1648SOL    HW2 5844   4.340   0.200   2.435
 1649SOL     OW 5845   2.847   6.741   2.831
 1649SOL    HW1 5846   2.858   6.824   2.887
 1649SOL    HW2 5847   2.934   6.718   2.788
 1650SOL     OW 5848   3.629   6.818   3.687
 1650SOL    HW1 5849   3.697   6.885   3.715
 1650SOL    HW2 5850   3.539   6.861   3.682
 1651SOL     OW 5851   1.438   6.818   1.508
 1651SOL    HW1 5852   1.406   6.726   1.482
 1651SOL    HW2 5853   1.417   6.835   1.604
 1652SOL     OW 5854   2.701   3.074   1.358
 1652SOL    HW1 5855   2.793   3.080   1.318
 1652SOL    HW2 5856   2.709   3.069   1.458
 1653SOL     OW 5857   1.370   4.885   0.689
 1653SOL    HW1 5858   1.374   4.792   0.726
 1653SOL    HW2 5859   1.331   4.946   0.757
 1654SOL     OW 5860   0.366   2.392   3.375
 1654SOL    HW1 5861   0.329   2.339   3.298
 1654SOL    HW2 5862   0.456   2.427   3.351
 1655SOL     OW 5863   4.888   4.823   5.846
 1655SOL    HW1 5864   4.909   4.748   5.785
 1655SOL    HW2 5865   4.834   4.892   5.797
 1656SOL     OW 5866   0.627   4.408   3.076
 1656SOL    HW1 5867   0.620   4.308   3.072
 1656SOL    HW2 5868   0.553   4.448   3.021
 1657SOL     OW 5869   0.922   0.559   5.019
 1657SOL    HW1 5870   0.831   0.523   5.037
 1657SOL    HW2 5871   0.970   0.574   5.105
 1658SOL     OW 5872   6.326   6.562   2.574
 1658SOL    HW1 5873   6.246   6.554   2.633
 1658SOL    HW2 5874   6.384   6.481   2.587
 1659SOL     OW 5875   4.738   1.807   6.193
 1659SOL    HW1 5876   4.742   1.867   6.273
 1659SOL    HW2 5877   4.819   1.822   6.136
 1660SOL     OW 5878   1.988   5.900   3.167
 1660SOL    HW1 5879   2.052   5.876   3.240
 1660SOL    HW2 5880   2.009   5.993   3.134
 1661SOL     OW 5881   3.281   0.105   2.357
 1661SOL    HW1 5882   3.275   0.091   2.258
 1661SOL    HW2 5883   3.214   0.046   2.402
 1662SOL     OW 5884   0.049   0.533   2.997
 1662SOL    HW1 5885   0.096   0.472   2.933
 1662SOL    HW2 5886   0.115   0.570   3.062
 1663SOL     OW 5887   2.458   6.931   3.682
 1663SOL    HW1 5888   2.553   6.918   3.656
 1663SOL    HW2 5889   2.405   6.961   3.603
 1664SOL     OW 5890   2.578   5.251   4.387
 1664SOL    HW1 5891   2.507   5.186   4.361
 1664SOL    HW2 5892   2.667   5.205   4.388
 1665SOL     OW 5893   1.040   0.381   4.828
 1665SOL    HW1 5894   1.033   0.414   4.734
 1665SOL    HW2 5895   1.004   0.450   4.890
 1666SOL     OW 5896   5.524   3.731   6.893
 1666SOL    HW1 5897   5.546   3.712   6.797
 1666SOL    HW2 5898   5.468   3.658   6.930
 1667SOL     OW 5899   6.712   0.979   6.454
 1667SOL    HW1 5900   6.794   1.036   6.466
 1667SOL    HW2 5901   6.643   1.007   6.520
 1668SOL     OW 5902   2.817   0.407   4.975
 1668SOL    HW1 5903   2.780   0.363   5.057
 1668SOL    HW2 5904   2.828   0.505   4.992
 1669SOL     OW 5905   6.037   6.456   6.486
 1669SOL    HW1 5906   5.990   6.395   6.549
 1669SOL    HW2 5907   5.974   6.483   6.413
 1670SOL     OW 5908   5.925   3.837   6.313
 1670SOL    HW1 5909   5.906   3.911   6.377
 1670SOL    HW2 5910   5.882   3.856   6.225
 1671SOL     OW 5911   6.304   4.664   0.408
 1671SOL    HW1 5912   6.399   4.682   0.385
 1671SOL    HW2 5913   6.268   4.739   0.463
 1672SOL     OW 5914   2.392   5.249   1.965
 1672SOL    HW1 5915   2.483   5.250   2.006
 1672SOL    HW2 5916   2.368   5.155   1.940
 1673SOL     OW 5917   6.574   1.941   3.532
 1673SOL    HW1 5918   6.481   1.962   3.502
 1673SOL    HW2 5919   6.622   2.025   3.556
 1674SOL     OW 5920   2.185   5.236   6.463
 1674SOL    HW1 5921   2.098   5.285   6.472
 1674SOL    HW2 5922   2.242   5.254   6.544
 1675SOL     OW 5923   4.340   2.403   0.645
 1675SOL    HW1 5924   4.404   2.377   0.718
 1675SOL    HW2 5925   4.348   2.337   0.570
 1676SOL     OW 5926   2.386   1.321   4.054
 1676SOL    HW1 5927   2.377   1.224   4.035
 1676SOL    HW2 5928   2.455   1.361   3.994
 1677SOL     OW 5929   6.376   0.843   5.511
 1677SOL    HW1 5930   6.374   0.840   5.611
 1677SOL    HW2 5931   6.353   0.752   5.475
 1678SOL     OW 5932   4.672   0.062   1.337
 1678SOL    HW1 5933   4.620   7.012   1.293
 1678SOL    HW2 5934   4.765   0.029   1.357
 1679SOL     OW 5935   6.256   4.098   0.565
 1679SOL    HW1 5936   6.346   4.121   0.528
 1679SOL    HW2 5937   6.251   4.000   0.584
 1680SOL     OW 5938   1.394   2.494   4.887
 1680SOL    HW1 5939   1.387   2.532   4.979
 1680SOL    HW2 5940   1.308   2.451   4.862
 1681SOL     OW 5941   4.949   5.362   0.958
 1681SOL    HW1 5942   4.951   5.333   1.054
 1681SOL    HW2 5943   4.861   5.406   0.939
 1682SOL     OW 5944   6.417   3.473   5.487
 1682SOL    HW1 5945   6.489   3.532   5.521
 1682SOL    HW2 5946   6.418   3.473   5.387
 1683SOL     OW 5947   5.586   6.274   0.019
 1683SOL    HW1 5948   5.640   6.205   0.066
 1683SOL    HW2 5949   5.646   6.332   6.988
 1684SOL     OW 5950   0.297   6.085   4.871
 1684SOL    HW1 5951   0.383   6.065   4.824
 1684SOL    HW2 5952   0.301   6.050   4.965
 1685SOL     OW 5953   1.302   1.601   0.306
 1685SOL    HW1 5954   1.224   1.560   0.260
 1685SOL    HW2 5955   1.384   1.586   0.251
 1686SOL     OW 5956   2.230   5.470   6.636
 1686SOL    HW1 5957   2.275   5.425   6.559
 1686SOL    HW2 5958   2.248   5.568   6.633
 1687SOL     OW 5959   2.020   6.313   1.781
 1687SOL    HW1 5960   2.009   6.409   1.804
 1687SOL    HW2 5961   2.103   6.278   1.824
 1688SOL     OW 5962   0.238   1.949   4.063
 1688SOL    HW1 5963   0.210   1.907   3.977
 1688SOL    HW2 5964   0.182   2.029   4.081
 1689SOL     OW 5965   3.328   1.155   2.327
 1689SOL    HW1 5966   3.416   1.114   2.304
 1689SOL    HW2 5967   3.339   1.255   2.334
 1690SOL     OW 5968   0.702   2.339   0.832
 1690SOL    HW1 5969   0.682   2.342   0.734
 1690SOL    HW2 5970   0.661   2.418   0.878
 1691SOL     OW 5971   4.688   4.380   2.666
 1691SOL    HW1 5972   4.649   4.459   2.713
 1691SOL    HW2 5973   4.786   4.393   2.652
 1692SOL     OW 5974   1.500   0.240   3.289
 1692SOL    HW1 5975   1.510   0.187   3.205
 1692SOL    HW2 5976   1.589   0.247   3.335
 1693SOL     OW 5977   2.346   2.131   3.896
 1693SOL    HW1 5978   2.404   2.050   3.893
 1693SOL    HW2 5979   2.296   2.134   3.982
 1694SOL     OW 5980   4.649   6.121   6.054
 1694SOL    HW1 5981   4.738   6.082   6.079
 1694SOL    HW2 5982   4.640   6.211   6.096
 1695SOL     OW 5983   3.137   1.005   6.118
 1695SOL    HW1 5984   3.062   1.055   6.075
 1695SOL    HW2 5985   3.101   0.941   6.186
 1696SOL     OW 5986   3.392   5.521   1.697
 1696SOL    HW1 5987   3.302   5.528   1.654
 1696SOL    HW2 5988   3.427   5.613   1.717
 1697SOL     OW 5989   1.363   1.203   2.379
 1697SOL    HW1 5990   1.430   1.259   2.426
 1697SOL    HW2 5991   1.320   1.139   2.443
 1698SOL     OW 5992   5.405   1.791   0.909
 1698SOL    HW1 5993   5.408   1.888   0.884
 1698SOL    HW2 5994   5.319   1.751   0.878
 1699SOL     OW 5995   2.561   3.799   0.691
 1699SOL    HW1 5996   2.564   3.872   0.622
 1699SOL    HW2 5997   2.567   3.840   0.782
 1700SOL     OW 5998   6.492   3.044   4.814
 1700SOL    HW1 5999   6.398   3.035   4.780
 1700SOL    HW2 6000   6.526   3.136   4.797
 1701SOL     OW 6001   5.825   3.259   5.078
 1701SOL    HW1 6002   5.923   3.240   5.086
 1701SOL    HW2 6003   5.801   3.338   5.135
 1702SOL     OW 6004   4.889   3.090   1.779
 1702SOL    HW1 6005   4.827   3.116   1.705
 1702SOL    HW2 6006   4.837   3.072   1.862
 1703SOL     OW 6007   1.372   3.677   6.890
 1703SOL    HW1 6008   1.422   3.731   6.958
 1703SOL    HW2 6009   1.397   3.708   6.798
 1704SOL     OW 6010   0.526   0.625   1.591
 1704SOL    HW1 6011   0.453   0.633   1.659
 1704SOL    HW2 6012   0.613   0.649   1.633
 1705SOL     OW 6013   3.688   3.534   2.450
 1705SOL    HW1 6014   3.712   3.485   2.366
 1705SOL    HW2 6015   3.755   3.514   2.521
 1706SOL     OW 6016   2.308   0.387   6.460
 1706SOL    HW1 6017   2.302   0.356   6.555
 1706SOL    HW2 6018   2.403   0.414   6.440
 1707SOL     OW 6019   5.626   1.286   3.149
 1707SOL    HW1 6020   5.536   1.255   3.180
 1707SOL    HW2 6021   5.655   1.231   3.071
 1708SOL     OW 6022   0.301   4.528   1.709
 1708SOL    HW1 6023   0.332   4.544   1.803
 1708SOL    HW2 6024   0.347   4.592   1.647
 1709SOL     OW 6025   3.382   6.094   4.291
 1709SOL    HW1 6026   3.456   6.046   4.337
 1709SOL    HW2 6027   3.345   6.037   4.218
 1710SOL     OW 6028   0.561   5.988   4.445
 1710SOL    HW1 6029   0.502   6.048   4.390
 1710SOL    HW2 6030   0.504   5.923   4.495
 1711SOL     OW 6031   2.154   4.385   5.491
 1711SOL    HW1 6032   2.219   4.319   5.528
 1711SOL    HW2 6033   2.194   4.476   5.490
 1712SOL     OW 6034   1.667   4.807   0.926
 1712SOL    HW1 6035   1.747   4.768   0.972
 1712SOL    HW2 6036   1.585   4.757   0.952
 1713SOL     OW 6037   1.896   3.500   0.260
 1713SOL    HW1 6038   1.955   3.450   0.196
 1713SOL    HW2 6039   1.822   3.543   0.209
 1714SOL     OW 6040   3.881   1.634   1.384
 1714SOL    HW1 6041   3.971   1.608   1.350
 1714SOL    HW2 6042   3.853   1.721   1.342
 1715SOL     OW 6043   0.384   3.079   3.570
 1715SOL    HW1 6044   0.361   3.137   3.491
 1715SOL    HW2 6045   0.447   3.007   3.541
 1716SOL     OW 6046   6.964   0.091   0.259
 1716SOL    HW1 6047   6.945   0.184   0.227
 1716SOL    HW2 6048   0.010   0.049   0.199
 1717SOL     OW 6049   3.027   0.226   0.213
 1717SOL    HW1 6050   3.016   0.172   0.129
 1717SOL    HW2 6051   2.936   0.248   0.250
 1718SOL     OW 6052   1.143   4.701   5.689
 1718SOL    HW1 6053   1.133   4.611   5.647
 1718SOL    HW2 6054   1.080   4.709   5.766
 1719SOL     OW 6055   2.258   3.384   1.580
 1719SOL    HW1 6056   2.167   3.346   1.598
 1719SOL    HW2 6057   2.261   3.422   1.488
 1720SOL     OW 6058   6.648   1.430   2.672
 1720SOL    HW1 6059   6.550   1.447   2.664
 1720SOL    HW2 6060   6.672   1.344   2.627
 1721SOL     OW 6061   1.840   6.138   3.599
 1721SOL    HW1 6062   1.811   6.083   3.521
 1721SOL    HW2 6063   1.782   6.118   3.678
 1722SOL     OW 6064   5.647   6.826   1.702
 1722SOL    HW1 6065   5.693   6.740   1.679
 1722SOL    HW2 6066   5.551   6.821   1.675
 1723SOL     OW 6067   6.063   1.028   2.747
 1723SOL    HW1 6068   5.982   1.053   2.693
 1723SOL    HW2 6069   6.040   0.951   2.807
 1724SOL     OW 6070   5.161   0.755   0.162
 1724SOL    HW1 6071   5.151   0.723   0.067
 1724SOL    HW2 6072   5.258   0.766   0.183
 1725SOL     OW 6073   4.153   5.140   2.124
 1725SOL    HW1 6074   4.058   5.132   2.094
 1725SOL    HW2 6075   4.188   5.231   2.101
 1726SOL     OW 6076   0.081   4.331   4.520
 1726SOL    HW1 6077   0.171   4.290   4.535
 1726SOL    HW2 6078   0.081   4.424   4.554
 1727SOL     OW 6079   3.179   3.180   5.477
 1727SOL    HW1 6080   3.182   3.235   5.394
 1727SOL    HW2 6081   3.183   3.083   5.453
 1728SOL     OW 6082   4.288   4.762   3.612
 1728SOL    HW1 6083   4.197   4.774   3.650
 1728SOL    HW2 6084   4.286   4.781   3.514
 1729SOL     OW 6085   2.141   3.543   2.711
 1729SOL    HW1 6086   2.135   3.622   2.772
 1729SOL    HW2 6087   2.229   3.498   2.722
 1730SOL     OW 6088   5.827   2.378   4.426
 1730SOL    HW1 6089   5.780   2.460   4.460
 1730SOL    HW2 6090   5.792   2.298   4.474
 1731SOL     OW 6091   1.002   5.931   0.447
 1731SOL    HW1 6092   1.026   5.956   0.353
 1731SOL    HW2 6093   0.992   5.832   0.453
 1732SOL     OW 6094   0.536   4.700   6.893
 1732SOL    HW1 6095   0.445   4.661   6.907
 1732SOL    HW2 6096   0.605   4.630   6.907
 1733SOL     OW 6097   1.387   4.187   0.512
 1733SOL    HW1 6098   1.315   4.133   0.554
 1733SOL    HW2 6099   1.450   4.126   0.462
 1734SOL     OW 6100   4.736   3.435   1.139
 1734SOL    HW1 6101   4.670   3.472   1.205
 1734SOL    HW2 6102   4.826   3.475   1.156
 1735SOL     OW 6103   5.620   6.532   0.733
 1735SOL    HW1 6104   5.568   6.568   0.810
 1735SOL    HW2 6105   5.618   6.432   0.735
 1736SOL     OW 6106   3.027   3.527   0.339
 1736SOL    HW1 6107   3.123   3.556   0.334
 1736SOL    HW2 6108   2.987   3.528   0.247
 1737SOL     OW 6109   1.116   6.222   3.581
 1737SOL    HW1 6110   1.200   6.171   3.596
 1737SOL    HW2 6111   1.037   6.162   3.597
 1738SOL     OW 6112   1.198   1.732   1.549
 1738SOL    HW1 6113   1.114   1.772   1.512
 1738SOL    HW2 6114   1.258   1.804   1.583
 1739SOL     OW 6115   4.391   2.234   5.855
 1739SOL    HW1 6116   4.383   2.252   5.758
 1739SOL    HW2 6117   4.349   2.146   5.876
 1740SOL     OW 6118   0.658   1.105   5.656
 1740SOL    HW1 6119   0.660   1.021   5.711
 1740SOL    HW2 6120   0.752   1.135   5.640
 1741SOL     OW 6121   2.352   0.720   2.394
 1741SOL    HW1 6122   2.319   0.698   2.302
 1741SOL    HW2 6123   2.452   0.730   2.392
 1742SOL     OW 6124   6.098   5.984   4.205
 1742SOL    HW1 6125   6.193   5.996   4.234
 1742SOL    HW2 6126   6.083   6.030   4.118
 1743SOL     OW 6127   4.331   1.116   0.419
 1743SOL    HW1 6128   4.328   1.058   0.501
 1743SOL    HW2 6129   4.426   1.133   0.394
 1744SOL     OW 6130   3.049   6.870   1.780
 1744SOL    HW1 6131   3.117   6.918   1.724
 1744SOL    HW2 6132   3.043   6.914   1.870
 1745SOL     OW 6133   6.082   3.289   5.202
 1745SOL    HW1 6134   6.145   3.350   5.153
 1745SOL    HW2 6135   6.075   3.318   5.297
 1746SOL     OW 6136   2.483   0.974   5.727
 1746SOL    HW1 6137   2.425   1.001   5.650
 1746SOL    HW2 6138   2.510   0.878   5.715
 1747SOL     OW 6139   4.864   0.112   6.291
 1747SOL    HW1 6140   4.865   0.212   6.300
 1747SOL    HW2 6141   4.953   0.075   6.317
 1748SOL     OW 6142   5.894   1.724   1.556
 1748SOL    HW1 6143   5.986   1.697   1.527
 1748SOL    HW2 6144   5.899   1.764   1.647
 1749SOL     OW 6145   4.620   0.122   5.996
 1749SOL    HW1 6146   4.695   0.172   5.953
 1749SOL    HW2 6147   4.614   0.031   5.957
 1750SOL     OW 6148   4.999   0.389   3.706
 1750SOL    HW1 6149   5.000   0.434   3.616
 1750SOL    HW2 6150   4.952   0.447   3.772
 1751SOL     OW 6151   1.893   5.734   3.693
 1751SOL    HW1 6152   1.859   5.696   3.607
 1751SOL    HW2 6153   1.920   5.829   3.678
 1752SOL     OW 6154   6.517   2.145   6.776
 1752SOL    HW1 6155   6.587   2.144   6.705
 1752SOL    HW2 6156   6.542   2.209   6.848
 1753SOL     OW 6157   2.452   0.010   2.358
 1753SOL    HW1 6158   2.509   6.960   2.394
 1753SOL    HW2 6159   2.412   7.005   2.270
 1754SOL     OW 6160   3.828   2.618   1.401
 1754SOL    HW1 6161   3.919   2.602   1.440
 1754SOL    HW2 6162   3.780   2.531   1.392
 1755SOL     OW 6163   5.671   3.768   0.351
 1755SOL    HW1 6164   5.620   3.765   0.265
 1755SOL    HW2 6165   5.764   3.801   0.333
 1756SOL     OW 6166   5.693   5.570   4.568
 1756SOL    HW1 6167   5.662   5.516   4.647
 1756SOL    HW2 6168   5.773   5.624   4.594
 1757SOL     OW 6169   3.449   0.560   4.776
 1757SOL    HW1 6170   3.378   0.548   4.706
 1757SOL    HW2 6171   3.407   0.572   4.865
 1758SOL     OW 6172   2.656   1.827   3.274
 1758SOL    HW1 6173   2.651   1.763   3.351
 1758SOL    HW2 6174   2.713   1.788   3.202
 1759SOL     OW 6175   0.546   5.350   6.030
 1759SOL    HW1 6176   0.498   5.268   6.063
 1759SOL    HW2 6177   0.480   5.424   6.017
 1760SOL     OW 6178   5.172   0.897   2.225
 1760SOL    HW1 6179   5.222   0.980   2.249
 1760SOL    HW2 6180   5.090   0.890   2.283
 1761SOL     OW 6181   5.724   2.720   1.506
 1761SOL    HW1 6182   5.640   2.768   1.482
 1761SOL    HW2 6183   5.728   2.632   1.459
 1762SOL     OW 6184   5.625   2.767   0.827
 1762SOL    HW1 6185   5.675   2.832   0.884
 1762SOL    HW2 6186   5.642   2.674   0.859
 1763SOL     OW 6187   2.160   3.726   3.682
 1763SOL    HW1 6188   2.177   3.722   3.781
 1763SOL    HW2 6189   2.062   3.725   3.666
 1764SOL     OW 6190   6.376   2.921   4.444
 1764SOL    HW1 6191   6.319   2.936   4.363
 1764SOL    HW2 6192   6.324   2.945   4.526
 1765SOL     OW 6193   2.415   2.562   6.159
 1765SOL    HW1 6194   2.425   2.649   6.205
 1765SOL    HW2 6195   2.459   2.566   6.069
 1766SOL     OW 6196   6.202   3.077   5.481
 1766SOL    HW1 6197   6.184   3.005   5.414
 1766SOL    HW2 6198   6.117   3.104   5.525
 1767SOL     OW 6199   6.693   3.764   1.803
 1767SOL    HW1 6200   6.793   3.771   1.793
 1767SOL    HW2 6201   6.652   3.853   1.784
 1768SOL     OW 6202   5.826   6.508   3.728
 1768SOL    HW1 6203   5.797   6.557   3.646
 1768SOL    HW2 6204   5.904   6.450   3.708
 1769SOL     OW 6205   5.766   0.735   3.674
 1769SOL    HW1 6206   5.739   0.793   3.598
 1769SOL    HW2 6207   5.704   0.749   3.751
 1770SOL     OW 6208   3.343   5.327   4.897
 1770SOL    HW1 6209   3.291   5.243   4.909
 1770SOL    HW2 6210   3.330   5.362   4.804
 1771SOL     OW 6211   4.639   6.403   6.969
 1771SOL    HW1 6212   4.729   6.445   6.957
 1771SOL    HW2 6213   4.628   6.329   6.903
 1772SOL     OW 6214   3.186   6.155   2.751
 1772SOL    HW1 6215   3.197   6.175   2.849
 1772SOL    HW2 6216   3.258   6.201   2.699
 1773SOL     OW 6217   1.150   6.086   6.708
 1773SOL    HW1 6218   1.081   6.038   6.761
 1773SOL    HW2 6219   1.109   6.165   6.663
 1774SOL     OW 6220   3.390   4.942   2.353
 1774SOL    HW1 6221   3.439   4.939   2.266
 1774SOL    HW2 6222   3.300   4.898   2.341
 1775SOL     OW 6223   1.015   4.525   1.369
 1775SOL    HW1 6224   0.997   4.429   1.348
 1775SOL    HW2 6225   1.088   4.560   1.310
 1776SOL     OW 6226   3.085   5.885   5.184
 1776SOL    HW1 6227   3.040   5.870   5.272
 1776SOL    HW2 6228   3.085   5.982   5.163
 1777SOL     OW 6229   3.189   5.356   0.208
 1777SOL    HW1 6230   3.227   5.287   0.270
 1777SOL    HW2 6231   3.122   5.313   0.148
 1778SOL     OW 6232   6.363   3.921   5.749
 1778SOL    HW1 6233   6.366   3.834   5.698
 1778SOL    HW2 6234   6.398   3.906   5.841
 1779SOL     OW 6235   3.511   0.363   5.399
 1779SOL    HW1 6236   3.572   0.358   5.478
 1779SOL    HW2 6237   3.530   0.447   5.347
 1780SOL     OW 6238   3.616   3.518   6.612
 1780SOL    HW1 6239   3.561   3.448   6.658
 1780SOL    HW2 6240   3.678   3.473   6.547
 1781SOL     OW 6241   3.757   5.595   3.445
 1781SOL    HW1 6242   3.738   5.499   3.427
 1781SOL    HW2 6243   3.771   5.644   3.358
 1782SOL     OW 6244   3.446   1.833   4.213
 1782SOL    HW1 6245   3.466   1.736   4.230
 1782SOL    HW2 6246   3.436   1.881   4.299
 1783SOL     OW 6247   2.313   5.819   6.807
 1783SOL    HW1 6248   2.399   5.771   6.817
 1783SOL    HW2 6249   2.295   5.836   6.710
 1784SOL     OW 6250   3.523   6.484   5.695
 1784SOL    HW1 6251   3.456   6.495   5.769
 1784SOL    HW2 6252   3.613   6.466   5.734
 1785SOL     OW 6253   6.713   4.512   1.591
 1785SOL    HW1 6254   6.754   4.574   1.657
 1785SOL    HW2 6255   6.642   4.559   1.540
 1786SOL     OW 6256   3.995   2.172   1.236
 1786SOL    HW1 6257   4.000   2.128   1.146
 1786SOL    HW2 6258   4.032   2.109   1.305
 1787SOL     OW 6259   3.670   0.601   5.833
 1787SOL    HW1 6260   3.640   0.677   5.890
 1787SOL    HW2 6261   3.645   0.514   5.876
 1788SOL     OW 6262   1.815   4.403   6.066
 1788SOL    HW1 6263   1.824   4.478   6.131
 1788SOL    HW2 6264   1.893   4.405   6.003
 1789SOL     OW 6265   5.938   0.366   0.383
 1789SOL    HW1 6266   5.896   0.438   0.438
 1789SOL    HW2 6267   6.034   0.389   0.366
 1790SOL     OW 6268   3.348   6.724   2.919
 1790SOL    HW1 6269   3.363   6.780   2.837
 1790SOL    HW2 6270   3.435   6.686   2.950
 1791SOL     OW 6271   0.003   6.584   2.375
 1791SOL    HW1 6272   7.001   6.488   2.386
 1791SOL    HW2 6273   0.087   6.603   2.426
 1792SOL     OW 6274   1.098   4.011   5.395
 1792SOL    HW1 6275   1.151   4.091   5.422
 1792SOL    HW2 6276   1.091   4.008   5.295
 1793SOL     OW 6277   0.472   0.546   3.788
 1793SOL    HW1 6278   0.382   0.590   3.801
 1793SOL    HW2 6279   0.531   0.607   3.735
 1794SOL     OW 6280   4.569   6.271   6.420
 1794SOL    HW1 6281   4.594   6.330   6.343
 1794SOL    HW2 6282   4.480   6.300   6.456
 1795SOL     OW 6283   0.455   3.007   0.151
 1795SOL    HW1 6284   0.380   3.068   0.124
 1795SOL    HW2 6285   0.416   2.922   0.188
 1796SOL     OW 6286   3.240   0.257   6.327
 1796SOL    HW1 6287   3.219   0.168   6.367
 1796SOL    HW2 6288   3.286   0.244   6.239
 1797SOL     OW 6289   0.681   0.522   0.654
 1797SOL    HW1 6290   0.587   0.556   0.658
 1797SOL    HW2 6291   0.695   0.471   0.570
 1798SOL     OW 6292   6.057   2.508   3.376
 1798SOL    HW1 6293   6.031   2.462   3.461
 1798SOL    HW2 6294   6.135   2.568   3.394
 1799SOL     OW 6295   2.330   1.591   6.629
 1799SOL    HW1 6296   2.298   1.588   6.724
 1799SOL    HW2 6297   2.255   1.619   6.570
 1800SOL     OW 6298   4.169   4.990   2.362
 1800SOL    HW1 6299   4.222   4.908   2.342
 1800SOL    HW2 6300   4.159   5.044   2.279
 1801SOL     OW 6301   5.694   0.165   1.196
 1801SOL    HW1 6302   5.653   0.212   1.118
 1801SOL    HW2 6303   5.636   0.089   1.223
 1802SOL     OW 6304   5.259   5.353   3.929
 1802SOL    HW1 6305   5.304   5.409   3.859
 1802SOL    HW2 6306   5.272   5.396   4.019
 1803SOL     OW 6307   5.946   5.669   0.926
 1803SOL    HW1 6308   5.878   5.687   0.996
 1803SOL    HW2 6309   5.996   5.753   0.905
 1804SOL     OW 6310   3.433   3.146   5.941
 1804SOL    HW1 6311   3.387   3.162   5.853
 1804SOL    HW2 6312   3.364   3.129   6.012
 1805SOL     OW 6313   5.025   3.000   6.557
 1805SOL    HW1 6314   4.995   2.906   6.538
 1805SOL    HW2 6315   4.998   3.060   6.482
 1806SOL     OW 6316   0.449   0.318   0.949
 1806SOL    HW1 6317   0.516   0.251   0.981
 1806SOL    HW2 6318   0.485   0.411   0.965
 1807SOL     OW 6319   5.559   2.068   5.850
 1807SOL    HW1 6320   5.609   2.021   5.923
 1807SOL    HW2 6321   5.624   2.100   5.781
 1808SOL     OW 6322   2.121   4.425   4.209
 1808SOL    HW1 6323   2.165   4.499   4.157
 1808SOL    HW2 6324   2.187   4.353   4.227
 1809SOL     OW 6325   3.232   6.990   6.361
 1809SOL    HW1 6326   3.161   7.016   6.296
 1809SOL    HW2 6327   3.322   7.014   6.324
 1810SOL     OW 6328   3.705   5.968   2.638
 1810SOL    HW1 6329   3.732   5.914   2.558
 1810SOL    HW2 6330   3.644   5.914   2.695
 1811SOL     OW 6331   6.201   5.558   2.486
 1811SOL    HW1 6332   6.123   5.572   2.425
 1811SOL    HW2 6333   6.278   5.614   2.456
 1812SOL     OW 6334   4.229   5.355   6.738
 1812SOL    HW1 6335   4.148   5.351   6.797
 1812SOL    HW2 6336   4.216   5.424   6.668
 1813SOL     OW 6337   6.444   5.208   5.587
 1813SOL    HW1 6338   6.472   5.223   5.493
 1813SOL    HW2 6339   6.506   5.256   5.649
 1814SOL     OW 6340   5.089   6.399   2.456
 1814SOL    HW1 6341   5.175   6.362   2.421
 1814SOL    HW2 6342   5.105   6.488   2.498
 1815SOL     OW 6343   0.267   0.975   2.429
 1815SOL    HW1 6344   0.248   1.033   2.508
 1815SOL    HW2 6345   0.217   1.010   2.349
 1816SOL     OW 6346   1.028   4.379   0.296
 1816SOL    HW1 6347   0.987   4.469   0.304
 1816SOL    HW2 6348   1.126   4.384   0.318
 1817SOL     OW 6349   1.141   5.311   2.052
 1817SOL    HW1 6350   1.094   5.292   1.966
 1817SOL    HW2 6351   1.186   5.228   2.085
 1818SOL     OW 6352   2.502   1.218   3.010
 1818SOL    HW1 6353   2.580   1.274   2.981
 1818SOL    HW2 6354   2.466   1.252   3.097
 1819SOL     OW 6355   1.668   4.543   2.467
 1819SOL    HW1 6356   1.603   4.468   2.476
 1819SOL    HW2 6357   1.761   4.506   2.468
 1820SOL     OW 6358   5.651   0.386   2.643
 1820SOL    HW1 6359   5.573   0.364   2.701
 1820SOL    HW2 6360   5.680   0.480   2.661
 1821SOL     OW 6361   1.885   1.528   3.237
 1821SOL    HW1 6362   1.913   1.463   3.166
 1821SOL    HW2 6363   1.798   1.570   3.210
 1822SOL     OW 6364   3.716   3.703   1.579
 1822SOL    HW1 6365   3.790   3.698   1.645
 1822SOL    HW2 6366   3.728   3.631   1.510
 1823SOL     OW 6367   4.570   0.069   2.535
 1823SOL    HW1 6368   4.637   0.110   2.474
 1823SOL    HW2 6369   4.611   0.051   2.624
 1824SOL     OW 6370   5.247   2.521   1.380
 1824SOL    HW1 6371   5.249   2.462   1.461
 1824SOL    HW2 6372   5.197   2.474   1.307
 1825SOL     OW 6373   1.207   1.174   1.075
 1825SOL    HW1 6374   1.191   1.216   1.164
 1825SOL    HW2 6375   1.202   1.243   1.004
 1826SOL     OW 6376   3.089   6.399   6.370
 1826SOL    HW1 6377   3.132   6.367   6.285
 1826SOL    HW2 6378   3.106   6.332   6.443
 1827SOL     OW 6379   5.982   6.872   1.844
 1827SOL    HW1 6380   5.915   6.842   1.912
 1827SOL    HW2 6381   5.934   6.899   1.760
 1828SOL     OW 6382   1.632   2.156   0.366
 1828SOL    HW1 6383   1.577   2.222   0.418
 1828SOL    HW2 6384   1.600   2.154   0.271
 1829SOL     OW 6385   6.195   5.598   1.363
 1829SOL    HW1 6386   6.251   5.522   1.395
 1829SOL    HW2 6387   6.101   5.567   1.348
 1830SOL     OW 6388   5.809   6.083   3.821
 1830SOL    HW1 6389   5.874   6.094   3.746
 1830SOL    HW2 6390   5.759   6.169   3.835
 1831SOL     OW 6391   5.075   0.611   3.225
 1831SOL    HW1 6392   4.999   0.636   3.166
 1831SOL    HW2 6393   5.124   0.694   3.254
 1832SOL     OW 6394   5.231   2.705   0.433
 1832SOL    HW1 6395   5.155   2.658   0.478
 1832SOL    HW2 6396   5.303   2.723   0.500
 1833SOL     OW 6397   6.120   1.861   5.530
 1833SOL    HW1 6398   6.117   1.954   5.566
 1833SOL    HW2 6399   6.030   1.834   5.498
 1834SOL     OW 6400   2.735   3.587   0.818
 1834SOL    HW1 6401   2.687   3.657   0.871
 1834SOL    HW2 6402   2.712   3.596   0.721
 1835SOL     OW 6403   1.363   4.500   0.157
 1835SOL    HW1 6404   1.290   4.561   0.126
 1835SOL    HW2 6405   1.345   4.471   0.251
 1836SOL     OW 6406   0.455   6.025   0.481
 1836SOL    HW1 6407   0.383   5.961   0.452
 1836SOL    HW2 6408   0.435   6.057   0.573
 1837SOL     OW 6409   1.076   2.689   4.678
 1837SOL    HW1 6410   1.052   2.606   4.729
 1837SOL    HW2 6411   1.131   2.663   4.598
 1838SOL     OW 6412   0.459   2.873   3.817
 1838SOL    HW1 6413   0.527   2.825   3.763
 1838SOL    HW2 6414   0.504   2.920   3.894
 1839SOL     OW 6415   0.119   2.238   6.106
 1839SOL    HW1 6416   0.057   2.175   6.151
 1839SOL    HW2 6417   0.131   2.212   6.010
 1840SOL     OW 6418   1.644   5.071   0.350
 1840SOL    HW1 6419   1.733   5.042   0.384
 1840SOL    HW2 6420   1.606   5.000   0.291
 1841SOL     OW 6421   1.619   3.111   3.028
 1841SOL    HW1 6422   1.696   3.083   3.087
 1841SOL    HW2 6423   1.568   3.184   3.073
 1842SOL     OW 6424   0.963   4.890   6.744
 1842SOL    HW1 6425   0.988   4.800   6.781
 1842SOL    HW2 6426   1.042   4.930   6.697
 1843SOL     OW 6427   3.568   2.035   5.013
 1843SOL    HW1 6428   3.577   2.022   5.112
 1843SOL    HW2 6429   3.471   2.030   4.988
 1844SOL     OW 6430   5.244   3.635   3.638
 1844SOL    HW1 6431   5.191   3.653   3.721
 1844SOL    HW2 6432   5.183   3.637   3.559
 1845SOL     OW 6433   4.217   0.355   0.280
 1845SOL    HW1 6434   4.297   0.305   0.248
 1845SOL    HW2 6435   4.214   0.445   0.237
 1846SOL     OW 6436   3.123   1.020   5.651
 1846SOL    HW1 6437   3.101   1.063   5.563
 1846SOL    HW2 6438   3.221   1.034   5.670
 1847SOL     OW 6439   1.854   0.154   0.408
 1847SOL    HW1 6440   1.782   0.097   0.368
 1847SOL    HW2 6441   1.855   0.243   0.362
 1848SOL     OW 6442   2.985   6.646   2.378
 1848SOL    HW1 6443   3.075   6.657   2.336
 1848SOL    HW2 6444   2.914   6.662   2.310
 1849SOL     OW 6445   2.855   1.210   6.277
 1849SOL    HW1 6446   2.790   1.247   6.211
 1849SOL    HW2 6447   2.914   1.143   6.231
 1850SOL     OW 6448   5.597   1.453   1.983
 1850SOL    HW1 6449   5.631   1.368   1.944
 1850SOL    HW2 6450   5.673   1.518   1.992
 1851SOL     OW 6451   6.490   3.377   3.237
 1851SOL    HW1 6452   6.556   3.307   3.264
 1851SOL    HW2 6453   6.406   3.366   3.290
 1852SOL     OW 6454   5.541   3.326   6.959
 1852SOL    HW1 6455   5.499   3.310   6.870
 1852SOL    HW2 6456   5.629   3.372   6.946
 1853SOL     OW 6457   1.761   4.387   0.597
 1853SOL    HW1 6458   1.715   4.383   0.508
 1853SOL    HW2 6459   1.854   4.421   0.584
 1854SOL     OW 6460   3.177   5.391   3.789
 1854SOL    HW1 6461   3.198   5.338   3.871
 1854SOL    HW2 6462   3.208   5.485   3.801
 1855SOL     OW 6463   5.522   4.466   1.935
 1855SOL    HW1 6464   5.606   4.415   1.955
 1855SOL    HW2 6465   5.535   4.521   1.853
 1856SOL     OW 6466   4.975   3.017   6.054
 1856SOL    HW1 6467   5.004   2.926   6.084
 1856SOL    HW2 6468   4.898   3.008   5.990
 1857SOL     OW 6469   4.629   1.554   3.805
 1857SOL    HW1 6470   4.727   1.556   3.822
 1857SOL    HW2 6471   4.609   1.482   3.738
 1858SOL     OW 6472   5.155   3.962   3.426
 1858SOL    HW1 6473   5.064   3.931   3.451
 1858SOL    HW2 6474   5.215   3.958   3.506
 1859SOL     OW 6475   5.378   1.348   3.596
 1859SOL    HW1 6476   5.450   1.382   3.656
 1859SOL    HW2 6477   5.336   1.424   3.547
 1860SOL     OW 6478   4.490   1.916   5.026
 1860SOL    HW1 6479   4.532   1.861   4.953
 1860SOL    HW2 6480   4.411   1.868   5.062
 1861SOL     OW 6481   5.937   6.129   1.935
 1861SOL    HW1 6482   5.901   6.143   2.027
 1861SOL    HW2 6483   5.909   6.204   1.875
 1862SOL     OW 6484   1.390   1.616   0.557
 1862SOL    HW1 6485   1.354   1.604   0.465
 1862SOL    HW2 6486   1.374   1.533   0.610
 1863SOL     OW 6487   2.161   2.657   1.833
 1863SOL    HW1 6488   2.144   2.563   1.802
 1863SOL    HW2 6489   2.256   2.681   1.816
 1864SOL     OW 6490   1.124   6.660   3.647
 1864SOL    HW1 6491   1.030   6.686   3.625
 1864SOL    HW2 6492   1.186   6.734   3.621
 1865SOL     OW 6493   5.124   2.149   6.687
 1865SOL    HW1 6494   5.060   2.079   6.655
 1865SOL    HW2 6495   5.086   2.240   6.670
 1866SOL     OW 6496   5.265   5.281   2.771
 1866SOL    HW1 6497   5.242   5.374   2.798
 1866SOL    HW2 6498   5.333   5.244   2.834
 1867SOL     OW 6499   1.273   4.712   6.321
 1867SOL    HW1 6500   1.176   4.693   6.332
 1867SOL    HW2 6501   1.286   4.802   6.280
 1868SOL     OW 6502   6.184   4.328   5.778
 1868SOL    HW1 6503   6.181   4.428   5.781
 1868SOL    HW2 6504   6.234   4.298   5.696
 1869SOL     OW 6505   6.036   1.295   4.646
 1869SOL    HW1 6506   6.102   1.291   4.721
 1869SOL    HW2 6507   5.989   1.383   4.647
 1870SOL     OW 6508   2.395   4.365   4.543
 1870SOL    HW1 6509   2.448   4.445   4.569
 1870SOL    HW2 6510   2.308   4.365   4.592
 1871SOL     OW 6511   1.171   0.027   0.899
 1871SOL    HW1 6512   1.125   6.968   0.864
 1871SOL    HW2 6513   1.137   0.108   0.850
 1872SOL     OW 6514   2.219   4.884   0.179
 1872SOL    HW1 6515   2.189   4.806   0.233
 1872SOL    HW2 6516   2.298   4.927   0.222
 1873SOL     OW 6517   4.947   1.099   0.613
 1873SOL    HW1 6518   5.002   1.126   0.692
 1873SOL    HW2 6519   4.999   1.035   0.557
 1874SOL     OW 6520   1.269   3.518   2.830
 1874SOL    HW1 6521   1.219   3.598   2.797
 1874SOL    HW2 6522   1.365   3.542   2.845
 1875SOL     OW 6523   1.090   6.872   1.144
 1875SOL    HW1 6524   1.104   6.861   1.046
 1875SOL    HW2 6525   1.128   6.793   1.193
 1876SOL     OW 6526   2.265   6.972   4.657
 1876SOL    HW1 6527   2.170   6.977   4.689
 1876SOL    HW2 6528   2.289   6.877   4.640
 1877SOL     OW 6529   0.057   6.768   3.749
 1877SOL    HW1 6530   0.147   6.811   3.742
 1877SOL    HW2 6531   7.010   6.839   3.763
 1878SOL     OW 6532   5.765   2.331   5.971
 1878SOL    HW1 6533   5.848   2.344   5.916
 1878SOL    HW2 6534   5.744   2.234   5.977
 1879SOL     OW 6535   1.604   4.677   5.645
 1879SOL    HW1 6536   1.529   4.704   5.706
 1879SOL    HW2 6537   1.573   4.680   5.550
 1880SOL     OW 6538   6.179   0.413   5.115
 1880SOL    HW1 6539   6.167   0.394   5.017
 1880SOL    HW2 6540   6.154   0.508   5.134
 1881SOL     OW 6541   6.795   2.377   6.802
 1881SOL    HW1 6542   6.756   2.450   6.746
 1881SOL    HW2 6543   6.886   2.403   6.833
 1882SOL     OW 6544   1.349   6.166   6.376
 1882SOL    HW1 6545   1.298   6.219   6.308
 1882SOL    HW2 6546   1.284   6.120   6.437
 1883SOL     OW 6547   0.109   2.187   4.133
 1883SOL    HW1 6548   0.168   2.255   4.177
 1883SOL    HW2 6549   0.098   2.209   4.036
 1884SOL     OW 6550   0.349   2.951   0.985
 1884SOL    HW1 6551   0.256   2.986   0.995
 1884SOL    HW2 6552   0.354   2.858   1.021
 1885SOL     OW 6553   1.888   1.166   4.622
 1885SOL    HW1 6554   1.966   1.171   4.683
 1885SOL    HW2 6555   1.887   1.247   4.562
 1886SOL     OW 6556   1.036   6.503   3.016
 1886SOL    HW1 6557   1.066   6.420   3.063
 1886SOL    HW2 6558   1.050   6.582   3.075
 1887SOL     OW 6559   2.474   6.651   5.853
 1887SOL    HW1 6560   2.437   6.564   5.818
 1887SOL    HW2 6561   2.404   6.697   5.908
 1888SOL     OW 6562   2.892   1.114   2.900
 1888SOL    HW1 6563   2.835   1.194   2.919
 1888SOL    HW2 6564   2.976   1.144   2.854
 1889SOL     OW 6565   0.453   3.152   2.967
 1889SOL    HW1 6566   0.492   3.232   2.923
 1889SOL    HW2 6567   0.484   3.147   3.062
 1890SOL     OW 6568   0.793   5.862   4.722
 1890SOL    HW1 6569   0.799   5.780   4.780
 1890SOL    HW2 6570   0.820   5.838   4.629
 1891SOL     OW 6571   3.142   3.012   3.549
 1891SOL    HW1 6572   3.120   3.096   3.499
 1891SOL    HW2 6573   3.227   2.973   3.512
 1892SOL     OW 6574   0.893   0.727   2.584
 1892SOL    HW1 6575   0.803   0.691   2.561
 1892SOL    HW2 6576   0.883   0.811   2.637
 1893SOL     OW 6577   3.797   3.297   4.338
 1893SOL    HW1 6578   3.839   3.210   4.313
 1893SOL    HW2 6579   3.869   3.365   4.355
 1894SOL     OW 6580   3.261   3.325   4.506
 1894SOL    HW1 6581   3.319   3.244   4.498
 1894SOL    HW2 6582   3.295   3.383   4.579
 1895SOL     OW 6583   1.860   6.496   0.187
 1895SOL    HW1 6584   1.812   6.428   0.242
 1895SOL    HW2 6585   1.796   6.567   0.158
 1896SOL     OW 6586   5.319   2.645   1.067
 1896SOL    HW1 6587   5.406   2.688   1.093
 1896SOL    HW2 6588   5.243   2.704   1.096
 1897SOL     OW 6589   1.647   4.352   4.730
 1897SOL    HW1 6590   1.559   4.398   4.737
 1897SOL    HW2 6591   1.636   4.255   4.753
 1898SOL     OW 6592   1.738   6.340   3.241
 1898SOL    HW1 6593   1.824   6.295   3.266
 1898SOL    HW2 6594   1.733   6.430   3.285
 1899SOL     OW 6595   6.934   0.835   2.360
 1899SOL    HW1 6596   6.864   0.907   2.369
 1899SOL    HW2 6597   6.999   0.843   2.435
 1900SOL     OW 6598   2.557   6.035   0.045
 1900SOL    HW1 6599   2.480   6.070   7.014
 1900SOL    HW2 6600   2.642   6.076   0.012
 1901SOL     OW 6601   2.835   3.640   1.892
 1901SOL    HW1 6602   2.782   3.697   1.828
 1901SOL    HW2 6603   2.923   3.684   1.910
 1902SOL     OW 6604   1.264   0.367   4.367
 1902SOL    HW1 6605   1.244   0.348   4.463
 1902SOL    HW2 6606   1.184   0.411   4.325
 1903SOL     OW 6607   1.009   2.694   3.971
 1903SOL    HW1 6608   1.083   2.674   4.035
 1903SOL    HW2 6609   1.041   2.760   3.903
 1904SOL     OW 6610   6.174   5.733   1.634
 1904SOL    HW1 6611   6.140   5.827   1.629
 1904SOL    HW2 6612   6.199   5.701   1.543
 1905SOL     OW 6613   0.839   2.035   4.038
 1905SOL    HW1 6614   0.823   2.095   3.960
 1905SOL    HW2 6615   0.917   1.975   4.020
 1906SOL     OW 6616   1.541   7.005   4.821
 1906SOL    HW1 6617   1.580   6.949   4.894
 1906SOL    HW2 6618   1.455   6.964   4.790
 1907SOL     OW 6619   4.907   2.746   0.428
 1907SOL    HW1 6620   4.910   2.787   0.337
 1907SOL    HW2 6621   4.923   2.816   0.497
 1908SOL     OW 6622   3.307   1.216   1.102
 1908SOL    HW1 6623   3.391   1.270   1.097
 1908SOL    HW2 6624   3.318   1.143   1.170
 1909SOL     OW 6625   6.311   4.994   4.702
 1909SOL    HW1 6626   6.341   5.057   4.774
 1909SOL    HW2 6627   6.322   4.900   4.733
 1910SOL     OW 6628   0.586   6.030   5.741
 1910SOL    HW1 6629   0.652   5.981   5.683
 1910SOL    HW2 6630   0.625   6.043   5.832
 1911SOL     OW 6631   5.983   5.636   4.398
 1911SOL    HW1 6632   5.910   5.571   4.376
 1911SOL    HW2 6633   5.946   5.707   4.459
 1912SOL     OW 6634   3.519   4.967   2.121
 1912SOL    HW1 6635   3.585   4.894   2.102
 1912SOL    HW2 6636   3.454   4.973   2.045
 1913SOL     OW 6637   3.718   4.366   6.667
 1913SOL    HW1 6638   3.798   4.409   6.625
 1913SOL    HW2 6639   3.657   4.436   6.702
 1914SOL     OW 6640   3.181   4.578   0.105
 1914SOL    HW1 6641   3.134   4.496   0.139
 1914SOL    HW2 6642   3.113   4.644   0.072
 1915SOL     OW 6643   3.433   2.858   6.412
 1915SOL    HW1 6644   3.362   2.853   6.341
 1915SOL    HW2 6645   3.440   2.770   6.459
 1916SOL     OW 6646   4.111   0.793   2.465
 1916SOL    HW1 6647   4.178   0.834   2.527
 1916SOL    HW2 6648   4.127   0.826   2.372
 1917SOL     OW 6649   1.890   4.063   1.271
 1917SOL    HW1 6650   1.971   4.121   1.268
 1917SOL    HW2 6651   1.876   4.030   1.364
 1918SOL     OW 6652   5.706   2.532   3.903
 1918SOL    HW1 6653   5.804   2.514   3.895
 1918SOL    HW2 6654   5.658   2.447   3.923
 1919SOL     OW 6655   7.006   2.837   6.381
 1919SOL    HW1 6656   7.016   2.918   6.439
 1919SOL    HW2 6657   6.930   2.851   6.318
 1920SOL     OW 6658   5.111   3.316   1.070
 1920SOL    HW1 6659   5.095   3.316   1.169
 1920SOL    HW2 6660   5.088   3.406   1.034
 1921SOL     OW 6661   2.590   2.242   0.003
 1921SOL    HW1 6662   2.684   2.240   0.037
 1921SOL    HW2 6663   2.530   2.194   0.068
 1922SOL     OW 6664   3.356   3.002   2.917
 1922SOL    HW1 6665   3.454   3.013   2.936
 1922SOL    HW2 6666   3.307   2.991   3.004
 1923SOL     OW 6667   3.502   0.883   4.370
 1923SOL    HW1 6668   3.560   0.807   4.341
 1923SOL    HW2 6669   3.423   0.848   4.420
 1924SOL     OW 6670   4.740   1.290   0.539
 1924SOL    HW1 6671   4.710   1.244   0.456
 1924SOL    HW2 6672   4.807   1.233   0.587
 1925SOL     OW 6673   1.254   3.694   1.312
 1925SOL    HW1 6674   1.314   3.615   1.302
 1925SOL    HW2 6675   1.247   3.743   1.225
 1926SOL     OW 6676   3.869   0.366   2.225
 1926SOL    HW1 6677   3.968   0.359   2.210
 1926SOL    HW2 6678   3.852   0.396   2.318
 1927SOL     OW 6679   2.120   5.068   1.451
 1927SOL    HW1 6680   2.082   5.055   1.360
 1927SOL    HW2 6681   2.075   5.006   1.515
 1928SOL     OW 6682   5.942   4.294   2.874
 1928SOL    HW1 6683   5.961   4.196   2.880
 1928SOL    HW2 6684   6.027   4.345   2.880
 1929SOL     OW 6685   3.253   6.892   3.353
 1929SOL    HW1 6686   3.260   6.799   3.388
 1929SOL    HW2 6687   3.277   6.894   3.256
 1930SOL     OW 6688   3.656   2.874   0.249
 1930SOL    HW1 6689   3.602   2.947   0.291
 1930SOL    HW2 6690   3.702   2.821   0.321
 1931SOL     OW 6691   6.875   2.149   4.234
 1931SOL    HW1 6692   6.788   2.161   4.188
 1931SOL    HW2 6693   6.949   2.145   4.167
 1932SOL     OW 6694   5.093   1.968   2.239
 1932SOL    HW1 6695   5.114   1.929   2.150
 1932SOL    HW2 6696   5.084   2.067   2.230
 1933SOL     OW 6697   1.201   0.758   1.054
 1933SOL    HW1 6698   1.265   0.702   1.107
 1933SOL    HW2 6699   1.247   0.842   1.025
 1934SOL     OW 6700   6.842   0.743   6.584
 1934SOL    HW1 6701   6.910   0.808   6.552
 1934SOL    HW2 6702   6.750   0.781   6.570
 1935SOL     OW 6703   5.962   5.142   3.764
 1935SOL    HW1 6704   5.915   5.159   3.678
 1935SOL    HW2 6705   6.026   5.065   3.752
 1936SOL     OW 6706   4.722   3.091   6.256
 1936SOL    HW1 6707   4.650   3.075   6.188
 1936SOL    HW2 6708   4.811   3.070   6.216
 1937SOL     OW 6709   6.159   4.903   0.117
 1937SOL    HW1 6710   6.219   4.825   0.132
 1937SOL    HW2 6711   6.165   4.932   0.021
 1938SOL     OW 6712   6.536   3.216   0.223
 1938SOL    HW1 6713   6.515   3.313   0.221
 1938SOL    HW2 6714   6.631   3.203   0.254
 1939SOL     OW 6715   0.907   0.578   4.669
 1939SOL    HW1 6716   0.826   0.541   4.715
 1939SOL    HW2 6717   0.937   0.661   4.715
 1940SOL     OW 6718   0.341   5.116   0.494
 1940SOL    HW1 6719   0.302   5.069   0.574
 1940SOL    HW2 6720   0.426   5.163   0.521
 1941SOL     OW 6721   5.355   1.829   4.692
 1941SOL    HW1 6722   5.342   1.914   4.642
 1941SOL    HW2 6723   5.307   1.754   4.646
 1942SOL     OW 6724   0.040   4.515   1.861
 1942SOL    HW1 6725   0.095   4.489   1.781
 1942SOL    HW2 6726   0.018   4.433   1.914
 1943SOL     OW 6727   1.061   2.808   3.405
 1943SOL    HW1 6728   1.146   2.853   3.432
 1943SOL    HW2 6729   1.049   2.724   3.458
 1944SOL     OW 6730   0.679   3.294   3.575
 1944SOL    HW1 6731   0.668   3.391   3.553
 1944SOL    HW2 6732   0.620   3.271   3.653
 1945SOL     OW 6733   5.063   1.257   2.091
 1945SOL    HW1 6734   4.984   1.318   2.093
 1945SOL    HW2 6735   5.146   1.312   2.079
 1946SOL     OW 6736   6.420   6.219   0.789
 1946SOL    HW1 6737   6.333   6.268   0.788
 1946SOL    HW2 6738   6.408   6.131   0.742
 1947SOL     OW 6739   6.316   5.244   2.850
 1947SOL    HW1 6740   6.271   5.310   2.789
 1947SOL    HW2 6741   6.388   5.291   2.902
 1948SOL     OW 6742   5.228   3.329   3.714
 1948SOL    HW1 6743   5.243   3.327   3.813
 1948SOL    HW2 6744   5.221   3.236   3.680
 1949SOL     OW 6745   3.587   4.203   6.496
 1949SOL    HW1 6746   3.642   4.256   6.560
 1949SOL    HW2 6747   3.514   4.260   6.459
 1950SOL     OW 6748   3.965   3.859   3.391
 1950SOL    HW1 6749   3.999   3.922   3.322
 1950SOL    HW2 6750   3.897   3.905   3.448
 1951SOL     OW 6751   6.105   5.301   6.093
 1951SOL    HW1 6752   6.084   5.203   6.098
 1951SOL    HW2 6753   6.088   5.343   6.182
 1952SOL     OW 6754   5.907   5.091   7.023
 1952SOL    HW1 6755   5.815   5.125   0.019
 1952SOL    HW2 6756   5.974   5.161   0.024
 1953SOL     OW 6757   1.480   1.613   6.819
 1953SOL    HW1 6758   1.516   1.521   6.807
 1953SOL    HW2 6759   1.513   1.651   6.905
 1954SOL     OW 6760   4.276   6.705   1.563
 1954SOL    HW1 6761   4.198   6.756   1.525
 1954SOL    HW2 6762   4.355   6.766   1.569
 1955SOL     OW 6763   0.159   2.642   3.955
 1955SOL    HW1 6764   0.221   2.606   4.025
 1955SOL    HW2 6765   0.181   2.738   3.938
 1956SOL     OW 6766   5.356   0.841   1.448
 1956SOL    HW1 6767   5.314   0.893   1.373
 1956SOL    HW2 6768   5.316   0.749   1.450
 1957SOL     OW 6769   6.539   2.257   4.206
 1957SOL    HW1 6770   6.468   2.289   4.143
 1957SOL    HW2 6771   6.499   2.237   4.295
 1958SOL     OW 6772   3.801   1.605   0.728
 1958SOL    HW1 6773   3.717   1.657   0.747
 1958SOL    HW2 6774   3.876   1.643   0.782
 1959SOL     OW 6775   1.215   2.296   5.423
 1959SOL    HW1 6776   1.239   2.392   5.416
 1959SOL    HW2 6777   1.170   2.279   5.511
 1960SOL     OW 6778   5.860   4.332   3.901
 1960SOL    HW1 6779   5.787   4.320   3.833
 1960SOL    HW2 6780   5.914   4.248   3.906
 1961SOL     OW 6781   0.685   3.966   3.774
 1961SOL    HW1 6782   0.608   3.951   3.713
 1961SOL    HW2 6783   0.757   3.899   3.754
 1962SOL     OW 6784   0.621   0.639   2.063
 1962SOL    HW1 6785   0.564   0.716   2.033
 1962SOL    HW2 6786   0.698   0.628   2.000
 1963SOL     OW 6787   0.845   2.597   6.811
 1963SOL    HW1 6788   0.812   2.519   6.864
 1963SOL    HW2 6789   0.945   2.604   6.821
 1964SOL     OW 6790   5.637   3.570   0.561
 1964SOL    HW1 6791   5.545   3.531   0.564
 1964SOL    HW2 6792   5.641   3.641   0.491
 1965SOL     OW 6793   6.225   4.235   3.654
 1965SOL    HW1 6794   6.198   4.205   3.562
 1965SOL    HW2 6795   6.207   4.333   3.663
 1966SOL     OW 6796   1.199   4.545   6.706
 1966SOL    HW1 6797   1.119   4.515   6.758
 1966SOL    HW2 6798   1.234   4.630   6.745
 1967SOL     OW 6799   6.260   3.436   5.066
 1967SOL    HW1 6800   6.263   3.413   4.969
 1967SOL    HW2 6801   6.343   3.403   5.110
 1968SOL     OW 6802   2.680   1.101   5.584
 1968SOL    HW1 6803   2.627   1.042   5.645
 1968SOL    HW2 6804   2.630   1.186   5.568
 1969SOL     OW 6805   1.812   5.850   0.878
 1969SOL    HW1 6806   1.775   5.908   0.806
 1969SOL    HW2 6807   1.765   5.871   0.965
 1970SOL     OW 6808   5.355   4.933   4.002
 1970SOL    HW1 6809   5.366   4.873   3.922
 1970SOL    HW2 6810   5.444   4.946   4.046
 1971SOL     OW 6811   1.871   4.730   4.680
 1971SOL    HW1 6812   1.797   4.742   4.614
 1971SOL    HW2 6813   1.952   4.696   4.633
 1972SOL     OW 6814   6.223   2.396   2.337
 1972SOL    HW1 6815   6.157   2.341   2.286
 1972SOL    HW2 6816   6.195   2.402   2.432
 1973SOL     OW 6817   3.156   2.231   0.984
 1973SOL    HW1 6818   3.251   2.257   1.000
 1973SOL    HW2 6819   3.144   2.204   0.889
 1974SOL     OW 6820   2.464   6.727   4.927
 1974SOL    HW1 6821   2.435   6.706   4.834
 1974SOL    HW2 6822   2.438   6.821   4.950
 1975SOL     OW 6823   2.042   2.771   3.222
 1975SOL    HW1 6824   2.128   2.814   3.248
 1975SOL    HW2 6825   2.014   2.804   3.132
 1976SOL     OW 6826   1.035   0.927   5.469
 1976SOL    HW1 6827   0.980   0.891   5.393
 1976SOL    HW2 6828   1.117   0.970   5.432
 1977SOL     OW 6829   1.963   3.689   6.479
 1977SOL    HW1 6830   1.900   3.638   6.420
 1977SOL    HW2 6831   2.042   3.631   6.502
 1978SOL     OW 6832   2.966   0.325   2.349
 1978SOL    HW1 6833   2.993   0.229   2.353
 1978SOL    HW2 6834   2.912   0.341   2.267
 1979SOL     OW 6835   6.004   4.537   6.366
 1979SOL    HW1 6836   5.916   4.546   6.413
 1979SOL    HW2 6837   6.009   4.448   6.322
 1980SOL     OW 6838   3.599   0.659   0.873
 1980SOL    HW1 6839   3.698   0.671   0.878
 1980SOL    HW2 6840   3.554   0.731   0.924
 1981SOL     OW 6841   3.854   1.854   2.082
 1981SOL    HW1 6842   3.880   1.950   2.092
 1981SOL    HW2 6843   3.755   1.849   2.069
 1982SOL     OW 6844   1.690   2.888   6.022
 1982SOL    HW1 6845   1.621   2.959   6.006
 1982SOL    HW2 6846   1.781   2.927   6.007
 1983SOL     OW 6847   6.910   1.178   2.156
 1983SOL    HW1 6848   6.851   1.236   2.212
 1983SOL    HW2 6849   6.865   1.090   2.140
 1984SOL     OW 6850   4.319   3.987   6.067
 1984SOL    HW1 6851   4.249   4.004   5.998
 1984SOL    HW2 6852   4.396   3.939   6.024
 1985SOL     OW 6853   6.410   4.170   4.128
 1985SOL    HW1 6854   6.358   4.169   4.214
 1985SOL    HW2 6855   6.348   4.155   4.051
 1986SOL     OW 6856   3.224   3.642   2.219
 1986SOL    HW1 6857   3.310   3.591   2.214
 1986SOL    HW2 6858   3.228   3.707   2.296
 1987SOL     OW 6859   2.219   0.789   1.944
 1987SOL    HW1 6860   2.183   0.728   2.014
 1987SOL    HW2 6861   2.166   0.777   1.860
 1988SOL     OW 6862   0.582   1.551   1.968
 1988SOL    HW1 6863   0.586   1.559   2.068
 1988SOL    HW2 6864   0.568   1.642   1.929
 1989SOL     OW 6865   2.793   5.615   5.145
 1989SOL    HW1 6866   2.706   5.621   5.096
 1989SOL    HW2 6867   2.865   5.657   5.090
 1990SOL     OW 6868   4.083   0.607   0.141
 1990SOL    HW1 6869   4.064   0.674   0.213
 1990SOL    HW2 6870   4.103   0.655   0.055
 1991SOL     OW 6871   2.670   5.497   1.472
 1991SOL    HW1 6872   2.728   5.539   1.541
 1991SOL    HW2 6873   2.579   5.538   1.475
 1992SOL     OW 6874   0.698   6.503   2.712
 1992SOL    HW1 6875   0.598   6.505   2.716
 1992SOL    HW2 6876   0.729   6.408   2.700
 1993SOL     OW 6877   2.064   1.881   3.109
 1993SOL    HW1 6878   2.112   1.855   3.193
 1993SOL    HW2 6879   2.107   1.837   3.030
 1994SOL     OW 6880   3.927   2.815   0.891
 1994SOL    HW1 6881   3.901   2.748   0.960
 1994SOL    HW2 6882   4.026   2.819   0.884
 1995SOL     OW 6883   5.812   1.540   4.000
 1995SOL    HW1 6884   5.825   1.590   4.086
 1995SOL    HW2 6885   5.726   1.488   4.004
 1996SOL     OW 6886   4.714   0.956   0.644
 1996SOL    HW1 6887   4.669   1.017   0.709
 1996SOL    HW2 6888   4.788   1.004   0.598
 1997SOL     OW 6889   3.240   1.398   3.632
 1997SOL    HW1 6890   3.239   1.411   3.731
 1997SOL    HW2 6891   3.283   1.311   3.610
 1998SOL     OW 6892   2.614   3.758   1.476
 1998SOL    HW1 6893   2.564   3.836   1.439
 1998SOL    HW2 6894   2.686   3.791   1.537
 1999SOL     OW 6895   0.790   0.195   6.964
 1999SOL    HW1 6896   0.859   0.123   6.956
 1999SOL    HW2 6897   0.731   0.195   6.884
 2000SOL     OW 6898   4.037   4.390   6.081
 2000SOL    HW1 6899   3.960   4.398   6.144
 2000SOL    HW2 6900   4.104   4.326   6.118
 2001SOL     OW 6901   1.472   2.443   1.433
 2001SOL    HW1 6902   1.491   2.535   1.398
 2001SOL    HW2 6903   1.529   2.377   1.384
 2002SOL     OW 6904   0.014   5.256   1.004
 2002SOL    HW1 6905   7.013   5.235   1.099
 2002SOL    HW2 6906   6.975   5.206   0.943
 2003SOL     OW 6907   5.588   5.256   2.136
 2003SOL    HW1 6908   5.608   5.239   2.039
 2003SOL    HW2 6909   5.623   5.345   2.162
 2004SOL     OW 6910   3.611   6.640   2.884
 2004SOL    HW1 6911   3.666   6.719   2.857
 2004SOL    HW2 6912   3.607   6.575   2.808
 2005SOL     OW 6913   1.301   6.419   0.361
 2005SOL    HW1 6914   1.272   6.418   0.457
 2005SOL    HW2 6915   1.351   6.335   0.340
 2006SOL     OW 6916   5.498   6.597   2.239
 2006SOL    HW1 6917   5.486   6.540   2.320
 2006SOL    HW2 6918   5.423   6.579   2.175
 2007SOL     OW 6919   5.537   5.169   6.096
 2007SOL    HW1 6920   5.447   5.146   6.058
 2007SOL    HW2 6921   5.599   5.195   6.021
 2008SOL     OW 6922   1.980   3.634   3.127
 2008SOL    HW1 6923   1.978   3.653   3.029
 2008SOL    HW2 6924   1.897   3.585   3.153
 2009SOL     OW 6925   6.286   6.993   2.365
 2009SOL    HW1 6926   6.196   6.963   2.334
 2009SOL    HW2 6927   6.308   6.948   2.452
 2010SOL     OW 6928   6.721   1.962   1.997
 2010SOL    HW1 6929   6.705   2.040   2.058
 2010SOL    HW2 6930   6.819   1.955   1.978
 2011SOL     OW 6931   0.911   6.799   4.866
 2011SOL    HW1 6932   0.957   6.755   4.943
 2011SOL    HW2 6933   0.873   6.887   4.895
 2012SOL     OW 6934   0.684   3.203   1.077
 2012SOL    HW1 6935   0.724   3.288   1.042
 2012SOL    HW2 6936   0.585   3.215   1.089
 2013SOL     OW 6937   0.048   2.696   1.892
 2013SOL    HW1 6938   0.067   2.680   1.795
 2013SOL    HW2 6939   0.019   2.610   1.934
 2014SOL     OW 6940   3.821   1.295   4.100
 2014SOL    HW1 6941   3.736   1.293   4.047
 2014SOL    HW2 6942   3.895   1.256   4.045
 2015SOL     OW 6943   4.213   6.564   1.801
 2015SOL    HW1 6944   4.204   6.614   1.714
 2015SOL    HW2 6945   4.149   6.488   1.802
 2016SOL     OW 6946   2.211   0.805   4.222
 2016SOL    HW1 6947   2.277   0.779   4.293
 2016SOL    HW2 6948   2.151   0.877   4.257
 2017SOL     OW 6949   3.179   6.384   3.604
 2017SOL    HW1 6950   3.265   6.434   3.618
 2017SOL    HW2 6951   3.109   6.448   3.573
 2018SOL     OW 6952   0.676   0.680   3.985
 2018SOL    HW1 6953   0.693   0.706   3.890
 2018SOL    HW2 6954   0.590   0.630   3.992
 2019SOL     OW 6955   5.667   5.628   6.507
 2019SOL    HW1 6956   5.585   5.614   6.563
 2019SOL    HW2 6957   5.641   5.632   6.411
 2020SOL     OW 6958   1.808   6.890   0.335
 2020SOL    HW1 6959   1.772   6.801   0.364
 2020SOL    HW2 6960   1.801   6.898   0.236
 2021SOL     OW 6961   0.088   6.013   4.710
 2021SOL    HW1 6962   0.173   6.030   4.761
 2021SOL    HW2 6963   0.059   6.097   4.666
 2022SOL     OW 6964   1.987   3.297   4.331
 2022SOL    HW1 6965   2.043   3.217   4.352
 2022SOL    HW2 6966   1.964   3.344   4.416
 2023SOL     OW 6967   6.768   5.968   6.366
 2023SOL    HW1 6968   6.734   5.983   6.273
 2023SOL    HW2 6969   6.809   5.877   6.372
 2024SOL     OW 6970   0.181   5.572   4.056
 2024SOL    HW1 6971   0.102   5.554   3.996
 2024SOL    HW2 6972   0.160   5.542   4.149
 2025SOL     OW 6973   2.002   6.107   4.606
 2025SOL    HW1 6974   2.030   6.011   4.601
 2025SOL    HW2 6975   2.080   6.165   4.583
 2026SOL     OW 6976   0.101   0.616   5.868
 2026SOL    HW1 6977   0.025   0.646   5.925
 2026SOL    HW2 6978   0.073   0.537   5.813
 2027SOL     OW 6979   0.026   6.004   2.051
 2027SOL    HW1 6980   0.120   6.036   2.047
 2027SOL    HW2 6981   6.987   6.081   2.034
 2028SOL     OW 6982   3.157   5.563   4.635
 2028SOL    HW1 6983   3.239   5.511   4.609
 2028SOL    HW2 6984   3.175   5.611   4.721
 2029SOL     OW 6985   6.182   2.957   6.568
 2029SOL    HW1 6986   6.159   3.044   6.523
 2029SOL    HW2 6987   6.190   2.971   6.666
 2030SOL     OW 6988   2.176   6.671   2.497
 2030SOL    HW1 6989   2.085   6.710   2.500
 2030SOL    HW2 6990   2.229   6.703   2.575
 2031SOL     OW 6991   0.795   6.018   4.986
 2031SOL    HW1 6992   0.884   5.983   5.012
 2031SOL    HW2 6993   0.767   5.978   4.898
 2032SOL     OW 6994   2.318   2.901   6.003
 2032SOL    HW1 6995   2.260   2.928   6.080
 2032SOL    HW2 6996   2.380   2.828   6.032
 2033SOL     OW 6997   2.231   1.589   0.539
 2033SOL    HW1 6998   2.231   1.668   0.601
 2033SOL    HW2 6999   2.147   1.536   0.554
 2034SOL     OW 7000   0.652   4.254   5.157
 2034SOL    HW1 7001   0.558   4.226   5.180
 2034SOL    HW2 7002   0.650   4.347   5.118
 2035SOL     OW 7003   5.299   5.928   3.067
 2035SOL    HW1 7004   5.256   5.989   3.001
 2035SOL    HW2 7005   5.282   5.960   3.160
 2036SOL     OW 7006   0.452   4.502   6.420
 2036SOL    HW1 7007   0.389   4.515   6.496
 2036SOL    HW2 7008   0.416   4.432   6.358
 2037SOL     OW 7009   1.284   2.485   0.078
 2037SOL    HW1 7010   1.375   2.507   0.114
 2037SOL    HW2 7011   1.293   2.430   7.018
 2038SOL     OW 7012   0.663   1.402   5.766
 2038SOL    HW1 7013   0.722   1.469   5.721
 2038SOL    HW2 7014   0.679   1.404   5.865
 2039SOL     OW 7015   5.001   6.071   3.319
 2039SOL    HW1 7016   5.008   6.073   3.219
 2039SOL    HW2 7017   4.952   6.152   3.350
 2040SOL     OW 7018   2.638   1.940   0.125
 2040SOL    HW1 7019   2.711   1.873   0.140
 2040SOL    HW2 7020   2.596   1.964   0.213
 2041SOL     OW 7021   2.804   6.469   6.796
 2041SOL    HW1 7022   2.791   6.506   6.704
 2041SOL    HW2 7023   2.875   6.398   6.794
 2042SOL     OW 7024   6.092   0.692   5.817
 2042SOL    HW1 7025   6.076   0.782   5.777
 2042SOL    HW2 7026   6.124   0.629   5.747
 2043SOL     OW 7027   0.699   4.295   0.536
 2043SOL    HW1 7028   0.603   4.274   0.518
 2043SOL    HW2 7029   0.754   4.212   0.529
 2044SOL     OW 7030   4.222   0.378   1.789
 2044SOL    HW1 7031   4.307   0.400   1.836
 2044SOL    HW2 7032   4.146   0.379   1.854
 2045SOL     OW 7033   1.952   5.969   4.172
 2045SOL    HW1 7034   2.023   6.030   4.137
 2045SOL    HW2 7035   1.897   6.018   4.240
 2046SOL     OW 7036   0.929   3.167   6.045
 2046SOL    HW1 7037   0.977   3.247   6.008
 2046SOL    HW2 7038   0.950   3.087   5.988
 2047SOL     OW 7039   6.815   0.347   1.003
 2047SOL    HW1 7040   6.908   0.379   1.021
 2047SOL    HW2 7041   6.801   0.259   1.049
 2048SOL     OW 7042   2.130   1.292   4.201
 2048SOL    HW1 7043   2.083   1.264   4.117
 2048SOL    HW2 7044   2.228   1.300   4.183
 2049SOL     OW 7045   4.722   2.860   5.005
 2049SOL    HW1 7046   4.679   2.858   5.095
 2049SOL    HW2 7047   4.767   2.948   4.991
 2050SOL     OW 7048   0.484   1.144   3.744
 2050SOL    HW1 7049   0.455   1.237   3.765
 2050SOL    HW2 7050   0.535   1.143   3.658
 2051SOL     OW 7051   3.284   5.991   0.744
 2051SOL    HW1 7052   3.255   5.916   0.802
 2051SOL    HW2 7053   3.357   5.960   0.683
 2052SOL     OW 7054   1.028   3.908   0.608
 2052SOL    HW1 7055   1.121   3.936   0.629
 2052SOL    HW2 7056   1.017   3.811   0.631
 2053SOL     OW 7057   6.245   4.921   2.685
 2053SOL    HW1 7058   6.206   4.846   2.631
 2053SOL    HW2 7059   6.206   5.008   2.655
 2054SOL     OW 7060   2.868   3.607   3.051
 2054SOL    HW1 7061   2.856   3.509   3.067
 2054SOL    HW2 7062   2.872   3.624   2.953
 2055SOL     OW 7063   4.664   2.664   5.644
 2055SOL    HW1 7064   4.652   2.591   5.577
 2055SOL    HW2 7065   4.618   2.639   5.730
 2056SOL     OW 7066   3.039   5.158   1.682
 2056SOL    HW1 7067   3.083   5.200   1.603
 2056SOL    HW2 7068   3.033   5.225   1.756
 2057SOL     OW 7069   5.921   3.208   4.376
 2057SOL    HW1 7070   5.971   3.291   4.401
 2057SOL    HW2 7071   5.888   3.163   4.459
 2058SOL     OW 7072   6.020   6.815   3.532
 2058SOL    HW1 7073   6.109   6.801   3.489
 2058SOL    HW2 7074   6.015   6.907   3.571
 2059SOL     OW 7075   2.054   2.076   5.352
 2059SOL    HW1 7076   2.053   2.009   5.426
 2059SOL    HW2 7077   1.982   2.053   5.286
 2060SOL     OW 7078   2.141   2.298   6.380
 2060SOL    HW1 7079   2.198   2.293   6.462
 2060SOL    HW2 7080   2.161   2.220   6.321
 2061SOL     OW 7081   2.114   2.106   3.322
 2061SOL    HW1 7082   2.169   2.075   3.400
 2061SOL    HW2 7083   2.172   2.159   3.260
 2062SOL     OW 7084   6.043   4.901   4.204
 2062SOL    HW1 7085   5.965   4.862   4.157
 2062SOL    HW2 7086   6.056   4.996   4.175
 2063SOL     OW 7087   1.096   2.413   4.078
 2063SOL    HW1 7088   1.104   2.489   4.142
 2063SOL    HW2 7089   1.037   2.440   4.002
 2064SOL     OW 7090   0.794   3.775   4.351
 2064SOL    HW1 7091   0.808   3.676   4.346
 2064SOL    HW2 7092   0.702   3.795   4.385
 2065SOL     OW 7093   3.997   3.446   5.811
 2065SOL    HW1 7094   4.018   3.404   5.900
 2065SOL    HW2 7095   3.911   3.497   5.818
 2066SOL     OW 7096   1.226   3.093   4.957
 2066SOL    HW1 7097   1.186   3.039   4.884
 2066SOL    HW2 7098   1.161   3.162   4.988
 2067SOL     OW 7099   6.317   4.545   1.896
 2067SOL    HW1 7100   6.399   4.600   1.905
 2067SOL    HW2 7101   6.268   4.543   1.984
 2068SOL     OW 7102   4.448   6.594   4.222
 2068SOL    HW1 7103   4.536   6.550   4.206
 2068SOL    HW2 7104   4.424   6.650   4.143
 2069SOL     OW 7105   6.871   1.167   3.757
 2069SOL    HW1 7106   6.926   1.083   3.760
 2069SOL    HW2 7107   6.905   1.227   3.685
 2070SOL     OW 7108   1.584   5.106   1.360
 2070SOL    HW1 7109   1.530   5.187   1.338
 2070SOL    HW2 7110   1.663   5.100   1.299
 2071SOL     OW 7111   0.018   2.619   4.871
 2071SOL    HW1 7112   6.966   2.617   4.805
 2071SOL    HW2 7113   7.008   2.586   4.959
 2072SOL     OW 7114   5.582   4.177   5.339
 2072SOL    HW1 7115   5.545   4.128   5.418
 2072SOL    HW2 7116   5.506   4.210   5.282
 2073SOL     OW 7117   3.465   5.497   6.511
 2073SOL    HW1 7118   3.394   5.521   6.445
 2073SOL    HW2 7119   3.423   5.478   6.599
 2074SOL     OW 7120   2.489   4.792   5.907
 2074SOL    HW1 7121   2.547   4.712   5.895
 2074SOL    HW2 7122   2.416   4.770   5.973
 2075SOL     OW 7123   5.976   2.508   1.581
 2075SOL    HW1 7124   6.049   2.455   1.538
 2075SOL    HW2 7125   5.919   2.550   1.511
 2076SOL     OW 7126   6.845   6.743   4.701
 2076SOL    HW1 7127   6.938   6.748   4.738
 2076SOL    HW2 7128   6.824   6.829   4.654
 2077SOL     OW 7129   6.365   4.359   0.312
 2077SOL    HW1 7130   6.411   4.327   0.395
 2077SOL    HW2 7131   6.391   4.453   0.293
 2078SOL     OW 7132   1.139   2.790   6.186
 2078SOL    HW1 7133   1.072   2.835   6.245
 2078SOL    HW2 7134   1.228   2.835   6.196
 2079SOL     OW 7135   5.409   1.114   3.206
 2079SOL    HW1 7136   5.332   1.077   3.154
 2079SOL    HW2 7137   5.382   1.127   3.301
 2080SOL     OW 7138   2.433   3.195   6.477
 2080SOL    HW1 7139   2.518   3.234   6.511
 2080SOL    HW2 7140   2.355   3.238   6.523
 2081SOL     OW 7141   6.910   6.263   2.079
 2081SOL    HW1 7142   6.810   6.257   2.072
 2081SOL    HW2 7143   6.942   6.341   2.026
 2082SOL     OW 7144   6.890   5.682   4.067
 2082SOL    HW1 7145   6.858   5.719   3.980
 2082SOL    HW2 7146   6.911   5.585   4.056
 2083SOL     OW 7147   0.214   6.275   3.972
 2083SOL    HW1 7148   0.238   6.192   3.922
 2083SOL    HW2 7149   0.286   6.295   4.038
 2084SOL     OW 7150   0.050   2.090   0.876
 2084SOL    HW1 7151   6.997   2.144   0.911
 2084SOL    HW2 7152   0.124   2.151   0.847
 2085SOL     OW 7153   6.701   5.936   0.379
 2085SOL    HW1 7154   6.646   5.995   0.319
 2085SOL    HW2 7155   6.661   5.845   0.382
 2086SOL     OW 7156   5.318   0.418   6.898
 2086SOL    HW1 7157   5.280   0.333   6.862
 2086SOL    HW2 7158   5.384   0.455   6.832
 2087SOL     OW 7159   4.270   1.661   6.764
 2087SOL    HW1 7160   4.255   1.730   6.834
 2087SOL    HW2 7161   4.184   1.614   6.744
 2088SOL     OW 7162   6.973   4.506   5.944
 2088SOL    HW1 7163   6.923   4.527   5.860
 2088SOL    HW2 7164   6.949   4.572   6.015
 2089SOL     OW 7165   2.642   4.248   6.148
 2089SOL    HW1 7166   2.704   4.169   6.152
 2089SOL    HW2 7167   2.678   4.322   6.203
 2090SOL     OW 7168   5.179   2.935   0.266
 2090SOL    HW1 7169   5.259   2.948   0.209
 2090SOL    HW2 7170   5.197   2.863   0.333
 2091SOL     OW 7171   5.310   6.457   0.639
 2091SOL    HW1 7172   5.214   6.446   0.661
 2091SOL    HW2 7173   5.366   6.413   0.709
 2092SOL     OW 7174   3.457   3.474   2.228
 2092SOL    HW1 7175   3.546   3.486   2.183
 2092SOL    HW2 7176   3.457   3.387   2.277
 2093SOL     OW 7177   4.489   0.724   1.167
 2093SOL    HW1 7178   4.588   0.715   1.179
 2093SOL    HW2 7179   4.443   0.704   1.254
 2094SOL     OW 7180   5.158   2.145   0.413
 2094SOL    HW1 7181   5.204   2.061   0.441
 2094SOL    HW2 7182   5.214   2.224   0.438
 2095SOL     OW 7183   5.177   5.272   4.502
 2095SOL    HW1 7184   5.208   5.346   4.442
 2095SOL    HW2 7185   5.240   5.195   4.496
 2096SOL     OW 7186   4.093   7.005   2.471
 2096SOL    HW1 7187   4.131   6.988   2.379
 2096SOL    HW2 7188   4.083   0.080   2.484
 2097SOL     OW 7189   0.666   5.761   5.972
 2097SOL    HW1 7190   0.733   5.695   5.938
 2097SOL    HW2 7191   0.699   5.854   5.955
 2098SOL     OW 7192   2.674   6.717   3.588
 2098SOL    HW1 7193   2.608   6.647   3.559
 2098SOL    HW2 7194   2.723   6.752   3.508
 2099SOL     OW 7195   3.906   1.849   0.009
 2099SOL    HW1 7196   3.977   1.781   0.024
 2099SOL    HW2 7197   3.858   1.867   0.094
 2100SOL     OW 7198   4.434   0.461   7.019
 2100SOL    HW1 7199   4.432   0.367   0.031
 2100SOL    HW2 7200   4.437   0.524   0.073
 2101SOL     OW 7201   1.774   0.003   2.606
 2101SOL    HW1 7202   1.713   0.049   2.671
 2101SOL    HW2 7203   1.731   0.002   2.516
 2102SOL     OW 7204   4.044   2.521   1.559
 2102SOL    HW1 7205   4.095   2.581   1.621
 2102SOL    HW2 7206   3.971   2.475   1.611
 2103SOL     OW 7207   1.077   6.787   0.864
 2103SOL    HW1 7208   1.017   6.722   0.819
 2103SOL    HW2 7209   1.172   6.768   0.838
 2104SOL     OW 7210   2.022   3.751   2.867
 2104SOL    HW1 7211   1.928   3.766   2.898
 2104SOL    HW2 7212   2.058   3.835   2.827
 2105SOL     OW 7213   5.625   0.475   4.967
 2105SOL    HW1 7214   5.667   0.404   4.911
 2105SOL    HW2 7215   5.559   0.526   4.912
 2106SOL     OW 7216   3.559   2.754   1.493
 2106SOL    HW1 7217   3.550   2.796   1.584
 2106SOL    HW2 7218   3.622   2.676   1.499
 2107SOL     OW 7219   5.116   4.504   4.839
 2107SOL    HW1 7220   5.142   4.599   4.825
 2107SOL    HW2 7221   5.018   4.493   4.819
 2108SOL     OW 7222   4.872   6.972   4.859
 2108SOL    HW1 7223   4.797   6.971   4.925
 2108SOL    HW2 7224   4.882   0.040   4.820
 2109SOL     OW 7225   2.793   6.122   1.877
 2109SOL    HW1 7226   2.875   6.150   1.926
 2109SOL    HW2 7227   2.722   6.096   1.943
 2110SOL     OW 7228   3.491   5.876   0.271
 2110SOL    HW1 7229   3.516   5.785   0.236
 2110SOL    HW2 7230   3.397   5.897   0.244
 2111SOL     OW 7231   1.418   2.365   6.160
 2111SOL    HW1 7232   1.480   2.341   6.085
 2111SOL    HW2 7233   1.399   2.463   6.158
 2112SOL     OW 7234   0.999   0.183   6.624
 2112SOL    HW1 7235   1.060   0.263   6.629
 2112SOL    HW2 7236   0.990   0.143   6.715
 2113SOL     OW 7237   6.545   1.651   5.292
 2113SOL    HW1 7238   6.467   1.683   5.346
 2113SOL    HW2 7239   6.627   1.702   5.319
 2114SOL     OW 7240   1.957   0.964   5.201
 2114SOL    HW1 7241   2.057   0.969   5.204
 2114SOL    HW2 7242   1.928   0.871   5.222
 2115SOL     OW 7243   6.783   6.227   3.081
 2115SOL    HW1 7244   6.702   6.169   3.089
 2115SOL    HW2 7245   6.846   6.207   3.156
 2116SOL     OW 7246   2.015   1.312   6.794
 2116SOL    HW1 7247   1.924   1.351   6.778
 2116SOL    HW2 7248   2.082   1.386   6.797
 2117SOL     OW 7249   6.284   2.260   2.989
 2117SOL    HW1 7250   6.204   2.241   2.933
 2117SOL    HW2 7251   6.291   2.358   3.006
 2118SOL     OW 7252   6.983   2.776   2.529
 2118SOL    HW1 7253   7.005   2.855   2.586
 2118SOL    HW2 7254   6.982   2.693   2.585
 2119SOL     OW 7255   0.361   2.897   0.517
 2119SOL    HW1 7256   0.295   2.854   0.456
 2119SOL    HW2 7257   0.453   2.889   0.478
 2120SOL     OW 7258   5.438   2.044   0.789
 2120SOL    HW1 7259   5.349   2.085   0.767
 2120SOL    HW2 7260   5.472   1.993   0.710
 2121SOL     OW 7261   1.882   6.629   1.184
 2121SOL    HW1 7262   1.924   6.543   1.156
 2121SOL    HW2 7263   1.853   6.623   1.279
 2122SOL     OW 7264   6.406   0.985   4.726
 2122SOL    HW1 7265   6.311   0.959   4.708
 2122SOL    HW2 7266   6.459   0.977   4.641
 2123SOL     OW 7267   1.021   5.269   3.424
 2123SOL    HW1 7268   1.011   5.283   3.522
 2123SOL    HW2 7269   1.020   5.358   3.378
 2124SOL     OW 7270   4.690   3.576   6.504
 2124SOL    HW1 7271   4.771   3.558   6.447
 2124SOL    HW2 7272   4.608   3.546   6.456
 2125SOL     OW 7273   0.984   5.512   4.629
 2125SOL    HW1 7274   1.064   5.464   4.666
 2125SOL    HW2 7275   0.904   5.491   4.685
 2126SOL     OW 7276   2.837   3.529   0.550
 2126SOL    HW1 7277   2.898   3.507   0.474
 2126SOL    HW2 7278   2.874   3.490   0.635
 2127SOL     OW 7279   1.123   3.736   4.042
 2127SOL    HW1 7280   1.202   3.678   4.060
 2127SOL    HW2 7281   1.050   3.681   4.001
 2128SOL     OW 7282   5.514   3.260   2.510
 2128SOL    HW1 7283   5.499   3.167   2.478
 2128SOL    HW2 7284   5.442   3.285   2.574
 2129SOL     OW 7285   4.889   4.390   4.060
 2129SOL    HW1 7286   4.862   4.305   4.107
 2129SOL    HW2 7287   4.807   4.441   4.035
 2130SOL     OW 7288   1.678   0.425   1.742
 2130SOL    HW1 7289   1.685   0.448   1.645
 2130SOL    HW2 7290   1.663   0.509   1.796
 2131SOL     OW 7291   5.780   0.713   6.424
 2131SOL    HW1 7292   5.731   0.741   6.342
 2131SOL    HW2 7293   5.717   0.707   6.501
 2132SOL     OW 7294   2.773   2.631   7.014
 2132SOL    HW1 7295   2.813   2.540   7.017
 2132SOL    HW2 7296   2.726   2.643   6.926
 2133SOL     OW 7297   3.837   1.898   1.301
 2133SOL    HW1 7298   3.929   1.936   1.303
 2133SOL    HW2 7299   3.779   1.945   1.368
 2134SOL     OW 7300   1.659   6.661   5.354
 2134SOL    HW1 7301   1.707   6.661   5.442
 2134SOL    HW2 7302   1.574   6.712   5.362
 2135SOL     OW 7303   0.974   6.250   4.036
 2135SOL    HW1 7304   0.894   6.237   3.978
 2135SOL    HW2 7305   0.958   6.324   4.101
 2136SOL     OW 7306   1.368   4.799   4.159
 2136SOL    HW1 7307   1.359   4.848   4.073
 2136SOL    HW2 7308   1.349   4.860   4.235
 2137SOL     OW 7309   0.214   0.472   3.925
 2137SOL    HW1 7310   0.241   0.407   3.853
 2137SOL    HW2 7311   0.145   0.534   3.889
 2138SOL     OW 7312   1.157   2.450   5.922
 2138SOL    HW1 7313   1.084   2.515   5.902
 2138SOL    HW2 7314   1.151   2.423   6.018
 2139SOL     OW 7315   3.190   6.866   4.142
 2139SOL    HW1 7316   3.180   6.924   4.223
 2139SOL    HW2 7317   3.249   6.788   4.164
 2140SOL     OW 7318   0.988   5.777   3.947
 2140SOL    HW1 7319   0.889   5.785   3.937
 2140SOL    HW2 7320   1.033   5.813   3.865
 2141SOL     OW 7321   6.312   1.969   6.641
 2141SOL    HW1 7322   6.356   1.880   6.655
 2141SOL    HW2 7323   6.369   2.041   6.679
 2142SOL     OW 7324   3.584   1.012   3.452
 2142SOL    HW1 7325   3.680   0.995   3.431
 2142SOL    HW2 7326   3.533   0.926   3.452
 2143SOL     OW 7327   3.666   6.064   0.177
 2143SOL    HW1 7328   3.665   6.157   0.216
 2143SOL    HW2 7329   3.601   6.007   0.227
 2144SOL     OW 7330   1.195   0.850   1.829
 2144SOL    HW1 7331   1.162   0.932   1.876
 2144SOL    HW2 7332   1.156   0.847   1.737
 2145SOL     OW 7333   2.804   5.503   2.634
 2145SOL    HW1 7334   2.792   5.521   2.732
 2145SOL    HW2 7335   2.863   5.573   2.594
 2146SOL     OW 7336   2.605   2.002   1.285
 2146SOL    HW1 7337   2.621   2.098   1.304
 2146SOL    HW2 7338   2.512   1.977   1.313
 2147SOL     OW 7339   0.036   1.054   4.396
 2147SOL    HW1 7340   0.134   1.063   4.415
 2147SOL    HW2 7341   0.012   1.108   4.316
 2148SOL     OW 7342   5.998   3.728   4.452
 2148SOL    HW1 7343   6.077   3.787   4.433
 2148SOL    HW2 7344   6.017   3.669   4.530
 2149SOL     OW 7345   2.961   0.365   3.057
 2149SOL    HW1 7346   3.008   0.408   2.980
 2149SOL    HW2 7347   2.869   0.404   3.066
 2150SOL     OW 7348   4.464   0.060   3.202
 2150SOL    HW1 7349   4.561   0.038   3.211
 2150SOL    HW2 7350   4.432   0.105   3.286
 2151SOL     OW 7351   3.722   4.403   5.655
 2151SOL    HW1 7352   3.655   4.478   5.656
 2151SOL    HW2 7353   3.794   4.423   5.721
 2152SOL     OW 7354   6.763   6.649   2.301
 2152SOL    HW1 7355   6.791   6.661   2.206
 2152SOL    HW2 7356   6.843   6.631   2.358
 2153SOL     OW 7357   4.465   1.788   3.340
 2153SOL    HW1 7358   4.387   1.792   3.277
 2153SOL    HW2 7359   4.488   1.880   3.371
 2154SOL     OW 7360   3.849   6.654   5.276
 2154SOL    HW1 7361   3.765   6.661   5.330
 2154SOL    HW2 7362   3.924   6.699   5.325
 2155SOL     OW 7363   6.127   3.687   6.412
 2155SOL    HW1 7364   6.078   3.631   6.479
 2155SOL    HW2 7365   6.068   3.760   6.379
 2156SOL     OW 7366   6.883   0.627   1.827
 2156SOL    HW1 7367   6.945   0.555   1.795
 2156SOL    HW2 7368   6.816   0.587   1.890
 2157SOL     OW 7369   6.216   0.767   4.082
 2157SOL    HW1 7370   6.134   0.792   4.031
 2157SOL    HW2 7371   6.236   0.837   4.150
 2158SOL     OW 7372   5.179   0.151   3.713
 2158SOL    HW1 7373   5.103   0.086   3.723
 2158SOL    HW2 7374   5.143   0.244   3.706
 2159SOL     OW 7375   2.354   0.661   5.153
 2159SOL    HW1 7376   2.277   0.606   5.186
 2159SOL    HW2 7377   2.398   0.614   5.077
 2160SOL     OW 7378   2.714   2.550   0.794
 2160SOL    HW1 7379   2.716   2.627   0.857
 2160SOL    HW2 7380   2.764   2.574   0.710
 2161SOL     OW 7381   5.334   2.499   4.031
 2161SOL    HW1 7382   5.264   2.564   4.001
 2161SOL    HW2 7383   5.294   2.438   4.100
 2162SOL     OW 7384   2.075   1.213   1.330
 2162SOL    HW1 7385   2.135   1.272   1.277
 2162SOL    HW2 7386   2.127   1.133   1.362
 2163SOL     OW 7387   2.305   1.537   0.974
 2163SOL    HW1 7388   2.347   1.454   1.010
 2163SOL    HW2 7389   2.308   1.609   1.044
 2164SOL     OW 7390   6.678   0.483   1.355
 2164SOL    HW1 7391   6.767   0.511   1.320
 2164SOL    HW2 7392   6.668   0.516   1.449
 2165SOL     OW 7393   3.054   6.921   2.055
 2165SOL    HW1 7394   3.120   6.983   2.097
 2165SOL    HW2 7395   3.087   6.827   2.063
 2166SOL     OW 7396   5.593   2.533   6.051
 2166SOL    HW1 7397   5.630   2.607   5.995
 2166SOL    HW2 7398   5.638   2.447   6.026
 2167SOL     OW 7399   3.178   1.061   1.373
 2167SOL    HW1 7400   3.106   1.128   1.390
 2167SOL    HW2 7401   3.255   1.078   1.434
 2168SOL     OW 7402   5.847   6.644   4.476
 2168SOL    HW1 7403   5.921   6.709   4.464
 2168SOL    HW2 7404   5.861   6.591   4.560
 2169SOL     OW 7405   5.493   1.248   6.109
 2169SOL    HW1 7406   5.434   1.324   6.081
 2169SOL    HW2 7407   5.573   1.244   6.050
 2170SOL     OW 7408   5.247   4.751   4.539
 2170SOL    HW1 7409   5.320   4.786   4.481
 2170SOL    HW2 7410   5.181   4.701   4.483
 2171SOL     OW 7411   6.668   3.544   0.483
 2171SOL    HW1 7412   6.569   3.546   0.497
 2171SOL    HW2 7413   6.714   3.563   0.569
 2172SOL     OW 7414   2.416   0.471   1.882
 2172SOL    HW1 7415   2.405   0.427   1.793
 2172SOL    HW2 7416   2.346   0.542   1.893
 2173SOL     OW 7417   4.683   2.404   4.814
 2173SOL    HW1 7418   4.727   2.485   4.853
 2173SOL    HW2 7419   4.587   2.424   4.795
 2174SOL     OW 7420   1.225   5.289   4.968
 2174SOL    HW1 7421   1.195   5.194   4.972
 2174SOL    HW2 7422   1.229   5.319   4.873
 2175SOL     OW 7423   1.520   5.939   5.761
 2175SOL    HW1 7424   1.452   5.868   5.780
 2175SOL    HW2 7425   1.543   5.938   5.664
 2176SOL     OW 7426   1.716   2.403   2.684
 2176SOL    HW1 7427   1.665   2.317   2.690
 2176SOL    HW2 7428   1.814   2.383   2.676
 2177SOL     OW 7429   1.148   2.115   0.933
 2177SOL    HW1 7430   1.086   2.156   1.000
 2177SOL    HW2 7431   1.135   2.016   0.931
 2178SOL     OW 7432   6.295   6.498   1.017
 2178SOL    HW1 7433   6.285   6.440   1.098
 2178SOL    HW2 7434   6.371   6.561   1.031
 2179SOL     OW 7435   1.351   4.286   4.184
 2179SOL    HW1 7436   1.400   4.267   4.269
 2179SOL    HW2 7437   1.327   4.383   4.180
 2180SOL     OW 7438   3.344   2.545   1.589
 2180SOL    HW1 7439   3.268   2.610   1.593
 2180SOL    HW2 7440   3.327   2.470   1.652
 2181SOL     OW 7441   3.271   6.563   1.252
 2181SOL    HW1 7442   3.177   6.568   1.288
 2181SOL    HW2 7443   3.286   6.638   1.187
 2182SOL     OW 7444   4.830   2.851   1.104
 2182SOL    HW1 7445   4.922   2.890   1.110
 2182SOL    HW2 7446   4.763   2.926   1.095
 2183SOL     OW 7447   3.437   2.101   0.735
 2183SOL    HW1 7448   3.399   2.012   0.711
 2183SOL    HW2 7449   3.363   2.169   0.739
 2184SOL     OW 7450   5.062   3.605   6.617
 2184SOL    HW1 7451   4.976   3.622   6.665
 2184SOL    HW2 7452   5.056   3.518   6.567
 2185SOL     OW 7453   6.832   6.753   1.800
 2185SOL    HW1 7454   6.838   6.826   1.732
 2185SOL    HW2 7455   6.896   6.772   1.875
 2186SOL     OW 7456   0.392   4.368   3.367
 2186SOL    HW1 7457   0.468   4.426   3.337
 2186SOL    HW2 7458   0.329   4.353   3.291
 2187SOL     OW 7459   6.287   1.268   0.373
 2187SOL    HW1 7460   6.291   1.261   0.274
 2187SOL    HW2 7461   6.191   1.269   0.402
 2188SOL     OW 7462   4.612   1.181   3.965
 2188SOL    HW1 7463   4.642   1.219   3.878
 2188SOL    HW2 7464   4.667   1.220   4.039
 2189SOL     OW 7465   3.000   0.131   6.973
 2189SOL    HW1 7466   3.023   0.189   6.895
 2189SOL    HW2 7467   2.929   0.066   6.947
 2190SOL     OW 7468   5.041   3.050   0.990
 2190SOL    HW1 7469   5.081   3.141   0.990
 2190SOL    HW2 7470   4.955   3.050   0.939
 2191SOL     OW 7471   2.653   1.679   0.404
 2191SOL    HW1 7472   2.658   1.580   0.421
 2191SOL    HW2 7473   2.568   1.701   0.357
 2192SOL     OW 7474   4.075   5.454   2.660
 2192SOL    HW1 7475   3.990   5.496   2.627
 2192SOL    HW2 7476   4.085   5.363   2.620
 2193SOL     OW 7477   6.719   6.062   4.689
 2193SOL    HW1 7478   6.714   6.116   4.605
 2193SOL    HW2 7479   6.734   5.966   4.665
 2194SOL     OW 7480   2.836   0.045   1.985
 2194SOL    HW1 7481   2.913   0.002   2.032
 2194SOL    HW2 7482   2.864   0.072   1.893
 2195SOL     OW 7483   0.910   4.669   2.039
 2195SOL    HW1 7484   0.886   4.694   1.944
 2195SOL    HW2 7485   0.842   4.709   2.101
 2196SOL     OW 7486   4.241   3.344   0.650
 2196SOL    HW1 7487   4.155   3.395   0.659
 2196SOL    HW2 7488   4.220   3.250   0.622
 2197SOL     OW 7489   4.264   4.163   6.975
 2197SOL    HW1 7490   4.289   4.075   7.017
 2197SOL    HW2 7491   4.321   4.235   7.013
 2198SOL     OW 7492   6.548   4.496   0.604
 2198SOL    HW1 7493   6.452   4.474   0.623
 2198SOL    HW2 7494   6.601   4.411   0.598
 2199SOL     OW 7495   4.438   0.999   3.010
 2199SOL    HW1 7496   4.515   1.052   2.974
 2199SOL    HW2 7497   4.352   1.037   2.975
 2200SOL     OW 7498   2.853   6.820   4.296
 2200SOL    HW1 7499   2.834   6.841   4.392
 2200SOL    HW2 7500   2.848   6.722   4.282
 2201SOL     OW 7501   4.681   4.218   4.159
 2201SOL    HW1 7502   4.645   4.247   4.070
 2201SOL    HW2 7503   4.655   4.285   4.229
 2202SOL     OW 7504   4.759   5.601   3.701
 2202SOL    HW1 7505   4.672   5.553   3.694
 2202SOL    HW2 7506   4.834   5.538   3.680
 2203SOL     OW 7507   2.987   2.181   2.562
 2203SOL    HW1 7508   3.001   2.218   2.470
 2203SOL    HW2 7509   3.076   2.175   2.609
 2204SOL     OW 7510   2.660   2.385   0.321
 2204SOL    HW1 7511   2.579   2.420   0.274
 2204SOL    HW2 7512   2.706   2.460   0.369
 2205SOL     OW 7513   2.895   0.990   1.829
 2205SOL    HW1 7514   2.907   1.010   1.732
 2205SOL    HW2 7515   2.906   0.892   1.844
 2206SOL     OW 7516   1.828   3.045   0.303
 2206SOL    HW1 7517   1.782   3.124   0.263
 2206SOL    HW2 7518   1.885   3.074   0.380
 2207SOL     OW 7519   0.013   4.576   5.093
 2207SOL    HW1 7520   0.056   4.488   5.070
 2207SOL    HW2 7521   6.967   4.561   5.164
 2208SOL     OW 7522   6.634   4.810   2.441
 2208SOL    HW1 7523   6.724   4.792   2.480
 2208SOL    HW2 7524   6.628   4.906   2.413
 2209SOL     OW 7525   0.576   6.904   1.541
 2209SOL    HW1 7526   0.660   6.954   1.522
 2209SOL    HW2 7527   0.515   6.911   1.462
 2210SOL     OW 7528   2.033   5.212   3.684
 2210SOL    HW1 7529   1.939   5.181   3.675
 2210SOL    HW2 7530   2.092   5.156   3.626
 2211SOL     OW 7531   6.831   1.767   4.899
 2211SOL    HW1 7532   6.828   1.863   4.925
 2211SOL    HW2 7533   6.808   1.710   4.978
 2212SOL     OW 7534   1.920   6.616   6.274
 2212SOL    HW1 7535   1.839   6.670   6.252
 2212SOL    HW2 7536   1.938   6.551   6.200
 2213SOL     OW 7537   3.745   0.768   3.218
 2213SOL    HW1 7538   3.727   0.757   3.316
 2213SOL    HW2 7539   3.667   0.811   3.174
 2214SOL     OW 7540   4.261   0.089   5.246
 2214SOL    HW1 7541   4.208   0.053   5.170
 2214SOL    HW2 7542   4.200   0.108   5.323
 2215SOL     OW 7543   5.662   2.226   5.291
 2215SOL    HW1 7544   5.760   2.234   5.308
 2215SOL    HW2 7545   5.629   2.309   5.247
 2216SOL     OW 7546   3.074   1.089   2.347
 2216SOL    HW1 7547   3.171   1.091   2.325
 2216SOL    HW2 7548   3.034   1.180   2.330
 2217SOL     OW 7549   4.333   0.882   1.915
 2217SOL    HW1 7550   4.257   0.820   1.933
 2217SOL    HW2 7551   4.354   0.882   1.817
 2218SOL     OW 7552   0.739   0.272   2.975
 2218SOL    HW1 7553   0.727   0.175   2.992
 2218SOL    HW2 7554   0.795   0.313   3.047
 2219SOL     OW 7555   1.341   1.844   2.503
 2219SOL    HW1 7556   1.344   1.901   2.585
 2219SOL    HW2 7557   1.278   1.884   2.437
 2220SOL     OW 7558   1.019   0.637   1.909
 2220SOL    HW1 7559   1.097   0.579   1.885
 2220SOL    HW2 7560   1.052   0.727   1.938
 2221SOL     OW 7561   0.342   0.599   6.004
 2221SOL    HW1 7562   0.308   0.560   6.090
 2221SOL    HW2 7563   0.265   0.624   5.946
 2222SOL     OW 7564   6.537   5.283   3.665
 2222SOL    HW1 7565   6.556   5.365   3.610
 2222SOL    HW2 7566   6.453   5.240   3.634
 2223SOL     OW 7567   6.707   6.718   1.400
 2223SOL    HW1 7568   6.643   6.642   1.387
 2223SOL    HW2 7569   6.657   6.798   1.432
 2224SOL     OW 7570   1.051   5.053   0.993
 2224SOL    HW1 7571   1.086   5.147   0.983
 2224SOL    HW2 7572   0.966   5.055   1.045
 2225SOL     OW 7573   0.566   3.751   0.684
 2225SOL    HW1 7574   0.635   3.754   0.611
 2225SOL    HW2 7575   0.578   3.829   0.745
 2226SOL     OW 7576   3.641   3.739   2.806
 2226SOL    HW1 7577   3.696   3.815   2.842
 2226SOL    HW2 7578   3.600   3.767   2.719
 2227SOL     OW 7579   0.904   2.464   3.849
 2227SOL    HW1 7580   0.950   2.553   3.856
 2227SOL    HW2 7581   0.837   2.467   3.774
 2228SOL     OW 7582   2.774   4.734   3.841
 2228SOL    HW1 7583   2.858   4.699   3.799
 2228SOL    HW2 7584   2.783   4.731   3.941
 2229SOL     OW 7585   5.781   6.414   2.884
 2229SOL    HW1 7586   5.771   6.487   2.816
 2229SOL    HW2 7587   5.874   6.413   2.919
 2230SOL     OW 7588   2.695   5.358   1.796
 2230SOL    HW1 7589   2.609   5.374   1.748
 2230SOL    HW2 7590   2.761   5.429   1.769
 2231SOL     OW 7591   1.972   6.047   1.035
 2231SOL    HW1 7592   1.898   5.997   1.080
 2231SOL    HW2 7593   2.032   6.086   1.104
 2232SOL     OW 7594   5.542   2.719   3.827
 2232SOL    HW1 7595   5.560   2.809   3.866
 2232SOL    HW2 7596   5.599   2.650   3.873
 2233SOL     OW 7597   3.286   1.023   6.511
 2233SOL    HW1 7598   3.336   1.042   6.426
 2233SOL    HW2 7599   3.190   1.006   6.489
 2234SOL     OW 7600   3.634   2.430   1.070
 2234SOL    HW1 7601   3.616   2.367   1.146
 2234SOL    HW2 7602   3.562   2.420   1.001
 2235SOL     OW 7603   2.082   1.797   1.878
 2235SOL    HW1 7604   2.175   1.788   1.843
 2235SOL    HW2 7605   2.079   1.873   1.943
 2236SOL     OW 7606   1.117   4.842   5.476
 2236SOL    HW1 7607   1.213   4.867   5.460
 2236SOL    HW2 7608   1.109   4.798   5.565
 2237SOL     OW 7609   6.609   3.046   4.532
 2237SOL    HW1 7610   6.638   3.094   4.449
 2237SOL    HW2 7611   6.528   2.991   4.511
 2238SOL     OW 7612   5.944   6.749   0.478
 2238SOL    HW1 7613   5.972   6.772   0.385
 2238SOL    HW2 7614   5.845   6.736   0.482
 2239SOL     OW 7615   6.276   6.042   1.829
 2239SOL    HW1 7616   6.223   5.977   1.883
 2239SOL    HW2 7617   6.346   5.993   1.777
 2240SOL     OW 7618   6.329   3.798   2.049
 2240SOL    HW1 7619   6.394   3.744   2.102
 2240SOL    HW2 7620   6.349   3.896   2.061
 2241SOL     OW 7621   1.258   0.764   3.530
 2241SOL    HW1 7622   1.225   0.704   3.604
 2241SOL    HW2 7623   1.261   0.712   3.445
 2242SOL     OW 7624   3.557   1.824   2.309
 2242SOL    HW1 7625   3.614   1.901   2.336
 2242SOL    HW2 7626   3.563   1.811   2.210
 2243SOL     OW 7627   2.884   0.036   5.015
 2243SOL    HW1 7628   2.907   6.974   4.968
 2243SOL    HW2 7629   2.786   0.055   5.002
 2244SOL     OW 7630   3.563   1.196   4.839
 2244SOL    HW1 7631   3.597   1.102   4.846
 2244SOL    HW2 7632   3.603   1.239   4.758
 2245SOL     OW 7633   0.422   2.242   1.711
 2245SOL    HW1 7634   0.492   2.187   1.665
 2245SOL    HW2 7635   0.396   2.197   1.797
 2246SOL     OW 7636   0.926   4.733   5.273
 2246SOL    HW1 7637   0.834   4.755   5.306
 2246SOL    HW2 7638   0.993   4.791   5.321
 2247SOL     OW 7639   1.626   1.270   4.721
 2247SOL    HW1 7640   1.713   1.320   4.720
 2247SOL    HW2 7641   1.641   1.178   4.756
 2248SOL     OW 7642   4.117   3.927   5.597
 2248SOL    HW1 7643   4.021   3.946   5.578
 2248SOL    HW2 7644   4.143   3.838   5.559
 2249SOL     OW 7645   4.179   5.409   5.625
 2249SOL    HW1 7646   4.087   5.369   5.630
 2249SOL    HW2 7647   4.246   5.345   5.662
 2250SOL     OW 7648   4.518   4.843   1.374
 2250SOL    HW1 7649   4.445   4.775   1.380
 2250SOL    HW2 7650   4.539   4.877   1.466
 2251SOL     OW 7651   0.250   0.573   6.509
 2251SOL    HW1 7652   0.206   0.654   6.470
 2251SOL    HW2 7653   0.289   0.597   6.598
 2252SOL     OW 7654   3.064   0.484   6.230
 2252SOL    HW1 7655   3.094   0.399   6.273
 2252SOL    HW2 7656   3.091   0.483   6.133
 2253SOL     OW 7657   1.114   4.074   6.750
 2253SOL    HW1 7658   1.118   4.094   6.848
 2253SOL    HW2 7659   1.060   3.991   6.735
 2254SOL     OW 7660   1.774   4.602   6.281
 2254SOL    HW1 7661   1.676   4.585   6.295
 2254SOL    HW2 7662   1.807   4.665   6.352
 2255SOL     OW 7663   6.289   3.354   6.636
 2255SOL    HW1 7664   6.271   3.364   6.734
 2255SOL    HW2 7665   6.203   3.358   6.585
 2256SOL     OW 7666   2.584   4.619   2.176
 2256SOL    HW1 7667   2.584   4.710   2.218
 2256SOL    HW2 7668   2.670   4.606   2.126
 2257SOL     OW 7669   1.831   3.660   4.994
 2257SOL    HW1 7670   1.851   3.748   4.949
 2257SOL    HW2 7671   1.914   3.627   5.039
 2258SOL     OW 7672   2.332   5.210   4.976
 2258SOL    HW1 7673   2.295   5.264   5.052
 2258SOL    HW2 7674   2.269   5.216   4.898
 2259SOL     OW 7675   6.078   3.385   6.416
 2259SOL    HW1 7676   6.163   3.391   6.364
 2259SOL    HW2 7677   6.027   3.304   6.387
 2260SOL     OW 7678   4.248   3.043   0.974
 2260SOL    HW1 7679   4.293   2.993   1.048
 2260SOL    HW2 7680   4.150   3.050   0.994
 2261SOL     OW 7681   2.852   6.140   4.949
 2261SOL    HW1 7682   2.797   6.057   4.949
 2261SOL    HW2 7683   2.872   6.167   4.855
 2262SOL     OW 7684   3.691   1.640   2.995
 2262SOL    HW1 7685   3.781   1.684   2.987
 2262SOL    HW2 7686   3.652   1.660   3.085
 2263SOL     OW 7687   1.018   4.268   5.989
 2263SOL    HW1 7688   1.048   4.339   6.052
 2263SOL    HW2 7689   0.932   4.228   6.023
 2264SOL     OW 7690   3.214   3.691   3.464
 2264SOL    HW1 7691   3.125   3.715   3.426
 2264SOL    HW2 7692   3.266   3.775   3.481
 2265SOL     OW 7693   0.288   6.718   3.561
 2265SOL    HW1 7694   0.306   6.628   3.523
 2265SOL    HW2 7695   0.342   6.787   3.513
 2266SOL     OW 7696   6.312   0.621   5.937
 2266SOL    HW1 7697   6.360   0.553   5.881
 2266SOL    HW2 7698   6.226   0.646   5.893
 2267SOL     OW 7699   5.283   1.925   4.924
 2267SOL    HW1 7700   5.301   1.891   4.831
 2267SOL    HW2 7701   5.370   1.936   4.972
 2268SOL     OW 7702   6.918   5.698   6.881
 2268SOL    HW1 7703   6.893   5.795   6.880
 2268SOL    HW2 7704   6.882   5.654   6.799
 2269SOL     OW 7705   0.168   6.801   2.675
 2269SOL    HW1 7706   0.207   6.884   2.714
 2269SOL    HW2 7707   0.134   6.742   2.748
 2270SOL     OW 7708   3.642   2.851   3.453
 2270SOL    HW1 7709   3.689   2.937   3.472
 2270SOL    HW2 7710   3.676   2.812   3.368
 2271SOL     OW 7711   1.137   4.554   3.345
 2271SOL    HW1 7712   1.226   4.598   3.337
 2271SOL    HW2 7713   1.134   4.499   3.429
 2272SOL     OW 7714   5.009   1.239   5.743
 2272SOL    HW1 7715   5.012   1.286   5.831
 2272SOL    HW2 7716   5.030   1.303   5.669
 2273SOL     OW 7717   0.477   1.001   2.678
 2273SOL    HW1 7718   0.543   1.014   2.605
 2273SOL    HW2 7719   0.524   0.997   2.766
 2274SOL     OW 7720   1.127   4.399   3.576
 2274SOL    HW1 7721   1.128   4.306   3.538
 2274SOL    HW2 7722   1.106   4.394   3.674
 2275SOL     OW 7723   4.963   6.342   4.076
 2275SOL    HW1 7724   5.060   6.355   4.055
 2275SOL    HW2 7725   4.909   6.413   4.031
 2276SOL     OW 7726   3.470   5.690   2.318
 2276SOL    HW1 7727   3.398   5.755   2.342
 2276SOL    HW2 7728   3.462   5.666   2.221
 2277SOL     OW 7729   3.403   3.195   1.371
 2277SOL    HW1 7730   3.443   3.279   1.334
 2277SOL    HW2 7731   3.450   3.116   1.331
 2278SOL     OW 7732   4.118   5.843   1.750
 2278SOL    HW1 7733   4.186   5.852   1.677
 2278SOL    HW2 7734   4.035   5.892   1.725
 2279SOL     OW 7735   5.583   4.015   5.842
 2279SOL    HW1 7736   5.671   3.974   5.818
 2279SOL    HW2 7737   5.592   4.065   5.928
 2280SOL     OW 7738   5.218   0.356   5.983
 2280SOL    HW1 7739   5.263   0.368   5.894
 2280SOL    HW2 7740   5.287   0.362   6.055
 2281SOL     OW 7741   2.185   1.217   0.319
 2281SOL    HW1 7742   2.229   1.143   0.266
 2281SOL    HW2 7743   2.244   1.298   0.317
 2282SOL     OW 7744   3.930   6.124   2.695
 2282SOL    HW1 7745   3.856   6.072   2.651
 2282SOL    HW2 7746   4.000   6.146   2.628
 2283SOL     OW 7747   0.814   3.546   1.847
 2283SOL    HW1 7748   0.876   3.622   1.828
 2283SOL    HW2 7749   0.861   3.459   1.830
 2284SOL     OW 7750   2.073   2.025   2.041
 2284SOL    HW1 7751   2.139   2.076   1.986
 2284SOL    HW2 7752   1.981   2.058   2.023
 2285SOL     OW 7753   1.696   3.597   6.345
 2285SOL    HW1 7754   1.706   3.503   6.379
 2285SOL    HW2 7755   1.602   3.610   6.313
 2286SOL     OW 7756   6.746   6.580   4.526
 2286SOL    HW1 7757   6.812   6.568   4.453
 2286SOL    HW2 7758   6.788   6.631   4.601
 2287SOL     OW 7759   2.322   2.024   0.522
 2287SOL    HW1 7760   2.306   2.013   0.621
 2287SOL    HW2 7761   2.253   1.971   0.472
 2288SOL     OW 7762   2.552   5.727   4.628
 2288SOL    HW1 7763   2.576   5.631   4.643
 2288SOL    HW2 7764   2.511   5.764   4.711
 2289SOL     OW 7765   3.430   0.709   6.915
 2289SOL    HW1 7766   3.519   0.664   6.906
 2289SOL    HW2 7767   3.413   0.766   6.835
 2290SOL     OW 7768   3.307   3.838   4.303
 2290SOL    HW1 7769   3.263   3.764   4.354
 2290SOL    HW2 7770   3.386   3.872   4.354
 2291SOL     OW 7771   2.099   2.561   0.053
 2291SOL    HW1 7772   2.194   2.566   0.023
 2291SOL    HW2 7773   2.095   2.570   0.152
 2292SOL     OW 7774   4.781   1.889   3.168
 2292SOL    HW1 7775   4.752   1.938   3.250
 2292SOL    HW2 7776   4.758   1.942   3.087
 2293SOL     OW 7777   0.692   1.369   6.441
 2293SOL    HW1 7778   0.719   1.457   6.404
 2293SOL    HW2 7779   0.770   1.306   6.436
 2294SOL     OW 7780   6.785   1.557   5.083
 2294SOL    HW1 7781   6.710   1.519   5.137
 2294SOL    HW2 7782   6.853   1.487   5.067
 2295SOL     OW 7783   5.447   5.810   0.685
 2295SOL    HW1 7784   5.523   5.874   0.674
 2295SOL    HW2 7785   5.478   5.717   0.665
 2296SOL     OW 7786   3.625   5.577   4.570
 2296SOL    HW1 7787   3.671   5.590   4.482
 2296SOL    HW2 7788   3.690   5.542   4.637
 2297SOL     OW 7789   6.300   3.534   5.897
 2297SOL    HW1 7790   6.331   3.442   5.921
 2297SOL    HW2 7791   6.242   3.569   5.970
 2298SOL     OW 7792   2.610   3.273   5.347
 2298SOL    HW1 7793   2.558   3.358   5.338
 2298SOL    HW2 7794   2.570   3.203   5.289
 2299SOL     OW 7795   5.893   3.628   4.747
 2299SOL    HW1 7796   5.849   3.560   4.806
 2299SOL    HW2 7797   5.869   3.610   4.652
 2300SOL     OW 7798   5.338   0.057   2.945
 2300SOL    HW1 7799   5.350   0.126   2.874
 2300SOL    HW2 7800   5.415   0.059   3.008
 2301SOL     OW 7801   3.685   3.253   5.028
 2301SOL    HW1 7802   3.627   3.270   5.108
 2301SOL    HW2 7803   3.637   3.280   4.945
 2302SOL     OW 7804   6.304   3.013   6.077
 2302SOL    HW1 7805   6.237   3.077   6.038
 2302SOL    HW2 7806   6.330   3.044   6.168
 2303SOL     OW 7807   2.792   1.544   6.589
 2303SOL    HW1 7808   2.877   1.531   6.639
 2303SOL    HW2 7809   2.774   1.463   6.532
 2304SOL     OW 7810   6.494   0.137   2.229
 2304SOL    HW1 7811   6.414   0.082   2.253
 2304SOL    HW2 7812   6.576   0.079   2.230
 2305SOL     OW 7813   2.936   6.834   5.204
 2305SOL    HW1 7814   2.977   6.774   5.135
 2305SOL    HW2 7815   2.919   6.924   5.164
 2306SOL     OW 7816   1.827   4.558   4.897
 2306SOL    HW1 7817   1.838   4.626   4.825
 2306SOL    HW2 7818   1.841   4.467   4.859
 2307SOL     OW 7819   0.049   3.972   4.732
 2307SOL    HW1 7820   0.064   3.935   4.640
 2307SOL    HW2 7821   0.026   3.897   4.794
 2308SOL     OW 7822   0.667   5.464   2.208
 2308SOL    HW1 7823   0.726   5.505   2.139
 2308SOL    HW2 7824   0.709   5.473   2.298
 2309SOL     OW 7825   2.212   0.662   4.746
 2309SOL    HW1 7826   2.154   0.738   4.717
 2309SOL    HW2 7827   2.220   0.596   4.670
 2310SOL     OW 7828   4.312   6.914   0.360
 2310SOL    HW1 7829   4.383   6.982   0.377
 2310SOL    HW2 7830   4.225   6.946   0.397
 2311SOL     OW 7831   2.423   5.560   0.707
 2311SOL    HW1 7832   2.456   5.470   0.736
 2311SOL    HW2 7833   2.420   5.621   0.785
 2312SOL     OW 7834   3.700   4.888   2.758
 2312SOL    HW1 7835   3.690   4.955   2.832
 2312SOL    HW2 7836   3.797   4.879   2.735
 2313SOL     OW 7837   4.851   4.533   1.727
 2313SOL    HW1 7838   4.914   4.521   1.804
 2313SOL    HW2 7839   4.757   4.525   1.760
 2314SOL     OW 7840   2.537   4.566   3.604
 2314SOL    HW1 7841   2.544   4.567   3.704
 2314SOL    HW2 7842   2.605   4.628   3.565
 2315SOL     OW 7843   4.873   2.075   0.022
 2315SOL    HW1 7844   4.776   2.097   0.031
 2315SOL    HW2 7845   4.886   2.019   6.963
 2316SOL     OW 7846   5.011   3.453   2.217
 2316SOL    HW1 7847   4.967   3.381   2.164
 2316SOL    HW2 7848   5.108   3.433   2.228
 2317SOL     OW 7849   0.657   6.185   3.546
 2317SOL    HW1 7850   0.591   6.253   3.577
 2317SOL    HW2 7851   0.658   6.184   3.446
 2318SOL     OW 7852   0.380   1.671   3.954
 2318SOL    HW1 7853   0.338   1.585   3.984
 2318SOL    HW2 7854   0.318   1.719   3.892
 2319SOL     OW 7855   1.364   4.807   1.640
 2319SOL    HW1 7856   1.321   4.749   1.571
 2319SOL    HW2 7857   1.294   4.868   1.679
 2320SOL     OW 7858   6.502   4.684   4.632
 2320SOL    HW1 7859   6.557   4.732   4.564
 2320SOL    HW2 7860   6.454   4.751   4.688
 2321SOL     OW 7861   3.887   5.186   4.290
 2321SOL    HW1 7862   3.986   5.177   4.278
 2321SOL    HW2 7863   3.850   5.244   4.217
 2322SOL     OW 7864   2.782   0.641   4.530
 2322SOL    HW1 7865   2.742   0.714   4.474
 2322SOL    HW2 7866   2.846   0.588   4.474
 2323SOL     OW 7867   4.909   3.388   1.885
 2323SOL    HW1 7868   4.895   3.291   1.909
 2323SOL    HW2 7869   5.003   3.414   1.906
 2324SOL     OW 7870   0.737   4.971   3.978
 2324SOL    HW1 7871   0.696   5.058   3.952
 2324SOL    HW2 7872   0.820   4.987   4.031
 2325SOL     OW 7873   0.165   2.552   0.405
 2325SOL    HW1 7874   0.250   2.573   0.453
 2325SOL    HW2 7875   0.143   2.627   0.342
 2326SOL     OW 7876   0.705   4.495   0.332
 2326SOL    HW1 7877   0.795   4.537   0.318
 2326SOL    HW2 7878   0.703   4.452   0.422
 2327SOL     OW 7879   5.038   1.006   3.525
 2327SOL    HW1 7880   5.062   0.930   3.586
 2327SOL    HW2 7881   4.949   1.043   3.551
 2328SOL     OW 7882   6.331   5.377   4.070
 2328SOL    HW1 7883   6.295   5.371   4.163
 2328SOL    HW2 7884   6.257   5.361   4.004
 2329SOL     OW 7885   1.244   5.752   3.636
 2329SOL    HW1 7886   1.275   5.677   3.693
 2329SOL    HW2 7887   1.323   5.801   3.598
 2330SOL     OW 7888   1.105   4.544   0.577
 2330SOL    HW1 7889   1.058   4.601   0.645
 2330SOL    HW2 7890   1.077   4.449   0.587
 2331SOL     OW 7891   1.055   4.592   5.067
 2331SOL    HW1 7892   1.031   4.495   5.073
 2331SOL    HW2 7893   1.013   4.642   5.143
 2332SOL     OW 7894   5.524   3.256   5.878
 2332SOL    HW1 7895   5.615   3.292   5.864
 2332SOL    HW2 7896   5.530   3.158   5.900
 2333SOL     OW 7897   2.681   4.837   3.611
 2333SOL    HW1 7898   2.709   4.927   3.580
 2333SOL    HW2 7899   2.739   4.808   3.687
 2334SOL     OW 7900   2.588   0.273   6.205
 2334SOL    HW1 7901   2.566   0.336   6.279
 2334SOL    HW2 7902   2.505   0.255   6.151
 2335SOL     OW 7903   4.595   4.473   4.580
 2335SOL    HW1 7904   4.536   4.507   4.652
 2335SOL    HW2 7905   4.589   4.373   4.576
 2336SOL     OW 7906   4.407   2.683   5.812
 2336SOL    HW1 7907   4.311   2.696   5.838
 2336SOL    HW2 7908   4.434   2.756   5.749
 2337SOL     OW 7909   6.084   0.439   4.483
 2337SOL    HW1 7910   6.159   0.473   4.426
 2337SOL    HW2 7911   6.056   0.349   4.449
 2338SOL     OW 7912   1.820   0.158   6.738
 2338SOL    HW1 7913   1.897   0.165   6.675
 2338SOL    HW2 7914   1.806   0.063   6.764
 2339SOL     OW 7915   4.182   5.380   0.358
 2339SOL    HW1 7916   4.109   5.315   0.340
 2339SOL    HW2 7917   4.169   5.462   0.302
 2340SOL     OW 7918   3.459   5.257   4.374
 2340SOL    HW1 7919   3.464   5.350   4.338
 2340SOL    HW2 7920   3.551   5.222   4.389
 2341SOL     OW 7921   5.842   5.173   6.447
 2341SOL    HW1 7922   5.804   5.093   6.400
 2341SOL    HW2 7923   5.805   5.176   6.540
 2342SOL     OW 7924   6.841   0.771   5.229
 2342SOL    HW1 7925   6.826   0.722   5.144
 2342SOL    HW2 7926   6.889   0.711   5.294
 2343SOL     OW 7927   0.940   0.133   0.364
 2343SOL    HW1 7928   0.915   0.052   0.415
 2343SOL    HW2 7929   1.016   0.180   0.410
 2344SOL     OW 7930   2.488   0.711   2.804
 2344SOL    HW1 7931   2.550   0.783   2.835
 2344SOL    HW2 7932   2.531   0.658   2.731
 2345SOL     OW 7933   1.062   1.942   2.042
 2345SOL    HW1 7934   1.052   2.041   2.029
 2345SOL    HW2 7935   1.004   1.893   1.978
 2346SOL     OW 7936   4.596   3.169   5.407
 2346SOL    HW1 7937   4.649   3.251   5.386
 2346SOL    HW2 7938   4.654   3.088   5.398
 2347SOL     OW 7939   2.060   3.334   0.975
 2347SOL    HW1 7940   2.004   3.303   0.898
 2347SOL    HW2 7941   2.004   3.388   1.038
 2348SOL     OW 7942   2.282   6.646   1.652
 2348SOL    HW1 7943   2.283   6.602   1.563
 2348SOL    HW2 7944   2.341   6.727   1.650
 2349SOL     OW 7945   4.770   3.732   0.102
 2349SOL    HW1 7946   4.672   3.731   0.117
 2349SOL    HW2 7947   4.790   3.761   0.008
 2350SOL     OW 7948   2.363   6.317   5.194
 2350SOL    HW1 7949   2.358   6.404   5.147
 2350SOL    HW2 7950   2.413   6.251   5.139
 2351SOL     OW 7951   1.660   5.236   3.113
 2351SOL    HW1 7952   1.632   5.201   3.202
 2351SOL    HW2 7953   1.588   5.295   3.077
 2352SOL     OW 7954   5.933   5.001   0.902
 2352SOL    HW1 7955   5.875   4.921   0.887
 2352SOL    HW2 7956   5.935   5.057   0.820
 2353SOL     OW 7957   2.310   3.615   6.201
 2353SOL    HW1 7958   2.381   3.637   6.134
 2353SOL    HW2 7959   2.225   3.663   6.176
 2354SOL     OW 7960   4.596   1.844   2.360
 2354SOL    HW1 7961   4.573   1.909   2.287
 2354SOL    HW2 7962   4.622   1.895   2.443
 2355SOL     OW 7963   0.189   1.625   1.735
 2355SOL    HW1 7964   0.123   1.598   1.664
 2355SOL    HW2 7965   0.209   1.722   1.727
 2356SOL     OW 7966   2.944   5.238   3.762
 2356SOL    HW1 7967   2.910   5.230   3.855
 2356SOL    HW2 7968   3.035   5.279   3.763
 2357SOL     OW 7969   1.350   4.654   0.817
 2357SOL    HW1 7970   1.313   4.567   0.785
 2357SOL    HW2 7971   1.385   4.644   0.910
 2358SOL     OW 7972   3.252   0.890   5.111
 2358SOL    HW1 7973   3.343   0.930   5.103
 2358SOL    HW2 7974   3.197   0.944   5.174
 2359SOL     OW 7975   2.057   2.113   5.644
 2359SOL    HW1 7976   2.099   2.029   5.612
 2359SOL    HW2 7977   1.963   2.119   5.608
 2360SOL     OW 7978   3.329   5.175   0.789
 2360SOL    HW1 7979   3.258   5.220   0.735
 2360SOL    HW2 7980   3.296   5.160   0.882
 2361SOL     OW 7981   3.743   5.649   1.091
 2361SOL    HW1 7982   3.660   5.633   1.038
 2361SOL    HW2 7983   3.743   5.743   1.125
 2362SOL     OW 7984   3.630   4.910   3.853
 2362SOL    HW1 7985   3.632   4.853   3.935
 2362SOL    HW2 7986   3.607   5.004   3.878
 2363SOL     OW 7987   2.069   3.719   1.177
 2363SOL    HW1 7988   2.017   3.732   1.262
 2363SOL    HW2 7989   2.114   3.804   1.152
 2364SOL     OW 7990   3.988   1.472   2.327
 2364SOL    HW1 7991   3.923   1.508   2.259
 2364SOL    HW2 7992   3.968   1.512   2.416
 2365SOL     OW 7993   5.313   4.428   2.966
 2365SOL    HW1 7994   5.390   4.488   2.990
 2365SOL    HW2 7995   5.307   4.354   3.033
 2366SOL     OW 7996   2.845   5.345   5.074
 2366SOL    HW1 7997   2.836   5.282   5.152
 2366SOL    HW2 7998   2.851   5.439   5.108
 2367SOL     OW 7999   5.705   5.195   5.869
 2367SOL    HW1 8000   5.714   5.132   5.792
 2367SOL    HW2 8001   5.757   5.279   5.849
 2368SOL     OW 8002   5.163   0.871   5.236
 2368SOL    HW1 8003   5.180   0.783   5.281
 2368SOL    HW2 8004   5.236   0.935   5.260
 2369SOL     OW 8005   3.771   2.112   4.002
 2369SOL    HW1 8006   3.745   2.022   3.966
 2369SOL    HW2 8007   3.696   2.151   4.054
 2370SOL     OW 8008   5.491   2.042   1.693
 2370SOL    HW1 8009   5.429   2.011   1.766
 2370SOL    HW2 8010   5.511   1.966   1.632
 2371SOL     OW 8011   1.101   6.197   2.044
 2371SOL    HW1 8012   1.118   6.294   2.028
 2371SOL    HW2 8013   1.184   6.145   2.026
 2372SOL     OW 8014   6.898   0.579   6.014
 2372SOL    HW1 8015   6.875   0.521   5.936
 2372SOL    HW2 8016   6.817   0.591   6.071
 2373SOL     OW 8017   6.068   4.576   5.937
 2373SOL    HW1 8018   6.115   4.565   5.850
 2373SOL    HW2 8019   6.134   4.604   6.007
 2374SOL     OW 8020   6.643   6.267   2.081
 2374SOL    HW1 8021   6.598   6.248   2.168
 2374SOL    HW2 8022   6.625   6.362   2.055
 2375SOL     OW 8023   1.615   0.294   4.006
 2375SOL    HW1 8024   1.640   0.315   4.100
 2375SOL    HW2 8025   1.681   0.335   3.943
 2376SOL     OW 8026   5.133   2.364   3.384
 2376SOL    HW1 8027   5.077   2.447   3.380
 2376SOL    HW2 8028   5.074   2.284   3.378
 2377SOL     OW 8029   4.104   3.699   5.938
 2377SOL    HW1 8030   4.058   3.776   5.895
 2377SOL    HW2 8031   4.098   3.619   5.879
 2378SOL     OW 8032   0.587   0.997   0.473
 2378SOL    HW1 8033   0.564   1.084   0.517
 2378SOL    HW2 8034   0.510   0.934   0.481
 2379SOL     OW 8035   0.424   5.169   2.735
 2379SOL    HW1 8036   0.487   5.169   2.657
 2379SOL    HW2 8037   0.475   5.187   2.819
 2380SOL     OW 8038   4.341   5.873   6.632
 2380SOL    HW1 8039   4.403   5.895   6.557
 2380SOL    HW2 8040   4.281   5.952   6.649
 2381SOL     OW 8041   2.123   3.435   3.906
 2381SOL    HW1 8042   2.117   3.415   3.809
 2381SOL    HW2 8043   2.139   3.351   3.957
 2382SOL     OW 8044   0.220   5.467   3.102
 2382SOL    HW1 8045   0.138   5.460   3.159
 2382SOL    HW2 8046   0.277   5.387   3.115
 2383SOL     OW 8047   4.478   4.068   5.792
 2383SOL    HW1 8048   4.501   4.156   5.751
 2383SOL    HW2 8049   4.396   4.032   5.747
 2384SOL     OW 8050   0.297   2.153   2.210
 2384SOL    HW1 8051   0.269   2.117   2.299
 2384SOL    HW2 8052   0.286   2.253   2.209
 2385SOL     OW 8053   0.322   0.901   6.957
 2385SOL    HW1 8054   0.290   0.814   6.919
 2385SOL    HW2 8055   0.327   0.969   6.884
 2386SOL     OW 8056   5.922   5.788   4.621
 2386SOL    HW1 8057   5.883   5.801   4.712
 2386SOL    HW2 8058   6.020   5.769   4.629
 2387SOL     OW 8059   0.900   0.857   3.930
 2387SOL    HW1 8060   0.829   0.902   3.985
 2387SOL    HW2 8061   0.935   0.777   3.979
 2388SOL     OW 8062   0.765   3.505   5.812
 2388SOL    HW1 8063   0.773   3.532   5.716
 2388SOL    HW2 8064   0.840   3.546   5.864
 2389SOL     OW 8065   4.106   5.435   3.343
 2389SOL    HW1 8066   4.174   5.382   3.393
 2389SOL    HW2 8067   4.057   5.375   3.280
 2390SOL     OW 8068   5.158   2.482   6.359
 2390SOL    HW1 8069   5.096   2.511   6.287
 2390SOL    HW2 8070   5.252   2.509   6.335
 2391SOL     OW 8071   3.132   3.714   6.872
 2391SOL    HW1 8072   3.137   3.698   6.971
 2391SOL    HW2 8073   3.161   3.808   6.852
 2392SOL     OW 8074   3.826   4.927   5.860
 2392SOL    HW1 8075   3.766   5.006   5.865
 2392SOL    HW2 8076   3.854   4.912   5.765
 2393SOL     OW 8077   3.786   4.248   0.561
 2393SOL    HW1 8078   3.784   4.341   0.598
 2393SOL    HW2 8079   3.743   4.246   0.471
 2394SOL     OW 8080   6.330   1.503   3.882
 2394SOL    HW1 8081   6.234   1.505   3.909
 2394SOL    HW2 8082   6.381   1.572   3.933
 2395SOL     OW 8083   1.462   3.026   3.879
 2395SOL    HW1 8084   1.467   3.123   3.900
 2395SOL    HW2 8085   1.500   3.009   3.788
 2396SOL     OW 8086   6.657   0.297   6.439
 2396SOL    HW1 8087   6.651   0.253   6.528
 2396SOL    HW2 8088   6.735   0.360   6.439
 2397SOL     OW 8089   2.148   4.427   5.176
 2397SOL    HW1 8090   2.176   4.446   5.270
 2397SOL    HW2 8091   2.090   4.501   5.143
 2398SOL     OW 8092   4.237   6.261   4.232
 2398SOL    HW1 8093   4.265   6.242   4.138
 2398SOL    HW2 8094   4.304   6.324   4.274
 2399SOL     OW 8095   3.197   1.693   2.602
 2399SOL    HW1 8096   3.160   1.775   2.558
 2399SOL    HW2 8097   3.281   1.665   2.556
 2400SOL     OW 8098   1.573   3.278   0.267
 2400SOL    HW1 8099   1.616   3.262   0.178
 2400SOL    HW2 8100   1.482   3.237   0.268
 2401SOL     OW 8101   2.102   6.110   6.795
 2401SOL    HW1 8102   2.005   6.088   6.785
 2401SOL    HW2 8103   2.146   6.111   6.705
 2402SOL     OW 8104   1.186   4.093   2.285
 2402SOL    HW1 8105   1.170   4.147   2.368
 2402SOL    HW2 8106   1.134   4.008   2.289
 2403SOL     OW 8107   2.943   3.781   5.410
 2403SOL    HW1 8108   2.897   3.859   5.367
 2403SOL    HW2 8109   3.033   3.809   5.442
 2404SOL     OW 8110   6.230   1.396   1.301
 2404SOL    HW1 8111   6.318   1.379   1.257
 2404SOL    HW2 8112   6.175   1.457   1.244
 2405SOL     OW 8113   2.005   2.946   0.526
 2405SOL    HW1 8114   2.061   3.016   0.481
 2405SOL    HW2 8115   2.001   2.965   0.624
 2406SOL     OW 8116   3.746   5.384   4.706
 2406SOL    HW1 8117   3.845   5.379   4.694
 2406SOL    HW2 8118   3.716   5.306   4.761
 2407SOL     OW 8119   2.532   2.045   3.109
 2407SOL    HW1 8120   2.467   1.999   3.048
 2407SOL    HW2 8121   2.580   1.976   3.163
 2408SOL     OW 8122   3.253   0.132   5.782
 2408SOL    HW1 8123   3.187   0.184   5.728
 2408SOL    HW2 8124   3.238   0.034   5.766
 2409SOL     OW 8125   0.842   2.966   0.356
 2409SOL    HW1 8126   0.850   3.064   0.375
 2409SOL    HW2 8127   0.748   2.937   0.372
 2410SOL     OW 8128   6.937   3.424   4.336
 2410SOL    HW1 8129   6.883   3.395   4.415
 2410SOL    HW2 8130   6.998   3.349   4.309
 2411SOL     OW 8131   3.003   1.714   0.026
 2411SOL    HW1 8132   2.958   1.723   6.961
 2411SOL    HW2 8133   2.938   1.732   0.100
 2412SOL     OW 8134   3.378   2.088   5.989
 2412SOL    HW1 8135   3.364   2.181   5.955
 2412SOL    HW2 8136   3.292   2.051   6.022
 2413SOL     OW 8137   0.392   3.784   6.822
 2413SOL    HW1 8138   0.474   3.744   6.781
 2413SOL    HW2 8139   0.311   3.746   6.778
 2414SOL     OW 8140   0.001   1.407   5.286
 2414SOL    HW1 8141   0.020   1.455   5.372
 2414SOL    HW2 8142   6.992   1.315   5.306
 2415SOL     OW 8143   3.144   4.871   6.487
 2415SOL    HW1 8144   3.195   4.843   6.407
 2415SOL    HW2 8145   3.119   4.968   6.479
 2416SOL     OW 8146   0.122   2.549   2.863
 2416SOL    HW1 8147   0.203   2.607   2.868
 2416SOL    HW2 8148   0.095   2.522   2.956
 2417SOL     OW 8149   3.538   2.239   1.245
 2417SOL    HW1 8150   3.478   2.295   1.303
 2417SOL    HW2 8151   3.528   2.143   1.271
 2418SOL     OW 8152   5.142   3.897   0.033
 2418SOL    HW1 8153   5.226   3.927   0.078
 2418SOL    HW2 8154   5.063   3.941   0.076
 2419SOL     OW 8155   3.117   0.984   3.003
 2419SOL    HW1 8156   3.203   1.029   3.025
 2419SOL    HW2 8157   3.046   1.053   2.986
 2420SOL     OW 8158   1.515   3.747   2.821
 2420SOL    HW1 8159   1.570   3.828   2.801
 2420SOL    HW2 8160   1.492   3.701   2.735
 2421SOL     OW 8161   2.825   7.010   3.504
 2421SOL    HW1 8162   2.838   6.958   3.589
 2421SOL    HW2 8163   2.890   0.063   3.502
 2422SOL     OW 8164   4.352   5.454   0.555
 2422SOL    HW1 8165   4.284   5.444   0.483
 2422SOL    HW2 8166   4.306   5.462   0.643
 2423SOL     OW 8167   2.618   5.283   4.051
 2423SOL    HW1 8168   2.712   5.251   4.041
 2423SOL    HW2 8169   2.616   5.370   4.099
 2424SOL     OW 8170   4.668   6.631   6.314
 2424SOL    HW1 8171   4.736   6.598   6.379
 2424SOL    HW2 8172   4.616   6.706   6.356
 2425SOL     OW 8173   3.891   5.706   5.310
 2425SOL    HW1 8174   3.955   5.688   5.235
 2425SOL    HW2 8175   3.936   5.686   5.397
 2426SOL     OW 8176   2.892   2.212   5.082
 2426SOL    HW1 8177   2.986   2.237   5.059
 2426SOL    HW2 8178   2.847   2.290   5.126
 2427SOL     OW 8179   4.706   1.710   0.618
 2427SOL    HW1 8180   4.793   1.719   0.570
 2427SOL    HW2 8181   4.659   1.626   0.590
 2428SOL     OW 8182   1.750   1.523   2.943
 2428SOL    HW1 8183   1.720   1.604   2.994
 2428SOL    HW2 8184   1.701   1.518   2.856
 2429SOL     OW 8185   6.386   5.781   1.170
 2429SOL    HW1 8186   6.314   5.716   1.193
 2429SOL    HW2 8187   6.355   5.874   1.191
 2430SOL     OW 8188   6.384   0.589   6.199
 2430SOL    HW1 8189   6.475   0.550   6.214
 2430SOL    HW2 8190   6.364   0.592   6.101
 2431SOL     OW 8191   0.981   3.447   2.112
 2431SOL    HW1 8192   0.914   3.507   2.069
 2431SOL    HW2 8193   0.953   3.427   2.206
 2432SOL     OW 8194   2.486   5.551   2.048
 2432SOL    HW1 8195   2.426   5.472   2.037
 2432SOL    HW2 8196   2.521   5.553   2.142
 2433SOL     OW 8197   0.313   4.106   5.343
 2433SOL    HW1 8198   0.351   4.149   5.261
 2433SOL    HW2 8199   0.367   4.134   5.423
 2434SOL     OW 8200   4.545   1.142   3.421
 2434SOL    HW1 8201   4.499   1.186   3.343
 2434SOL    HW2 8202   4.572   1.050   3.395
 2435SOL     OW 8203   6.296   6.519   6.348
 2435SOL    HW1 8204   6.299   6.609   6.390
 2435SOL    HW2 8205   6.219   6.467   6.386
 2436SOL     OW 8206   0.264   3.299   0.359
 2436SOL    HW1 8207   0.188   3.363   0.351
 2436SOL    HW2 8208   0.296   3.274   0.267
 2437SOL     OW 8209   0.112   4.030   1.186
 2437SOL    HW1 8210   0.107   4.129   1.201
 2437SOL    HW2 8211   0.202   4.005   1.152
 2438SOL     OW 8212   3.787   1.583   4.488
 2438SOL    HW1 8213   3.833   1.667   4.459
 2438SOL    HW2 8214   3.800   1.512   4.418
 2439SOL     OW 8215   1.029   5.753   1.501
 2439SOL    HW1 8216   0.987   5.827   1.449
 2439SOL    HW2 8217   1.010   5.765   1.598
 2440SOL     OW 8218   6.628   0.919   5.378
 2440SOL    HW1 8219   6.585   0.882   5.461
 2440SOL    HW2 8220   6.718   0.876   5.365
 2441SOL     OW 8221   6.016   0.922   0.778
 2441SOL    HW1 8222   5.959   0.860   0.724
 2441SOL    HW2 8223   6.112   0.900   0.764
 2442SOL     OW 8224   5.306   3.337   2.230
 2442SOL    HW1 8225   5.290   3.239   2.247
 2442SOL    HW2 8226   5.404   3.357   2.238
 2443SOL     OW 8227   0.724   3.490   1.290
 2443SOL    HW1 8228   0.810   3.511   1.245
 2443SOL    HW2 8229   0.735   3.411   1.350
 2444SOL     OW 8230   3.257   5.215   2.263
 2444SOL    HW1 8231   3.166   5.175   2.249
 2444SOL    HW2 8232   3.310   5.157   2.324
 2445SOL     OW 8233   0.670   2.057   0.877
 2445SOL    HW1 8234   0.653   2.148   0.837
 2445SOL    HW2 8235   0.584   2.021   0.913
 2446SOL     OW 8236   0.349   5.502   2.191
 2446SOL    HW1 8237   0.432   5.455   2.159
 2446SOL    HW2 8238   0.341   5.591   2.145
 2447SOL     OW 8239   1.693   6.905   0.645
 2447SOL    HW1 8240   1.754   6.955   0.584
 2447SOL    HW2 8241   1.746   6.866   0.721
 2448SOL     OW 8242   5.724   0.967   4.461
 2448SOL    HW1 8243   5.784   0.887   4.452
 2448SOL    HW2 8244   5.747   1.016   4.545
 2449SOL     OW 8245   1.969   4.296   0.955
 2449SOL    HW1 8246   1.887   4.319   1.006
 2449SOL    HW2 8247   1.944   4.259   0.865
 2450SOL     OW 8248   0.523   6.563   4.873
 2450SOL    HW1 8249   0.606   6.597   4.828
 2450SOL    HW2 8250   0.546   6.480   4.926
 2451SOL     OW 8251   2.080   6.670   5.615
 2451SOL    HW1 8252   2.126   6.707   5.535
 2451SOL    HW2 8253   2.083   6.738   5.689
 2452SOL     OW 8254   2.280   1.559   4.198
 2452SOL    HW1 8255   2.189   1.569   4.157
 2452SOL    HW2 8256   2.337   1.502   4.139
 2453SOL     OW 8257   1.556   1.971   5.713
 2453SOL    HW1 8258   1.631   1.951   5.777
 2453SOL    HW2 8259   1.594   1.998   5.625
 2454SOL     OW 8260   3.121   5.911   1.006
 2454SOL    HW1 8261   3.037   5.964   0.991
 2454SOL    HW2 8262   3.118   5.828   0.949
 2455SOL     OW 8263   4.060   2.071   0.958
 2455SOL    HW1 8264   4.140   2.130   0.942
 2455SOL    HW2 8265   4.060   1.997   0.890
 2456SOL     OW 8266   0.603   3.750   6.006
 2456SOL    HW1 8267   0.697   3.743   5.973
 2456SOL    HW2 8268   0.592   3.835   6.057
 2457SOL     OW 8269   4.107   1.996   5.393
 2457SOL    HW1 8270   4.113   1.980   5.294
 2457SOL    HW2 8271   4.129   1.912   5.442
 2458SOL     OW 8272   0.267   0.151   2.751
 2458SOL    HW1 8273   0.184   0.098   2.772
 2458SOL    HW2 8274   0.343   0.115   2.805
 2459SOL     OW 8275   1.536   6.823   0.935
 2459SOL    HW1 8276   1.501   6.910   0.970
 2459SOL    HW2 8277   1.635   6.820   0.945
 2460SOL     OW 8278   0.514   1.056   4.385
 2460SOL    HW1 8279   0.581   1.114   4.340
 2460SOL    HW2 8280   0.561   0.979   4.429
 2461SOL     OW 8281   3.862   1.542   3.844
 2461SOL    HW1 8282   3.951   1.531   3.800
 2461SOL    HW2 8283   3.790   1.509   3.783
 2462SOL     OW 8284   0.522   5.592   0.366
 2462SOL    HW1 8285   0.544   5.496   0.348
 2462SOL    HW2 8286   0.440   5.618   0.314
 2463SOL     OW 8287   6.641   0.118   0.196
 2463SOL    HW1 8288   6.584   0.195   0.225
 2463SOL    HW2 8289   6.712   0.101   0.263
 2464SOL     OW 8290   0.786   2.516   4.636
 2464SOL    HW1 8291   0.758   2.587   4.700
 2464SOL    HW2 8292   0.721   2.440   4.639
 2465SOL     OW 8293   6.786   0.129   6.264
 2465SOL    HW1 8294   6.843   0.090   6.336
 2465SOL    HW2 8295   6.726   0.199   6.303
 2466SOL     OW 8296   0.876   1.787   1.906
 2466SOL    HW1 8297   0.779   1.769   1.925
 2466SOL    HW2 8298   0.901   1.742   1.820
 2467SOL     OW 8299   5.506   3.068   5.252
 2467SOL    HW1 8300   5.526   3.153   5.301
 2467SOL    HW2 8301   5.422   3.028   5.287
 2468SOL     OW 8302   3.355   6.886   5.437
 2468SOL    HW1 8303   3.397   6.966   5.480
 2468SOL    HW2 8304   3.325   6.909   5.344
 2469SOL     OW 8305   3.462   1.926   5.791
 2469SOL    HW1 8306   3.549   1.936   5.743
 2469SOL    HW2 8307   3.456   1.995   5.863
 2470SOL     OW 8308   2.624   5.449   6.809
 2470SOL    HW1 8309   2.658   5.409   6.894
 2470SOL    HW2 8310   2.556   5.387   6.768
 2471SOL     OW 8311   2.928   5.181   2.065
 2471SOL    HW1 8312   2.981   5.255   2.023
 2471SOL    HW2 8313   2.838   5.177   2.023
 2472SOL     OW 8314   4.626   1.331   3.599
 2472SOL    HW1 8315   4.604   1.253   3.540
 2472SOL    HW2 8316   4.696   1.387   3.555
 2473SOL     OW 8317   0.551   4.042   4.114
 2473SOL    HW1 8318   0.550   4.109   4.040
 2473SOL    HW2 8319   0.611   3.967   4.090
 2474SOL     OW 8320   0.559   6.176   1.838
 2474SOL    HW1 8321   0.632   6.184   1.770
 2474SOL    HW2 8322   0.498   6.255   1.831
 2475SOL     OW 8323   4.584   1.134   0.351
 2475SOL    HW1 8324   4.571   1.037   0.371
 2475SOL    HW2 8325   4.628   1.144   0.262
 2476SOL     OW 8326   4.510   0.519   0.732
 2476SOL    HW1 8327   4.551   0.500   0.822
 2476SOL    HW2 8328   4.451   0.443   0.706
 2477SOL     OW 8329   3.757   0.072   3.526
 2477SOL    HW1 8330   3.819   0.139   3.566
 2477SOL    HW2 8331   3.663   0.100   3.542
 2478SOL     OW 8332   4.639   0.128   4.376
 2478SOL    HW1 8333   4.738   0.130   4.362
 2478SOL    HW2 8334   4.605   0.035   4.366
 2479SOL     OW 8335   5.753   3.124   1.316
 2479SOL    HW1 8336   5.668   3.098   1.361
 2479SOL    HW2 8337   5.822   3.053   1.332
 2480SOL     OW 8338   3.761   2.331   1.396
 2480SOL    HW1 8339   3.675   2.337   1.346
 2480SOL    HW2 8340   3.827   2.277   1.344
 2481SOL     OW 8341   3.153   6.658   2.046
 2481SOL    HW1 8342   3.084   6.586   2.055
 2481SOL    HW2 8343   3.224   6.646   2.116
 2482SOL     OW 8344   6.547   3.270   6.926
 2482SOL    HW1 8345   6.564   3.172   6.910
 2482SOL    HW2 8346   6.634   3.319   6.927
 2483SOL     OW 8347   1.573   2.329   0.776
 2483SOL    HW1 8348   1.510   2.289   0.843
 2483SOL    HW2 8349   1.593   2.423   0.801
 2484SOL     OW 8350   4.439   0.636   0.203
 2484SOL    HW1 8351   4.484   0.607   0.288
 2484SOL    HW2 8352   4.358   0.691   0.226
 2485SOL     OW 8353   0.512   2.355   6.305
 2485SOL    HW1 8354   0.471   2.314   6.386
 2485SOL    HW2 8355   0.603   2.317   6.291
 2486SOL     OW 8356   6.947   5.969   3.957
 2486SOL    HW1 8357   6.975   5.874   3.970
 2486SOL    HW2 8358   6.986   6.004   3.871
 2487SOL     OW 8359   4.723   6.035   6.990
 2487SOL    HW1 8360   4.625   6.054   6.978
 2487SOL    HW2 8361   4.743   6.022   0.064
 2488SOL     OW 8362   6.496   3.947   0.489
 2488SOL    HW1 8363   6.547   3.904   0.564
 2488SOL    HW2 8364   6.453   3.876   0.433
 2489SOL     OW 8365   6.089   5.344   4.409
 2489SOL    HW1 8366   6.050   5.316   4.497
 2489SOL    HW2 8367   6.018   5.388   4.354
 2490SOL     OW 8368   2.407   5.630   3.238
 2490SOL    HW1 8369   2.492   5.576   3.240
 2490SOL    HW2 8370   2.363   5.626   3.328
 2491SOL     OW 8371   3.845   4.576   1.577
 2491SOL    HW1 8372   3.826   4.482   1.549
 2491SOL    HW2 8373   3.941   4.597   1.559
 2492SOL     OW 8374   6.679   5.052   1.511
 2492SOL    HW1 8375   6.652   5.147   1.525
 2492SOL    HW2 8376   6.778   5.044   1.519
 2493SOL     OW 8377   5.436   6.943   1.083
 2493SOL    HW1 8378   5.503   6.886   1.036
 2493SOL    HW2 8379   5.423   0.005   1.032
 2494SOL     OW 8380   6.704   4.002   1.635
 2494SOL    HW1 8381   6.795   4.001   1.592
 2494SOL    HW2 8382   6.634   4.006   1.564
 2495SOL     OW 8383   0.542   4.757   1.947
 2495SOL    HW1 8384   0.634   4.719   1.951
 2495SOL    HW2 8385   0.475   4.685   1.965
 2496SOL     OW 8386   5.790   4.978   6.664
 2496SOL    HW1 8387   5.859   4.935   6.606
 2496SOL    HW2 8388   5.802   4.948   6.758
 2497SOL     OW 8389   0.158   0.055   2.158
 2497SOL    HW1 8390   0.202   0.105   2.232
 2497SOL    HW2 8391   0.124   6.990   2.192
 2498SOL     OW 8392   2.077   3.617   5.491
 2498SOL    HW1 8393   2.043   3.581   5.578
 2498SOL    HW2 8394   2.079   3.717   5.495
 2499SOL     OW 8395   0.278   3.839   1.470
 2499SOL    HW1 8396   0.357   3.882   1.428
 2499SOL    HW2 8397   0.233   3.903   1.531
 2500SOL     OW 8398   3.684   3.186   1.148
 2500SOL    HW1 8399   3.622   3.121   1.193
 2500SOL    HW2 8400   3.745   3.137   1.086
 2501SOL     OW 8401   5.910   5.577   6.652
 2501SOL    HW1 8402   5.824   5.601   6.606
 2501SOL    HW2 8403   5.987   5.607   6.596
 2502SOL     OW 8404   2.330   6.213   4.587
 2502SOL    HW1 8405   2.331   6.184   4.492
 2502SOL    HW2 8406   2.261   6.285   4.600
 2503SOL     OW 8407   3.212   6.887   5.722
 2503SOL    HW1 8408   3.173   6.866   5.811
 2503SOL    HW2 8409   3.213   6.804   5.666
 2504SOL     OW 8410   3.989   6.808   3.693
 2504SOL    HW1 8411   4.039   6.777   3.612
 2504SOL    HW2 8412   3.900   6.843   3.666
 2505SOL     OW 8413   6.906   4.554   4.056
 2505SOL    HW1 8414   6.958   4.505   4.125
 2505SOL    HW2 8415   6.893   4.496   3.976
 2506SOL     OW 8416   5.312   5.447   5.889
 2506SOL    HW1 8417   5.299   5.476   5.984
 2506SOL    HW2 8418   5.226   5.411   5.853
 2507SOL     OW 8419   6.729   3.139   2.015
 2507SOL    HW1 8420   6.635   3.120   2.045
 2507SOL    HW2 8421   6.745   3.095   1.926
 2508SOL     OW 8422   5.244   1.613   4.582
 2508SOL    HW1 8423   5.293   1.530   4.609
 2508SOL    HW2 8424   5.231   1.614   4.483
 2509SOL     OW 8425   0.291   3.458   5.916
 2509SOL    HW1 8426   0.327   3.527   5.979
 2509SOL    HW2 8427   0.294   3.493   5.822
 2510SOL     OW 8428   3.463   3.873   2.147
 2510SOL    HW1 8429   3.532   3.804   2.172
 2510SOL    HW2 8430   3.436   3.860   2.052
 2511SOL     OW 8431   2.082   0.354   4.456
 2511SOL    HW1 8432   2.021   0.297   4.402
 2511SOL    HW2 8433   2.109   0.305   4.539
 2512SOL     OW 8434   3.829   4.906   4.227
 2512SOL    HW1 8435   3.789   4.835   4.283
 2512SOL    HW2 8436   3.778   4.991   4.239
 2513SOL     OW 8437   2.595   5.547   6.142
 2513SOL    HW1 8438   2.612   5.620   6.208
 2513SOL    HW2 8439   2.676   5.488   6.138
 2514SOL     OW 8440   1.084   1.910   2.830
 2514SOL    HW1 8441   1.175   1.928   2.793
 2514SOL    HW2 8442   1.042   1.996   2.859
 2515SOL     OW 8443   1.232   1.460   1.445
 2515SOL    HW1 8444   1.246   1.541   1.502
 2515SOL    HW2 8445   1.305   1.394   1.461
 2516SOL     OW 8446   6.070   2.024   4.487
 2516SOL    HW1 8447   5.998   2.052   4.550
 2516SOL    HW2 8448   6.031   1.966   4.415
 2517SOL     OW 8449   1.241   1.602   4.275
 2517SOL    HW1 8450   1.235   1.548   4.192
 2517SOL    HW2 8451   1.265   1.696   4.252
 2518SOL     OW 8452   2.753   4.987   1.425
 2518SOL    HW1 8453   2.744   4.923   1.502
 2518SOL    HW2 8454   2.800   5.070   1.457
 2519SOL     OW 8455   0.878   1.259   0.945
 2519SOL    HW1 8456   0.830   1.228   1.027
 2519SOL    HW2 8457   0.942   1.188   0.916
 2520SOL     OW 8458   2.513   2.148   0.313
 2520SOL    HW1 8459   2.446   2.148   0.388
 2520SOL    HW2 8460   2.563   2.235   0.314
 2521SOL     OW 8461   4.930   1.017   5.231
 2521SOL    HW1 8462   4.907   0.985   5.323
 2521SOL    HW2 8463   5.027   1.002   5.214
 2522SOL     OW 8464   1.310   2.463   6.401
 2522SOL    HW1 8465   1.367   2.544   6.414
 2522SOL    HW2 8466   1.353   2.403   6.334
 2523SOL     OW 8467   1.890   5.220   6.768
 2523SOL    HW1 8468   1.942   5.188   6.689
 2523SOL    HW2 8469   1.821   5.152   6.792
 2524SOL     OW 8470   1.461   0.503   4.283
 2524SOL    HW1 8471   1.392   0.437   4.312
 2524SOL    HW2 8472   1.450   0.522   4.185
 2525SOL     OW 8473   6.691   2.622   5.720
 2525SOL    HW1 8474   6.787   2.650   5.718
 2525SOL    HW2 8475   6.636   2.687   5.668
 2526SOL     OW 8476   1.328   6.594   1.388
 2526SOL    HW1 8477   1.284   6.619   1.302
 2526SOL    HW2 8478   1.418   6.555   1.369
 2527SOL     OW 8479   4.752   5.067   5.980
 2527SOL    HW1 8480   4.729   5.066   5.883
 2527SOL    HW2 8481   4.668   5.056   6.034
 2528SOL     OW 8482   4.729   5.998   6.571
 2528SOL    HW1 8483   4.751   5.939   6.649
 2528SOL    HW2 8484   4.662   6.066   6.599
 2529SOL     OW 8485   0.631   0.041   6.399
 2529SOL    HW1 8486   0.574   0.098   6.339
 2529SOL    HW2 8487   0.572   7.011   6.459
 2530SOL     OW 8488   2.303   5.657   6.341
 2530SOL    HW1 8489   2.223   5.668   6.282
 2530SOL    HW2 8490   2.349   5.571   6.319
 2531SOL     OW 8491   6.896   5.434   5.870
 2531SOL    HW1 8492   6.833   5.448   5.947
 2531SOL    HW2 8493   6.963   5.508   5.868
 2532SOL     OW 8494   5.443   6.601   0.933
 2532SOL    HW1 8495   5.465   6.650   1.018
 2532SOL    HW2 8496   5.351   6.563   0.939
 2533SOL     OW 8497   4.823   0.778   3.687
 2533SOL    HW1 8498   4.919   0.764   3.708
 2533SOL    HW2 8499   4.796   0.871   3.713
 2534SOL     OW 8500   3.791   0.947   2.737
 2534SOL    HW1 8501   3.805   0.984   2.829
 2534SOL    HW2 8502   3.843   1.002   2.671
 2535SOL     OW 8503   3.918   2.926   6.498
 2535SOL    HW1 8504   3.951   3.019   6.515
 2535SOL    HW2 8505   3.823   2.929   6.468
 2536SOL     OW 8506   1.428   0.794   0.801
 2536SOL    HW1 8507   1.429   0.856   0.722
 2536SOL    HW2 8508   1.410   0.845   0.884
 2537SOL     OW 8509   3.870   6.973   6.894
 2537SOL    HW1 8510   3.895   0.046   6.897
 2537SOL    HW2 8511   3.791   6.957   6.953
 2538SOL     OW 8512   6.603   3.305   3.706
 2538SOL    HW1 8513   6.604   3.267   3.614
 2538SOL    HW2 8514   6.524   3.364   3.717
 2539SOL     OW 8515   5.577   2.496   5.511
 2539SOL    HW1 8516   5.610   2.547   5.591
 2539SOL    HW2 8517   5.567   2.399   5.534
 2540SOL     OW 8518   2.844   1.563   2.127
 2540SOL    HW1 8519   2.918   1.579   2.063
 2540SOL    HW2 8520   2.861   1.614   2.212
 2541SOL     OW 8521   3.705   6.451   4.439
 2541SOL    HW1 8522   3.606   6.453   4.431
 2541SOL    HW2 8523   3.734   6.513   4.512
 2542SOL     OW 8524   1.903   4.861   6.442
 2542SOL    HW1 8525   1.839   4.921   6.393
 2542SOL    HW2 8526   1.961   4.916   6.502
 2543SOL     OW 8527   1.510   1.175   3.739
 2543SOL    HW1 8528   1.590   1.223   3.705
 2543SOL    HW2 8529   1.503   1.188   3.838
 2544SOL     OW 8530   1.327   5.603   6.921
 2544SOL    HW1 8531   1.232   5.631   6.919
 2544SOL    HW2 8532   1.345   5.552   7.005
 2545SOL     OW 8533   2.745   5.893   2.744
 2545SOL    HW1 8534   2.834   5.907   2.785
 2545SOL    HW2 8535   2.697   5.819   2.791
 2546SOL     OW 8536   6.904   1.360   1.064
 2546SOL    HW1 8537   6.825   1.415   1.089
 2546SOL    HW2 8538   6.878   1.264   1.058
 2547SOL     OW 8539   0.720   3.505   4.876
 2547SOL    HW1 8540   0.749   3.587   4.924
 2547SOL    HW2 8541   0.757   3.506   4.783
 2548SOL     OW 8542   0.828   0.308   4.043
 2548SOL    HW1 8543   0.921   0.301   4.006
 2548SOL    HW2 8544   0.767   0.246   3.993
 2549SOL     OW 8545   6.363   2.404   1.358
 2549SOL    HW1 8546   6.392   2.408   1.453
 2549SOL    HW2 8547   6.308   2.322   1.343
 2550SOL     OW 8548   6.319   6.257   0.071
 2550SOL    HW1 8549   6.234   6.304   0.094
 2550SOL    HW2 8550   6.385   6.270   0.145
 2551SOL     OW 8551   1.380   4.096   6.714
 2551SOL    HW1 8552   1.286   4.085   6.744
 2551SOL    HW2 8553   1.441   4.046   6.775
 2552SOL     OW 8554   1.860   5.590   3.470
 2552SOL    HW1 8555   1.786   5.531   3.500
 2552SOL    HW2 8556   1.854   5.604   3.371
 2553SOL     OW 8557   3.984   3.808   0.017
 2553SOL    HW1 8558   4.076   3.770   0.023
 2553SOL    HW2 8559   3.985   3.887   6.978
 2554SOL     OW 8560   1.887   1.483   0.014
 2554SOL    HW1 8561   1.850   1.570   7.005
 2554SOL    HW2 8562   1.820   1.439   0.074
 2555SOL     OW 8563   6.106   1.010   6.792
 2555SOL    HW1 8564   6.109   1.016   6.891
 2555SOL    HW2 8565   6.015   1.038   6.759
 2556SOL     OW 8566   2.825   5.784   1.000
 2556SOL    HW1 8567   2.750   5.747   1.055
 2556SOL    HW2 8568   2.825   5.883   1.007
 2557SOL     OW 8569   1.987   3.981   0.116
 2557SOL    HW1 8570   2.080   3.987   0.080
 2557SOL    HW2 8571   1.925   4.032   0.056
 2558SOL     OW 8572   3.668   0.282   5.611
 2558SOL    HW1 8573   3.761   0.289   5.647
 2558SOL    HW2 8574   3.603   0.313   5.681
 2559SOL     OW 8575   0.119   5.387   5.141
 2559SOL    HW1 8576   0.160   5.334   5.216
 2559SOL    HW2 8577   0.075   5.324   5.077
 2560SOL     OW 8578   6.280   1.485   0.062
 2560SOL    HW1 8579   6.358   1.545   0.083
 2560SOL    HW2 8580   6.200   1.516   0.112
 2561SOL     OW 8581   3.389   5.417   4.625
 2561SOL    HW1 8582   3.398   5.337   4.565
 2561SOL    HW2 8583   3.471   5.474   4.616
 2562SOL     OW 8584   1.907   3.987   6.738
 2562SOL    HW1 8585   1.845   3.909   6.749
 2562SOL    HW2 8586   1.859   4.060   6.689
 2563SOL     OW 8587   2.067   0.910   0.088
 2563SOL    HW1 8588   2.041   0.832   0.031
 2563SOL    HW2 8589   2.035   0.894   0.182
 2564SOL     OW 8590   1.466   6.062   1.288
 2564SOL    HW1 8591   1.521   6.042   1.370
 2564SOL    HW2 8592   1.387   6.117   1.315
 2565SOL     OW 8593   1.669   0.575   1.497
 2565SOL    HW1 8594   1.578   0.589   1.534
 2565SOL    HW2 8595   1.679   0.623   1.410
 2566SOL     OW 8596   1.664   6.791   6.071
 2566SOL    HW1 8597   1.747   6.778   6.017
 2566SOL    HW2 8598   1.644   6.707   6.122
 2567SOL     OW 8599   0.742   6.673   0.518
 2567SOL    HW1 8600   0.678   6.749   0.526
 2567SOL    HW2 8601   0.719   6.618   0.438
 2568SOL     OW 8602   4.758   3.373   0.147
 2568SOL    HW1 8603   4.667   3.360   0.107
 2568SOL    HW2 8604   4.753   3.444   0.218
 2569SOL     OW 8605   2.798   0.663   2.982
 2569SOL    HW1 8606   2.885   0.680   3.028
 2569SOL    HW2 8607   2.752   0.750   2.963
 2570SOL     OW 8608   5.268   2.328   6.140
 2570SOL    HW1 8609   5.307   2.407   6.189
 2570SOL    HW2 8610   5.340   2.261   6.122
 2571SOL     OW 8611   1.075   4.007   4.838
 2571SOL    HW1 8612   1.087   3.932   4.773
 2571SOL    HW2 8613   0.978   4.030   4.845
 2572SOL     OW 8614   1.749   4.881   3.691
 2572SOL    HW1 8615   1.778   4.846   3.602
 2572SOL    HW2 8616   1.713   4.806   3.746
 2573SOL     OW 8617   1.087   0.312   0.790
 2573SOL    HW1 8618   1.113   0.401   0.828
 2573SOL    HW2 8619   0.989   0.298   0.804
 2574SOL     OW 8620   6.169   2.988   0.448
 2574SOL    HW1 8621   6.106   2.921   0.408
 2574SOL    HW2 8622   6.117   3.064   0.486
 2575SOL     OW 8623   0.729   5.583   6.272
 2575SOL    HW1 8624   0.780   5.535   6.200
 2575SOL    HW2 8625   0.728   5.526   6.355
 2576SOL     OW 8626   4.309   5.875   3.905
 2576SOL    HW1 8627   4.276   5.884   3.811
 2576SOL    HW2 8628   4.405   5.902   3.910
 2577SOL     OW 8629   2.331   4.307   2.291
 2577SOL    HW1 8630   2.427   4.288   2.309
 2577SOL    HW2 8631   2.313   4.404   2.305
 2578SOL     OW 8632   4.246   1.848   3.079
 2578SOL    HW1 8633   4.306   1.902   3.138
 2578SOL    HW2 8634   4.167   1.903   3.054
 2579SOL     OW 8635   0.996   6.708   3.275
 2579SOL    HW1 8636   1.068   6.710   3.345
 2579SOL    HW2 8637   0.931   6.781   3.292
 2580SOL     OW 8638   1.892   1.899   6.231
 2580SOL    HW1 8639   1.858   1.994   6.225
 2580SOL    HW2 8640   1.918   1.868   6.140
 2581SOL     OW 8641   3.363   0.635   5.046
 2581SOL    HW1 8642   3.314   0.558   5.087
 2581SOL    HW2 8643   3.325   0.721   5.081
 2582SOL     OW 8644   0.019   3.100   1.641
 2582SOL    HW1 8645   0.108   3.133   1.673
 2582SOL    HW2 8646   0.025   3.075   1.545
 2583SOL     OW 8647   5.736   0.296   0.580
 2583SOL    HW1 8648   5.718   0.368   0.647
 2583SOL    HW2 8649   5.834   0.276   0.578
 2584SOL     OW 8650   3.870   4.536   6.499
 2584SOL    HW1 8651   3.968   4.529   6.519
 2584SOL    HW2 8652   3.851   4.626   6.460
 2585SOL     OW 8653   3.147   4.636   6.641
 2585SOL    HW1 8654   3.089   4.572   6.590
 2585SOL    HW2 8655   3.139   4.727   6.601
 2586SOL     OW 8656   2.669   0.803   3.514
 2586SOL    HW1 8657   2.749   0.852   3.547
 2586SOL    HW2 8658   2.656   0.822   3.416
 2587SOL     OW 8659   6.675   1.356   3.764
 2587SOL    HW1 8660   6.595   1.329   3.818
 2587SOL    HW2 8661   6.745   1.285   3.770
 2588SOL     OW 8662   4.484   0.679   6.559
 2588SOL    HW1 8663   4.387   0.666   6.576
 2588SOL    HW2 8664   4.498   0.763   6.506
 2589SOL     OW 8665   2.087   6.565   0.351
 2589SOL    HW1 8666   2.002   6.536   0.307
 2589SOL    HW2 8667   2.118   6.493   0.413
 2590SOL     OW 8668   2.564   5.267   0.271
 2590SOL    HW1 8669   2.645   5.262   0.212
 2590SOL    HW2 8670   2.499   5.332   0.232
 2591SOL     OW 8671   6.360   5.577   3.461
 2591SOL    HW1 8672   6.283   5.560   3.400
 2591SOL    HW2 8673   6.388   5.672   3.454
 2592SOL     OW 8674   2.618   3.775   0.968
 2592SOL    HW1 8675   2.560   3.697   0.991
 2592SOL    HW2 8676   2.674   3.800   1.047
 2593SOL     OW 8677   3.235   3.675   0.884
 2593SOL    HW1 8678   3.300   3.674   0.808
 2593SOL    HW2 8679   3.143   3.659   0.849
 2594SOL     OW 8680   1.791   3.401   4.539
 2594SOL    HW1 8681   1.820   3.412   4.634
 2594SOL    HW2 8682   1.724   3.327   4.534
 2595SOL     OW 8683   1.958   1.112   2.702
 2595SOL    HW1 8684   2.004   1.023   2.708
 2595SOL    HW2 8685   2.025   1.185   2.714
 2596SOL     OW 8686   1.407   1.859   0.281
 2596SOL    HW1 8687   1.390   1.928   0.352
 2596SOL    HW2 8688   1.352   1.778   0.299
 2597SOL     OW 8689   7.017   6.468   6.672
 2597SOL    HW1 8690   0.085   6.504   6.652
 2597SOL    HW2 8691   6.956   6.542   6.700
 2598SOL     OW 8692   5.938   2.449   2.799
 2598SOL    HW1 8693   5.925   2.354   2.770
 2598SOL    HW2 8694   5.898   2.510   2.730
 2599SOL     OW 8695   3.293   5.738   2.026
 2599SOL    HW1 8696   3.358   5.662   2.027
 2599SOL    HW2 8697   3.339   5.821   1.996
 2600SOL     OW 8698   5.731   4.207   4.496
 2600SOL    HW1 8699   5.734   4.303   4.523
 2600SOL    HW2 8700   5.793   4.154   4.553
 2601SOL     OW 8701   6.695   1.461   3.516
 2601SOL    HW1 8702   6.606   1.454   3.470
 2601SOL    HW2 8703   6.693   1.411   3.602
 2602SOL     OW 8704   0.913   4.033   3.165
 2602SOL    HW1 8705   0.974   3.960   3.194
 2602SOL    HW2 8706   0.960   4.121   3.174
 2603SOL     OW 8707   2.540   6.084   2.672
 2603SOL    HW1 8708   2.587   5.997   2.681
 2603SOL    HW2 8709   2.516   6.119   2.762
 2604SOL     OW 8710   4.676   2.756   3.532
 2604SOL    HW1 8711   4.688   2.849   3.566
 2604SOL    HW2 8712   4.742   2.695   3.575
 2605SOL     OW 8713   1.925   3.976   2.015
 2605SOL    HW1 8714   2.013   3.950   2.056
 2605SOL    HW2 8715   1.942   4.032   1.934
 2606SOL     OW 8716   4.972   3.572   1.106
 2606SOL    HW1 8717   5.002   3.603   1.196
 2606SOL    HW2 8718   5.007   3.633   1.035
 2607SOL     OW 8719   2.665   2.027   1.698
 2607SOL    HW1 8720   2.733   2.099   1.687
 2607SOL    HW2 8721   2.702   1.941   1.664
 2608SOL     OW 8722   2.700   5.146   5.791
 2608SOL    HW1 8723   2.603   5.128   5.806
 2608SOL    HW2 8724   2.710   5.220   5.725
 2609SOL     OW 8725   0.044   2.526   0.654
 2609SOL    HW1 8726   7.009   2.450   0.683
 2609SOL    HW2 8727   0.057   2.521   0.555
 2610SOL     OW 8728   1.698   4.104   4.819
 2610SOL    HW1 8729   1.690   4.019   4.767
 2610SOL    HW2 8730   1.794   4.128   4.831
 2611SOL     OW 8731   5.016   0.263   6.854
 2611SOL    HW1 8732   5.010   0.286   6.757
 2611SOL    HW2 8733   5.097   0.207   6.870
 2612SOL     OW 8734   6.674   0.316   6.027
 2612SOL    HW1 8735   6.688   0.226   6.069
 2612SOL    HW2 8736   6.737   0.327   5.949
 2613SOL     OW 8737   1.015   6.800   6.795
 2613SOL    HW1 8738   1.032   6.703   6.812
 2613SOL    HW2 8739   0.984   6.813   6.701
 2614SOL     OW 8740   5.980   1.653   6.708
 2614SOL    HW1 8741   5.925   1.609   6.638
 2614SOL    HW2 8742   5.987   1.751   6.689
 2615SOL     OW 8743   0.316   3.211   6.803
 2615SOL    HW1 8744   0.384   3.169   6.743
 2615SOL    HW2 8745   0.229   3.219   6.754
 2616SOL     OW 8746   1.069   1.177   5.159
 2616SOL    HW1 8747   1.142   1.172   5.091
 2616SOL    HW2 8748   1.055   1.086   5.199
 2617SOL     OW 8749   4.993   0.238   1.485
 2617SOL    HW1 8750   4.927   0.290   1.431
 2617SOL    HW2 8751   4.959   0.145   1.499
 2618SOL     OW 8752   1.347   6.498   6.139
 2618SOL    HW1 8753   1.310   6.505   6.047
 2618SOL    HW2 8754   1.282   6.538   6.204
 2619SOL     OW 8755   4.840   1.401   2.758
 2619SOL    HW1 8756   4.838   1.470   2.686
 2619SOL    HW2 8757   4.920   1.416   2.817
 2620SOL     OW 8758   6.154   1.697   1.455
 2620SOL    HW1 8759   6.239   1.655   1.487
 2620SOL    HW2 8760   6.162   1.717   1.357
 2621SOL     OW 8761   1.676   6.017   1.478
 2621SOL    HW1 8762   1.612   6.023   1.555
 2621SOL    HW2 8763   1.740   5.942   1.494
 2622SOL     OW 8764   2.875   3.706   6.964
 2622SOL    HW1 8765   2.972   3.714   6.941
 2622SOL    HW2 8766   2.827   3.663   6.888
 2623SOL     OW 8767   0.382   6.099   3.351
 2623SOL    HW1 8768   0.476   6.122   3.325
 2623SOL    HW2 8769   0.354   6.016   3.304
 2624SOL     OW 8770   0.473   1.480   4.784
 2624SOL    HW1 8771   0.510   1.437   4.702
 2624SOL    HW2 8772   0.439   1.571   4.760
 2625SOL     OW 8773   2.570   4.998   6.625
 2625SOL    HW1 8774   2.660   4.973   6.591
 2625SOL    HW2 8775   2.504   4.927   6.601
 2626SOL     OW 8776   6.897   5.969   6.739
 2626SOL    HW1 8777   6.943   6.033   6.801
 2626SOL    HW2 8778   6.965   5.917   6.688
 2627SOL     OW 8779   1.971   0.340   6.277
 2627SOL    HW1 8780   2.052   0.281   6.272
 2627SOL    HW2 8781   1.988   0.414   6.342
 2628SOL     OW 8782   0.195   4.464   1.441
 2628SOL    HW1 8783   0.125   4.486   1.508
 2628SOL    HW2 8784   0.214   4.366   1.442
 2629SOL     OW 8785   3.419   4.016   2.552
 2629SOL    HW1 8786   3.454   4.083   2.486
 2629SOL    HW2 8787   3.321   4.005   2.539
 2630SOL     OW 8788   3.856   0.628   4.485
 2630SOL    HW1 8789   3.925   0.678   4.539
 2630SOL    HW2 8790   3.787   0.591   4.547
 2631SOL     OW 8791   5.400   0.140   0.102
 2631SOL    HW1 8792   5.345   0.224   0.103
 2631SOL    HW2 8793   5.412   0.107   0.196
 2632SOL     OW 8794   5.900   5.064   1.869
 2632SOL    HW1 8795   5.969   5.014   1.816
 2632SOL    HW2 8796   5.879   5.013   1.953
 2633SOL     OW 8797   0.066   3.334   6.117
 2633SOL    HW1 8798   0.078   3.368   6.024
 2633SOL    HW2 8799   0.144   3.276   6.141
 2634SOL     OW 8800   0.427   1.223   5.806
 2634SOL    HW1 8801   0.440   1.299   5.870
 2634SOL    HW2 8802   0.515   1.199   5.764
 2635SOL     OW 8803   4.561   5.424   3.603
 2635SOL    HW1 8804   4.555   5.444   3.505
 2635SOL    HW2 8805   4.574   5.325   3.616
 2636SOL     OW 8806   3.635   6.580   6.264
 2636SOL    HW1 8807   3.615   6.530   6.348
 2636SOL    HW2 8808   3.553   6.583   6.206
 2637SOL     OW 8809   0.725   1.036   3.169
 2637SOL    HW1 8810   0.813   0.989   3.163
 2637SOL    HW2 8811   0.733   1.115   3.231
 2638SOL     OW 8812   1.065   6.326   4.624
 2638SOL    HW1 8813   1.127   6.395   4.585
 2638SOL    HW2 8814   1.055   6.250   4.559
 2639SOL     OW 8815   4.426   4.640   4.733
 2639SOL    HW1 8816   4.434   4.590   4.819
 2639SOL    HW2 8817   4.500   4.706   4.725
 2640SOL     OW 8818   2.431   0.846   3.639
 2640SOL    HW1 8819   2.448   0.903   3.719
 2640SOL    HW2 8820   2.516   0.835   3.587
 2641SOL     OW 8821   5.739   2.049   6.978
 2641SOL    HW1 8822   5.694   2.135   6.999
 2641SOL    HW2 8823   5.835   2.054   7.006
 2642SOL     OW 8824   6.297   0.391   3.062
 2642SOL    HW1 8825   6.385   0.344   3.058
 2642SOL    HW2 8826   6.241   0.351   3.134
 2643SOL     OW 8827   2.061   4.958   4.163
 2643SOL    HW1 8828   2.123   4.884   4.134
 2643SOL    HW2 8829   2.050   5.024   4.089
 2644SOL     OW 8830   5.567   5.392   4.777
 2644SOL    HW1 8831   5.578   5.384   4.876
 2644SOL    HW2 8832   5.496   5.328   4.746
 2645SOL     OW 8833   4.943   5.926   3.538
 2645SOL    HW1 8834   4.924   5.833   3.506
 2645SOL    HW2 8835   4.960   5.985   3.460
 2646SOL     OW 8836   1.078   2.467   6.226
 2646SOL    HW1 8837   1.150   2.476   6.295
 2646SOL    HW2 8838   1.021   2.549   6.227
 2647SOL     OW 8839   4.831   6.642   2.310
 2647SOL    HW1 8840   4.748   6.635   2.254
 2647SOL    HW2 8841   4.839   6.734   2.348
 2648SOL     OW 8842   0.920   6.799   6.534
 2648SOL    HW1 8843   0.856   6.734   6.494
 2648SOL    HW2 8844   0.974   6.843   6.462
 2649SOL     OW 8845   5.244   1.574   3.579
 2649SOL    HW1 8846   5.203   1.654   3.622
 2649SOL    HW2 8847   5.280   1.599   3.489
 2650SOL     OW 8848   3.002   6.824   3.953
 2650SOL    HW1 8849   2.978   6.727   3.959
 2650SOL    HW2 8850   3.057   6.849   4.032
 2651SOL     OW 8851   4.171   2.265   3.996
 2651SOL    HW1 8852   4.192   2.275   3.899
 2651SOL    HW2 8853   4.240   2.312   4.051
 2652SOL     OW 8854   4.851   4.234   5.351
 2652SOL    HW1 8855   4.862   4.249   5.449
 2652SOL    HW2 8856   4.924   4.280   5.301
 2653SOL     OW 8857   2.275   5.843   6.530
 2653SOL    HW1 8858   2.339   5.917   6.507
 2653SOL    HW2 8859   2.278   5.773   6.459
 2654SOL     OW 8860   0.291   0.954   0.699
 2654SOL    HW1 8861   0.305   0.873   0.642
 2654SOL    HW2 8862   0.347   0.947   0.782
 2655SOL     OW 8863   5.536   6.583   2.558
 2655SOL    HW1 8864   5.559   6.487   2.544
 2655SOL    HW2 8865   5.594   6.620   2.631
 2656SOL     OW 8866   4.362   6.212   3.562
 2656SOL    HW1 8867   4.394   6.134   3.508
 2656SOL    HW2 8868   4.279   6.187   3.611
 2657SOL     OW 8869   1.098   3.727   6.927
 2657SOL    HW1 8870   1.194   3.701   6.916
 2657SOL    HW2 8871   1.068   3.777   6.846
 2658SOL     OW 8872   3.997   5.009   0.740
 2658SOL    HW1 8873   4.066   5.044   0.803
 2658SOL    HW2 8874   4.021   5.037   0.647
 2659SOL     OW 8875   0.008   2.320   5.244
 2659SOL    HW1 8876   0.043   2.290   5.155
 2659SOL    HW2 8877   0.074   2.296   5.316
 2660SOL     OW 8878   0.267   1.664   1.371
 2660SOL    HW1 8879   0.204   1.736   1.340
 2660SOL    HW2 8880   0.215   1.594   1.421
 2661SOL     OW 8881   1.755   1.092   1.038
 2661SOL    HW1 8882   1.765   1.180   1.084
 2661SOL    HW2 8883   1.682   1.040   1.081
 2662SOL     OW 8884   2.849   1.975   2.217
 2662SOL    HW1 8885   2.884   1.886   2.245
 2662SOL    HW2 8886   2.761   1.991   2.262
 2663SOL     OW 8887   4.019   0.230   0.410
 2663SOL    HW1 8888   4.032   0.170   0.488
 2663SOL    HW2 8889   4.106   0.275   0.387
 2664SOL     OW 8890   4.852   3.695   5.441
 2664SOL    HW1 8891   4.894   3.775   5.484
 2664SOL    HW2 8892   4.843   3.621   5.509
 2665SOL     OW 8893   1.865   3.196   3.951
 2665SOL    HW1 8894   1.834   3.159   4.039
 2665SOL    HW2 8895   1.965   3.202   3.950
 2666SOL     OW 8896   1.872   4.023   1.530
 2666SOL    HW1 8897   1.923   4.105   1.555
 2666SOL    HW2 8898   1.776   4.034   1.555
 2667SOL     OW 8899   6.683   2.992   5.670
 2667SOL    HW1 8900   6.661   2.942   5.586
 2667SOL    HW2 8901   6.696   2.928   5.745
 2668SOL     OW 8902   6.419   0.576   2.860
 2668SOL    HW1 8903   6.401   0.534   2.950
 2668SOL    HW2 8904   6.454   0.669   2.873
 2669SOL     OW 8905   2.367   0.906   0.472
 2669SOL    HW1 8906   2.383   0.816   0.431
 2669SOL    HW2 8907   2.270   0.919   0.490
 2670SOL     OW 8908   0.147   0.220   6.377
 2670SOL    HW1 8909   0.131   0.295   6.313
 2670SOL    HW2 8910   0.197   0.147   6.331
 2671SOL     OW 8911   5.273   4.654   6.224
 2671SOL    HW1 8912   5.258   4.683   6.130
 2671SOL    HW2 8913   5.297   4.733   6.281
 2672SOL     OW 8914   2.942   0.676   1.679
 2672SOL    HW1 8915   2.855   0.674   1.729
 2672SOL    HW2 8916   2.938   0.612   1.603
 2673SOL     OW 8917   4.013   0.262   2.568
 2673SOL    HW1 8918   3.962   0.348   2.563
 2673SOL    HW2 8919   4.046   0.249   2.661
 2674SOL     OW 8920   0.299   5.728   3.056
 2674SOL    HW1 8921   0.382   5.737   3.002
 2674SOL    HW2 8922   0.274   5.631   3.063
 2675SOL     OW 8923   4.398   1.095   4.833
 2675SOL    HW1 8924   4.358   1.145   4.757
 2675SOL    HW2 8925   4.398   1.153   4.915
 2676SOL     OW 8926   3.411   4.145   3.695
 2676SOL    HW1 8927   3.462   4.073   3.742
 2676SOL    HW2 8928   3.408   4.226   3.752
 2677SOL     OW 8929   1.772   5.923   1.186
 2677SOL    HW1 8930   1.843   5.855   1.207
 2677SOL    HW2 8931   1.706   5.926   1.261
 2678SOL     OW 8932   3.955   1.588   2.598
 2678SOL    HW1 8933   4.016   1.641   2.658
 2678SOL    HW2 8934   3.918   1.510   2.649
 2679SOL     OW 8935   2.180   3.073   2.662
 2679SOL    HW1 8936   2.199   2.985   2.707
 2679SOL    HW2 8937   2.146   3.138   2.730
 2680SOL     OW 8938   5.610   2.400   0.322
 2680SOL    HW1 8939   5.575   2.308   0.339
 2680SOL    HW2 8940   5.535   2.467   0.330
 2681SOL     OW 8941   2.000   2.600   3.668
 2681SOL    HW1 8942   1.961   2.686   3.703
 2681SOL    HW2 8943   1.936   2.525   3.684
 2682SOL     OW 8944   3.628   3.948   1.652
 2682SOL    HW1 8945   3.643   3.862   1.602
 2682SOL    HW2 8946   3.660   4.025   1.597
 2683SOL     OW 8947   2.281   3.861   1.605
 2683SOL    HW1 8948   2.278   3.781   1.666
 2683SOL    HW2 8949   2.199   3.864   1.549
 2684SOL     OW 8950   6.750   0.073   3.675
 2684SOL    HW1 8951   6.826   0.129   3.641
 2684SOL    HW2 8952   6.672   0.132   3.696
 2685SOL     OW 8953   0.552   6.063   5.380
 2685SOL    HW1 8954   0.626   6.006   5.418
 2685SOL    HW2 8955   0.570   6.081   5.284
 2686SOL     OW 8956   1.232   0.955   5.758
 2686SOL    HW1 8957   1.318   1.006   5.760
 2686SOL    HW2 8958   1.207   0.928   5.850
 2687SOL     OW 8959   4.225   1.694   1.633
 2687SOL    HW1 8960   4.247   1.745   1.550
 2687SOL    HW2 8961   4.308   1.654   1.672
 2688SOL     OW 8962   4.134   2.553   0.026
 2688SOL    HW1 8963   4.163   2.619   6.979
 2688SOL    HW2 8964   4.067   2.596   0.087
 2689SOL     OW 8965   0.939   3.495   3.274
 2689SOL    HW1 8966   0.857   3.455   3.232
 2689SOL    HW2 8967   1.019   3.472   3.219
 2690SOL     OW 8968   4.579   1.207   5.490
 2690SOL    HW1 8969   4.597   1.172   5.582
 2690SOL    HW2 8970   4.548   1.131   5.432
 2691SOL     OW 8971   0.198   3.920   5.184
 2691SOL    HW1 8972   0.247   4.002   5.213
 2691SOL    HW2 8973   0.240   3.884   5.100
 2692SOL     OW 8974   2.606   5.943   2.071
 2692SOL    HW1 8975   2.553   5.895   2.001
 2692SOL    HW2 8976   2.652   5.876   2.129
 2693SOL     OW 8977   1.041   6.015   3.278
 2693SOL    HW1 8978   1.043   5.988   3.375
 2693SOL    HW2 8979   1.119   5.973   3.231
 2694SOL     OW 8980   2.197   0.386   2.261
 2694SOL    HW1 8981   2.236   0.394   2.352
 2694SOL    HW2 8982   2.268   0.356   2.197
 2695SOL     OW 8983   0.145   5.037   4.031
 2695SOL    HW1 8984   0.219   4.971   4.019
 2695SOL    HW2 8985   0.059   4.997   3.998
 2696SOL     OW 8986   4.425   4.997   6.348
 2696SOL    HW1 8987   4.417   5.079   6.405
 2696SOL    HW2 8988   4.382   4.920   6.394
 2697SOL     OW 8989   3.819   1.939   0.239
 2697SOL    HW1 8990   3.740   1.881   0.220
 2697SOL    HW2 8991   3.857   1.916   0.328
 2698SOL     OW 8992   1.730   5.701   6.170
 2698SOL    HW1 8993   1.697   5.784   6.126
 2698SOL    HW2 8994   1.762   5.636   6.100
 2699SOL     OW 8995   2.808   6.311   2.249
 2699SOL    HW1 8996   2.738   6.302   2.178
 2699SOL    HW2 8997   2.767   6.299   2.339
 2700SOL     OW 8998   4.347   1.857   1.426
 2700SOL    HW1 8999   4.329   1.939   1.373
 2700SOL    HW2 9000   4.387   1.787   1.367
 2701SOL     OW 9001   5.048   3.371   4.429
 2701SOL    HW1 9002   5.145   3.383   4.452
 2701SOL    HW2 9003   4.994   3.369   4.513
 2702SOL     OW 9004   2.726   1.348   4.737
 2702SOL    HW1 9005   2.739   1.395   4.649
 2702SOL    HW2 9006   2.763   1.256   4.732
 2703SOL     OW 9007   2.642   6.281   2.507
 2703SOL    HW1 9008   2.578   6.355   2.489
 2703SOL    HW2 9009   2.605   6.221   2.579
 2704SOL     OW 9010   4.832   0.773   3.395
 2704SOL    HW1 9011   4.883   0.695   3.357
 2704SOL    HW2 9012   4.827   0.764   3.494
 2705SOL     OW 9013   0.779   0.473   5.385
 2705SOL    HW1 9014   0.835   0.420   5.449
 2705SOL    HW2 9015   0.683   0.459   5.406
 2706SOL     OW 9016   6.976   4.357   3.546
 2706SOL    HW1 9017   6.949   4.439   3.597
 2706SOL    HW2 9018   6.910   4.284   3.563
 2707SOL     OW 9019   4.066   1.182   3.647
 2707SOL    HW1 9020   4.142   1.204   3.585
 2707SOL    HW2 9021   4.094   1.109   3.710
 2708SOL     OW 9022   5.125   3.590   6.115
 2708SOL    HW1 9023   5.191   3.522   6.083
 2708SOL    HW2 9024   5.090   3.642   6.036
 2709SOL     OW 9025   4.506   1.559   5.399
 2709SOL    HW1 9026   4.447   1.502   5.456
 2709SOL    HW2 9027   4.499   1.529   5.304
 2710SOL     OW 9028   1.074   3.115   4.527
 2710SOL    HW1 9029   1.056   3.208   4.496
 2710SOL    HW2 9030   1.168   3.108   4.560
 2711SOL     OW 9031   4.058   0.861   1.668
 2711SOL    HW1 9032   4.019   0.803   1.739
 2711SOL    HW2 9033   4.027   0.831   1.578
 2712SOL     OW 9034   5.058   6.332   1.979
 2712SOL    HW1 9035   4.964   6.355   2.004
 2712SOL    HW2 9036   5.088   6.389   1.903
 2713SOL     OW 9037   3.655   4.933   5.159
 2713SOL    HW1 9038   3.748   4.942   5.122
 2713SOL    HW2 9039   3.626   5.020   5.199
 2714SOL     OW 9040   3.050   4.331   6.176
 2714SOL    HW1 9041   3.123   4.289   6.229
 2714SOL    HW2 9042   3.075   4.330   6.079
 2715SOL     OW 9043   4.168   6.606   6.508
 2715SOL    HW1 9044   4.142   6.684   6.452
 2715SOL    HW2 9045   4.253   6.626   6.557
 2716SOL     OW 9046   4.067   0.850   2.806
 2716SOL    HW1 9047   3.994   0.881   2.745
 2716SOL    HW2 9048   4.026   0.803   2.884
 2717SOL     OW 9049   1.004   2.145   1.779
 2717SOL    HW1 9050   0.916   2.153   1.826
 2717SOL    HW2 9051   0.989   2.115   1.685
 2718SOL     OW 9052   6.488   1.593   5.564
 2718SOL    HW1 9053   6.467   1.542   5.648
 2718SOL    HW2 9054   6.581   1.573   5.535
 2719SOL     OW 9055   1.415   5.114   3.684
 2719SOL    HW1 9056   1.356   5.194   3.681
 2719SOL    HW2 9057   1.439   5.094   3.779
 2720SOL     OW 9058   1.648   5.947   6.084
 2720SOL    HW1 9059   1.624   6.016   6.152
 2720SOL    HW2 9060   1.685   5.992   6.003
 2721SOL     OW 9061   2.489   6.943   1.594
 2721SOL    HW1 9062   2.532   6.969   1.508
 2721SOL    HW2 9063   2.559   6.921   1.661
 2722SOL     OW 9064   3.893   4.981   6.674
 2722SOL    HW1 9065   3.930   4.996   6.581
 2722SOL    HW2 9066   3.930   4.896   6.711
 2723SOL     OW 9067   3.751   5.915   6.718
 2723SOL    HW1 9068   3.692   5.990   6.689
 2723SOL    HW2 9069   3.763   5.918   6.818
 2724SOL     OW 9070   0.182   5.247   0.801
 2724SOL    HW1 9071   0.116   5.256   0.875
 2724SOL    HW2 9072   0.135   5.253   0.713
 2725SOL     OW 9073   5.792   4.560   3.586
 2725SOL    HW1 9074   5.762   4.465   3.582
 2725SOL    HW2 9075   5.882   4.565   3.630
 2726SOL     OW 9076   6.588   1.640   2.219
 2726SOL    HW1 9077   6.496   1.602   2.217
 2726SOL    HW2 9078   6.589   1.727   2.170
 2727SOL     OW 9079   1.525   5.838   3.554
 2727SOL    HW1 9080   1.513   5.820   3.652
 2727SOL    HW2 9081   1.493   5.759   3.502
 2728SOL     OW 9082   4.199   5.343   6.301
 2728SOL    HW1 9083   4.118   5.292   6.330
 2728SOL    HW2 9084   4.188   5.370   6.205
 2729SOL     OW 9085   5.921   0.357   6.618
 2729SOL    HW1 9086   5.896   0.443   6.662
 2729SOL    HW2 9087   6.016   0.362   6.588
 2730SOL     OW 9088   1.309   5.932   2.796
 2730SOL    HW1 9089   1.347   5.972   2.880
 2730SOL    HW2 9090   1.218   5.971   2.780
 2731SOL     OW 9091   3.260   4.154   4.943
 2731SOL    HW1 9092   3.304   4.243   4.930
 2731SOL    HW2 9093   3.205   4.155   5.027
 2732SOL     OW 9094   5.591   0.441   1.992
 2732SOL    HW1 9095   5.584   0.359   2.048
 2732SOL    HW2 9096   5.528   0.436   1.916
 2733SOL     OW 9097   0.725   6.318   7.022
 2733SOL    HW1 9098   0.820   6.286   7.017
 2733SOL    HW2 9099   0.680   6.278   0.078
 2734SOL     OW 9100   3.768   6.319   2.412
 2734SOL    HW1 9101   3.829   6.239   2.419
 2734SOL    HW2 9102   3.807   6.395   2.463
 2735SOL     OW 9103   0.779   1.445   1.788
 2735SOL    HW1 9104   0.775   1.351   1.753
 2735SOL    HW2 9105   0.698   1.464   1.842
 2736SOL     OW 9106   5.820   4.328   3.146
 2736SOL    HW1 9107   5.830   4.363   3.052
 2736SOL    HW2 9108   5.815   4.228   3.143
 2737SOL     OW 9109   3.214   0.654   5.353
 2737SOL    HW1 9110   3.283   0.725   5.335
 2737SOL    HW2 9111   3.147   0.689   5.419
 2738SOL     OW 9112   4.854   5.471   1.484
 2738SOL    HW1 9113   4.796   5.552   1.476
 2738SOL    HW2 9114   4.946   5.492   1.451
 2739SOL     OW 9115   6.932   5.141   1.240
 2739SOL    HW1 9116   6.962   5.150   1.335
 2739SOL    HW2 9117   6.941   5.046   1.211
 2740SOL     OW 9118   0.478   5.423   3.337
 2740SOL    HW1 9119   0.525   5.375   3.411
 2740SOL    HW2 9120   0.429   5.357   3.280
 2741SOL     OW 9121   0.577   0.153   5.436
 2741SOL    HW1 9122   0.533   0.209   5.506
 2741SOL    HW2 9123   0.517   0.076   5.413
 2742SOL     OW 9124   3.443   5.441   2.435
 2742SOL    HW1 9125   3.454   5.514   2.368
 2742SOL    HW2 9126   3.504   5.365   2.412
 2743SOL     OW 9127   5.109   1.796   2.685
 2743SOL    HW1 9128   5.035   1.776   2.749
 2743SOL    HW2 9129   5.077   1.782   2.592
 2744SOL     OW 9130   3.577   4.114   2.759
 2744SOL    HW1 9131   3.544   4.072   2.675
 2744SOL    HW2 9132   3.500   4.129   2.821
 2745SOL     OW 9133   0.717   6.037   0.431
 2745SOL    HW1 9134   0.759   5.946   0.431
 2745SOL    HW2 9135   0.623   6.031   0.464
 2746SOL     OW 9136   2.014   1.260   3.371
 2746SOL    HW1 9137   2.086   1.316   3.411
 2746SOL    HW2 9138   1.950   1.320   3.321
 2747SOL     OW 9139   3.657   4.055   1.007
 2747SOL    HW1 9140   3.744   4.071   1.053
 2747SOL    HW2 9141   3.673   4.015   0.917
 2748SOL     OW 9142   3.830   0.153   0.727
 2748SOL    HW1 9143   3.812   0.239   0.677
 2748SOL    HW2 9144   3.792   0.161   0.819
 2749SOL     OW 9145   3.006   1.774   1.150
 2749SOL    HW1 9146   2.961   1.786   1.062
 2749SOL    HW2 9147   3.081   1.840   1.158
 2750SOL     OW 9148   3.403   5.605   2.678
 2750SOL    HW1 9149   3.357   5.688   2.648
 2750SOL    HW2 9150   3.401   5.538   2.604
 2751SOL     OW 9151   6.650   5.208   0.883
 2751SOL    HW1 9152   6.578   5.140   0.871
 2751SOL    HW2 9153   6.646   5.244   0.976
 2752SOL     OW 9154   4.042   5.812   6.757
 2752SOL    HW1 9155   4.114   5.881   6.747
 2752SOL    HW2 9156   3.953   5.857   6.763
 2753SOL     OW 9157   5.440   5.865   5.239
 2753SOL    HW1 9158   5.423   5.847   5.336
 2753SOL    HW2 9159   5.452   5.779   5.191
 2754SOL     OW 9160   1.272   6.923   5.750
 2754SOL    HW1 9161   1.181   6.963   5.762
 2754SOL    HW2 9162   1.316   6.915   5.839
 2755SOL     OW 9163   4.134   0.427   2.311
 2755SOL    HW1 9164   4.213   0.481   2.281
 2755SOL    HW2 9165   4.136   0.417   2.410
 2756SOL     OW 9166   4.581   6.029   0.415
 2756SOL    HW1 9167   4.521   5.985   0.349
 2756SOL    HW2 9168   4.536   6.111   0.452
 2757SOL     OW 9169   0.577   4.717   0.907
 2757SOL    HW1 9170   0.544   4.623   0.893
 2757SOL    HW2 9171   0.638   4.720   0.986
 2758SOL     OW 9172   4.003   1.075   5.277
 2758SOL    HW1 9173   3.968   1.162   5.242
 2758SOL    HW2 9174   4.094   1.089   5.316
 2759SOL     OW 9175   5.005   4.987   4.423
 2759SOL    HW1 9176   5.010   5.074   4.374
 2759SOL    HW2 9177   5.084   4.931   4.400
 2760SOL     OW 9178   1.476   6.580   3.772
 2760SOL    HW1 9179   1.429   6.521   3.706
 2760SOL    HW2 9180   1.499   6.527   3.853
 2761SOL     OW 9181   2.545   5.053   3.917
 2761SOL    HW1 9182   2.541   5.050   3.817
 2761SOL    HW2 9183   2.573   5.144   3.946
 2762SOL     OW 9184   1.489   0.593   5.004
 2762SOL    HW1 9185   1.574   0.605   4.954
 2762SOL    HW2 9186   1.459   0.497   4.997
 2763SOL     OW 9187   5.381   1.665   2.563
 2763SOL    HW1 9188   5.354   1.751   2.521
 2763SOL    HW2 9189   5.471   1.638   2.529
 2764SOL     OW 9190   6.534   0.895   1.846
 2764SOL    HW1 9191   6.579   0.909   1.758
 2764SOL    HW2 9192   6.497   0.982   1.879
 2765SOL     OW 9193   5.536   1.966   2.718
 2765SOL    HW1 9194   5.634   1.949   2.708
 2765SOL    HW2 9195   5.513   2.056   2.682
 2766SOL     OW 9196   6.104   0.376   2.662
 2766SOL    HW1 9197   6.027   0.394   2.601
 2766SOL    HW2 9198   6.177   0.331   2.611
 2767SOL     OW 9199   6.178   4.594   5.699
 2767SOL    HW1 9200   6.132   4.557   5.619
 2767SOL    HW2 9201   6.191   4.692   5.688
 2768SOL     OW 9202   6.088   1.249   6.392
 2768SOL    HW1 9203   6.176   1.292   6.414
 2768SOL    HW2 9204   6.104   1.158   6.354
 2769SOL     OW 9205   1.264   4.716   1.406
 2769SOL    HW1 9206   1.315   4.631   1.396
 2769SOL    HW2 9207   1.316   4.791   1.365
 2770SOL     OW 9208   6.454   6.288   1.567
 2770SOL    HW1 9209   6.358   6.262   1.552
 2770SOL    HW2 9210   6.475   6.282   1.665
 2771SOL     OW 9211   4.863   1.299   0.855
 2771SOL    HW1 9212   4.769   1.269   0.836
 2771SOL    HW2 9213   4.891   1.263   0.944
 2772SOL     OW 9214   3.915   2.151   6.524
 2772SOL    HW1 9215   3.995   2.150   6.464
 2772SOL    HW2 9216   3.939   2.194   6.611
 2773SOL     OW 9217   3.251   4.321   0.805
 2773SOL    HW1 9218   3.308   4.291   0.882
 2773SOL    HW2 9219   3.156   4.295   0.821
 2774SOL     OW 9220   5.886   3.291   2.597
 2774SOL    HW1 9221   5.836   3.204   2.592
 2774SOL    HW2 9222   5.837   3.360   2.544
 2775SOL     OW 9223   6.749   7.005   2.275
 2775SOL    HW1 9224   6.831   0.037   2.282
 2775SOL    HW2 9225   6.725   6.970   2.366
 2776SOL     OW 9226   3.378   6.109   6.048
 2776SOL    HW1 9227   3.444   6.163   5.996
 2776SOL    HW2 9228   3.296   6.094   5.993
 2777SOL     OW 9229   2.713   1.627   3.488
 2777SOL    HW1 9230   2.801   1.583   3.504
 2777SOL    HW2 9231   2.656   1.568   3.431
 2778SOL     OW 9232   2.556   1.951   4.617
 2778SOL    HW1 9233   2.508   1.981   4.700
 2778SOL    HW2 9234   2.654   1.945   4.637
 2779SOL     OW 9235   6.199   1.272   0.792
 2779SOL    HW1 9236   6.158   1.206   0.856
 2779SOL    HW2 9237   6.296   1.252   0.781
 2780SOL     OW 9238   4.134   5.938   0.384
 2780SOL    HW1 9239   4.145   6.037   0.371
 2780SOL    HW2 9240   4.223   5.894   0.374
 2781SOL     OW 9241   4.852   4.804   0.532
 2781SOL    HW1 9242   4.842   4.708   0.556
 2781SOL    HW2 9243   4.789   4.859   0.587
 2782SOL     OW 9244   2.706   1.268   6.051
 2782SOL    HW1 9245   2.734   1.314   5.967
 2782SOL    HW2 9246   2.606   1.258   6.052
 2783SOL     OW 9247   0.371   4.305   6.239
 2783SOL    HW1 9248   0.310   4.315   6.161
 2783SOL    HW2 9249   0.465   4.328   6.212
 2784SOL     OW 9250   2.204   2.178   1.843
 2784SOL    HW1 9251   2.171   2.212   1.755
 2784SOL    HW2 9252   2.304   2.179   1.843
 2785SOL     OW 9253   5.937   1.008   1.491
 2785SOL    HW1 9254   6.033   0.988   1.507
 2785SOL    HW2 9255   5.915   0.992   1.394
 2786SOL     OW 9256   2.809   6.834   0.134
 2786SOL    HW1 9257   2.777   6.927   0.149
 2786SOL    HW2 9258   2.814   6.816   0.035
 2787SOL     OW 9259   1.992   2.773   5.233
 2787SOL    HW1 9260   1.928   2.818   5.296
 2787SOL    HW2 9261   2.005   2.830   5.153
 2788SOL     OW 9262   0.763   4.032   0.086
 2788SOL    HW1 9263   0.718   3.945   0.105
 2788SOL    HW2 9264   0.774   4.043   7.011
 2789SOL     OW 9265   0.125   2.475   4.233
 2789SOL    HW1 9266   0.104   2.425   4.317
 2789SOL    HW2 9267   0.089   2.568   4.240
 2790SOL     OW 9268   3.381   6.157   3.904
 2790SOL    HW1 9269   3.463   6.176   3.850
 2790SOL    HW2 9270   3.393   6.074   3.957
 2791SOL     OW 9271   2.191   2.817   2.851
 2791SOL    HW1 9272   2.253   2.738   2.849
 2791SOL    HW2 9273   2.103   2.790   2.889
 2792SOL     OW 9274   1.054   2.480   4.841
 2792SOL    HW1 9275   1.111   2.419   4.896
 2792SOL    HW2 9276   0.965   2.493   4.886
 2793SOL     OW 9277   5.042   0.813   3.960
 2793SOL    HW1 9278   4.984   0.890   3.985
 2793SOL    HW2 9279   5.119   0.807   4.024
 2794SOL     OW 9280   0.781   0.927   1.431
 2794SOL    HW1 9281   0.700   0.978   1.401
 2794SOL    HW2 9282   0.863   0.978   1.404
 2795SOL     OW 9283   1.885   4.320   1.562
 2795SOL    HW1 9284   1.984   4.308   1.560
 2795SOL    HW2 9285   1.863   4.417   1.573
 2796SOL     OW 9286   5.450   4.513   2.528
 2796SOL    HW1 9287   5.510   4.539   2.452
 2796SOL    HW2 9288   5.493   4.540   2.614
 2797SOL     OW 9289   4.658   4.416   4.927
 2797SOL    HW1 9290   4.708   4.495   4.962
 2797SOL    HW2 9291   4.560   4.429   4.939
 2798SOL     OW 9292   1.764   3.189   4.201
 2798SOL    HW1 9293   1.826   3.229   4.268
 2798SOL    HW2 9294   1.691   3.254   4.180
 2799SOL     OW 9295   6.338   5.547   5.745
 2799SOL    HW1 9296   6.322   5.462   5.795
 2799SOL    HW2 9297   6.437   5.565   5.742
 2800SOL     OW 9298   2.872   1.761   6.829
 2800SOL    HW1 9299   2.857   1.757   6.730
 2800SOL    HW2 9300   2.786   1.780   6.875
 2801SOL     OW 9301   4.341   5.396   2.495
 2801SOL    HW1 9302   4.289   5.450   2.429
 2801SOL    HW2 9303   4.360   5.452   2.576
 2802SOL     OW 9304   5.803   0.877   5.943
 2802SOL    HW1 9305   5.870   0.850   6.013
 2802SOL    HW2 9306   5.741   0.800   5.925
 2803SOL     OW 9307   2.157   5.623   5.482
 2803SOL    HW1 9308   2.148   5.619   5.383
 2803SOL    HW2 9309   2.245   5.665   5.506
 2804SOL     OW 9310   0.236   4.785   2.701
 2804SOL    HW1 9311   0.221   4.811   2.606
 2804SOL    HW2 9312   0.225   4.865   2.760
 2805SOL     OW 9313   5.074   4.024   6.429
 2805SOL    HW1 9314   4.990   4.071   6.404
 2805SOL    HW2 9315   5.085   3.942   6.371
 2806SOL     OW 9316   6.894   5.487   2.766
 2806SOL    HW1 9317   6.823   5.525   2.706
 2806SOL    HW2 9318   6.869   5.503   2.861
 2807SOL     OW 9319   4.152   4.740   4.145
 2807SOL    HW1 9320   4.085   4.805   4.109
 2807SOL    HW2 9321   4.105   4.674   4.204
 2808SOL     OW 9322   4.562   5.974   3.900
 2808SOL    HW1 9323   4.571   6.073   3.897
 2808SOL    HW2 9324   4.644   5.932   3.861
 2809SOL     OW 9325   5.486   3.425   0.831
 2809SOL    HW1 9326   5.564   3.385   0.783
 2809SOL    HW2 9327   5.455   3.361   0.902
 2810SOL     OW 9328   1.614   0.280   5.531
 2810SOL    HW1 9329   1.545   0.277   5.603
 2810SOL    HW2 9330   1.600   0.205   5.468
 2811SOL     OW 9331   0.309   0.977   4.199
 2811SOL    HW1 9332   0.380   0.981   4.269
 2811SOL    HW2 9333   0.348   0.945   4.113
 2812SOL     OW 9334   5.434   3.876   2.815
 2812SOL    HW1 9335   5.373   3.913   2.744
 2812SOL    HW2 9336   5.513   3.834   2.772
 2813SOL     OW 9337   6.255   1.594   6.476
 2813SOL    HW1 9338   6.181   1.620   6.415
 2813SOL    HW2 9339   6.292   1.675   6.521
 2814SOL     OW 9340   5.055   4.384   5.260
 2814SOL    HW1 9341   5.131   4.368   5.323
 2814SOL    HW2 9342   5.089   4.380   5.166
 2815SOL     OW 9343   0.198   1.716   4.995
 2815SOL    HW1 9344   0.210   1.625   4.954
 2815SOL    HW2 9345   0.130   1.712   5.067
 2816SOL     OW 9346   5.592   6.474   3.115
 2816SOL    HW1 9347   5.638   6.477   3.027
 2816SOL    HW2 9348   5.542   6.388   3.124
 2817SOL     OW 9349   1.576   1.578   1.295
 2817SOL    HW1 9350   1.663   1.614   1.329
 2817SOL    HW2 9351   1.519   1.551   1.371
 2818SOL     OW 9352   0.373   3.627   6.103
 2818SOL    HW1 9353   0.427   3.701   6.061
 2818SOL    HW2 9354   0.429   3.580   6.171
 2819SOL     OW 9355   5.802   2.924   0.993
 2819SOL    HW1 9356   5.747   2.997   0.953
 2819SOL    HW2 9357   5.881   2.906   0.933
 2820SOL     OW 9358   5.903   2.728   4.680
 2820SOL    HW1 9359   5.966   2.773   4.617
 2820SOL    HW2 9360   5.933   2.635   4.697
 2821SOL     OW 9361   1.158   3.192   3.898
 2821SOL    HW1 9362   1.224   3.147   3.958
 2821SOL    HW2 9363   1.073   3.209   3.948
 2822SOL     OW 9364   3.001   1.826   0.406
 2822SOL    HW1 9365   3.005   1.752   0.473
 2822SOL    HW2 9366   3.088   1.832   0.357
 2823SOL     OW 9367   1.987   6.595   3.394
 2823SOL    HW1 9368   1.989   6.495   3.389
 2823SOL    HW2 9369   1.910   6.630   3.341
 2824SOL     OW 9370   2.999   1.577   4.773
 2824SOL    HW1 9371   2.952   1.537   4.694
 2824SOL    HW2 9372   2.936   1.637   4.823
 2825SOL     OW 9373   6.405   6.042   1.202
 2825SOL    HW1 9374   6.321   6.090   1.177
 2825SOL    HW2 9375   6.483   6.091   1.163
 2826SOL     OW 9376   4.557   2.622   4.033
 2826SOL    HW1 9377   4.611   2.685   4.089
 2826SOL    HW2 9378   4.546   2.536   4.082
 2827SOL     OW 9379   5.553   0.978   6.158
 2827SOL    HW1 9380   5.638   1.025   6.181
 2827SOL    HW2 9381   5.491   1.041   6.111
 2828SOL     OW 9382   3.304   1.687   6.486
 2828SOL    HW1 9383   3.289   1.786   6.482
 2828SOL    HW2 9384   3.377   1.668   6.553
 2829SOL     OW 9385   2.009   0.156   6.542
 2829SOL    HW1 9386   1.981   0.246   6.511
 2829SOL    HW2 9387   2.000   0.090   6.467
 2830SOL     OW 9388   3.468   3.691   6.739
 2830SOL    HW1 9389   3.534   3.635   6.689
 2830SOL    HW2 9390   3.382   3.641   6.750
 2831SOL     OW 9391   5.958   5.555   4.044
 2831SOL    HW1 9392   6.003   5.481   3.995
 2831SOL    HW2 9393   6.018   5.635   4.048
 2832SOL     OW 9394   0.261   0.948   1.877
 2832SOL    HW1 9395   0.272   1.043   1.848
 2832SOL    HW2 9396   0.167   0.919   1.863
 2833SOL     OW 9397   6.005   2.837   2.202
 2833SOL    HW1 9398   6.049   2.832   2.113
 2833SOL    HW2 9399   6.062   2.890   2.265
 2834SOL     OW 9400   3.809   1.001   5.872
 2834SOL    HW1 9401   3.881   0.946   5.914
 2834SOL    HW2 9402   3.850   1.069   5.811
 2835SOL     OW 9403   0.435   6.532   3.043
 2835SOL    HW1 9404   0.417   6.588   2.963
 2835SOL    HW2 9405   0.533   6.528   3.060
 2836SOL     OW 9406   6.722   1.035   0.862
 2836SOL    HW1 9407   6.682   1.126   0.867
 2836SOL    HW2 9408   6.754   1.017   0.768
 2837SOL     OW 9409   6.332   2.738   4.017
 2837SOL    HW1 9410   6.316   2.658   4.075
 2837SOL    HW2 9411   6.321   2.821   4.071
 2838SOL     OW 9412   2.026   5.128   3.979
 2838SOL    HW1 9413   2.041   5.141   3.881
 2838SOL    HW2 9414   1.933   5.157   4.002
 2839SOL     OW 9415   5.181   2.311   1.549
 2839SOL    HW1 9416   5.148   2.290   1.641
 2839SOL    HW2 9417   5.121   2.269   1.481
 2840SOL     OW 9418   6.835   2.106   5.735
 2840SOL    HW1 9419   6.816   2.057   5.650
 2840SOL    HW2 9420   6.874   2.196   5.715
 2841SOL     OW 9421   0.544   6.413   1.537
 2841SOL    HW1 9422   0.553   6.474   1.457
 2841SOL    HW2 9423   0.612   6.439   1.606
 2842SOL     OW 9424   6.301   3.108   3.219
 2842SOL    HW1 9425   6.311   3.027   3.162
 2842SOL    HW2 9426   6.288   3.188   3.161
 2843SOL     OW 9427   4.002   2.110   4.709
 2843SOL    HW1 9428   3.996   2.119   4.610
 2843SOL    HW2 9429   4.073   2.171   4.744
 2844SOL     OW 9430   0.195   3.799   5.446
 2844SOL    HW1 9431   0.200   3.824   5.349
 2844SOL    HW2 9432   0.177   3.701   5.454
 2845SOL     OW 9433   6.519   4.006   5.381
 2845SOL    HW1 9434   6.438   4.024   5.436
 2845SOL    HW2 9435   6.601   4.027   5.434
 2846SOL     OW 9436   4.706   0.922   6.842
 2846SOL    HW1 9437   4.652   0.838   6.849
 2846SOL    HW2 9438   4.668   0.981   6.771
 2847SOL     OW 9439   4.649   4.479   3.954
 2847SOL    HW1 9440   4.577   4.509   4.016
 2847SOL    HW2 9441   4.610   4.420   3.884
 2848SOL     OW 9442   1.402   6.174   5.267
 2848SOL    HW1 9443   1.461   6.254   5.271
 2848SOL    HW2 9444   1.308   6.203   5.246
 2849SOL     OW 9445   2.112   3.084   1.613
 2849SOL    HW1 9446   2.040   3.153   1.617
 2849SOL    HW2 9447   2.089   3.009   1.675
 2850SOL     OW 9448   3.651   1.259   0.130
 2850SOL    HW1 9449   3.555   1.250   0.159
 2850SOL    HW2 9450   3.654   1.302   0.040
 2851SOL     OW 9451   2.455   4.515   6.157
 2851SOL    HW1 9452   2.464   4.416   6.146
 2851SOL    HW2 9453   2.408   4.552   6.077
 2852SOL     OW 9454   0.131   3.328   6.373
 2852SOL    HW1 9455   0.071   3.325   6.293
 2852SOL    HW2 9456   0.122   3.416   6.419
 2853SOL     OW 9457   3.722   3.310   1.504
 2853SOL    HW1 9458   3.771   3.378   1.450
 2853SOL    HW2 9459   3.777   3.227   1.513
 2854SOL     OW 9460   1.072   1.170   3.640
 2854SOL    HW1 9461   1.115   1.252   3.677
 2854SOL    HW2 9462   0.973   1.183   3.636
 2855SOL     OW 9463   3.124   0.996   5.337
 2855SOL    HW1 9464   3.025   0.987   5.349
 2855SOL    HW2 9465   3.152   1.089   5.362
 2856SOL     OW 9466   2.370   1.445   5.059
 2856SOL    HW1 9467   2.310   1.468   4.982
 2856SOL    HW2 9468   2.345   1.502   5.138
 2857SOL     OW 9469   3.291   3.595   3.197
 2857SOL    HW1 9470   3.220   3.616   3.265
 2857SOL    HW2 9471   3.280   3.654   3.117
 2858SOL     OW 9472   5.730   2.644   3.126
 2858SOL    HW1 9473   5.762   2.691   3.209
 2858SOL    HW2 9474   5.638   2.610   3.141
 2859SOL     OW 9475   6.052   6.562   0.628
 2859SOL    HW1 9476   6.015   6.624   0.558
 2859SOL    HW2 9477   6.126   6.508   0.588
 2860SOL     OW 9478   4.539   1.859   1.617
 2860SOL    HW1 9479   4.470   1.905   1.672
 2860SOL    HW2 9480   4.501   1.836   1.527
 2861SOL     OW 9481   3.151   5.329   5.653
 2861SOL    HW1 9482   3.120   5.420   5.681
 2861SOL    HW2 9483   3.095   5.297   5.577
 2862SOL     OW 9484   6.262   0.552   4.324
 2862SOL    HW1 9485   6.330   0.505   4.268
 2862SOL    HW2 9486   6.252   0.646   4.292
 2863SOL     OW 9487   6.228   1.905   0.654
 2863SOL    HW1 9488   6.170   1.824   0.645
 2863SOL    HW2 9489   6.204   1.972   0.583
 2864SOL     OW 9490   3.367   1.479   0.243
 2864SOL    HW1 9491   3.283   1.451   0.288
 2864SOL    HW2 9492   3.445   1.454   0.299
 2865SOL     OW 9493   4.236   4.995   5.268
 2865SOL    HW1 9494   4.182   5.075   5.295
 2865SOL    HW2 9495   4.234   4.986   5.168
 2866SOL     OW 9496   6.974   0.140   6.082
 2866SOL    HW1 9497   6.975   0.086   5.998
 2866SOL    HW2 9498   6.884   0.136   6.124
 2867SOL     OW 9499   6.714   4.541   3.443
 2867SOL    HW1 9500   6.754   4.563   3.355
 2867SOL    HW2 9501   6.786   4.520   3.509
 2868SOL     OW 9502   1.629   4.547   5.367
 2868SOL    HW1 9503   1.628   4.496   5.281
 2868SOL    HW2 9504   1.723   4.553   5.401
 2869SOL     OW 9505   5.837   1.647   2.604
 2869SOL    HW1 9506   5.881   1.559   2.583
 2869SOL    HW2 9507   5.907   1.718   2.607
 2870SOL     OW 9508   4.970   2.015   2.822
 2870SOL    HW1 9509   4.950   1.917   2.826
 2870SOL    HW2 9510   5.050   2.036   2.879
 2871SOL     OW 9511   1.931   1.679   5.749
 2871SOL    HW1 9512   2.002   1.716   5.808
 2871SOL    HW2 9513   1.965   1.597   5.702
 2872SOL     OW 9514   1.927   6.340   4.263
 2872SOL    HW1 9515   1.860   6.270   4.289
 2872SOL    HW2 9516   1.890   6.431   4.284
 2873SOL     OW 9517   0.152   5.299   1.917
 2873SOL    HW1 9518   0.113   5.354   1.991
 2873SOL    HW2 9519   0.105   5.211   1.912
 2874SOL     OW 9520   5.715   1.717   2.854
 2874SOL    HW1 9521   5.767   1.691   2.773
 2874SOL    HW2 9522   5.779   1.738   2.929
 2875SOL     OW 9523   2.875   5.045   0.733
 2875SOL    HW1 9524   2.949   5.028   0.799
 2875SOL    HW2 9525   2.792   4.997   0.763
 2876SOL     OW 9526   0.159   1.464   2.421
 2876SOL    HW1 9527   0.245   1.422   2.449
 2876SOL    HW2 9528   0.136   1.538   2.484
 2877SOL     OW 9529   2.330   3.370   5.953
 2877SOL    HW1 9530   2.411   3.403   5.905
 2877SOL    HW2 9531   2.358   3.308   6.027
 2878SOL     OW 9532   2.976   4.744   0.005
 2878SOL    HW1 9533   2.954   4.811   0.077
 2878SOL    HW2 9534   2.965   4.788   6.938
 2879SOL     OW 9535   5.110   4.799   6.523
 2879SOL    HW1 9536   5.127   4.714   6.573
 2879SOL    HW2 9537   5.023   4.838   6.553
 2880SOL     OW 9538   0.788   6.147   1.679
 2880SOL    HW1 9539   0.842   6.100   1.749
 2880SOL    HW2 9540   0.850   6.184   1.609
 2881SOL     OW 9541   0.325   0.109   6.767
 2881SOL    HW1 9542   0.249   0.159   6.725
 2881SOL    HW2 9543   0.404   0.170   6.777
 2882SOL     OW 9544   6.837   3.421   3.828
 2882SOL    HW1 9545   6.769   3.361   3.785
 2882SOL    HW2 9546   6.806   3.516   3.822
 2883SOL     OW 9547   4.854   6.550   2.584
 2883SOL    HW1 9548   4.943   6.514   2.611
 2883SOL    HW2 9549   4.848   6.552   2.484
 2884SOL     OW 9550   1.740   5.955   3.427
 2884SOL    HW1 9551   1.739   5.899   3.344
 2884SOL    HW2 9552   1.661   5.932   3.484
 2885SOL     OW 9553   0.354   2.177   3.557
 2885SOL    HW1 9554   0.305   2.204   3.640
 2885SOL    HW2 9555   0.342   2.247   3.487
 2886SOL     OW 9556   2.178   2.462   6.166
 2886SOL    HW1 9557   2.276   2.479   6.162
 2886SOL    HW2 9558   2.157   2.402   6.244
 2887SOL     OW 9559   2.105   1.237   4.756
 2887SOL    HW1 9560   2.061   1.247   4.845
 2887SOL    HW2 9561   2.149   1.323   4.730
 2888SOL     OW 9562   6.753   4.926   0.002
 2888SOL    HW1 9563   6.848   4.907   0.027
 2888SOL    HW2 9564   6.747   5.017   6.984
 2889SOL     OW 9565   0.406   0.098   1.372
 2889SOL    HW1 9566   0.408   0.062   1.278
 2889SOL    HW2 9567   0.314   0.088   1.410
 2890SOL     OW 9568   2.970   6.522   0.591
 2890SOL    HW1 9569   2.896   6.580   0.557
 2890SOL    HW2 9570   3.042   6.578   0.631
 2891SOL     OW 9571   2.892   5.299   4.355
 2891SOL    HW1 9572   2.991   5.304   4.346
 2891SOL    HW2 9573   2.865   5.204   4.373
 2892SOL     OW 9574   4.597   4.608   5.753
 2892SOL    HW1 9575   4.560   4.688   5.706
 2892SOL    HW2 9576   4.609   4.629   5.850
 2893SOL     OW 9577   2.430   0.529   5.745
 2893SOL    HW1 9578   2.516   0.518   5.794
 2893SOL    HW2 9579   2.442   0.600   5.674
 2894SOL     OW 9580   3.354   2.444   0.974
 2894SOL    HW1 9581   3.374   2.518   1.039
 2894SOL    HW2 9582   3.326   2.484   0.887
 2895SOL     OW 9583   3.295   3.295   6.815
 2895SOL    HW1 9584   3.254   3.294   6.906
 2895SOL    HW2 9585   3.310   3.201   6.783
 2896SOL     OW 9586   2.363   5.515   1.113
 2896SOL    HW1 9587   2.280   5.473   1.077
 2896SOL    HW2 9588   2.373   5.606   1.073
 2897SOL     OW 9589   1.343   6.419   3.568
 2897SOL    HW1 9590   1.259   6.435   3.620
 2897SOL    HW2 9591   1.356   6.320   3.555
 2898SOL     OW 9592   2.778   4.868   2.523
 2898SOL    HW1 9593   2.857   4.809   2.504
 2898SOL    HW2 9594   2.740   4.901   2.437
 2899SOL     OW 9595   6.589   0.787   0.595
 2899SOL    HW1 9596   6.650   0.711   0.618
 2899SOL    HW2 9597   6.643   0.864   0.563
 2900SOL     OW 9598   2.916   5.528   6.221
 2900SOL    HW1 9599   2.889   5.496   6.312
 2900SOL    HW2 9600   2.944   5.624   6.227
 2901SOL     OW 9601   3.187   6.969   1.576
 2901SOL    HW1 9602   3.143   0.019   1.524
 2901SOL    HW2 9603   3.286   6.973   1.563
 2902SOL     OW 9604   5.310   5.594   1.699
 2902SOL    HW1 9605   5.401   5.555   1.707
 2902SOL    HW2 9606   5.269   5.601   1.790
 2903SOL     OW 9607   2.640   2.405   1.928
 2903SOL    HW1 9608   2.673   2.468   1.859
 2903SOL    HW2 9609   2.717   2.370   1.982
 2904SOL     OW 9610   1.887   3.671   4.673
 2904SOL    HW1 9611   1.920   3.642   4.583
 2904SOL    HW2 9612   1.890   3.593   4.736
 2905SOL     OW 9613   1.082   2.327   1.316
 2905SOL    HW1 9614   1.169   2.354   1.276
 2905SOL    HW2 9615   1.010   2.390   1.285
 2906SOL     OW 9616   5.180   5.978   2.376
 2906SOL    HW1 9617   5.121   6.052   2.407
 2906SOL    HW2 9618   5.174   5.970   2.277
 2907SOL     OW 9619   6.566   0.850   4.069
 2907SOL    HW1 9620   6.565   0.930   4.129
 2907SOL    HW2 9621   6.520   0.872   3.983
 2908SOL     OW 9622   4.313   6.088   4.765
 2908SOL    HW1 9623   4.213   6.086   4.766
 2908SOL    HW2 9624   4.346   6.074   4.671
 2909SOL     OW 9625   1.398   5.717   5.369
 2909SOL    HW1 9626   1.359   5.667   5.291
 2909SOL    HW2 9627   1.474   5.664   5.407
 2910SOL     OW 9628   5.250   6.593   6.390
 2910SOL    HW1 9629   5.208   6.646   6.316
 2910SOL    HW2 9630   5.270   6.500   6.357
 2911SOL     OW 9631   1.741   4.284   3.518
 2911SOL    HW1 9632   1.767   4.202   3.570
 2911SOL    HW2 9633   1.769   4.365   3.570
 2912SOL     OW 9634   2.820   5.298   0.755
 2912SOL    HW1 9635   2.844   5.202   0.744
 2912SOL    HW2 9636   2.814   5.341   0.665
 2913SOL     OW 9637   0.704   2.838   2.838
 2913SOL    HW1 9638   0.654   2.828   2.924
 2913SOL    HW2 9639   0.802   2.826   2.855
 2914SOL     OW 9640   4.878   5.319   5.153
 2914SOL    HW1 9641   4.883   5.409   5.195
 2914SOL    HW2 9642   4.782   5.292   5.142
 2915SOL     OW 9643   4.369   1.104   4.061
 2915SOL    HW1 9644   4.447   1.162   4.037
 2915SOL    HW2 9645   4.316   1.084   3.979
 2916SOL     OW 9646   4.833   5.419   4.315
 2916SOL    HW1 9647   4.753   5.444   4.371
 2916SOL    HW2 9648   4.894   5.361   4.369
 2917SOL     OW 9649   4.442   1.294   2.664
 2917SOL    HW1 9650   4.367   1.278   2.599
 2917SOL    HW2 9651   4.517   1.230   2.646
 2918SOL     OW 9652   0.063   3.804   3.826
 2918SOL    HW1 9653   0.105   3.880   3.874
 2918SOL    HW2 9654   0.134   3.746   3.786
 2919SOL     OW 9655   6.919   6.252   0.047
 2919SOL    HW1 9656   6.972   6.260   6.986
 2919SOL    HW2 9657   6.968   6.194   0.112
 2920SOL     OW 9658   4.358   2.337   2.985
 2920SOL    HW1 9659   4.315   2.318   3.074
 2920SOL    HW2 9660   4.389   2.432   2.982
 2921SOL     OW 9661   0.505   0.227   1.761
 2921SOL    HW1 9662   0.428   0.172   1.792
 2921SOL    HW2 9663   0.531   0.292   1.832
 2922SOL     OW 9664   4.214   6.593   5.792
 2922SOL    HW1 9665   4.265   6.674   5.762
 2922SOL    HW2 9666   4.278   6.525   5.828
 2923SOL     OW 9667   6.759   4.302   0.685
 2923SOL    HW1 9668   6.676   4.291   0.741
 2923SOL    HW2 9669   6.759   4.233   0.613
 2924SOL     OW 9670   5.665   0.393   5.597
 2924SOL    HW1 9671   5.631   0.484   5.575
 2924SOL    HW2 9672   5.703   0.351   5.515
 2925SOL     OW 9673   5.579   3.722   1.486
 2925SOL    HW1 9674   5.579   3.754   1.580
 2925SOL    HW2 9675   5.661   3.668   1.468
 2926SOL     OW 9676   0.020   1.530   4.069
 2926SOL    HW1 9677   6.968   1.515   4.004
 2926SOL    HW2 9678   0.043   1.627   4.072
 2927SOL     OW 9679   0.446   2.618   2.590
 2927SOL    HW1 9680   0.541   2.642   2.609
 2927SOL    HW2 9681   0.389   2.700   2.598
 2928SOL     OW 9682   5.319   6.781   0.748
 2928SOL    HW1 9683   5.371   6.705   0.788
 2928SOL    HW2 9684   5.238   6.745   0.702
 2929SOL     OW 9685   1.015   6.988   5.745
 2929SOL    HW1 9686   0.943   7.009   5.679
 2929SOL    HW2 9687   0.975   6.950   5.828
 2930SOL     OW 9688   3.794   6.565   4.751
 2930SOL    HW1 9689   3.876   6.545   4.697
 2930SOL    HW2 9690   3.762   6.482   4.796
 2931SOL     OW 9691   3.698   5.656   6.517
 2931SOL    HW1 9692   3.615   5.601   6.514
 2931SOL    HW2 9693   3.777   5.601   6.491
 2932SOL     OW 9694   1.824   4.579   1.985
 2932SOL    HW1 9695   1.833   4.628   2.072
 2932SOL    HW2 9696   1.761   4.628   1.926
 2933SOL     OW 9697   4.838   1.492   3.514
 2933SOL    HW1 9698   4.855   1.589   3.499
 2933SOL    HW2 9699   4.920   1.450   3.553
 2934SOL     OW 9700   2.646   0.723   6.884
 2934SOL    HW1 9701   2.625   0.812   6.844
 2934SOL    HW2 9702   2.583   0.654   6.849
 2935SOL     OW 9703   6.572   1.738   1.193
 2935SOL    HW1 9704   6.540   1.713   1.102
 2935SOL    HW2 9705   6.587   1.837   1.197
 2936SOL     OW 9706   3.525   5.932   0.998
 2936SOL    HW1 9707   3.610   5.921   1.051
 2936SOL    HW2 9708   3.547   5.964   0.906
 2937SOL     OW 9709   2.462   4.218   0.448
 2937SOL    HW1 9710   2.553   4.178   0.453
 2937SOL    HW2 9711   2.402   4.157   0.396
 2938SOL     OW 9712   4.830   5.156   5.495
 2938SOL    HW1 9713   4.744   5.200   5.467
 2938SOL    HW2 9714   4.900   5.226   5.508
 2939SOL     OW 9715   0.220   6.692   5.605
 2939SOL    HW1 9716   0.174   6.606   5.629
 2939SOL    HW2 9717   0.316   6.686   5.631
 2940SOL     OW 9718   4.145   0.439   5.463
 2940SOL    HW1 9719   4.067   0.488   5.425
 2940SOL    HW2 9720   4.143   0.344   5.432
 2941SOL     OW 9721   2.809   1.924   5.690
 2941SOL    HW1 9722   2.728   1.967   5.650
 2941SOL    HW2 9723   2.815   1.948   5.786
 2942SOL     OW 9724   3.986   6.380   4.357
 2942SOL    HW1 9725   4.072   6.336   4.330
 2942SOL    HW2 9726   3.920   6.310   4.385
 2943SOL     OW 9727   5.702   3.831   3.025
 2943SOL    HW1 9728   5.617   3.789   2.993
 2943SOL    HW2 9729   5.777   3.766   3.015
 2944SOL     OW 9730   3.849   6.005   6.453
 2944SOL    HW1 9731   3.879   5.938   6.385
 2944SOL    HW2 9732   3.848   5.963   6.544
 2945SOL     OW 9733   2.933   3.402   3.407
 2945SOL    HW1 9734   2.949   3.485   3.353
 2945SOL    HW2 9735   2.941   3.423   3.505
 2946SOL     OW 9736   6.832   6.131   5.825
 2946SOL    HW1 9737   6.892   6.084   5.889
 2946SOL    HW2 9738   6.744   6.149   5.868
 2947SOL     OW 9739   0.306   5.594   0.194
 2947SOL    HW1 9740   0.250   5.608   0.112
 2947SOL    HW2 9741   0.308   5.496   0.216
 2948SOL     OW 9742   5.975   4.703   5.305
 2948SOL    HW1 9743   5.911   4.735   5.235
 2948SOL    HW2 9744   5.970   4.764   5.384
 2949SOL     OW 9745   1.398   6.343   0.798
 2949SOL    HW1 9746   1.379   6.411   0.869
 2949SOL    HW2 9747   1.483   6.295   0.819
 2950SOL     OW 9748   5.505   3.570   4.605
 2950SOL    HW1 9749   5.474   3.649   4.552
 2950SOL    HW2 9750   5.427   3.525   4.646
 2951SOL     OW 9751   6.203   1.387   1.579
 2951SOL    HW1 9752   6.191   1.396   1.480
 2951SOL    HW2 9753   6.113   1.384   1.623
 2952SOL     OW 9754   1.638   3.621   2.029
 2952SOL    HW1 9755   1.594   3.705   1.996
 2952SOL    HW2 9756   1.731   3.642   2.059
 2953SOL     OW 9757   5.681   0.655   2.964
 2953SOL    HW1 9758   5.744   0.719   3.009
 2953SOL    HW2 9759   5.617   0.619   3.032
 2954SOL     OW 9760   5.852   6.231   1.526
 2954SOL    HW1 9761   5.776   6.175   1.559
 2954SOL    HW2 9762   5.866   6.215   1.428
 2955SOL     OW 9763   6.413   2.921   0.580
 2955SOL    HW1 9764   6.339   2.938   0.515
 2955SOL    HW2 9765   6.383   2.855   0.649
 2956SOL     OW 9766   6.660   5.487   2.668
 2956SOL    HW1 9767   6.652   5.464   2.571
 2956SOL    HW2 9768   6.656   5.403   2.722
 2957SOL     OW 9769   1.408   3.885   1.506
 2957SOL    HW1 9770   1.335   3.851   1.446
 2957SOL    HW2 9771   1.372   3.900   1.598
 2958SOL     OW 9772   3.500   4.832   6.513
 2958SOL    HW1 9773   3.531   4.873   6.600
 2958SOL    HW2 9774   3.497   4.733   6.523
 2959SOL     OW 9775   4.454   5.762   6.989
 2959SOL    HW1 9776   4.551   5.739   7.000
 2959SOL    HW2 9777   4.399   5.678   6.989
 2960SOL     OW 9778   2.555   1.582   6.927
 2960SOL    HW1 9779   2.461   1.553   6.910
 2960SOL    HW2 9780   2.562   1.681   6.913
 2961SOL     OW 9781   5.545   2.783   4.753
 2961SOL    HW1 9782   5.501   2.872   4.761
 2961SOL    HW2 9783   5.511   2.722   4.825
 2962SOL     OW 9784   3.568   1.294   3.492
 2962SOL    HW1 9785   3.563   1.346   3.406
 2962SOL    HW2 9786   3.572   1.196   3.471
 2963SOL     OW 9787   1.988   2.915   4.970
 2963SOL    HW1 9788   1.898   2.873   4.978
 2963SOL    HW2 9789   1.996   2.961   4.882
 2964SOL     OW 9790   2.850   5.873   0.335
 2964SOL    HW1 9791   2.831   5.843   0.429
 2964SOL    HW2 9792   2.809   5.808   0.271
 2965SOL     OW 9793   0.953   2.604   5.821
 2965SOL    HW1 9794   0.910   2.690   5.846
 2965SOL    HW2 9795   0.948   2.592   5.722
 2966SOL     OW 9796   4.549   4.398   3.707
 2966SOL    HW1 9797   4.515   4.483   3.748
 2966SOL    HW2 9798   4.545   4.405   3.607
 2967SOL     OW 9799   6.197   2.079   3.931
 2967SOL    HW1 9800   6.234   2.155   3.985
 2967SOL    HW2 9801   6.101   2.098   3.909
 2968SOL     OW 9802   6.713   4.388   3.735
 2968SOL    HW1 9803   6.658   4.378   3.818
 2968SOL    HW2 9804   6.663   4.351   3.656
 2969SOL     OW 9805   4.709   1.042   4.584
 2969SOL    HW1 9806   4.652   0.965   4.614
 2969SOL    HW2 9807   4.768   1.012   4.509
 2970SOL     OW 9808   1.504   4.634   6.525
 2970SOL    HW1 9809   1.441   4.689   6.469
 2970SOL    HW2 9810   1.470   4.540   6.531
 2971SOL     OW 9811   4.889   3.229   3.384
 2971SOL    HW1 9812   4.988   3.216   3.378
 2971SOL    HW2 9813   4.870   3.317   3.428
 2972SOL     OW 9814   0.708   4.373   6.376
 2972SOL    HW1 9815   0.788   4.396   6.430
 2972SOL    HW2 9816   0.642   4.448   6.380
 2973SOL     OW 9817   5.294   6.402   4.346
 2973SOL    HW1 9818   5.263   6.421   4.253
 2973SOL    HW2 9819   5.352   6.477   4.378
 2974SOL     OW 9820   0.364   3.700   2.630
 2974SOL    HW1 9821   0.451   3.749   2.626
 2974SOL    HW2 9822   0.379   3.603   2.608
 2975SOL     OW 9823   0.277   1.020   4.525
 2975SOL    HW1 9824   0.355   1.056   4.475
 2975SOL    HW2 9825   0.243   1.090   4.589
 2976SOL     OW 9826   3.377   6.618   1.590
 2976SOL    HW1 9827   3.397   6.683   1.517
 2976SOL    HW2 9828   3.349   6.667   1.672
 2977SOL     OW 9829   3.777   6.566   4.193
 2977SOL    HW1 9830   3.774   6.528   4.285
 2977SOL    HW2 9831   3.702   6.527   4.139
 2978SOL     OW 9832   4.143   6.189   6.963
 2978SOL    HW1 9833   4.204   6.268   6.958
 2978SOL    HW2 9834   4.048   6.220   6.956
 2979SOL     OW 9835   3.038   0.950   3.401
 2979SOL    HW1 9836   3.007   0.967   3.494
 2979SOL    HW2 9837   3.044   1.037   3.352
 2980SOL     OW 9838   6.770   6.555   4.017
 2980SOL    HW1 9839   6.683   6.506   4.025
 2980SOL    HW2 9840   6.844   6.490   3.998
 2981SOL     OW 9841   1.604   1.335   5.279
 2981SOL    HW1 9842   1.519   1.334   5.332
 2981SOL    HW2 9843   1.649   1.246   5.287
 2982SOL     OW 9844   4.731   7.003   3.288
 2982SOL    HW1 9845   4.792   7.013   3.366
 2982SOL    HW2 9846   4.784   6.996   3.204
 2983SOL     OW 9847   6.732   0.366   2.548
 2983SOL    HW1 9848   6.685   0.426   2.483
 2983SOL    HW2 9849   6.678   0.359   2.632
 2984SOL     OW 9850   5.640   4.873   1.704
 2984SOL    HW1 9851   5.609   4.779   1.689
 2984SOL    HW2 9852   5.564   4.929   1.736
 2985SOL     OW 9853   6.032   1.895   3.259
 2985SOL    HW1 9854   6.111   1.953   3.239
 2985SOL    HW2 9855   5.954   1.951   3.284
 2986SOL     OW 9856   2.339   3.733   5.274
 2986SOL    HW1 9857   2.344   3.826   5.237
 2986SOL    HW2 9858   2.253   3.691   5.246
 2987SOL     OW 9859   4.521   2.366   4.442
 2987SOL    HW1 9860   4.509   2.382   4.540
 2987SOL    HW2 9861   4.433   2.341   4.401
 2988SOL     OW 9862   0.564   0.399   1.981
 2988SOL    HW1 9863   0.557   0.347   2.066
 2988SOL    HW2 9864   0.554   0.497   2.000
 2989SOL     OW 9865   6.847   4.837   0.797
 2989SOL    HW1 9866   6.752   4.806   0.789
 2989SOL    HW2 9867   6.892   4.827   0.708
 2990SOL     OW 9868   3.359   0.053   0.839
 2990SOL    HW1 9869   3.409   0.013   0.916
 2990SOL    HW2 9870   3.424   0.085   0.770
 2991SOL     OW 9871   6.776   4.606   0.215
 2991SOL    HW1 9872   6.796   4.523   0.266
 2991SOL    HW2 9873   6.860   4.657   0.199
 2992SOL     OW 9874   3.989   4.718   0.035
 2992SOL    HW1 9875   4.080   4.760   0.025
 2992SOL    HW2 9876   3.995   4.641   0.099
 2993SOL     OW 9877   2.133   5.597   0.558
 2993SOL    HW1 9878   2.141   5.543   0.474
 2993SOL    HW2 9879   2.216   5.588   0.612
 2994SOL     OW 9880   4.148   6.643   0.034
 2994SOL    HW1 9881   4.186   6.627   0.124
 2994SOL    HW2 9882   4.176   6.570   6.994
 2995SOL     OW 9883   2.609   0.757   5.608
 2995SOL    HW1 9884   2.604   0.798   5.518
 2995SOL    HW2 9885   2.704   0.738   5.631
 2996SOL     OW 9886   4.091   5.197   5.871
 2996SOL    HW1 9887   4.000   5.189   5.912
 2996SOL    HW2 9888   4.147   5.119   5.900
 2997SOL     OW 9889   4.934   6.438   0.295
 2997SOL    HW1 9890   4.943   6.518   0.237
 2997SOL    HW2 9891   4.884   6.462   0.378
 2998SOL     OW 9892   6.157   5.725   5.064
 2998SOL    HW1 9893   6.140   5.660   4.990
 2998SOL    HW2 9894   6.255   5.726   5.085
 2999SOL     OW 9895   3.356   6.426   2.292
 2999SOL    HW1 9896   3.290   6.352   2.303
 2999SOL    HW2 9897   3.449   6.390   2.304
 3000SOL     OW 9898   1.715   2.771   4.490
 3000SOL    HW1 9899   1.694   2.721   4.574
 3000SOL    HW2 9900   1.637   2.765   4.427
 3001SOL     OW 9901   4.372   0.088   6.630
 3001SOL    HW1 9902   4.422   0.124   6.551
 3001SOL    HW2 9903   4.365   7.011   6.621
 3002SOL     OW 9904   3.530   6.875   5.683
 3002SOL    HW1 9905   3.549   6.970   5.657
 3002SOL    HW2 9906   3.448   6.843   5.637
 3003SOL     OW 9907   2.277   6.960   6.422
 3003SOL    HW1 9908   2.323   6.933   6.337
 3003SOL    HW2 9909   2.237   6.880   6.465
 3004SOL     OW 9910   6.404   3.736   4.826
 3004SOL    HW1 9911   6.483   3.702   4.877
 3004SOL    HW2 9912   6.352   3.799   4.884
 3005SOL     OW 9913   4.642   2.557   1.910
 3005SOL    HW1 9914   4.703   2.627   1.873
 3005SOL    HW2 9915   4.568   2.540   1.845
 3006SOL     OW 9916   5.065   0.781   1.285
 3006SOL    HW1 9917   5.056   0.774   1.186
 3006SOL    HW2 9918   5.127   0.709   1.318
 3007SOL     OW 9919   6.601   6.192   1.817
 3007SOL    HW1 9920   6.590   6.190   1.916
 3007SOL    HW2 9921   6.693   6.224   1.794
 3008SOL     OW 9922   4.143   5.409   6.039
 3008SOL    HW1 9923   4.121   5.360   5.955
 3008SOL    HW2 9924   4.186   5.496   6.016
 3009SOL     OW 9925   1.165   1.327   2.816
 3009SOL    HW1 9926   1.176   1.392   2.741
 3009SOL    HW2 9927   1.072   1.290   2.815
 3010SOL     OW 9928   3.202   6.863   2.317
 3010SOL    HW1 9929   3.245   6.805   2.386
 3010SOL    HW2 9930   3.273   6.913   2.267
 3011SOL     OW 9931   5.685   0.524   6.941
 3011SOL    HW1 9932   5.760   0.578   6.904
 3011SOL    HW2 9933   5.632   0.579   7.006
 3012SOL     OW 9934   0.168   4.845   2.434
 3012SOL    HW1 9935   0.182   4.774   2.365
 3012SOL    HW2 9936   0.186   4.935   2.393
 3013SOL     OW 9937   5.637   4.542   2.320
 3013SOL    HW1 9938   5.604   4.517   2.229
 3013SOL    HW2 9939   5.726   4.499   2.335
 3014SOL     OW 9940   4.711   0.874   5.037
 3014SOL    HW1 9941   4.802   0.835   5.029
 3014SOL    HW2 9942   4.708   0.936   5.115
 3015SOL     OW 9943   3.257   2.167   6.865
 3015SOL    HW1 9944   3.237   2.078   6.907
 3015SOL    HW2 9945   3.327   2.155   6.794
 3016SOL     OW 9946   3.424   5.939   3.535
 3016SOL    HW1 9947   3.506   5.993   3.557
 3016SOL    HW2 9948   3.387   5.970   3.448
 3017SOL     OW 9949   6.568   6.097   0.990
 3017SOL    HW1 9950   6.540   6.175   0.935
 3017SOL    HW2 9951   6.657   6.064   0.958
 3018SOL     OW 9952   3.565   0.103   6.252
 3018SOL    HW1 9953   3.584   0.150   6.166
 3018SOL    HW2 9954   3.626   0.025   6.262
 3019SOL     OW 9955   5.267   6.492   2.095
 3019SOL    HW1 9956   5.265   6.392   2.102
 3019SOL    HW2 9957   5.209   6.531   2.166
 3020SOL     OW 9958   1.853   1.264   0.762
 3020SOL    HW1 9959   1.774   1.325   0.756
 3020SOL    HW2 9960   1.856   1.223   0.854
 3021SOL     OW 9961   3.632   1.086   6.063
 3021SOL    HW1 9962   3.695   1.065   5.988
 3021SOL    HW2 9963   3.638   1.183   6.086
 3022SOL     OW 9964   5.693   6.932   2.367
 3022SOL    HW1 9965   5.680   0.006   2.390
 3022SOL    HW2 9966   5.604   6.887   2.360
 3023SOL     OW 9967   5.752   0.254   1.473
 3023SOL    HW1 9968   5.839   0.298   1.449
 3023SOL    HW2 9969   5.715   0.207   1.393
 3024SOL     OW 9970   3.192   6.562   6.882
 3024SOL    HW1 9971   3.123   6.490   6.880
 3024SOL    HW2 9972   3.225   6.575   6.975
 3025SOL     OW 9973   1.815   2.230   1.513
 3025SOL    HW1 9974   1.890   2.179   1.472
 3025SOL    HW2 9975   1.730   2.208   1.467
 3026SOL     OW 9976   2.032   4.561   0.900
 3026SOL    HW1 9977   2.003   4.482   0.955
 3026SOL    HW2 9978   2.113   4.536   0.847
 3027SOL     OW 9979   1.600   1.573   4.105
 3027SOL    HW1 9980   1.666   1.498   4.103
 3027SOL    HW2 9981   1.565   1.585   4.198
 3028SOL     OW 9982   2.031   0.674   4.492
 3028SOL    HW1 9983   2.000   0.693   4.399
 3028SOL    HW2 9984   2.041   0.575   4.504
 3029SOL     OW 9985   4.834   6.335   5.572
 3029SOL    HW1 9986   4.880   6.326   5.660
 3029SOL    HW2 9987   4.901   6.323   5.498
 3030SOL     OW 9988   1.481   1.810   6.153
 3030SOL    HW1 9989   1.459   1.756   6.072
 3030SOL    HW2 9990   1.501   1.904   6.126
 3031SOL     OW 9991   1.460   4.933   6.731
 3031SOL    HW1 9992   1.468   4.958   6.827
 3031SOL    HW2 9993   1.545   4.891   6.700
 3032SOL     OW 9994   3.942   0.307   5.727
 3032SOL    HW1 9995   3.956   0.314   5.826
 3032SOL    HW2 9996   4.010   0.363   5.679
 3033SOL     OW 9997   5.114   5.011   6.332
 3033SOL    HW1 9998   5.104   4.930   6.390
 3033SOL    HW2 9999   5.154   5.086   6.386
 3034SOL     OW10000   2.220   0.222   4.084
 3034SOL    HW110001   2.277   0.195   4.006
 3034SOL    HW210002   2.276   0.270   4.151
 3035SOL     OW10003   6.374   6.850   6.678
 3035SOL    HW110004   6.304   6.821   6.743
 3035SOL    HW210005   6.464   6.835   6.718
 3036SOL     OW10006   1.564   4.539   5.938
 3036SOL    HW110007   1.659   4.505   5.938
 3036SOL    HW210008   1.525   4.529   5.847
 3037SOL     OW10009   6.741   6.644   5.590
 3037SOL    HW110010   6.732   6.590   5.506
 3037SOL    HW210011   6.707   6.592   5.667
 3038SOL     OW10012   5.531   0.141   5.708
 3038SOL    HW110013   5.575   0.199   5.639
 3038SOL    HW210014   5.484   0.065   5.663
 3039SOL     OW10015   0.736   5.123   0.728
 3039SOL    HW110016   0.721   5.025   0.716
 3039SOL    HW210017   0.680   5.174   0.664
 3040SOL     OW10018   2.286   2.280   6.632
 3040SOL    HW110019   2.308   2.307   6.726
 3040SOL    HW210020   2.245   2.189   6.632
 3041SOL     OW10021   1.751   1.920   5.951
 3041SOL    HW110022   1.681   1.957   6.012
 3041SOL    HW210023   1.769   1.825   5.976
 3042SOL     OW10024   5.270   0.042   1.984
 3042SOL    HW110025   5.348   7.010   1.955
 3042SOL    HW210026   5.268   0.044   2.084
 3043SOL     OW10027   0.256   5.332   0.255
 3043SOL    HW110028   0.298   5.282   0.330
 3043SOL    HW210029   0.159   5.310   0.249
 3044SOL     OW10030   3.431   3.928   5.788
 3044SOL    HW110031   3.331   3.927   5.790
 3044SOL    HW210032   3.463   4.022   5.775
 3045SOL     OW10033   5.461   1.892   3.719
 3045SOL    HW110034   5.448   1.987   3.745
 3045SOL    HW210035   5.552   1.861   3.748
 3046SOL     OW10036   2.561   2.088   5.659
 3046SOL    HW110037   2.586   2.105   5.754
 3046SOL    HW210038   2.569   2.174   5.607
 3047SOL     OW10039   6.928   4.570   2.241
 3047SOL    HW110040   6.944   4.583   2.339
 3047SOL    HW210041   7.013   4.584   2.191
 3048SOL     OW10042   2.936   2.574   1.677
 3048SOL    HW110043   3.003   2.648   1.681
 3048SOL    HW210044   2.950   2.511   1.754
 3049SOL     OW10045   0.763   0.369   1.795
 3049SOL    HW110046   0.686   0.367   1.860
 3049SOL    HW210047   0.791   0.275   1.774
 3050SOL     OW10048   3.223   5.371   3.499
 3050SOL    HW110049   3.219   5.398   3.595
 3050SOL    HW210050   3.133   5.337   3.470
 3051SOL     OW10051   2.700   4.576   5.522
 3051SOL    HW110052   2.629   4.632   5.563
 3051SOL    HW210053   2.666   4.536   5.437
 3052SOL     OW10054   4.612   6.682   2.639
 3052SOL    HW110055   4.609   6.719   2.731
 3052SOL    HW210056   4.706   6.654   2.617
 3053SOL     OW10057   4.591   6.635   0.642
 3053SOL    HW110058   4.598   6.602   0.736
 3053SOL    HW210059   4.570   6.732   0.642
 3054SOL     OW10060   2.220   3.401   6.361
 3054SOL    HW110061   2.242   3.474   6.297
 3054SOL    HW210062   2.182   3.440   6.445
 3055SOL     OW10063   5.737   5.994   2.720
 3055SOL    HW110064   5.783   6.041   2.645
 3055SOL    HW210065   5.643   5.972   2.692
 3056SOL     OW10066   6.484   1.060   1.184
 3056SOL    HW110067   6.386   1.071   1.203
 3056SOL    HW210068   6.532   1.143   1.210
 3057SOL     OW10069   6.174   5.887   2.594
 3057SOL    HW110070   6.209   5.949   2.524
 3057SOL    HW210071   6.137   5.805   2.550
 3058SOL     OW10072   6.328   4.915   1.582
 3058SOL    HW110073   6.370   4.970   1.511
 3058SOL    HW210074   6.363   4.942   1.672
 3059SOL     OW10075   1.797   2.598   4.682
 3059SOL    HW110076   1.891   2.632   4.687
 3059SOL    HW210077   1.795   2.510   4.635
 3060SOL     OW10078   6.506   6.897   0.827
 3060SOL    HW110079   6.442   6.965   0.790
 3060SOL    HW210080   6.511   6.819   0.765
 3061SOL     OW10081   0.074   0.949   6.166
 3061SOL    HW110082   0.083   1.043   6.133
 3061SOL    HW210083   0.008   0.900   6.109
 3062SOL     OW10084   2.997   5.814   6.149
 3062SOL    HW110085   2.936   5.864   6.086
 3062SOL    HW210086   3.016   5.871   6.229
 3063SOL     OW10087   1.778   5.054   1.168
 3063SOL    HW110088   1.807   5.098   1.083
 3063SOL    HW210089   1.859   5.031   1.222
 3064SOL     OW10090   6.717   5.125   3.030
 3064SOL    HW110091   6.763   5.046   2.989
 3064SOL    HW210092   6.660   5.094   3.107
 3065SOL     OW10093   1.998   0.930   1.023
 3065SOL    HW110094   1.912   0.979   1.040
 3065SOL    HW210095   1.980   0.832   1.020
 3066SOL     OW10096   5.381   5.316   1.154
 3066SOL    HW110097   5.387   5.297   1.252
 3066SOL    HW210098   5.472   5.306   1.113
 3067SOL     OW10099   5.188   6.466   3.304
 3067SOL    HW110100   5.088   6.470   3.307
 3067SOL    HW210101   5.223   6.440   3.394
 3068SOL     OW10102   6.152   4.906   0.532
 3068SOL    HW110103   6.184   4.968   0.460
 3068SOL    HW210104   6.062   4.936   0.564
 3069SOL     OW10105   1.254   5.384   3.662
 3069SOL    HW110106   1.283   5.471   3.702
 3069SOL    HW210107   1.161   5.362   3.691
 3070SOL     OW10108   4.077   1.732   4.217
 3070SOL    HW110109   4.119   1.643   4.200
 3070SOL    HW210110   4.004   1.748   4.150
 3071SOL     OW10111   6.068   0.091   3.631
 3071SOL    HW110112   6.064   0.039   3.716
 3071SOL    HW210113   6.163   0.099   3.601
 3072SOL     OW10114   0.563   0.285   2.217
 3072SOL    HW110115   0.642   0.225   2.209
 3072SOL    HW210116   0.540   0.298   2.314
 3073SOL     OW10117   1.609   3.203   4.555
 3073SOL    HW110118   1.528   3.199   4.496
 3073SOL    HW210119   1.582   3.198   4.651
 3074SOL     OW10120   5.100   3.113   5.773
 3074SOL    HW110121   5.084   3.072   5.863
 3074SOL    HW210122   5.089   3.212   5.779
 3075SOL     OW10123   0.931   5.753   1.766
 3075SOL    HW110124   0.999   5.719   1.832
 3075SOL    HW210125   0.867   5.680   1.744
 3076SOL     OW10126   0.533   0.237   4.923
 3076SOL    HW110127   0.616   0.197   4.884
 3076SOL    HW210128   0.456   0.220   4.863
 3077SOL     OW10129   4.857   5.113   3.814
 3077SOL    HW110130   4.871   5.202   3.858
 3077SOL    HW210131   4.943   5.061   3.816
 3078SOL     OW10132   2.046   2.943   0.105
 3078SOL    HW110133   1.977   2.937   0.178
 3078SOL    HW210134   2.002   2.927   0.017
 3079SOL     OW10135   5.807   2.784   6.204
 3079SOL    HW110136   5.803   2.884   6.201
 3079SOL    HW210137   5.787   2.753   6.297
 3080SOL     OW10138   6.352   5.869   0.916
 3080SOL    HW110139   6.260   5.905   0.905
 3080SOL    HW210140   6.373   5.861   1.014
 3081SOL     OW10141   6.634   5.355   5.722
 3081SOL    HW110142   6.682   5.435   5.760
 3081SOL    HW210143   6.685   5.320   5.644
 3082SOL     OW10144   2.181   0.032   2.530
 3082SOL    HW110145   2.269   0.053   2.486
 3082SOL    HW210146   2.139   6.976   2.485
 3083SOL     OW10147   3.613   0.643   2.019
 3083SOL    HW110148   3.601   0.721   1.957
 3083SOL    HW210149   3.560   0.566   1.987
 3084SOL     OW10150   4.919   6.515   4.814
 3084SOL    HW110151   4.964   6.447   4.872
 3084SOL    HW210152   4.825   6.529   4.845
 3085SOL     OW10153   0.445   5.788   1.510
 3085SOL    HW110154   0.510   5.864   1.503
 3085SOL    HW210155   0.434   5.763   1.606
 3086SOL     OW10156   5.770   1.334   4.492
 3086SOL    HW110157   5.845   1.277   4.526
 3086SOL    HW210158   5.728   1.289   4.414
 3087SOL     OW10159   5.685   3.006   2.766
 3087SOL    HW110160   5.661   3.081   2.828
 3087SOL    HW210161   5.626   2.927   2.783
 3088SOL     OW10162   2.996   4.129   5.906
 3088SOL    HW110163   3.033   4.222   5.908
 3088SOL    HW210164   2.962   4.104   5.996
 3089SOL     OW10165   1.518   2.367   0.491
 3089SOL    HW110166   1.571   2.360   0.576
 3089SOL    HW210167   1.560   2.437   0.433
 3090SOL     OW10168   0.854   1.427   1.296
 3090SOL    HW110169   0.864   1.329   1.278
 3090SOL    HW210170   0.937   1.462   1.339
 3091SOL     OW10171   2.525   0.392   0.479
 3091SOL    HW110172   2.603   0.367   0.422
 3091SOL    HW210173   2.557   0.413   0.572
 3092SOL     OW10174   4.469   6.395   0.817
 3092SOL    HW110175   4.412   6.428   0.742
 3092SOL    HW210176   4.410   6.370   0.894
 3093SOL     OW10177   5.319   6.098   3.774
 3093SOL    HW110178   5.398   6.143   3.731
 3093SOL    HW210179   5.314   6.003   3.743
 3094SOL     OW10180   3.017   5.324   5.399
 3094SOL    HW110181   3.086   5.336   5.327
 3094SOL    HW210182   2.972   5.235   5.388
 3095SOL     OW10183   2.960   4.822   4.380
 3095SOL    HW110184   3.043   4.854   4.426
 3095SOL    HW210185   2.980   4.802   4.284
 3096SOL     OW10186   0.637   0.876   5.296
 3096SOL    HW110187   0.721   0.831   5.265
 3096SOL    HW210188   0.569   0.806   5.321
 3097SOL     OW10189   1.365   2.829   0.259
 3097SOL    HW110190   1.396   2.863   0.348
 3097SOL    HW210191   1.284   2.773   0.271
 3098SOL     OW10192   3.899   2.231   0.266
 3098SOL    HW110193   3.810   2.276   0.265
 3098SOL    HW210194   3.890   2.139   0.227
 3099SOL     OW10195   1.240   6.098   4.996
 3099SOL    HW110196   1.319   6.069   4.942
 3099SOL    HW210197   1.191   6.018   5.029
 3100SOL     OW10198   6.428   6.603   0.208
 3100SOL    HW110199   6.376   6.646   0.282
 3100SOL    HW210200   6.483   6.673   0.161
 3101SOL     OW10201   4.556   6.789   0.936
 3101SOL    HW110202   4.549   6.886   0.913
 3101SOL    HW210203   4.466   6.746   0.926
 3102SOL     OW10204   1.263   5.587   1.042
 3102SOL    HW110205   1.284   5.654   1.113
 3102SOL    HW210206   1.304   5.615   0.955
 3103SOL     OW10207   4.127   3.536   2.332
 3103SOL    HW110208   4.187   3.616   2.337
 3103SOL    HW210209   4.048   3.557   2.275
 3104SOL     OW10210   6.742   5.160   3.774
 3104SOL    HW110211   6.731   5.109   3.859
 3104SOL    HW210212   6.658   5.208   3.751
 3105SOL     OW10213   6.533   6.333   4.017
 3105SOL    HW110214   6.480   6.415   3.998
 3105SOL    HW210215   6.529   6.271   3.939
 3106SOL     OW10216   6.833   2.653   4.677
 3106SOL    HW110217   6.760   2.587   4.662
 3106SOL    HW210218   6.856   2.697   4.590
 3107SOL     OW10219   3.339   0.113   4.001
 3107SOL    HW110220   3.346   0.144   4.095
 3107SOL    HW210221   3.312   0.017   3.999
 3108SOL     OW10222   3.336   0.180   3.241
 3108SOL    HW110223   3.343   0.159   3.339
 3108SOL    HW210224   3.276   0.114   3.197
 3109SOL     OW10225   4.696   5.914   3.223
 3109SOL    HW110226   4.603   5.879   3.216
 3109SOL    HW210227   4.696   5.997   3.279
 3110SOL     OW10228   0.877   3.076   2.304
 3110SOL    HW110229   0.827   3.050   2.221
 3110SOL    HW210230   0.878   3.000   2.368
 3111SOL     OW10231   6.366   4.942   3.845
 3111SOL    HW110232   6.400   5.002   3.917
 3111SOL    HW210233   6.444   4.894   3.802
 3112SOL     OW10234   3.203   3.529   6.697
 3112SOL    HW110235   3.172   3.590   6.771
 3112SOL    HW210236   3.234   3.442   6.736
 3113SOL     OW10237   3.832   0.345   3.612
 3113SOL    HW110238   3.797   0.398   3.534
 3113SOL    HW210239   3.901   0.399   3.660
 3114SOL     OW10240   5.670   5.432   0.924
 3114SOL    HW110241   5.601   5.390   0.866
 3114SOL    HW210242   5.757   5.435   0.876
 3115SOL     OW10243   2.817   3.122   1.614
 3115SOL    HW110244   2.804   3.203   1.557
 3115SOL    HW210245   2.891   3.140   1.680
 3116SOL     OW10246   6.739   1.799   0.107
 3116SOL    HW110247   6.743   1.898   0.089
 3116SOL    HW210248   6.798   1.777   0.185
 3117SOL     OW10249   4.068   3.938   5.202
 3117SOL    HW110250   4.103   3.847   5.178
 3117SOL    HW210251   4.143   3.995   5.233
 3118SOL     OW10252   6.181   5.096   0.326
 3118SOL    HW110253   6.184   5.035   0.246
 3118SOL    HW210254   6.236   5.177   0.307
 3119SOL     OW10255   2.153   4.768   5.815
 3119SOL    HW110256   2.122   4.781   5.721
 3119SOL    HW210257   2.092   4.816   5.877
 3120SOL     OW10258   2.887   5.850   5.375
 3120SOL    HW110259   2.851   5.758   5.360
 3120SOL    HW210260   2.834   5.916   5.322
 3121SOL     OW10261   0.788   6.123   2.885
 3121SOL    HW110262   0.813   6.209   2.840
 3121SOL    HW210263   0.697   6.095   2.855
 3122SOL     OW10264   3.061   5.270   0.872
 3122SOL    HW110265   2.967   5.288   0.841
 3122SOL    HW210266   3.076   5.316   0.959
 3123SOL     OW10267   4.257   6.756   4.826
 3123SOL    HW110268   4.289   6.740   4.919
 3123SOL    HW210269   4.234   6.669   4.783
 3124SOL     OW10270   3.526   6.800   5.937
 3124SOL    HW110271   3.508   6.824   5.841
 3124SOL    HW210272   3.604   6.853   5.970
 3125SOL     OW10273   6.576   1.884   5.884
 3125SOL    HW110274   6.665   1.910   5.920
 3125SOL    HW210275   6.517   1.854   5.959
 3126SOL     OW10276   3.742   6.637   0.423
 3126SOL    HW110277   3.678   6.626   0.500
 3126SOL    HW210278   3.785   6.550   0.403
 3127SOL     OW10279   1.090   1.624   3.577
 3127SOL    HW110280   1.043   1.593   3.660
 3127SOL    HW210281   1.188   1.609   3.588
 3128SOL     OW10282   1.433   1.234   0.072
 3128SOL    HW110283   1.337   1.206   0.062
 3128SOL    HW210284   1.480   1.169   0.131
 3129SOL     OW10285   1.416   2.790   3.982
 3129SOL    HW110286   1.431   2.886   3.959
 3129SOL    HW210287   1.395   2.739   3.899
 3130SOL     OW10288   1.748   5.476   2.863
 3130SOL    HW110289   1.780   5.493   2.957
 3130SOL    HW210290   1.818   5.426   2.812
 3131SOL     OW10291   7.020   3.358   3.651
 3131SOL    HW110292   6.957   3.367   3.729
 3131SOL    HW210293   0.051   3.275   3.663
 3132SOL     OW10294   4.737   6.184   5.214
 3132SOL    HW110295   4.745   6.113   5.144
 3132SOL    HW210296   4.725   6.142   5.304
 3133SOL     OW10297   2.437   1.575   3.000
 3133SOL    HW110298   2.424   1.673   3.013
 3133SOL    HW210299   2.504   1.559   2.927
 3134SOL     OW10300   4.910   3.152   2.583
 3134SOL    HW110301   4.881   3.183   2.673
 3134SOL    HW210302   4.890   3.223   2.515
 3135SOL     OW10303   2.858   1.715   3.136
 3135SOL    HW110304   2.928   1.773   3.179
 3135SOL    HW210305   2.903   1.648   3.077
 3136SOL     OW10306   6.176   6.546   5.133
 3136SOL    HW110307   6.149   6.455   5.162
 3136SOL    HW210308   6.094   6.602   5.116
 3137SOL     OW10309   6.652   1.808   4.658
 3137SOL    HW110310   6.716   1.858   4.715
 3137SOL    HW210311   6.662   1.836   4.563
 3138SOL     OW10312   5.185   1.651   5.003
 3138SOL    HW110313   5.209   1.732   5.056
 3138SOL    HW210314   5.166   1.677   4.908
 3139SOL     OW10315   5.149   6.381   5.738
 3139SOL    HW110316   5.084   6.401   5.812
 3139SOL    HW210317   5.189   6.291   5.751
 3140SOL     OW10318   6.476   6.331   6.388
 3140SOL    HW110319   6.430   6.418   6.372
 3140SOL    HW210320   6.572   6.338   6.361
 3141SOL     OW10321   0.925   5.236   0.534
 3141SOL    HW110322   1.023   5.256   0.528
 3141SOL    HW210323   0.902   5.216   0.630
 3142SOL     OW10324   3.598   6.722   6.783
 3142SOL    HW110325   3.687   6.687   6.754
 3142SOL    HW210326   3.607   6.773   6.868
 3143SOL     OW10327   0.040   1.915   0.287
 3143SOL    HW110328   0.052   1.932   0.189
 3143SOL    HW210329   7.003   1.985   0.325
 3144SOL     OW10330   1.838   3.330   6.293
 3144SOL    HW110331   1.752   3.285   6.268
 3144SOL    HW210332   1.900   3.330   6.214
 3145SOL     OW10333   3.925   6.302   3.859
 3145SOL    HW110334   3.881   6.276   3.945
 3145SOL    HW210335   3.912   6.400   3.842
 3146SOL     OW10336   2.200   1.028   3.692
 3146SOL    HW110337   2.178   0.986   3.780
 3146SOL    HW210338   2.256   0.965   3.638
 3147SOL     OW10339   3.444   3.750   0.703
 3147SOL    HW110340   3.480   3.707   0.620
 3147SOL    HW210341   3.390   3.830   0.678
 3148SOL     OW10342   3.725   5.638   5.070
 3148SOL    HW110343   3.764   5.687   5.148
 3148SOL    HW210344   3.750   5.542   5.075
 3149SOL     OW10345   3.324   6.547   5.885
 3149SOL    HW110346   3.254   6.497   5.936
 3149SOL    HW210347   3.368   6.614   5.946
 3150SOL     OW10348   6.575   0.025   4.272
 3150SOL    HW110349   6.632   6.978   4.231
 3150SOL    HW210350   6.580   0.109   4.217
 3151SOL     OW10351   3.619   0.539   0.264
 3151SOL    HW110352   3.550   0.539   0.192
 3151SOL    HW210353   3.708   0.511   0.226
 3152SOL     OW10354   1.567   4.860   0.177
 3152SOL    HW110355   1.651   4.808   0.164
 3152SOL    HW210356   1.515   4.821   0.253
 3153SOL     OW10357   0.176   4.189   2.775
 3153SOL    HW110358   0.161   4.281   2.813
 3153SOL    HW210359   0.250   4.192   2.708
 3154SOL     OW10360   5.819   2.218   6.604
 3154SOL    HW110361   5.876   2.235   6.685
 3154SOL    HW210362   5.722   2.218   6.630
 3155SOL     OW10363   4.778   6.122   0.229
 3155SOL    HW110364   4.737   6.209   0.202
 3155SOL    HW210365   4.720   6.080   0.299
 3156SOL     OW10366   3.526   3.392   3.185
 3156SOL    HW110367   3.610   3.409   3.238
 3156SOL    HW210368   3.458   3.461   3.208
 3157SOL     OW10369   2.223   2.316   4.362
 3157SOL    HW110370   2.173   2.368   4.293
 3157SOL    HW210371   2.178   2.326   4.451
 3158SOL     OW10372   4.355   6.101   1.212
 3158SOL    HW110373   4.319   6.022   1.163
 3158SOL    HW210374   4.389   6.072   1.302
 3159SOL     OW10375   5.983   4.194   0.473
 3159SOL    HW110376   6.002   4.228   0.381
 3159SOL    HW210377   6.067   4.154   0.512
 3160SOL     OW10378   5.645   4.852   0.599
 3160SOL    HW110379   5.712   4.783   0.572
 3160SOL    HW210380   5.556   4.831   0.558
 3161SOL     OW10381   0.556   1.958   2.502
 3161SOL    HW110382   0.576   1.910   2.417
 3161SOL    HW210383   0.642   1.976   2.551
 3162SOL     OW10384   6.332   6.635   5.678
 3162SOL    HW110385   6.365   6.666   5.588
 3162SOL    HW210386   6.388   6.558   5.709
 3163SOL     OW10387   2.594   4.481   5.228
 3163SOL    HW110388   2.688   4.491   5.194
 3163SOL    HW210389   2.530   4.486   5.151
 3164SOL     OW10390   6.093   5.755   6.380
 3164SOL    HW110391   6.153   5.708   6.316
 3164SOL    HW210392   6.126   5.740   6.474
 3165SOL     OW10393   0.188   2.929   1.366
 3165SOL    HW110394   0.248   2.904   1.441
 3165SOL    HW210395   0.181   2.852   1.302
 3166SOL     OW10396   5.638   2.960   6.504
 3166SOL    HW110397   5.713   2.896   6.487
 3166SOL    HW210398   5.553   2.909   6.515
 3167SOL     OW10399   0.932   4.229   2.334
 3167SOL    HW110400   0.963   4.304   2.276
 3167SOL    HW210401   0.929   4.144   2.281
 3168SOL     OW10402   5.299   3.167   0.719
 3168SOL    HW110403   5.255   3.078   0.728
 3168SOL    HW210404   5.328   3.199   0.809
 3169SOL     OW10405   1.832   1.876   4.848
 3169SOL    HW110406   1.879   1.865   4.936
 3169SOL    HW210407   1.873   1.815   4.781
 3170SOL     OW10408   4.457   0.747   5.853
 3170SOL    HW110409   4.360   0.729   5.836
 3170SOL    HW210410   4.510   0.664   5.837
 3171SOL     OW10411   6.115   6.853   3.281
 3171SOL    HW110412   6.117   6.834   3.183
 3171SOL    HW210413   6.020   6.866   3.310
 3172SOL     OW10414   5.714   0.391   5.882
 3172SOL    HW110415   5.693   0.371   5.786
 3172SOL    HW210416   5.676   0.320   5.940
 3173SOL     OW10417   1.822   1.284   1.392
 3173SOL    HW110418   1.803   1.382   1.390
 3173SOL    HW210419   1.919   1.269   1.377
 3174SOL     OW10420   1.789   3.836   6.258
 3174SOL    HW110421   1.847   3.846   6.339
 3174SOL    HW210422   1.735   3.753   6.266
 3175SOL     OW10423   6.679   5.837   1.143
 3175SOL    HW110424   6.580   5.822   1.152
 3175SOL    HW210425   6.699   5.875   1.053
 3176SOL     OW10426   1.387   5.845   6.107
 3176SOL    HW110427   1.348   5.932   6.078
 3176SOL    HW210428   1.483   5.857   6.129
 3177SOL     OW10429   0.868   7.008   4.161
 3177SOL    HW110430   0.848   0.020   4.253
 3177SOL    HW210431   0.950   0.029   4.126
 3178SOL     OW10432   1.710   3.229   0.756
 3178SOL    HW110433   1.692   3.224   0.658
 3178SOL    HW210434   1.769   3.154   0.784
 3179SOL     OW10435   1.035   2.429   3.050
 3179SOL    HW110436   1.006   2.509   3.103
 3179SOL    HW210437   1.132   2.438   3.027
 3180SOL     OW10438   5.271   1.157   6.255
 3180SOL    HW110439   5.355   1.195   6.218
 3180SOL    HW210440   5.217   1.116   6.182
 3181SOL     OW10441   0.345   1.907   3.635
 3181SOL    HW110442   0.335   2.001   3.603
 3181SOL    HW210443   0.294   1.846   3.574
 3182SOL     OW10444   1.440   4.750   5.349
 3182SOL    HW110445   1.481   4.832   5.310
 3182SOL    HW210446   1.501   4.672   5.336
 3183SOL     OW10447   4.667   3.105   1.131
 3183SOL    HW110448   4.667   3.203   1.149
 3183SOL    HW210449   4.639   3.055   1.213
 3184SOL     OW10450   1.956   1.386   3.038
 3184SOL    HW110451   2.054   1.394   3.024
 3184SOL    HW210452   1.908   1.443   2.971
 3185SOL     OW10453   0.670   6.573   6.162
 3185SOL    HW110454   0.686   6.619   6.250
 3185SOL    HW210455   0.683   6.639   6.088
 3186SOL     OW10456   3.463   0.466   1.846
 3186SOL    HW110457   3.395   0.530   1.810
 3186SOL    HW210458   3.444   0.374   1.811
 3187SOL     OW10459   2.805   4.527   0.239
 3187SOL    HW110460   2.894   4.494   0.208
 3187SOL    HW210461   2.814   4.565   0.332
 3188SOL     OW10462   4.624   0.400   3.306
 3188SOL    HW110463   4.646   0.451   3.389
 3188SOL    HW210464   4.555   0.450   3.254
 3189SOL     OW10465   6.908   0.020   1.686
 3189SOL    HW110466   6.922   0.082   1.609
 3189SOL    HW210467   6.825   0.045   1.735
 3190SOL     OW10468   0.579   6.509   1.283
 3190SOL    HW110469   0.666   6.559   1.283
 3190SOL    HW210470   0.584   6.436   1.215
 3191SOL     OW10471   2.917   0.506   0.927
 3191SOL    HW110472   2.960   0.478   0.842
 3191SOL    HW210473   2.976   0.572   0.974
 3192SOL     OW10474   5.965   2.477   3.899
 3192SOL    HW110475   5.977   2.399   3.961
 3192SOL    HW210476   6.014   2.461   3.814
 3193SOL     OW10477   4.669   4.390   0.366
 3193SOL    HW110478   4.763   4.413   0.344
 3193SOL    HW210479   4.608   4.433   0.300
 3194SOL     OW10480   1.877   4.678   5.685
 3194SOL    HW110481   1.777   4.680   5.682
 3194SOL    HW210482   1.912   4.771   5.677
 3195SOL     OW10483   0.746   3.750   3.076
 3195SOL    HW110484   0.720   3.663   3.035
 3195SOL    HW210485   0.823   3.789   3.026
 3196SOL     OW10486   0.330   6.222   5.436
 3196SOL    HW110487   0.413   6.167   5.443
 3196SOL    HW210488   0.316   6.273   5.521
 3197SOL     OW10489   0.747   4.178   4.491
 3197SOL    HW110490   0.807   4.140   4.421
 3197SOL    HW210491   0.652   4.171   4.461
 3198SOL     OW10492   5.454   6.950   0.284
 3198SOL    HW110493   5.521   7.019   0.312
 3198SOL    HW210494   5.367   6.966   0.330
 3199SOL     OW10495   3.638   1.856   2.795
 3199SOL    HW110496   3.603   1.828   2.885
 3199SOL    HW210497   3.646   1.776   2.736
 3200SOL     OW10498   0.071   2.125   0.566
 3200SOL    HW110499   0.143   2.107   0.634
 3200SOL    HW210500   7.023   2.182   0.607
 3201SOL     OW10501   4.740   4.183   3.391
 3201SOL    HW110502   4.663   4.229   3.435
 3201SOL    HW210503   4.826   4.220   3.427
 3202SOL     OW10504   1.270   5.678   2.118
 3202SOL    HW110505   1.355   5.668   2.170
 3202SOL    HW210506   1.195   5.635   2.168
 3203SOL     OW10507   5.347   0.238   1.176
 3203SOL    HW110508   5.373   0.217   1.081
 3203SOL    HW210509   5.400   0.316   1.209
 3204SOL     OW10510   6.204   6.421   1.274
 3204SOL    HW110511   6.267   6.495   1.294
 3204SOL    HW210512   6.184   6.370   1.357
 3205SOL     OW10513   1.287   4.203   3.356
 3205SOL    HW110514   1.289   4.109   3.321
 3205SOL    HW210515   1.373   4.224   3.402
 3206SOL     OW10516   1.562   6.443   0.150
 3206SOL    HW110517   1.608   6.430   0.238
 3206SOL    HW210518   1.569   6.360   0.096
 3207SOL     OW10519   0.873   1.227   2.776
 3207SOL    HW110520   0.907   1.208   2.684
 3207SOL    HW210521   0.790   1.283   2.770
 3208SOL     OW10522   6.086   0.628   4.662
 3208SOL    HW110523   6.088   0.557   4.593
 3208SOL    HW210524   6.022   0.602   4.735
 3209SOL     OW10525   2.374   0.336   2.784
 3209SOL    HW110526   2.451   0.345   2.848
 3209SOL    HW210527   2.300   0.287   2.829
 3210SOL     OW10528   0.555   4.883   2.381
 3210SOL    HW110529   0.560   4.891   2.281
 3210SOL    HW210530   0.638   4.837   2.415
 3211SOL     OW10531   1.059   4.022   2.697
 3211SOL    HW110532   1.151   4.058   2.678
 3211SOL    HW210533   1.010   4.011   2.611
 3212SOL     OW10534   4.820   3.127   5.136
 3212SOL    HW110535   4.890   3.171   5.080
 3212SOL    HW210536   4.755   3.195   5.168
 3213SOL     OW10537   4.861   0.002   1.554
 3213SOL    HW110538   4.854   6.928   1.535
 3213SOL    HW210539   4.855   0.018   1.653
 3214SOL     OW10540   4.096   4.205   6.412
 3214SOL    HW110541   4.003   4.172   6.394
 3214SOL    HW210542   4.155   4.182   6.334
 3215SOL     OW10543   6.082   1.009   0.068
 3215SOL    HW110544   5.983   1.015   0.055
 3215SOL    HW210545   6.103   1.014   0.166
 3216SOL     OW10546   6.416   6.639   5.061
 3216SOL    HW110547   6.480   6.563   5.050
 3216SOL    HW210548   6.327   6.603   5.089
 3217SOL     OW10549   6.624   3.851   0.714
 3217SOL    HW110550   6.661   3.761   0.691
 3217SOL    HW210551   6.547   3.840   0.777
 3218SOL     OW10552   3.490   0.824   2.309
 3218SOL    HW110553   3.513   0.789   2.400
 3218SOL    HW210554   3.547   0.903   2.288
 3219SOL     OW10555   6.975   0.009   4.105
 3219SOL    HW110556   6.939   0.092   4.147
 3219SOL    HW210557   0.052   0.016   4.097
 3220SOL     OW10558   5.683   3.050   6.762
 3220SOL    HW110559   5.663   2.990   6.685
 3220SOL    HW210560   5.770   3.096   6.748
 3221SOL     OW10561   3.489   6.956   2.272
 3221SOL    HW110562   3.571   6.976   2.326
 3221SOL    HW210563   3.490   7.010   2.188
 3222SOL     OW10564   6.448   3.826   2.519
 3222SOL    HW110565   6.500   3.894   2.467
 3222SOL    HW210566   6.497   3.739   2.520
 3223SOL     OW10567   2.548   4.608   3.895
 3223SOL    HW110568   2.479   4.681   3.890
 3223SOL    HW210569   2.632   4.638   3.851
 3224SOL     OW10570   3.585   6.000   1.761
 3224SOL    HW110571   3.526   6.003   1.841
 3224SOL    HW210572   3.555   5.927   1.699
 3225SOL     OW10573   1.891   2.729   0.997
 3225SOL    HW110574   1.826   2.665   1.038
 3225SOL    HW210575   1.984   2.702   1.021
 3226SOL     OW10576   0.404   0.806   3.962
 3226SOL    HW110577   0.467   0.870   3.920
 3226SOL    HW210578   0.455   0.737   4.013
 3227SOL     OW10579   1.873   1.453   5.280
 3227SOL    HW110580   1.937   1.392   5.235
 3227SOL    HW210581   1.780   1.416   5.272
 3228SOL     OW10582   4.909   3.368   4.690
 3228SOL    HW110583   4.902   3.288   4.751
 3228SOL    HW210584   4.838   3.433   4.713
 3229SOL     OW10585   4.259   1.474   5.030
 3229SOL    HW110586   4.166   1.442   5.013
 3229SOL    HW210587   4.319   1.445   4.955
 3230SOL     OW10588   1.619   0.732   4.306
 3230SOL    HW110589   1.541   0.672   4.323
 3230SOL    HW210590   1.595   0.826   4.331
 3231SOL     OW10591   4.903   5.211   0.204
 3231SOL    HW110592   4.970   5.138   0.218
 3231SOL    HW210593   4.858   5.232   0.290
 3232SOL     OW10594   2.161   4.354   3.399
 3232SOL    HW110595   2.192   4.313   3.485
 3232SOL    HW210596   2.105   4.435   3.419
 3233SOL     OW10597   1.481   3.533   0.336
 3233SOL    HW110598   1.501   3.435   0.332
 3233SOL    HW210599   1.537   3.575   0.407
 3234SOL     OW10600   6.603   2.276   5.098
 3234SOL    HW110601   6.592   2.312   5.190
 3234SOL    HW210602   6.525   2.217   5.076
 3235SOL     OW10603   5.613   0.836   2.573
 3235SOL    HW110604   5.622   0.848   2.474
 3235SOL    HW210605   5.553   0.907   2.609
 3236SOL     OW10606   0.305   3.202   1.268
 3236SOL    HW110607   0.340   3.255   1.346
 3236SOL    HW210608   0.317   3.105   1.285
 3237SOL     OW10609   2.871   6.556   4.234
 3237SOL    HW110610   2.792   6.496   4.248
 3237SOL    HW210611   2.886   6.568   4.135
 3238SOL     OW10612   6.294   6.177   6.192
 3238SOL    HW110613   6.324   6.085   6.217
 3238SOL    HW210614   6.339   6.244   6.251
 3239SOL     OW10615   0.736   5.748   5.211
 3239SOL    HW110616   0.775   5.838   5.235
 3239SOL    HW210617   0.802   5.677   5.233
 3240SOL     OW10618   0.080   1.973   5.054
 3240SOL    HW110619   0.118   1.881   5.049
 3240SOL    HW210620   7.020   1.972   5.110
 3241SOL     OW10621   4.989   0.081   5.252
 3241SOL    HW110622   5.037   0.099   5.167
 3241SOL    HW210623   4.921   0.153   5.267
 3242SOL     OW10624   3.194   6.578   0.763
 3242SOL    HW110625   3.286   6.583   0.725
 3242SOL    HW210626   3.189   6.501   0.827
 3243SOL     OW10627   3.089   5.361   1.139
 3243SOL    HW110628   3.046   5.451   1.130
 3243SOL    HW210629   3.141   5.356   1.224
 3244SOL     OW10630   1.232   6.237   5.613
 3244SOL    HW110631   1.136   6.209   5.608
 3244SOL    HW210632   1.287   6.181   5.551
 3245SOL     OW10633   3.163   2.010   5.659
 3245SOL    HW110634   3.147   1.957   5.576
 3245SOL    HW210635   3.166   1.948   5.738
 3246SOL     OW10636   5.617   6.264   3.515
 3246SOL    HW110637   5.590   6.288   3.421
 3246SOL    HW210638   5.598   6.340   3.576
 3247SOL     OW10639   6.482   2.544   5.522
 3247SOL    HW110640   6.571   2.541   5.569
 3247SOL    HW210641   6.412   2.507   5.582
 3248SOL     OW10642   5.346   3.957   3.060
 3248SOL    HW110643   5.365   3.914   2.971
 3248SOL    HW210644   5.340   4.056   3.048
 3249SOL     OW10645   3.141   4.448   5.471
 3249SOL    HW110646   3.105   4.367   5.518
 3249SOL    HW210647   3.070   4.519   5.467
 3250SOL     OW10648   4.930   5.259   1.212
 3250SOL    HW110649   4.961   5.351   1.234
 3250SOL    HW210650   4.849   5.237   1.267
 3251SOL     OW10651   3.734   0.716   3.490
 3251SOL    HW110652   3.784   0.726   3.576
 3251SOL    HW210653   3.638   0.698   3.508
 3252SOL     OW10654   3.060   2.190   3.583
 3252SOL    HW110655   3.051   2.214   3.679
 3252SOL    HW210656   3.016   2.260   3.526
 3253SOL     OW10657   4.577   4.321   0.950
 3253SOL    HW110658   4.488   4.278   0.936
 3253SOL    HW210659   4.584   4.403   0.894
 3254SOL     OW10660   5.896   4.435   2.383
 3254SOL    HW110661   5.886   4.492   2.465
 3254SOL    HW210662   5.988   4.446   2.346
 3255SOL     OW10663   4.336   4.956   1.177
 3255SOL    HW110664   4.259   4.940   1.239
 3255SOL    HW210665   4.421   4.936   1.225
 3256SOL     OW10666   5.889   6.250   5.726
 3256SOL    HW110667   5.958   6.292   5.665
 3256SOL    HW210668   5.910   6.274   5.820
 3257SOL     OW10669   2.231   1.727   1.168
 3257SOL    HW110670   2.276   1.805   1.213
 3257SOL    HW210671   2.229   1.649   1.231
 3258SOL     OW10672   5.229   6.659   1.620
 3258SOL    HW110673   5.134   6.640   1.642
 3258SOL    HW210674   5.288   6.624   1.692
 3259SOL     OW10675   6.059   6.347   2.976
 3259SOL    HW110676   6.150   6.387   2.971
 3259SOL    HW210677   6.066   6.250   3.003
 3260SOL     OW10678   1.491   1.747   0.926
 3260SOL    HW110679   1.565   1.792   0.976
 3260SOL    HW210680   1.456   1.808   0.855
 3261SOL     OW10681   4.310   6.994   3.523
 3261SOL    HW110682   4.237   0.024   3.480
 3261SOL    HW210683   4.293   6.988   3.621
 3262SOL     OW10684   4.033   1.222   3.942
 3262SOL    HW110685   4.113   1.274   3.969
 3262SOL    HW210686   3.997   1.259   3.856
 3263SOL     OW10687   3.942   4.946   2.860
 3263SOL    HW110688   3.996   4.984   2.784
 3263SOL    HW210689   3.987   4.864   2.895
 3264SOL     OW10690   4.707   4.651   6.253
 3264SOL    HW110691   4.703   4.741   6.295
 3264SOL    HW210692   4.748   4.658   6.162
 3265SOL     OW10693   5.213   0.234   6.389
 3265SOL    HW110694   5.293   0.174   6.393
 3265SOL    HW210695   5.222   0.296   6.311
 3266SOL     OW10696   1.024   2.962   6.663
 3266SOL    HW110697   0.965   2.886   6.688
 3266SOL    HW210698   0.968   3.039   6.633
 3267SOL     OW10699   5.138   3.063   2.144
 3267SOL    HW110700   5.169   3.038   2.052
 3267SOL    HW210701   5.193   3.014   2.212
 3268SOL     OW10702   1.842   4.560   6.966
 3268SOL    HW110703   1.898   4.483   6.937
 3268SOL    HW210704   1.758   4.527   7.009
 3269SOL     OW10705   4.632   3.590   0.754
 3269SOL    HW110706   4.712   3.531   0.765
 3269SOL    HW210707   4.625   3.651   0.833
 3270SOL     OW10708   0.350   5.356   4.267
 3270SOL    HW110709   0.422   5.367   4.335
 3270SOL    HW210710   0.320   5.261   4.264
 3271SOL     OW10711   5.064   0.272   1.998
 3271SOL    HW110712   5.126   0.194   1.984
 3271SOL    HW210713   5.111   0.342   2.052
 3272SOL     OW10714   5.029   6.927   0.067
 3272SOL    HW110715   5.125   6.912   0.044
 3272SOL    HW210716   5.022   7.001   0.134
 3273SOL     OW10717   1.368   1.138   3.240
 3273SOL    HW110718   1.303   1.212   3.257
 3273SOL    HW210719   1.451   1.153   3.294
 3274SOL     OW10720   2.804   1.437   6.938
 3274SOL    HW110721   2.735   1.509   6.951
 3274SOL    HW210722   2.867   1.465   6.865
 3275SOL     OW10723   4.098   0.901   6.958
 3275SOL    HW110724   4.021   0.960   6.983
 3275SOL    HW210725   4.157   0.887   0.014
 3276SOL     OW10726   2.272   6.276   0.353
 3276SOL    HW110727   2.174   6.284   0.337
 3276SOL    HW210728   2.321   6.296   0.268
 3277SOL     OW10729   6.968   6.295   6.049
 3277SOL    HW110730   7.009   6.385   6.040
 3277SOL    HW210731   0.011   6.225   6.020
 3278SOL     OW10732   1.094   1.514   0.160
 3278SOL    HW110733   1.024   1.446   0.183
 3278SOL    HW210734   1.118   1.505   0.064
 3279SOL     OW10735   1.952   6.253   0.857
 3279SOL    HW110736   1.954   6.174   0.919
 3279SOL    HW210737   1.863   6.299   0.865
 3280SOL     OW10738   2.637   6.416   4.312
 3280SOL    HW110739   2.537   6.421   4.304
 3280SOL    HW210740   2.661   6.335   4.367
 3281SOL     OW10741   2.613   6.181   0.464
 3281SOL    HW110742   2.523   6.138   0.476
 3281SOL    HW210743   2.611   6.239   0.382
 3282SOL     OW10744   1.966   5.706   2.422
 3282SOL    HW110745   1.886   5.743   2.468
 3282SOL    HW210746   2.044   5.768   2.434
 3283SOL     OW10747   1.990   0.091   3.991
 3283SOL    HW110748   2.023   0.018   3.931
 3283SOL    HW210749   2.067   0.151   4.015
 3284SOL     OW10750   1.477   5.065   6.045
 3284SOL    HW110751   1.539   4.998   6.002
 3284SOL    HW210752   1.511   5.087   6.137
 3285SOL     OW10753   0.068   2.452   4.517
 3285SOL    HW110754   0.002   2.402   4.573
 3285SOL    HW210755   0.084   2.543   4.557
 3286SOL     OW10756   4.276   4.816   6.469
 3286SOL    HW110757   4.231   4.746   6.414
 3286SOL    HW210758   4.328   4.773   6.543
 3287SOL     OW10759   0.538   3.663   1.656
 3287SOL    HW110760   0.453   3.655   1.604
 3287SOL    HW210761   0.584   3.574   1.657
 3288SOL     OW10762   1.065   6.609   6.232
 3288SOL    HW110763   1.069   6.677   6.159
 3288SOL    HW210764   1.009   6.532   6.202
 3289SOL     OW10765   1.232   5.923   4.194
 3289SOL    HW110766   1.248   5.845   4.254
 3289SOL    HW210767   1.191   5.892   4.109
 3290SOL     OW10768   0.347   4.863   3.411
 3290SOL    HW110769   0.300   4.912   3.337
 3290SOL    HW210770   0.445   4.858   3.390
 3291SOL     OW10771   1.526   0.521   1.991
 3291SOL    HW110772   1.554   0.426   1.983
 3291SOL    HW210773   1.598   0.573   2.036
 3292SOL     OW10774   0.418   5.774   4.919
 3292SOL    HW110775   0.423   5.818   5.009
 3292SOL    HW210776   0.373   5.685   4.928
 3293SOL     OW10777   5.856   0.987   2.988
 3293SOL    HW110778   5.894   0.925   2.920
 3293SOL    HW210779   5.923   1.004   3.060
 3294SOL     OW10780   0.435   6.376   0.832
 3294SOL    HW110781   0.508   6.399   0.768
 3294SOL    HW210782   0.376   6.306   0.791
 3295SOL     OW10783   1.868   2.229   5.977
 3295SOL    HW110784   1.946   2.278   5.937
 3295SOL    HW210785   1.836   2.160   5.913
 3296SOL     OW10786   0.494   6.608   1.914
 3296SOL    HW110787   0.545   6.566   1.989
 3296SOL    HW210788   0.528   6.700   1.896
 3297SOL     OW10789   3.131   1.443   5.665
 3297SOL    HW110790   3.104   1.351   5.692
 3297SOL    HW210791   3.131   1.502   5.746
 3298SOL     OW10792   6.998   4.439   2.588
 3298SOL    HW110793   6.997   4.343   2.562
 3298SOL    HW210794   6.904   4.474   2.591
 3299SOL     OW10795   0.858   1.672   4.895
 3299SOL    HW110796   0.818   1.618   4.969
 3299SOL    HW210797   0.814   1.762   4.892
 3300SOL     OW10798   6.811   6.912   4.975
 3300SOL    HW110799   6.846   6.868   5.057
 3300SOL    HW210800   6.721   6.876   4.953
 3301SOL     OW10801   6.954   4.142   2.539
 3301SOL    HW110802   6.928   4.084   2.616
 3301SOL    HW210803   0.009   4.101   2.492
 3302SOL     OW10804   1.113   5.946   5.382
 3302SOL    HW110805   1.087   5.873   5.446
 3302SOL    HW210806   1.181   6.005   5.424
 3303SOL     OW10807   2.944   3.297   3.969
 3303SOL    HW110808   2.958   3.283   4.067
 3303SOL    HW210809   2.937   3.209   3.923
 3304SOL     OW10810   1.340   0.590   3.309
 3304SOL    HW110811   1.285   0.511   3.332
 3304SOL    HW210812   1.417   0.562   3.251
 3305SOL     OW10813   0.322   2.761   0.248
 3305SOL    HW110814   0.351   2.678   0.200
 3305SOL    HW210815   0.224   2.758   0.265
 3306SOL     OW10816   1.242   3.188   2.257
 3306SOL    HW110817   1.259   3.239   2.341
 3306SOL    HW210818   1.226   3.252   2.182
 3307SOL     OW10819   0.939   6.911   0.494
 3307SOL    HW110820   0.929   6.814   0.517
 3307SOL    HW210821   0.894   6.967   0.564
 3308SOL     OW10822   5.067   6.363   0.718
 3308SOL    HW110823   5.041   6.266   0.713
 3308SOL    HW210824   4.985   6.418   0.736
 3309SOL     OW10825   1.814   5.218   2.499
 3309SOL    HW110826   1.882   5.241   2.430
 3309SOL    HW210827   1.859   5.171   2.575
 3310SOL     OW10828   1.634   6.729   2.168
 3310SOL    HW110829   1.732   6.720   2.150
 3310SOL    HW210830   1.595   6.639   2.185
 3311SOL     OW10831   4.019   5.748   0.832
 3311SOL    HW110832   4.046   5.813   0.903
 3311SOL    HW210833   3.977   5.798   0.756
 3312SOL     OW10834   2.143   2.595   6.481
 3312SOL    HW110835   2.093   2.547   6.553
 3312SOL    HW210836   2.233   2.552   6.469
 3313SOL     OW10837   6.479   6.214   4.910
 3313SOL    HW110838   6.437   6.284   4.853
 3313SOL    HW210839   6.408   6.159   4.953
 3314SOL     OW10840   0.977   4.532   6.853
 3314SOL    HW110841   0.970   4.594   6.931
 3314SOL    HW210842   0.897   4.544   6.794
 3315SOL     OW10843   6.753   3.136   3.888
 3315SOL    HW110844   6.739   3.039   3.868
 3315SOL    HW210845   6.697   3.192   3.827
 3316SOL     OW10846   3.713   1.568   0.168
 3316SOL    HW110847   3.777   1.604   0.099
 3316SOL    HW210848   3.764   1.512   0.234
 3317SOL     OW10849   4.154   2.745   1.722
 3317SOL    HW110850   4.239   2.790   1.696
 3317SOL    HW210851   4.083   2.813   1.739
 3318SOL     OW10852   2.735   5.318   5.580
 3318SOL    HW110853   2.831   5.343   5.565
 3318SOL    HW210854   2.679   5.359   5.508
 3319SOL     OW10855   6.848   6.669   6.748
 3319SOL    HW110856   6.773   6.603   6.740
 3319SOL    HW210857   6.829   6.748   6.690
 3320SOL     OW10858   0.511   0.009   0.415
 3320SOL    HW110859   0.435   0.064   0.379
 3320SOL    HW210860   0.593   0.026   0.361
 3321SOL     OW10861   4.121   3.287   4.101
 3321SOL    HW110862   4.038   3.249   4.060
 3321SOL    HW210863   4.201   3.254   4.052
 3322SOL     OW10864   4.200   1.626   2.073
 3322SOL    HW110865   4.173   1.546   2.018
 3322SOL    HW210866   4.267   1.680   2.022
 3323SOL     OW10867   2.123   4.425   0.283
 3323SOL    HW110868   2.168   4.367   0.216
 3323SOL    HW210869   2.025   4.429   0.264
 3324SOL     OW10870   6.260   3.250   1.498
 3324SOL    HW110871   6.197   3.247   1.576
 3324SOL    HW210872   6.341   3.304   1.522
 3325SOL     OW10873   1.292   4.500   6.097
 3325SOL    HW110874   1.277   4.599   6.093
 3325SOL    HW210875   1.349   4.472   6.020
 3326SOL     OW10876   5.755   0.871   2.047
 3326SOL    HW110877   5.822   0.854   1.975
 3326SOL    HW210878   5.696   0.791   2.058
 3327SOL     OW10879   4.732   5.474   1.859
 3327SOL    HW110880   4.825   5.503   1.835
 3327SOL    HW210881   4.726   5.458   1.957
 3328SOL     OW10882   6.217   6.904   4.140
 3328SOL    HW110883   6.237   6.841   4.214
 3328SOL    HW210884   6.296   6.911   4.080
 3329SOL     OW10885   5.249   0.753   5.915
 3329SOL    HW110886   5.337   0.737   5.869
 3329SOL    HW210887   5.250   0.707   6.004
 3330SOL     OW10888   6.593   6.684   2.675
 3330SOL    HW110889   6.566   6.684   2.772
 3330SOL    HW210890   6.589   6.590   2.640
 3331SOL     OW10891   1.451   4.064   2.931
 3331SOL    HW110892   1.381   3.997   2.957
 3331SOL    HW210893   1.500   4.093   3.013
 3332SOL     OW10894   3.183   5.182   0.434
 3332SOL    HW110895   3.200   5.265   0.487
 3332SOL    HW210896   3.217   5.102   0.484
 3333SOL     OW10897   1.930   3.085   1.206
 3333SOL    HW110898   1.985   3.011   1.244
 3333SOL    HW210899   1.926   3.076   1.107
 3334SOL     OW10900   1.433   2.482   2.175
 3334SOL    HW110901   1.517   2.535   2.164
 3334SOL    HW210902   1.415   2.431   2.090
 3335SOL     OW10903   3.397   4.309   5.473
 3335SOL    HW110904   3.436   4.286   5.562
 3335SOL    HW210905   3.314   4.364   5.486
 3336SOL     OW10906   4.004   5.869   5.688
 3336SOL    HW110907   3.909   5.858   5.659
 3336SOL    HW210908   4.012   5.950   5.746
 3337SOL     OW10909   3.643   2.954   3.750
 3337SOL    HW110910   3.656   2.896   3.670
 3337SOL    HW210911   3.562   2.923   3.800
 3338SOL     OW10912   2.794   2.763   1.452
 3338SOL    HW110913   2.760   2.735   1.542
 3338SOL    HW210914   2.801   2.683   1.392
 3339SOL     OW10915   1.005   0.048   6.872
 3339SOL    HW110916   1.037   0.056   6.966
 3339SOL    HW210917   1.001   6.974   6.846
 3340SOL     OW10918   3.943   1.519   5.879
 3340SOL    HW110919   3.859   1.571   5.860
 3340SOL    HW210920   3.999   1.516   5.796
 3341SOL     OW10921   1.282   4.226   1.344
 3341SOL    HW110922   1.183   4.230   1.359
 3341SOL    HW210923   1.325   4.172   1.417
 3342SOL     OW10924   6.398   0.673   2.226
 3342SOL    HW110925   6.366   0.677   2.131
 3342SOL    HW210926   6.413   0.578   2.252
 3343SOL     OW10927   3.931   5.502   0.983
 3343SOL    HW110928   3.967   5.531   0.894
 3343SOL    HW210929   3.856   5.562   1.009
 3344SOL     OW10930   1.179   3.505   1.915
 3344SOL    HW110931   1.103   3.470   1.970
 3344SOL    HW210932   1.236   3.429   1.884
 3345SOL     OW10933   5.745   5.614   1.136
 3345SOL    HW110934   5.700   5.605   1.224
 3345SOL    HW210935   5.727   5.533   1.080
 3346SOL     OW10936   1.319   0.743   0.350
 3346SOL    HW110937   1.228   0.713   0.380
 3346SOL    HW210938   1.380   0.665   0.343
 3347SOL     OW10939   0.883   3.967   5.761
 3347SOL    HW110940   0.879   4.030   5.683
 3347SOL    HW210941   0.961   3.905   5.750
 3348SOL     OW10942   3.418   4.065   6.216
 3348SOL    HW110943   3.377   4.075   6.307
 3348SOL    HW210944   3.516   4.046   6.226
 3349SOL     OW10945   1.858   5.331   1.934
 3349SOL    HW110946   1.918   5.252   1.938
 3349SOL    HW210947   1.836   5.361   2.026
 3350SOL     OW10948   1.927   5.028   5.029
 3350SOL    HW110949   1.845   5.033   5.087
 3350SOL    HW210950   2.000   4.981   5.078
 3351SOL     OW10951   5.669   0.215   2.151
 3351SOL    HW110952   5.635   0.129   2.112
 3351SOL    HW210953   5.678   0.205   2.250
 3352SOL     OW10954   5.392   1.374   6.904
 3352SOL    HW110955   5.465   1.442   6.913
 3352SOL    HW210956   5.432   1.284   6.887
 3353SOL     OW10957   3.943   0.898   6.513
 3353SOL    HW110958   3.941   0.892   6.413
 3353SOL    HW210959   3.849   0.897   6.548
 3354SOL     OW10960   2.098   3.190   0.411
 3354SOL    HW110961   2.194   3.200   0.435
 3354SOL    HW210962   2.087   3.197   0.312
 3355SOL     OW10963   0.959   0.648   4.401
 3355SOL    HW110964   1.057   0.661   4.417
 3355SOL    HW210965   0.912   0.631   4.487
 3356SOL     OW10966   2.638   0.734   6.123
 3356SOL    HW110967   2.717   0.717   6.182
 3356SOL    HW210968   2.646   0.679   6.039
 3357SOL     OW10969   2.954   3.261   3.040
 3357SOL    HW110970   2.912   3.178   3.076
 3357SOL    HW210971   2.968   3.252   2.942
 3358SOL     OW10972   0.472   2.016   1.053
 3358SOL    HW110973   0.547   1.992   1.114
 3358SOL    HW210974   0.410   2.079   1.100
 3359SOL     OW10975   1.112   0.064   4.050
 3359SOL    HW110976   1.084   7.007   3.997
 3359SOL    HW210977   1.198   0.099   4.014
 3360SOL     OW10978   1.985   5.232   4.441
 3360SOL    HW110979   2.029   5.232   4.351
 3360SOL    HW210980   2.008   5.316   4.490
 3361SOL     OW10981   6.868   6.427   5.044
 3361SOL    HW110982   6.872   6.385   4.953
 3361SOL    HW210983   6.958   6.418   5.088
 3362SOL     OW10984   3.904   0.405   4.329
 3362SOL    HW110985   3.909   0.493   4.376
 3362SOL    HW210986   3.826   0.352   4.365
 3363SOL     OW10987   5.429   4.055   0.265
 3363SOL    HW110988   5.476   3.968   0.271
 3363SOL    HW210989   5.354   4.058   0.331
 3364SOL     OW10990   1.663   3.614   1.636
 3364SOL    HW110991   1.681   3.551   1.712
 3364SOL    HW210992   1.689   3.706   1.662
 3365SOL     OW10993   1.002   2.869   2.864
 3365SOL    HW110994   1.013   2.925   2.946
 3365SOL    HW210995   1.012   2.926   2.782
 3366SOL     OW10996   6.469   2.642   4.448
 3366SOL    HW110997   6.564   2.657   4.420
 3366SOL    HW210998   6.426   2.730   4.469
 3367SOL     OW10999   3.398   2.883   3.886
 3367SOL    HW111000   3.341   2.871   3.804
 3367SOL    HW211001   3.362   2.959   3.941
 3368SOL     OW11002   2.314   1.242   3.263
 3368SOL    HW111003   2.386   1.233   3.332
 3368SOL    HW211004   2.269   1.331   3.274
 3369SOL     OW11005   5.156   2.843   1.126
 3369SOL    HW111006   5.158   2.856   1.225
 3369SOL    HW211007   5.128   2.928   1.082
 3370SOL     OW11008   0.957   5.727   3.107
 3370SOL    HW111009   0.896   5.790   3.153
 3370SOL    HW211010   0.922   5.706   3.016
 3371SOL     OW11011   2.377   2.922   1.274
 3371SOL    HW111012   2.365   3.007   1.325
 3371SOL    HW211013   2.364   2.939   1.177
 3372SOL     OW11014   6.028   3.128   3.735
 3372SOL    HW111015   5.977   3.073   3.802
 3372SOL    HW211016   5.964   3.177   3.676
 3373SOL     OW11017   6.996   4.417   0.779
 3373SOL    HW111018   0.041   4.381   0.715
 3373SOL    HW211019   6.904   4.388   0.751
 3374SOL     OW11020   0.710   5.970   4.216
 3374SOL    HW111021   0.703   6.059   4.171
 3374SOL    HW211022   0.672   5.976   4.308
 3375SOL     OW11023   0.743   6.298   5.853
 3375SOL    HW111024   0.763   6.375   5.792
 3375SOL    HW211025   0.659   6.253   5.824
 3376SOL     OW11026   3.055   2.956   5.220
 3376SOL    HW111027   3.001   3.014   5.159
 3376SOL    HW211028   3.149   2.953   5.188
 3377SOL     OW11029   6.668   5.177   4.421
 3377SOL    HW111030   6.735   5.118   4.465
 3377SOL    HW211031   6.586   5.125   4.399
 3378SOL     OW11032   1.039   6.068   0.670
 3378SOL    HW111033   1.011   6.009   0.594
 3378SOL    HW211034   1.135   6.094   0.658
 3379SOL     OW11035   5.991   4.112   4.090
 3379SOL    HW111036   6.083   4.143   4.113
 3379SOL    HW211037   5.949   4.071   4.170
 3380SOL     OW11038   2.239   5.554   1.560
 3380SOL    HW111039   2.158   5.569   1.617
 3380SOL    HW211040   2.311   5.512   1.615
 3381SOL     OW11041   2.961   3.784   6.104
 3381SOL    HW111042   3.053   3.824   6.101
 3381SOL    HW211043   2.966   3.694   6.146
 3382SOL     OW11044   6.891   3.914   6.962
 3382SOL    HW111045   6.976   3.900   7.013
 3382SOL    HW211046   6.832   3.834   6.974
 3383SOL     OW11047   3.397   5.462   0.837
 3383SOL    HW111048   3.410   5.513   0.922
 3383SOL    HW211049   3.484   5.425   0.805
 3384SOL     OW11050   2.797   2.644   6.517
 3384SOL    HW111051   2.860   2.644   6.440
 3384SOL    HW211052   2.845   2.612   6.599
 3385SOL     OW11053   6.029   2.494   4.709
 3385SOL    HW111054   6.087   2.477   4.630
 3385SOL    HW211055   6.082   2.481   4.793
 3386SOL     OW11056   0.589   6.237   4.744
 3386SOL    HW111057   0.683   6.269   4.732
 3386SOL    HW211058   0.588   6.139   4.760
 3387SOL     OW11059   5.994   0.759   2.870
 3387SOL    HW111060   6.037   0.671   2.889
 3387SOL    HW211061   5.993   0.774   2.771
 3388SOL     OW11062   0.048   3.680   0.696
 3388SOL    HW111063   0.081   3.767   0.735
 3388SOL    HW211064   0.109   3.606   0.725
 3389SOL     OW11065   6.440   5.505   6.438
 3389SOL    HW111066   6.388   5.425   6.469
 3389SOL    HW211067   6.425   5.519   6.340
 3390SOL     OW11068   3.256   4.888   0.303
 3390SOL    HW111069   3.333   4.856   0.247
 3390SOL    HW211070   3.290   4.945   0.378
 3391SOL     OW11071   4.892   3.875   5.104
 3391SOL    HW111072   4.813   3.917   5.149
 3391SOL    HW211073   4.876   3.871   5.005
 3392SOL     OW11074   5.349   6.525   5.971
 3392SOL    HW111075   5.382   6.539   5.878
 3392SOL    HW211076   5.409   6.461   6.019
 3393SOL     OW11077   3.599   6.302   0.346
 3393SOL    HW111078   3.593   6.352   0.260
 3393SOL    HW211079   3.511   6.258   0.365
 3394SOL     OW11080   3.230   5.076   1.043
 3394SOL    HW111081   3.199   5.170   1.059
 3394SOL    HW211082   3.150   5.016   1.037
 3395SOL     OW11083   2.034   6.618   2.857
 3395SOL    HW111084   1.967   6.675   2.809
 3395SOL    HW211085   2.091   6.675   2.916
 3396SOL     OW11086   5.058   0.388   4.409
 3396SOL    HW111087   5.006   0.460   4.455
 3396SOL    HW211088   5.011   0.301   4.418
 3397SOL     OW11089   2.376   6.104   0.833
 3397SOL    HW111090   2.426   6.027   0.873
 3397SOL    HW211091   2.400   6.113   0.736
 3398SOL     OW11092   6.700   1.230   6.618
 3398SOL    HW111093   6.619   1.285   6.636
 3398SOL    HW211094   6.772   1.254   6.683
 3399SOL     OW11095   6.954   6.450   1.892
 3399SOL    HW111096   6.958   6.375   1.827
 3399SOL    HW211097   7.018   6.522   1.865
 3400SOL     OW11098   3.375   2.753   5.311
 3400SOL    HW111099   3.470   2.730   5.331
 3400SOL    HW211100   3.366   2.778   5.215
 3401SOL     OW11101   0.430   3.035   4.191
 3401SOL    HW111102   0.370   3.026   4.271
 3401SOL    HW211103   0.375   3.063   4.111
 3402SOL     OW11104   5.471   3.471   0.307
 3402SOL    HW111105   5.409   3.526   0.363
 3402SOL    HW211106   5.460   3.496   0.210
 3403SOL     OW11107   5.550   6.620   5.458
 3403SOL    HW111108   5.460   6.579   5.441
 3403SOL    HW211109   5.590   6.579   5.540
 3404SOL     OW11110   5.293   4.978   3.355
 3404SOL    HW111111   5.329   4.888   3.379
 3404SOL    HW211112   5.354   5.049   3.390
 3405SOL     OW11113   4.315   6.158   0.551
 3405SOL    HW111114   4.394   6.217   0.567
 3405SOL    HW211115   4.233   6.213   0.544
 3406SOL     OW11116   3.681   5.156   1.045
 3406SOL    HW111117   3.749   5.084   1.054
 3406SOL    HW211118   3.689   5.220   1.122
 3407SOL     OW11119   1.374   2.795   0.534
 3407SOL    HW111120   1.413   2.848   0.609
 3407SOL    HW211121   1.414   2.703   0.533
 3408SOL     OW11122   4.204   6.627   4.332
 3408SOL    HW111123   4.183   6.719   4.365
 3408SOL    HW211124   4.298   6.625   4.297
 3409SOL     OW11125   4.092   1.646   0.053
 3409SOL    HW111126   4.062   1.611   6.987
 3409SOL    HW211127   4.121   1.569   0.111
 3410SOL     OW11128   6.707   0.683   2.813
 3410SOL    HW111129   6.701   0.662   2.715
 3410SOL    HW211130   6.764   0.764   2.826
 3411SOL     OW11131   5.765   3.303   5.754
 3411SOL    HW111132   5.864   3.315   5.759
 3411SOL    HW211133   5.743   3.232   5.687
 3412SOL     OW11134   5.637   2.990   3.878
 3412SOL    HW111135   5.606   3.082   3.853
 3412SOL    HW211136   5.735   2.992   3.896
 3413SOL     OW11137   6.617   2.564   0.932
 3413SOL    HW111138   6.632   2.660   0.955
 3413SOL    HW211139   6.554   2.523   0.999
 3414SOL     OW11140   3.750   3.170   2.014
 3414SOL    HW111141   3.668   3.119   1.989
 3414SOL    HW211142   3.831   3.119   1.986
 3415SOL     OW11143   2.172   1.192   6.226
 3415SOL    HW111144   2.108   1.268   6.238
 3415SOL    HW211145   2.180   1.142   6.312
 3416SOL     OW11146   5.888   6.955   6.063
 3416SOL    HW111147   5.857   7.013   5.987
 3416SOL    HW211148   5.911   6.864   6.028
 3417SOL     OW11149   6.182   0.621   2.481
 3417SOL    HW111150   6.137   0.672   2.554
 3417SOL    HW211151   6.148   0.652   2.392
 3418SOL     OW11152   4.300   5.840   0.900
 3418SOL    HW111153   4.285   5.872   0.806
 3418SOL    HW211154   4.398   5.820   0.912
 3419SOL     OW11155   2.941   4.897   5.021
 3419SOL    HW111156   2.867   4.949   4.980
 3419SOL    HW211157   2.912   4.802   5.036
 3420SOL     OW11158   4.133   0.889   2.219
 3420SOL    HW111159   4.102   0.802   2.180
 3420SOL    HW211160   4.231   0.884   2.237
 3421SOL     OW11161   0.461   2.082   4.819
 3421SOL    HW111162   0.450   1.986   4.842
 3421SOL    HW211163   0.388   2.110   4.755
 3422SOL     OW11164   3.708   6.043   2.186
 3422SOL    HW111165   3.743   6.025   2.094
 3422SOL    HW211166   3.609   6.055   2.183
 3423SOL     OW11167   2.270   4.293   5.852
 3423SOL    HW111168   2.320   4.283   5.766
 3423SOL    HW211169   2.292   4.217   5.912
 3424SOL     OW11170   5.620   0.486   2.392
 3424SOL    HW111171   5.711   0.503   2.353
 3424SOL    HW211172   5.630   0.437   2.478
 3425SOL     OW11173   5.959   2.638   6.047
 3425SOL    HW111174   5.968   2.683   5.958
 3425SOL    HW211175   5.900   2.693   6.106
 3426SOL     OW11176   6.632   5.326   0.186
 3426SOL    HW111177   6.725   5.361   0.187
 3426SOL    HW211178   6.606   5.295   0.277
 3427SOL     OW11179   1.660   1.244   6.048
 3427SOL    HW111180   1.614   1.173   6.103
 3427SOL    HW211181   1.749   1.210   6.018
 3428SOL     OW11182   4.918   6.904   4.536
 3428SOL    HW111183   4.880   6.920   4.627
 3428SOL    HW211184   5.014   6.877   4.545
 3429SOL     OW11185   4.088   6.327   0.498
 3429SOL    HW111186   4.014   6.334   0.431
 3429SOL    HW211187   4.087   6.408   0.556
 3430SOL     OW11188   3.007   4.437   6.849
 3430SOL    HW111189   2.939   4.410   6.918
 3430SOL    HW211190   3.018   4.536   6.851
 3431SOL     OW11191   0.883   4.741   3.087
 3431SOL    HW111192   0.800   4.750   3.032
 3431SOL    HW211193   0.866   4.775   3.179
 3432SOL     OW11194   0.501   5.135   7.015
 3432SOL    HW111195   0.402   5.141   7.004
 3432SOL    HW211196   0.546   5.186   6.942
 3433SOL     OW11197   0.901   1.344   0.261
 3433SOL    HW111198   0.833   1.417   0.253
 3433SOL    HW211199   0.867   1.262   0.215
 3434SOL     OW11200   3.910   2.378   1.725
 3434SOL    HW111201   3.943   2.285   1.744
 3434SOL    HW211202   3.818   2.389   1.762
 3435SOL     OW11203   2.143   2.476   1.138
 3435SOL    HW111204   2.173   2.542   1.070
 3435SOL    HW211205   2.092   2.403   1.092
 3436SOL     OW11206   4.099   6.581   6.097
 3436SOL    HW111207   4.002   6.557   6.093
 3436SOL    HW211208   4.130   6.612   6.007
 3437SOL     OW11209   1.524   6.827   0.244
 3437SOL    HW111210   1.503   6.782   0.331
 3437SOL    HW211211   1.606   6.786   0.205
 3438SOL     OW11212   2.091   4.104   0.600
 3438SOL    HW111213   2.177   4.145   0.631
 3438SOL    HW211214   2.111   4.033   0.533
 3439SOL     OW11215   3.053   5.649   0.600
 3439SOL    HW111216   3.016   5.593   0.526
 3439SOL    HW211217   3.114   5.718   0.562
 3440SOL     OW11218   3.773   3.566   5.852
 3440SOL    HW111219   3.731   3.653   5.826
 3440SOL    HW211220   3.702   3.496   5.861
 3441SOL     OW11221   6.609   4.938   4.729
 3441SOL    HW111222   6.596   4.982   4.640
 3441SOL    HW211223   6.688   4.876   4.723
 3442SOL     OW11224   1.050   2.090   0.527
 3442SOL    HW111225   1.031   2.149   0.606
 3442SOL    HW211226   1.147   2.097   0.503
 3443SOL     OW11227   0.655   5.881   2.628
 3443SOL    HW111228   0.644   5.979   2.644
 3443SOL    HW211229   0.564   5.839   2.618
 3444SOL     OW11230   0.616   3.953   6.166
 3444SOL    HW111231   0.530   4.000   6.146
 3444SOL    HW211232   0.642   3.970   6.261
 3445SOL     OW11233   5.462   5.083   4.781
 3445SOL    HW111234   5.410   5.098   4.696
 3445SOL    HW211235   5.398   5.061   4.855
 3446SOL     OW11236   4.905   1.756   0.456
 3446SOL    HW111237   4.917   1.673   0.403
 3446SOL    HW211238   4.922   1.836   0.398
 3447SOL     OW11239   4.664   1.424   6.341
 3447SOL    HW111240   4.704   1.447   6.252
 3447SOL    HW211241   4.660   1.506   6.398
 3448SOL     OW11242   1.274   5.034   5.862
 3448SOL    HW111243   1.323   4.989   5.788
 3448SOL    HW211244   1.338   5.064   5.933
 3449SOL     OW11245   1.188   3.804   5.552
 3449SOL    HW111246   1.280   3.772   5.529
 3449SOL    HW211247   1.155   3.865   5.480
 3450SOL     OW11248   2.592   6.819   2.457
 3450SOL    HW111249   2.577   6.725   2.489
 3450SOL    HW211250   2.684   6.848   2.483
 3451SOL     OW11251   1.995   2.181   0.501
 3451SOL    HW111252   2.022   2.246   0.572
 3451SOL    HW211253   1.971   2.093   0.543
 3452SOL     OW11254   4.222   1.591   6.387
 3452SOL    HW111255   4.152   1.564   6.453
 3452SOL    HW211256   4.278   1.511   6.364
 3453SOL     OW11257   4.899   6.269   5.883
 3453SOL    HW111258   4.843   6.307   5.957
 3453SOL    HW211259   4.909   6.170   5.896
 3454SOL     OW11260   1.293   3.009   2.623
 3454SOL    HW111261   1.392   3.006   2.605
 3454SOL    HW211262   1.277   3.037   2.718
 3455SOL     OW11263   1.022   4.137   6.319
 3455SOL    HW111264   1.035   4.234   6.300
 3455SOL    HW211265   1.084   4.082   6.263
 3456SOL     OW11266   3.979   5.280   3.130
 3456SOL    HW111267   3.907   5.216   3.157
 3456SOL    HW211268   4.063   5.230   3.110
 3457SOL     OW11269   4.039   4.497   0.178
 3457SOL    HW111270   3.981   4.513   0.257
 3457SOL    HW211271   4.030   4.402   0.148
 3458SOL     OW11272   4.758   1.657   1.326
 3458SOL    HW111273   4.816   1.656   1.408
 3458SOL    HW211274   4.777   1.739   1.273
 3459SOL     OW11275   6.318   6.319   1.966
 3459SOL    HW111276   6.327   6.219   1.964
 3459SOL    HW211277   6.255   6.348   1.894
 3460SOL     OW11278   3.798   1.717   5.332
 3460SOL    HW111279   3.801   1.724   5.431
 3460SOL    HW211280   3.723   1.773   5.296
 3461SOL     OW11281   4.592   4.665   4.150
 3461SOL    HW111282   4.681   4.696   4.115
 3461SOL    HW211283   4.519   4.713   4.101
 3462SOL     OW11284   1.199   4.803   6.032
 3462SOL    HW111285   1.123   4.745   6.063
 3462SOL    HW211286   1.166   4.866   5.961
 3463SOL     OW11287   5.925   3.901   0.363
 3463SOL    HW111288   5.857   3.960   0.407
 3463SOL    HW211289   5.966   3.950   0.285
 3464SOL     OW11290   0.284   4.525   3.639
 3464SOL    HW111291   0.361   4.518   3.703
 3464SOL    HW211292   0.212   4.581   3.680
 3465SOL     OW11293   0.670   3.279   2.290
 3465SOL    HW111294   0.753   3.225   2.300
 3465SOL    HW211295   0.659   3.308   2.195
 3466SOL     OW11296   6.405   3.496   3.726
 3466SOL    HW111297   6.455   3.534   3.803
 3466SOL    HW211298   6.352   3.568   3.681
 3467SOL     OW11299   1.674   2.624   5.932
 3467SOL    HW111300   1.597   2.565   5.906
 3467SOL    HW211301   1.645   2.720   5.930
 3468SOL     OW11302   4.759   5.999   1.736
 3468SOL    HW111303   4.662   5.981   1.747
 3468SOL    HW211304   4.812   5.929   1.785
 3469SOL     OW11305   5.706   4.340   0.530
 3469SOL    HW111306   5.765   4.362   0.607
 3469SOL    HW211307   5.627   4.287   0.561
 3470SOL     OW11308   5.931   4.885   1.401
 3470SOL    HW111309   6.001   4.816   1.419
 3470SOL    HW211310   5.963   4.948   1.330
 3471SOL     OW11311   4.259   6.483   4.741
 3471SOL    HW111312   4.274   6.409   4.807
 3471SOL    HW211313   4.321   6.471   4.663
 3472SOL     OW11314   4.437   0.891   4.520
 3472SOL    HW111315   4.456   0.804   4.566
 3472SOL    HW211316   4.345   0.922   4.544
 3473SOL     OW11317   4.485   6.525   3.853
 3473SOL    HW111318   4.409   6.575   3.895
 3473SOL    HW211319   4.559   6.589   3.830
 3474SOL     OW11320   4.875   4.571   0.672
 3474SOL    HW111321   4.856   4.473   0.664
 3474SOL    HW211322   4.923   4.588   0.758
 3475SOL     OW11323   1.522   5.239   5.093
 3475SOL    HW111324   1.442   5.255   5.035
 3475SOL    HW211325   1.600   5.292   5.059
 3476SOL     OW11326   4.300   1.914   3.798
 3476SOL    HW111327   4.201   1.923   3.787
 3476SOL    HW211328   4.321   1.899   3.895
 3477SOL     OW11329   4.839   4.875   1.816
 3477SOL    HW111330   4.903   4.799   1.819
 3477SOL    HW211331   4.816   4.904   1.908
 3478SOL     OW11332   3.484   4.097   0.385
 3478SOL    HW111333   3.446   4.102   0.478
 3478SOL    HW211334   3.556   4.166   0.375
 3479SOL     OW11335   1.681   0.250   0.820
 3479SOL    HW111336   1.612   0.189   0.782
 3479SOL    HW211337   1.651   0.284   0.909
 3480SOL     OW11338   1.357   0.159   3.946
 3480SOL    HW111339   1.431   0.182   3.883
 3480SOL    HW211340   1.387   0.175   4.040
 3481SOL     OW11341   2.064   6.085   0.241
 3481SOL    HW111342   2.069   6.162   0.178
 3481SOL    HW211343   2.152   6.037   0.242
 3482SOL     OW11344   0.415   2.650   1.229
 3482SOL    HW111345   0.417   2.721   1.300
 3482SOL    HW211346   0.320   2.621   1.212
 3483SOL     OW11347   3.652   1.086   0.602
 3483SOL    HW111348   3.556   1.097   0.630
 3483SOL    HW211349   3.710   1.090   0.683
 3484SOL     OW11350   3.688   4.027   3.354
 3484SOL    HW111351   3.669   3.934   3.321
 3484SOL    HW211352   3.601   4.076   3.365
 3485SOL     OW11353   5.948   1.999   5.277
 3485SOL    HW111354   5.935   2.096   5.258
 3485SOL    HW211355   5.921   1.979   5.371
 3486SOL     OW11356   5.637   0.572   3.375
 3486SOL    HW111357   5.587   0.637   3.317
 3486SOL    HW211358   5.735   0.590   3.367
 3487SOL     OW11359   0.842   0.039   0.729
 3487SOL    HW111360   0.847   0.137   0.746
 3487SOL    HW211361   0.784   7.019   0.798
 3488SOL     OW11362   6.208   4.144   4.318
 3488SOL    HW111363   6.219   4.054   4.358
 3488SOL    HW211364   6.195   4.212   4.391
 3489SOL     OW11365   2.733   5.370   0.041
 3489SOL    HW111366   2.832   5.364   0.048
 3489SOL    HW211367   2.702   5.457   0.081
 3490SOL     OW11368   4.731   3.486   0.431
 3490SOL    HW111369   4.737   3.413   0.499
 3490SOL    HW211370   4.638   3.523   0.431
 3491SOL     OW11371   6.046   2.802   5.127
 3491SOL    HW111372   6.105   2.874   5.163
 3491SOL    HW211373   6.005   2.833   5.041
 3492SOL     OW11374   6.495   4.941   0.060
 3492SOL    HW111375   6.593   4.939   0.082
 3492SOL    HW211376   6.460   5.033   0.077
 3493SOL     OW11377   6.600   4.780   1.651
 3493SOL    HW111378   6.640   4.868   1.625
 3493SOL    HW211379   6.588   4.724   1.569
 3494SOL     OW11380   2.738   6.324   1.222
 3494SOL    HW111381   2.763   6.415   1.189
 3494SOL    HW211382   2.793   6.302   1.302
 3495SOL     OW11383   5.773   4.572   6.562
 3495SOL    HW111384   5.698   4.628   6.599
 3495SOL    HW211385   5.793   4.498   6.625
 3496SOL     OW11386   1.123   5.345   0.999
 3496SOL    HW111387   1.055   5.361   0.928
 3496SOL    HW211388   1.167   5.432   1.024
 3497SOL     OW11389   4.164   6.882   4.402
 3497SOL    HW111390   4.195   6.928   4.485
 3497SOL    HW211391   4.140   6.951   4.334
 3498SOL     OW11392   1.047   1.782   0.199
 3498SOL    HW111393   1.035   1.684   0.188
 3498SOL    HW211394   1.063   1.803   0.295
 3499SOL     OW11395   0.084   4.397   4.218
 3499SOL    HW111396   0.066   4.393   4.317
 3499SOL    HW211397   0.030   4.327   4.172
 3500SOL     OW11398   5.613   3.061   0.835
 3500SOL    HW111399   5.605   3.158   0.813
 3500SOL    HW211400   5.548   3.009   0.779
 3501SOL     OW11401   0.535   4.795   2.793
 3501SOL    HW111402   0.523   4.697   2.811
 3501SOL    HW211403   0.480   4.822   2.714
 3502SOL     OW11404   0.574   5.263   1.450
 3502SOL    HW111405   0.623   5.346   1.422
 3502SOL    HW211406   0.520   5.229   1.372
 3503SOL     OW11407   3.525   6.812   3.245
 3503SOL    HW111408   3.433   6.833   3.211
 3503SOL    HW211409   3.590   6.878   3.208
 3504SOL     OW11410   1.947   2.847   2.960
 3504SOL    HW111411   1.937   2.942   2.929
 3504SOL    HW211412   1.871   2.793   2.924
 3505SOL     OW11413   4.657   6.606   4.896
 3505SOL    HW111414   4.647   6.706   4.902
 3505SOL    HW211415   4.607   6.563   4.971
 3506SOL     OW11416   6.133   4.757   2.499
 3506SOL    HW111417   6.083   4.785   2.416
 3506SOL    HW211418   6.183   4.673   2.480
 3507SOL     OW11419   0.107   0.264   5.838
 3507SOL    HW111420   0.139   0.215   5.756
 3507SOL    HW211421   0.134   0.213   5.920
 3508SOL     OW11422   6.368   4.623   6.805
 3508SOL    HW111423   6.444   4.569   6.768
 3508SOL    HW211424   6.288   4.613   6.746
 3509SOL     OW11425   5.558   0.054   6.666
 3509SOL    HW111426   5.644   0.084   6.708
 3509SOL    HW211427   5.564   6.979   6.645
 3510SOL     OW11428   1.737   1.519   1.970
 3510SOL    HW111429   1.666   1.472   1.918
 3510SOL    HW211430   1.781   1.589   1.913
 3511SOL     OW11431   0.823   0.894   4.827
 3511SOL    HW111432   0.780   0.823   4.884
 3511SOL    HW211433   0.753   0.955   4.790
 3512SOL     OW11434   3.989   2.828   1.290
 3512SOL    HW111435   4.066   2.804   1.231
 3512SOL    HW211436   3.927   2.750   1.297
 3513SOL     OW11437   5.892   4.218   1.381
 3513SOL    HW111438   5.907   4.281   1.458
 3513SOL    HW211439   5.815   4.158   1.402
 3514SOL     OW11440   2.216   6.279   2.003
 3514SOL    HW111441   2.252   6.372   2.002
 3514SOL    HW211442   2.291   6.214   2.014
 3515SOL     OW11443   3.915   6.075   3.148
 3515SOL    HW111444   3.913   6.023   3.063
 3515SOL    HW211445   3.944   6.015   3.223
 3516SOL     OW11446   2.002   0.408   0.092
 3516SOL    HW111447   1.994   0.465   0.174
 3516SOL    HW211448   2.098   0.393   0.071
 3517SOL     OW11449   0.749   0.781   6.929
 3517SOL    HW111450   0.666   0.790   6.984
 3517SOL    HW211451   0.794   0.694   6.949
 3518SOL     OW11452   4.190   3.548   6.197
 3518SOL    HW111453   4.127   3.481   6.157
 3518SOL    HW211454   4.189   3.632   6.143
 3519SOL     OW11455   3.448   6.542   0.446
 3519SOL    HW111456   3.503   6.560   0.528
 3519SOL    HW211457   3.419   6.447   0.446
 3520SOL     OW11458   3.544   4.913   1.489
 3520SOL    HW111459   3.527   4.823   1.450
 3520SOL    HW211460   3.560   4.979   1.415
 3521SOL     OW11461   6.554   2.511   6.253
 3521SOL    HW111462   6.560   2.556   6.342
 3521SOL    HW211463   6.605   2.425   6.255
 3522SOL     OW11464   2.685   0.435   0.704
 3522SOL    HW111465   2.642   0.480   0.783
 3522SOL    HW211466   2.754   0.371   0.737
 3523SOL     OW11467   2.666   4.784   5.222
 3523SOL    HW111468   2.733   4.817   5.289
 3523SOL    HW211469   2.691   4.693   5.192
 3524SOL     OW11470   2.512   1.055   2.784
 3524SOL    HW111471   2.490   1.099   2.871
 3524SOL    HW211472   2.504   1.122   2.710
 3525SOL     OW11473   1.454   3.346   3.398
 3525SOL    HW111474   1.532   3.390   3.443
 3525SOL    HW211475   1.466   3.350   3.299
 3526SOL     OW11476   3.362   6.633   3.405
 3526SOL    HW111477   3.309   6.592   3.331
 3526SOL    HW211478   3.437   6.687   3.366
 3527SOL     OW11479   5.504   3.783   0.138
 3527SOL    HW111480   5.447   3.705   0.111
 3527SOL    HW211481   5.557   3.815   0.060
 3528SOL     OW11482   1.996   6.871   4.715
 3528SOL    HW111483   1.982   6.846   4.810
 3528SOL    HW211484   1.975   6.793   4.656
 3529SOL     OW11485   3.905   5.419   0.227
 3529SOL    HW111486   3.938   5.513   0.226
 3529SOL    HW211487   3.859   5.401   0.314
 3530SOL     OW11488   1.820   6.380   2.870
 3530SOL    HW111489   1.812   6.378   2.770
 3530SOL    HW211490   1.880   6.455   2.897
 3531SOL     OW11491   5.539   4.702   6.935
 3531SOL    HW111492   5.529   4.789   6.984
 3531SOL    HW211493   5.563   4.630   7.000
 3532SOL     OW11494   1.954   6.662   0.897
 3532SOL    HW111495   1.961   6.616   0.986
 3532SOL    HW211496   2.042   6.704   0.874
 3533SOL     OW11497   1.500   0.879   3.612
 3533SOL    HW111498   1.478   0.961   3.664
 3533SOL    HW211499   1.417   0.845   3.568
 3534SOL     OW11500   5.331   0.701   5.056
 3534SOL    HW111501   5.369   0.769   5.119
 3534SOL    HW211502   5.307   0.618   5.107
 3535SOL     OW11503   4.943   6.712   0.236
 3535SOL    HW111504   5.000   6.726   0.317
 3535SOL    HW211505   4.979   6.768   0.161
 3536SOL     OW11506   1.257   3.098   2.905
 3536SOL    HW111507   1.281   3.191   2.931
 3536SOL    HW211508   1.239   3.044   2.987
 3537SOL     OW11509   3.106   4.906   1.580
 3537SOL    HW111510   3.135   4.946   1.493
 3537SOL    HW211511   3.097   4.978   1.649
 3538SOL     OW11512   3.858   0.796   3.829
 3538SOL    HW111513   3.789   0.728   3.802
 3538SOL    HW211514   3.937   0.789   3.767
 3539SOL     OW11515   4.875   5.539   5.322
 3539SOL    HW111516   4.789   5.587   5.302
 3539SOL    HW211517   4.952   5.599   5.302
 3540SOL     OW11518   3.754   4.798   6.308
 3540SOL    HW111519   3.691   4.759   6.242
 3540SOL    HW211520   3.703   4.849   6.377
 3541SOL     OW11521   1.000   2.691   2.241
 3541SOL    HW111522   1.006   2.616   2.175
 3541SOL    HW211523   1.059   2.671   2.319
 3542SOL     OW11524   6.014   1.545   0.143
 3542SOL    HW111525   5.958   1.607   0.088
 3542SOL    HW211526   5.957   1.469   0.176
 3543SOL     OW11527   0.440   2.484   3.801
 3543SOL    HW111528   0.371   2.521   3.739
 3543SOL    HW211529   0.426   2.519   3.893
 3544SOL     OW11530   2.652   4.132   6.784
 3544SOL    HW111531   2.716   4.143   6.859
 3544SOL    HW211532   2.703   4.123   6.698
 3545SOL     OW11533   3.603   6.601   0.652
 3545SOL    HW111534   3.696   6.588   0.688
 3545SOL    HW211535   3.570   6.691   0.678
 3546SOL     OW11536   6.469   4.940   1.342
 3546SOL    HW111537   6.503   4.848   1.323
 3546SOL    HW211538   6.539   4.991   1.391
 3547SOL     OW11539   0.562   3.878   4.496
 3547SOL    HW111540   0.493   3.857   4.566
 3547SOL    HW211541   0.535   3.961   4.447
 3548SOL     OW11542   6.396   0.234   5.591
 3548SOL    HW111543   6.399   0.149   5.643
 3548SOL    HW211544   6.404   0.312   5.653
 3549SOL     OW11545   2.240   6.224   6.553
 3549SOL    HW111546   2.165   6.275   6.510
 3549SOL    HW211547   2.316   6.286   6.573
 3550SOL     OW11548   5.689   1.967   6.073
 3550SOL    HW111549   5.783   1.948   6.043
 3550SOL    HW211550   5.691   2.007   6.164
 3551SOL     OW11551   5.735   1.835   5.155
 3551SOL    HW111552   5.785   1.779   5.221
 3551SOL    HW211553   5.754   1.802   5.062
 3552SOL     OW11554   6.860   0.201   2.835
 3552SOL    HW111555   6.822   0.150   2.758
 3552SOL    HW211556   6.810   0.287   2.846
 3553SOL     OW11557   6.416   5.944   6.291
 3553SOL    HW111558   6.504   5.954   6.245
 3553SOL    HW211559   6.426   5.968   6.388
 3554SOL     OW11560   4.830   4.664   6.664
 3554SOL    HW111561   4.924   4.643   6.691
 3554SOL    HW211562   4.826   4.757   6.626
 3555SOL     OW11563   2.733   1.295   5.175
 3555SOL    HW111564   2.702   1.327   5.085
 3555SOL    HW211565   2.661   1.311   5.242
 3556SOL     OW11566   6.441   0.944   0.068
 3556SOL    HW111567   6.427   1.041   0.088
 3556SOL    HW211568   6.374   0.914   7.023
 3557SOL     OW11569   4.969   6.643   1.708
 3557SOL    HW111570   4.908   6.643   1.787
 3557SOL    HW211571   4.940   6.713   1.643
 3558SOL     OW11572   3.852   5.638   2.575
 3558SOL    HW111573   3.811   5.547   2.571
 3558SOL    HW211574   3.812   5.696   2.505
 3559SOL     OW11575   3.891   6.692   6.811
 3559SOL    HW111576   3.918   6.709   6.716
 3559SOL    HW211577   3.914   6.772   6.867
 3560SOL     OW11578   2.245   6.048   4.349
 3560SOL    HW111579   2.343   6.053   4.327
 3560SOL    HW211580   2.192   6.086   4.273
 3561SOL     OW11581   3.955   3.045   5.468
 3561SOL    HW111582   3.989   3.015   5.379
 3561SOL    HW211583   3.955   2.967   5.532
 3562SOL     OW11584   2.579   1.093   0.522
 3562SOL    HW111585   2.500   1.040   0.494
 3562SOL    HW211586   2.643   1.101   0.445
 3563SOL     OW11587   0.006   2.553   6.890
 3563SOL    HW111588   7.022   2.644   6.930
 3563SOL    HW211589   0.071   2.556   6.813
 3564SOL     OW11590   6.618   3.767   3.080
 3564SOL    HW111591   6.676   3.848   3.086
 3564SOL    HW211592   6.548   3.781   3.011
 3565SOL     OW11593   5.128   6.640   5.664
 3565SOL    HW111594   5.041   6.684   5.687
 3565SOL    HW211595   5.119   6.541   5.676
 3566SOL     OW11596   1.197   0.668   5.848
 3566SOL    HW111597   1.268   0.693   5.914
 3566SOL    HW211598   1.236   0.669   5.756
 3567SOL     OW11599   7.007   4.309   6.996
 3567SOL    HW111600   6.910   4.322   7.014
 3567SOL    HW211601   7.020   4.286   6.899
 3568SOL     OW11602   3.900   3.634   5.597
 3568SOL    HW111603   3.862   3.542   5.584
 3568SOL    HW211604   3.861   3.674   5.680
 3569SOL     OW11605   1.702   0.224   3.472
 3569SOL    HW111606   1.756   0.304   3.495
 3569SOL    HW211607   1.759   0.142   3.478
 3570SOL     OW11608   5.964   1.862   4.302
 3570SOL    HW111609   6.038   1.857   4.236
 3570SOL    HW211610   5.948   1.771   4.341
 3571SOL     OW11611   6.249   5.405   4.712
 3571SOL    HW111612   6.185   5.354   4.655
 3571SOL    HW211613   6.255   5.360   4.802
 3572SOL     OW11614   6.047   6.730   5.697
 3572SOL    HW111615   5.984   6.666   5.654
 3572SOL    HW211616   6.133   6.732   5.646
 3573SOL     OW11617   0.161   2.329   1.100
 3573SOL    HW111618   0.109   2.413   1.081
 3573SOL    HW211619   0.187   2.286   1.014
 3574SOL     OW11620   6.342   3.983   0.031
 3574SOL    HW111621   6.334   3.959   6.958
 3574SOL    HW211622   6.321   4.080   0.044
 3575SOL     OW11623   6.372   6.826   1.878
 3575SOL    HW111624   6.361   6.785   1.968
 3575SOL    HW211625   6.309   6.903   1.867
 3576SOL     OW11626   6.481   0.382   6.983
 3576SOL    HW111627   6.566   0.330   6.983
 3576SOL    HW211628   6.501   0.478   6.963
 3577SOL     OW11629   2.354   3.847   0.107
 3577SOL    HW111630   2.260   3.816   0.091
 3577SOL    HW211631   2.383   3.904   0.030
 3578SOL     OW11632   3.558   4.346   1.750
 3578SOL    HW111633   3.529   4.442   1.759
 3578SOL    HW211634   3.657   4.340   1.767
 3579SOL     OW11635   1.679   4.135   5.331
 3579SOL    HW111636   1.728   4.136   5.419
 3579SOL    HW211637   1.581   4.131   5.348
 3580SOL     OW11638   6.264   2.971   0.869
 3580SOL    HW111639   6.242   3.024   0.952
 3580SOL    HW211640   6.359   2.988   0.843
 3581SOL     OW11641   6.465   0.476   3.262
 3581SOL    HW111642   6.390   0.523   3.217
 3581SOL    HW211643   6.551   0.522   3.241
 3582SOL     OW11644   0.374   6.999   5.425
 3582SOL    HW111645   0.358   6.904   5.451
 3582SOL    HW211646   0.297   0.009   5.370
 3583SOL     OW11647   0.829   5.253   1.994
 3583SOL    HW111648   0.795   5.257   1.900
 3583SOL    HW211649   0.868   5.342   2.018
 3584SOL     OW11650   6.006   0.231   5.238
 3584SOL    HW111651   6.015   0.272   5.329
 3584SOL    HW211652   6.068   0.279   5.175
 3585SOL     OW11653   2.172   4.934   3.575
 3585SOL    HW111654   2.134   4.964   3.488
 3585SOL    HW211655   2.240   4.862   3.559
 3586SOL     OW11656   0.955   0.564   6.010
 3586SOL    HW111657   1.013   0.516   6.076
 3586SOL    HW211658   1.013   0.614   5.946
 3587SOL     OW11659   3.503   6.873   6.571
 3587SOL    HW111660   3.553   6.828   6.645
 3587SOL    HW211661   3.441   6.807   6.528
 3588SOL     OW11662   2.496   2.304   5.496
 3588SOL    HW111663   2.450   2.392   5.507
 3588SOL    HW211664   2.435   2.239   5.451
 3589SOL     OW11665   3.713   6.967   4.536
 3589SOL    HW111666   3.790   6.903   4.530
 3589SOL    HW211667   3.698   7.009   4.446
 3590SOL     OW11668   1.106   5.239   6.541
 3590SOL    HW111669   1.069   5.294   6.615
 3590SOL    HW211670   1.160   5.164   6.579
 3591SOL     OW11671   5.396   2.251   5.004
 3591SOL    HW111672   5.349   2.260   5.092
 3591SOL    HW211673   5.354   2.178   4.951
 3592SOL     OW11674   5.469   2.275   1.563
 3592SOL    HW111675   5.374   2.304   1.557
 3592SOL    HW211676   5.473   2.183   1.602
 3593SOL     OW11677   1.009   5.783   4.533
 3593SOL    HW111678   0.961   5.780   4.445
 3593SOL    HW211679   1.004   5.693   4.576
 3594SOL     OW11680   3.924   1.817   4.422
 3594SOL    HW111681   3.986   1.786   4.350
 3594SOL    HW211682   3.903   1.913   4.409
 3595SOL     OW11683   2.104   6.556   5.306
 3595SOL    HW111684   2.049   6.637   5.286
 3595SOL    HW211685   2.188   6.583   5.352
 3596SOL     OW11686   0.408   3.626   3.560
 3596SOL    HW111687   0.337   3.663   3.499
 3596SOL    HW211688   0.489   3.602   3.506
 3597SOL     OW11689   3.809   7.000   3.839
 3597SOL    HW111690   3.908   7.014   3.838
 3597SOL    HW211691   3.763   0.066   3.833
 3598SOL     OW11692   1.630   0.190   7.016
 3598SOL    HW111693   1.682   0.267   6.979
 3598SOL    HW211694   1.621   0.120   6.945
 3599SOL     OW11695   6.844   1.732   4.341
 3599SOL    HW111696   6.930   1.760   4.382
 3599SOL    HW211697   6.771   1.795   4.368
 3600SOL     OW11698   6.419   0.516   1.236
 3600SOL    HW111699   6.356   0.464   1.294
 3600SOL    HW211700   6.512   0.507   1.273
 3601SOL     OW11701   5.717   3.606   6.033
 3601SOL    HW111702   5.741   3.693   6.078
 3601SOL    HW211703   5.620   3.588   6.043
 3602SOL     OW11704   2.884   1.689   1.405
 3602SOL    HW111705   2.953   1.711   1.336
 3602SOL    HW211706   2.795   1.723   1.376
 3603SOL     OW11707   4.162   5.134   4.786
 3603SOL    HW111708   4.135   5.045   4.751
 3603SOL    HW211709   4.261   5.135   4.801
 3604SOL     OW11710   6.470   4.441   3.397
 3604SOL    HW111711   6.562   4.474   3.420
 3604SOL    HW211712   6.475   4.344   3.372
 3605SOL     OW11713   6.017   2.920   6.994
 3605SOL    HW111714   6.045   2.985   6.923
 3605SOL    HW211715   5.995   2.970   0.055
 3606SOL     OW11716   1.608   4.175   3.125
 3606SOL    HW111717   1.556   4.234   3.187
 3606SOL    HW211718   1.698   4.216   3.108
 3607SOL     OW11719   4.413   6.905   0.097
 3607SOL    HW111720   4.363   6.902   0.183
 3607SOL    HW211721   4.353   6.937   0.024
 3608SOL     OW11722   0.817   2.885   3.331
 3608SOL    HW111723   0.902   2.846   3.363
 3608SOL    HW211724   0.805   2.977   3.369
 3609SOL     OW11725   6.836   0.250   4.149
 3609SOL    HW111726   6.802   0.260   4.243
 3609SOL    HW211727   6.905   0.320   4.131
 3610SOL     OW11728   1.838   5.496   5.734
 3610SOL    HW111729   1.798   5.405   5.732
 3610SOL    HW211730   1.869   5.521   5.643
 3611SOL     OW11731   4.312   5.617   5.344
 3611SOL    HW111732   4.379   5.686   5.372
 3611SOL    HW211733   4.224   5.637   5.388
 3612SOL     OW11734   1.985   6.411   1.067
 3612SOL    HW111735   2.002   6.366   0.979
 3612SOL    HW211736   2.034   6.363   1.139
 3613SOL     OW11737   4.870   5.108   6.207
 3613SOL    HW111738   4.945   5.051   6.240
 3613SOL    HW211739   4.844   5.080   6.115
 3614SOL     OW11740   4.048   3.365   4.860
 3614SOL    HW111741   4.108   3.442   4.884
 3614SOL    HW211742   4.010   3.326   4.944
 3615SOL     OW11743   5.873   6.515   6.289
 3615SOL    HW111744   5.802   6.450   6.264
 3615SOL    HW211745   5.947   6.511   6.223
 3616SOL     OW11746   5.878   0.751   4.470
 3616SOL    HW111747   5.964   0.748   4.522
 3616SOL    HW211748   5.840   0.659   4.464
 3617SOL     OW11749   0.095   0.419   0.233
 3617SOL    HW111750   0.154   0.338   0.235
 3617SOL    HW211751   0.005   0.394   0.196
 3618SOL     OW11752   2.806   6.339   6.344
 3618SOL    HW111753   2.903   6.353   6.327
 3618SOL    HW211754   2.758   6.333   6.256
 3619SOL     OW11755   5.180   4.069   3.848
 3619SOL    HW111756   5.113   4.140   3.831
 3619SOL    HW211757   5.229   4.048   3.763
 3620SOL     OW11758   6.203   1.201   4.863
 3620SOL    HW111759   6.163   1.177   4.951
 3620SOL    HW211760   6.303   1.200   4.870
 3621SOL     OW11761   1.525   3.200   5.613
 3621SOL    HW111762   1.566   3.115   5.580
 3621SOL    HW211763   1.589   3.276   5.597
 3622SOL     OW11764   0.555   3.735   1.292
 3622SOL    HW111765   0.494   3.752   1.215
 3622SOL    HW211766   0.586   3.640   1.290
 3623SOL     OW11767   6.713   5.079   4.038
 3623SOL    HW111768   6.779   5.108   4.107
 3623SOL    HW211769   6.621   5.109   4.066
 3624SOL     OW11770   1.864   0.865   2.173
 3624SOL    HW111771   1.814   0.951   2.185
 3624SOL    HW211772   1.883   0.825   2.263
 3625SOL     OW11773   0.755   3.500   4.334
 3625SOL    HW111774   0.666   3.497   4.378
 3625SOL    HW211775   0.764   3.423   4.271
 3626SOL     OW11776   2.681   4.256   5.412
 3626SOL    HW111777   2.643   4.167   5.389
 3626SOL    HW211778   2.670   4.318   5.334
 3627SOL     OW11779   3.392   3.210   3.932
 3627SOL    HW111780   3.474   3.207   3.875
 3627SOL    HW211781   3.413   3.258   4.017
 3628SOL     OW11782   2.873   5.712   3.354
 3628SOL    HW111783   2.852   5.802   3.314
 3628SOL    HW211784   2.963   5.682   3.323
 3629SOL     OW11785   5.128   3.180   5.358
 3629SOL    HW111786   5.070   3.198   5.279
 3629SOL    HW211787   5.171   3.265   5.387
 3630SOL     OW11788   5.486   1.319   5.024
 3630SOL    HW111789   5.533   1.284   4.943
 3630SOL    HW211790   5.482   1.419   5.019
 3631SOL     OW11791   2.193   1.422   3.503
 3631SOL    HW111792   2.106   1.461   3.533
 3631SOL    HW211793   2.251   1.405   3.583
 3632SOL     OW11794   4.060   6.947   6.344
 3632SOL    HW111795   4.066   7.007   6.425
 3632SOL    HW211796   4.145   6.895   6.335
 3633SOL     OW11797   1.225   3.571   5.224
 3633SOL    HW111798   1.323   3.582   5.241
 3633SOL    HW211799   1.194   3.486   5.267
 3634SOL     OW11800   3.337   5.081   6.070
 3634SOL    HW111801   3.393   5.087   6.153
 3634SOL    HW211802   3.370   5.147   6.003
 3635SOL     OW11803   1.545   0.963   5.048
 3635SOL    HW111804   1.594   1.013   5.119
 3635SOL    HW211805   1.560   0.865   5.059
 3636SOL     OW11806   1.359   6.077   6.884
 3636SOL    HW111807   1.291   6.093   6.813
 3636SOL    HW211808   1.409   5.992   6.864
 3637SOL     OW11809   4.803   1.070   1.582
 3637SOL    HW111810   4.756   1.028   1.660
 3637SOL    HW211811   4.823   1.166   1.603
 3638SOL     OW11812   6.350   5.152   3.554
 3638SOL    HW111813   6.272   5.214   3.545
 3638SOL    HW211814   6.323   5.060   3.525
 3639SOL     OW11815   2.763   5.587   0.233
 3639SOL    HW111816   2.687   5.572   0.296
 3639SOL    HW211817   2.732   5.644   0.156
 3640SOL     OW11818   2.196   6.509   1.394
 3640SOL    HW111819   2.199   6.510   1.294
 3640SOL    HW211820   2.251   6.433   1.428
 3641SOL     OW11821   2.322   0.781   4.488
 3641SOL    HW111822   2.339   0.687   4.516
 3641SOL    HW211823   2.269   0.828   4.559
 3642SOL     OW11824   5.916   6.515   1.956
 3642SOL    HW111825   5.947   6.485   1.866
 3642SOL    HW211826   5.996   6.536   2.013
 3643SOL     OW11827   3.736   5.540   5.654
 3643SOL    HW111828   3.806   5.504   5.716
 3643SOL    HW211829   3.745   5.494   5.565
 3644SOL     OW11830   6.966   0.461   0.755
 3644SOL    HW111831   6.966   0.523   0.834
 3644SOL    HW211832   0.035   0.456   0.716
 3645SOL     OW11833   3.620   6.721   2.449
 3645SOL    HW111834   3.709   6.683   2.424
 3645SOL    HW211835   3.630   6.818   2.471
 3646SOL     OW11836   6.620   5.443   4.359
 3646SOL    HW111837   6.672   5.439   4.274
 3646SOL    HW211838   6.633   5.358   4.410
 3647SOL     OW11839   2.581   2.364   1.570
 3647SOL    HW111840   2.656   2.299   1.566
 3647SOL    HW211841   2.560   2.396   1.477
 3648SOL     OW11842   3.109   6.364   3.259
 3648SOL    HW111843   3.019   6.392   3.294
 3648SOL    HW211844   3.159   6.445   3.230
 3649SOL     OW11845   3.255   3.306   2.015
 3649SOL    HW111846   3.350   3.316   2.043
 3649SOL    HW211847   3.215   3.397   1.998
 3650SOL     OW11848   5.369   6.915   1.577
 3650SOL    HW111849   5.291   6.853   1.580
 3650SOL    HW211850   5.347   6.999   1.627
 3651SOL     OW11851   0.904   6.315   2.715
 3651SOL    HW111852   0.918   6.297   2.618
 3651SOL    HW211853   0.989   6.300   2.765
 3652SOL     OW11854   4.758   4.949   2.909
 3652SOL    HW111855   4.800   4.903   2.987
 3652SOL    HW211856   4.829   4.998   2.857
 3653SOL     OW11857   6.499   3.321   4.788
 3653SOL    HW111858   6.405   3.351   4.808
 3653SOL    HW211859   6.523   3.347   4.694
 3654SOL     OW11860   0.960   6.006   1.853
 3654SOL    HW111861   0.986   5.914   1.822
 3654SOL    HW211862   1.026   6.038   1.921
 3655SOL     OW11863   0.196   1.270   3.640
 3655SOL    HW111864   0.213   1.324   3.722
 3655SOL    HW211865   0.142   1.189   3.664
 3656SOL     OW11866   2.549   1.435   2.724
 3656SOL    HW111867   2.573   1.349   2.677
 3656SOL    HW211868   2.474   1.480   2.676
 3657SOL     OW11869   4.502   4.975   2.313
 3657SOL    HW111870   4.567   4.972   2.389
 3657SOL    HW211871   4.470   5.069   2.301
 3658SOL     OW11872   2.071   5.377   5.571
 3658SOL    HW111873   2.113   5.368   5.661
 3658SOL    HW211874   2.082   5.471   5.538
 3659SOL     OW11875   1.106   3.856   0.242
 3659SOL    HW111876   1.050   3.938   0.255
 3659SOL    HW211877   1.058   3.793   0.182
 3660SOL     OW11878   4.003   4.702   0.823
 3660SOL    HW111879   3.983   4.795   0.851
 3660SOL    HW211880   4.099   4.695   0.794
 3661SOL     OW11881   4.997   1.507   1.228
 3661SOL    HW111882   5.079   1.561   1.208
 3661SOL    HW211883   4.956   1.539   1.314
 3662SOL     OW11884   2.478   6.122   5.048
 3662SOL    HW111885   2.478   6.140   4.950
 3662SOL    HW211886   2.511   6.029   5.065
 3663SOL     OW11887   1.544   3.562   5.632
 3663SOL    HW111888   1.623   3.505   5.655
 3663SOL    HW211889   1.533   3.634   5.700
 3664SOL     OW11890   3.957   0.031   1.762
 3664SOL    HW111891   3.961   6.978   1.696
 3664SOL    HW211892   4.017   0.012   1.839
 3665SOL     OW11893   1.599   0.511   5.306
 3665SOL    HW111894   1.611   0.469   5.396
 3665SOL    HW211895   1.595   0.439   5.236
 3666SOL     OW11896   0.961   4.700   4.270
 3666SOL    HW111897   1.051   4.660   4.288
 3666SOL    HW211898   0.890   4.640   4.308
 3667SOL     OW11899   0.151   1.254   6.547
 3667SOL    HW111900   0.250   1.266   6.535
 3667SOL    HW211901   0.112   1.220   6.461
 3668SOL     OW11902   1.579   5.534   1.898
 3668SOL    HW111903   1.635   5.511   1.977
 3668SOL    HW211904   1.485   5.501   1.913
 3669SOL     OW11905   5.758   1.918   3.808
 3669SOL    HW111906   5.795   1.826   3.818
 3669SOL    HW211907   5.821   1.984   3.851
 3670SOL     OW11908   2.414   5.414   6.294
 3670SOL    HW111909   2.480   5.441   6.224
 3670SOL    HW211910   2.452   5.338   6.347
 3671SOL     OW11911   1.634   0.574   3.229
 3671SOL    HW111912   1.662   0.492   3.280
 3671SOL    HW211913   1.699   0.647   3.246
 3672SOL     OW11914   6.684   0.069   0.501
 3672SOL    HW111915   6.714   0.121   0.581
 3672SOL    HW211916   6.745   7.014   0.488
 3673SOL     OW11917   4.284   0.470   6.776
 3673SOL    HW111918   4.341   0.465   6.858
 3673SOL    HW211919   4.252   0.378   6.752
 3674SOL     OW11920   1.145   6.610   1.179
 3674SOL    HW111921   1.080   6.535   1.163
 3674SOL    HW211922   1.220   6.604   1.113
 3675SOL     OW11923   1.926   2.034   4.468
 3675SOL    HW111924   1.999   2.045   4.536
 3675SOL    HW211925   1.945   1.954   4.412
 3676SOL     OW11926   1.845   5.071   2.978
 3676SOL    HW111927   1.806   4.981   2.998
 3676SOL    HW211928   1.792   5.142   3.025
 3677SOL     OW11929   6.694   6.879   3.487
 3677SOL    HW111930   6.689   6.784   3.517
 3677SOL    HW211931   6.717   6.938   3.565
 3678SOL     OW11932   1.568   1.474   3.551
 3678SOL    HW111933   1.497   1.494   3.619
 3678SOL    HW211934   1.631   1.406   3.589
 3679SOL     OW11935   0.119   0.726   1.436
 3679SOL    HW111936   0.068   0.692   1.358
 3679SOL    HW211937   0.149   0.650   1.493
 3680SOL     OW11938   5.922   4.530   4.839
 3680SOL    HW111939   5.955   4.437   4.851
 3680SOL    HW211940   5.993   4.586   4.797
 3681SOL     OW11941   5.652   6.416   4.857
 3681SOL    HW111942   5.750   6.434   4.853
 3681SOL    HW211943   5.622   6.412   4.952
 3682SOL     OW11944   0.695   2.599   6.442
 3682SOL    HW111945   0.643   2.540   6.504
 3682SOL    HW211946   0.701   2.555   6.352
 3683SOL     OW11947   5.491   5.965   3.516
 3683SOL    HW111948   5.525   6.059   3.515
 3683SOL    HW211949   5.555   5.907   3.466
 3684SOL     OW11950   1.858   2.980   0.914
 3684SOL    HW111951   1.845   2.894   0.963
 3684SOL    HW211952   1.952   2.986   0.881
 3685SOL     OW11953   6.521   0.009   6.218
 3685SOL    HW111954   6.594   6.971   6.247
 3685SOL    HW211955   6.550   0.104   6.232
 3686SOL     OW11956   6.240   4.495   1.644
 3686SOL    HW111957   6.191   4.570   1.599
 3686SOL    HW211958   6.283   4.528   1.727
 3687SOL     OW11959   3.423   1.149   0.232
 3687SOL    HW111960   3.372   1.128   0.148
 3687SOL    HW211961   3.359   1.174   0.304
 3688SOL     OW11962   6.826   3.283   0.121
 3688SOL    HW111963   6.823   3.373   0.164
 3688SOL    HW211964   6.815   3.212   0.191
 3689SOL     OW11965   3.109   0.042   3.798
 3689SOL    HW111966   3.194   0.071   3.843
 3689SOL    HW211967   3.032   0.058   3.860
 3690SOL     OW11968   4.088   5.997   5.482
 3690SOL    HW111969   4.049   6.082   5.518
 3690SOL    HW211970   4.068   5.922   5.546
 3691SOL     OW11971   3.294   2.658   6.728
 3691SOL    HW111972   3.394   2.653   6.727
 3691SOL    HW211973   3.261   2.650   6.821
 3692SOL     OW11974   0.861   0.183   6.290
 3692SOL    HW111975   0.841   0.281   6.295
 3692SOL    HW211976   0.791   0.132   6.341
 3693SOL     OW11977   2.325   2.016   3.518
 3693SOL    HW111978   2.401   2.068   3.479
 3693SOL    HW211979   2.358   1.963   3.597
 3694SOL     OW11980   2.092   5.481   2.520
 3694SOL    HW111981   2.038   5.559   2.486
 3694SOL    HW211982   2.044   5.438   2.596
 3695SOL     OW11983   1.790   2.546   1.192
 3695SOL    HW111984   1.860   2.584   1.253
 3695SOL    HW211985   1.814   2.453   1.168
 3696SOL     OW11986   3.140   5.786   5.836
 3696SOL    HW111987   3.213   5.765   5.772
 3696SOL    HW211988   3.159   5.743   5.925
 3697SOL     OW11989   5.442   6.993   4.462
 3697SOL    HW111990   5.482   6.908   4.429
 3697SOL    HW211991   5.495   0.005   4.539
 3698SOL     OW11992   3.023   0.078   6.209
 3698SOL    HW111993   3.071   0.120   6.133
 3698SOL    HW211994   2.979   0.149   6.264
 3699SOL     OW11995   1.414   4.343   2.419
 3699SOL    HW111996   1.319   4.317   2.434
 3699SOL    HW211997   1.469   4.261   2.406
 3700SOL     OW11998   0.302   0.529   3.442
 3700SOL    HW111999   0.339   0.602   3.500
 3700SOL    HW212000   0.312   0.441   3.489
 3701SOL     OW12001   5.460   0.322   3.389
 3701SOL    HW112002   5.499   0.408   3.421
 3701SOL    HW212003   5.530   0.268   3.343
 3702SOL     OW12004   4.544   0.898   6.376
 3702SOL    HW112005   4.588   0.986   6.360
 3702SOL    HW212006   4.484   0.875   6.299
 3703SOL     OW12007   4.339   4.309   0.344
 3703SOL    HW112008   4.372   4.350   0.258
 3703SOL    HW212009   4.258   4.253   0.325
 3704SOL     OW12010   2.360   0.275   2.059
 3704SOL    HW112011   2.375   0.344   1.989
 3704SOL    HW212012   2.443   0.220   2.069
 3705SOL     OW12013   5.644   1.578   4.495
 3705SOL    HW112014   5.689   1.492   4.519
 3705SOL    HW212015   5.599   1.568   4.406
 3706SOL     OW12016   2.473   2.535   3.614
 3706SOL    HW112017   2.474   2.597   3.692
 3706SOL    HW212018   2.379   2.523   3.582
 3707SOL     OW12019   4.374   2.283   5.257
 3707SOL    HW112020   4.418   2.202   5.296
 3707SOL    HW212021   4.283   2.258   5.223
 3708SOL     OW12022   6.180   0.117   5.846
 3708SOL    HW112023   6.215   0.178   5.917
 3708SOL    HW212024   6.102   0.161   5.801
 3709SOL     OW12025   4.730   0.493   0.300
 3709SOL    HW112026   4.742   0.568   0.235
 3709SOL    HW212027   4.815   0.478   0.350
 3710SOL     OW12028   6.982   4.716   0.105
 3710SOL    HW112029   0.021   4.794   0.114
 3710SOL    HW212030   0.008   4.638   0.067
 3711SOL     OW12031   6.834   5.251   2.431
 3711SOL    HW112032   6.770   5.326   2.416
 3711SOL    HW212033   6.913   5.261   2.370
 3712SOL     OW12034   1.420   0.192   0.512
 3712SOL    HW112035   1.449   0.135   0.589
 3712SOL    HW212036   1.497   0.205   0.449
 3713SOL     OW12037   3.791   5.487   6.136
 3713SOL    HW112038   3.870   5.489   6.196
 3713SOL    HW212039   3.709   5.466   6.189
 3714SOL     OW12040   4.410   1.338   5.214
 3714SOL    HW112041   4.353   1.376   5.142
 3714SOL    HW212042   4.375   1.248   5.241
 3715SOL     OW12043   5.618   4.035   4.035
 3715SOL    HW112044   5.645   4.070   4.124
 3715SOL    HW212045   5.693   4.046   3.970
 3716SOL     OW12046   0.646   1.977   4.573
 3716SOL    HW112047   0.723   1.918   4.547
 3716SOL    HW212048   0.601   2.010   4.490
 3717SOL     OW12049   6.291   0.364   6.794
 3717SOL    HW112050   6.325   0.289   6.737
 3717SOL    HW212051   6.347   0.372   6.876
 3718SOL     OW12052   0.965   5.660   0.424
 3718SOL    HW112053   0.995   5.614   0.508
 3718SOL    HW212054   0.977   5.598   0.346
 3719SOL     OW12055   3.963   5.255   6.824
 3719SOL    HW112056   3.982   5.162   6.793
 3719SOL    HW212057   3.952   5.255   6.924
 3720SOL     OW12058   0.049   1.913   5.842
 3720SOL    HW112059   0.013   2.002   5.815
 3720SOL    HW212060   0.006   1.885   5.928
 3721SOL     OW12061   4.475   3.437   0.563
 3721SOL    HW112062   4.503   3.503   0.633
 3721SOL    HW212063   4.390   3.393   0.592
 3722SOL     OW12064   5.884   6.238   0.976
 3722SOL    HW112065   5.921   6.146   0.960
 3722SOL    HW212066   5.906   6.296   0.897
 3723SOL     OW12067   4.326   1.387   0.461
 3723SOL    HW112068   4.316   1.288   0.450
 3723SOL    HW212069   4.244   1.425   0.504
 3724SOL     OW12070   0.067   4.583   5.596
 3724SOL    HW112071   0.151   4.544   5.634
 3724SOL    HW212072   0.033   4.526   5.522
 3725SOL     OW12073   6.522   0.217   0.759
 3725SOL    HW112074   6.489   0.141   0.702
 3725SOL    HW212075   6.487   0.206   0.852
 3726SOL     OW12076   6.067   3.672   1.738
 3726SOL    HW112077   5.967   3.661   1.744
 3726SOL    HW212078   6.090   3.769   1.751
 3727SOL     OW12079   2.403   2.761   5.236
 3727SOL    HW112080   2.391   2.837   5.173
 3727SOL    HW212081   2.328   2.759   5.302
 3728SOL     OW12082   0.559   3.393   6.541
 3728SOL    HW112083   0.515   3.370   6.454
 3728SOL    HW212084   0.573   3.309   6.594
 3729SOL     OW12085   0.194   2.636   3.193
 3729SOL    HW112086   0.206   2.539   3.169
 3729SOL    HW212087   0.216   2.648   3.290
 3730SOL     OW12088   2.471   0.511   0.914
 3730SOL    HW112089   2.492   0.415   0.928
 3730SOL    HW212090   2.376   0.521   0.886
 3731SOL     OW12091   3.206   6.283   6.143
 3731SOL    HW112092   3.137   6.325   6.084
 3731SOL    HW212093   3.272   6.234   6.087
 3732SOL     OW12094   2.075   3.859   4.581
 3732SOL    HW112095   2.031   3.798   4.647
 3732SOL    HW212096   2.129   3.928   4.630
 3733SOL     OW12097   3.151   3.043   1.008
 3733SOL    HW112098   3.215   2.995   1.068
 3733SOL    HW212099   3.084   2.977   0.972
 3734SOL     OW12100   5.106   6.653   3.542
 3734SOL    HW112101   5.171   6.726   3.565
 3734SOL    HW212102   5.155   6.567   3.531
 3735SOL     OW12103   3.393   1.665   1.879
 3735SOL    HW112104   3.395   1.590   1.814
 3735SOL    HW212105   3.332   1.737   1.846
 3736SOL     OW12106   4.628   1.075   5.728
 3736SOL    HW112107   4.603   0.980   5.711
 3736SOL    HW212108   4.696   1.080   5.801
 3737SOL     OW12109   3.743   6.426   3.578
 3737SOL    HW112110   3.840   6.447   3.567
 3737SOL    HW212111   3.703   6.490   3.644
 3738SOL     OW12112   0.329   0.081   4.272
 3738SOL    HW112113   0.267   0.095   4.349
 3738SOL    HW212114   0.378   7.018   4.284
 3739SOL     OW12115   1.134   3.789   1.885
 3739SOL    HW112116   1.209   3.839   1.841
 3739SOL    HW212117   1.149   3.691   1.873
 3740SOL     OW12118   5.430   0.844   0.163
 3740SOL    HW112119   5.435   0.939   0.193
 3740SOL    HW212120   5.447   0.839   0.064
 3741SOL     OW12121   3.636   2.306   6.784
 3741SOL    HW112122   3.625   2.208   6.801
 3741SOL    HW212123   3.604   2.328   6.693
 3742SOL     OW12124   3.282   3.507   5.543
 3742SOL    HW112125   3.183   3.511   5.527
 3742SOL    HW212126   3.330   3.550   5.467
 3743SOL     OW12127   0.825   5.578   5.867
 3743SOL    HW112128   0.800   5.509   5.935
 3743SOL    HW212129   0.881   5.536   5.796
 3744SOL     OW12130   0.005   5.484   3.282
 3744SOL    HW112131   6.944   5.443   3.315
 3744SOL    HW212132   0.049   5.536   3.355
 3745SOL     OW12133   5.107   5.747   1.607
 3745SOL    HW112134   5.187   5.697   1.640
 3745SOL    HW212135   5.123   5.845   1.620
 3746SOL     OW12136   4.246   1.504   2.441
 3746SOL    HW112137   4.164   1.524   2.386
 3746SOL    HW212138   4.246   1.407   2.466
 3747SOL     OW12139   2.406   0.044   0.741
 3747SOL    HW112140   2.310   0.024   0.722
 3747SOL    HW212141   2.463   0.006   0.668
 3748SOL     OW12142   5.539   0.897   2.298
 3748SOL    HW112143   5.508   0.972   2.240
 3748SOL    HW212144   5.526   0.810   2.249
 3749SOL     OW12145   1.714   0.389   4.262
 3749SOL    HW112146   1.813   0.395   4.257
 3749SOL    HW212147   1.673   0.476   4.235
 3750SOL     OW12148   0.279   4.460   6.614
 3750SOL    HW112149   0.292   4.422   6.705
 3750SOL    HW212150   0.190   4.505   6.608
 3751SOL     OW12151   1.593   4.098   1.544
 3751SOL    HW112152   1.539   4.014   1.542
 3751SOL    HW212153   1.550   4.163   1.606
 3752SOL     OW12154   5.658   6.288   0.308
 3752SOL    HW112155   5.651   6.385   0.287
 3752SOL    HW212156   5.744   6.269   0.355
 3753SOL     OW12157   0.043   0.049   2.910
 3753SOL    HW112158   6.988   0.110   2.896
 3753SOL    HW212159   0.071   0.052   3.006
 3754SOL     OW12160   2.281   1.427   1.512
 3754SOL    HW112161   2.209   1.415   1.580
 3754SOL    HW212162   2.359   1.369   1.536
 3755SOL     OW12163   3.264   5.285   4.066
 3755SOL    HW112164   3.243   5.382   4.076
 3755SOL    HW212165   3.206   5.232   4.128
 3756SOL     OW12166   1.392   6.669   0.486
 3756SOL    HW112167   1.366   6.577   0.456
 3756SOL    HW212168   1.332   6.737   0.442
 3757SOL     OW12169   0.770   4.428   1.215
 3757SOL    HW112170   0.852   4.412   1.161
 3757SOL    HW212171   0.729   4.516   1.188
 3758SOL     OW12172   2.046   6.940   3.802
 3758SOL    HW112173   2.044   6.926   3.703
 3758SOL    HW212174   2.032   6.853   3.849
 3759SOL     OW12175   5.508   0.207   4.296
 3759SOL    HW112176   5.504   0.127   4.356
 3759SOL    HW212177   5.594   0.204   4.243
 3760SOL     OW12178   0.913   0.970   2.707
 3760SOL    HW112179   1.005   0.931   2.699
 3760SOL    HW212180   0.916   1.053   2.762
 3761SOL     OW12181   4.396   2.186   5.548
 3761SOL    HW112182   4.304   2.224   5.540
 3761SOL    HW212183   4.392   2.087   5.544
 3762SOL     OW12184   0.275   3.083   3.885
 3762SOL    HW112185   0.323   3.171   3.888
 3762SOL    HW212186   0.313   3.026   3.812
 3763SOL     OW12187   0.673   4.881   0.026
 3763SOL    HW112188   0.625   4.963   0.058
 3763SOL    HW212189   0.607   4.818   7.008
 3764SOL     OW12190   3.002   0.824   2.761
 3764SOL    HW112191   3.017   0.893   2.833
 3764SOL    HW212192   3.074   0.832   2.692
 3765SOL     OW12193   5.249   2.773   2.874
 3765SOL    HW112194   5.208   2.822   2.797
 3765SOL    HW212195   5.235   2.675   2.863
 3766SOL     OW12196   1.330   3.045   1.937
 3766SOL    HW112197   1.253   2.998   1.980
 3766SOL    HW212198   1.298   3.127   1.891
 3767SOL     OW12199   1.776   6.022   5.857
 3767SOL    HW112200   1.859   5.974   5.829
 3767SOL    HW212201   1.696   5.981   5.812
 3768SOL     OW12202   1.287   6.852   2.814
 3768SOL    HW112203   1.317   6.866   2.720
 3768SOL    HW212204   1.266   6.755   2.828
 3769SOL     OW12205   5.317   5.458   4.372
 3769SOL    HW112206   5.306   5.486   4.277
 3769SOL    HW212207   5.372   5.525   4.421
 3770SOL     OW12208   2.701   0.509   1.527
 3770SOL    HW112209   2.613   0.509   1.479
 3770SOL    HW212210   2.684   0.506   1.626
 3771SOL     OW12211   6.642   5.655   5.740
 3771SOL    HW112212   6.697   5.699   5.812
 3771SOL    HW212213   6.702   5.628   5.664
 3772SOL     OW12214   1.202   5.904   1.971
 3772SOL    HW112215   1.233   5.817   2.011
 3772SOL    HW212216   1.222   5.904   1.873
 3773SOL     OW12217   5.244   5.426   6.835
 3773SOL    HW112218   5.201   5.503   6.883
 3773SOL    HW212219   5.177   5.381   6.777
 3774SOL     OW12220   6.507   4.683   2.183
 3774SOL    HW112221   6.532   4.699   2.088
 3774SOL    HW212222   6.552   4.750   2.241
 3775SOL     OW12223   4.918   5.072   5.253
 3775SOL    HW112224   4.942   5.157   5.205
 3775SOL    HW212225   4.910   5.090   5.351
 3776SOL     OW12226   4.504   2.917   6.605
 3776SOL    HW112227   4.442   2.933   6.682
 3776SOL    HW212228   4.540   3.004   6.572
 3777SOL     OW12229   2.960   4.824   4.095
 3777SOL    HW112230   2.871   4.870   4.107
 3777SOL    HW212231   2.997   4.847   4.005
 3778SOL     OW12232   3.510   5.271   6.702
 3778SOL    HW112233   3.511   5.173   6.683
 3778SOL    HW212234   3.472   5.287   6.793
 3779SOL     OW12235   6.818   4.699   6.901
 3779SOL    HW112236   6.757   4.777   6.910
 3779SOL    HW212237   6.879   4.694   6.981
 3780SOL     OW12238   6.010   3.862   2.221
 3780SOL    HW112239   6.073   3.900   2.153
 3780SOL    HW212240   6.052   3.865   2.311
 3781SOL     OW12241   1.361   6.009   5.480
 3781SOL    HW112242   1.380   6.072   5.405
 3781SOL    HW212243   1.352   5.916   5.445
 3782SOL     OW12244   4.261   4.993   0.934
 3782SOL    HW112245   4.257   5.086   0.898
 3782SOL    HW212246   4.297   4.994   1.027
 3783SOL     OW12247   4.494   5.359   4.924
 3783SOL    HW112248   4.576   5.374   4.870
 3783SOL    HW212249   4.506   5.398   5.015
 3784SOL     OW12250   5.278   2.955   5.300
 3784SOL    HW112251   5.286   2.896   5.381
 3784SOL    HW212252   5.254   3.048   5.329
 3785SOL     OW12253   1.048   2.615   2.690
 3785SOL    HW112254   1.026   2.690   2.754
 3785SOL    HW212255   1.126   2.641   2.634
 3786SOL     OW12256   2.096   3.298   4.666
 3786SOL    HW112257   2.020   3.293   4.731
 3786SOL    HW212258   2.164   3.363   4.701
 3787SOL     OW12259   5.228   6.454   4.095
 3787SOL    HW112260   5.268   6.364   4.077
 3787SOL    HW212261   5.276   6.523   4.041
 3788SOL     OW12262   4.938   3.311   6.248
 3788SOL    HW112263   4.843   3.281   6.239
 3788SOL    HW212264   4.980   3.314   6.157
 3789SOL     OW12265   2.281   2.935   0.953
 3789SOL    HW112266   2.326   2.939   0.864
 3789SOL    HW212267   2.274   3.028   0.990
 3790SOL     OW12268   0.720   6.503   1.738
 3790SOL    HW112269   0.800   6.556   1.710
 3790SOL    HW212270   0.681   6.543   1.820
 3791SOL     OW12271   4.948   0.744   5.061
 3791SOL    HW112272   4.995   0.801   5.128
 3791SOL    HW212273   4.997   0.748   4.974
 3792SOL     OW12274   0.101   0.385   4.389
 3792SOL    HW112275   0.111   0.287   4.375
 3792SOL    HW212276   0.024   0.402   4.451
 3793SOL     OW12277   3.836   4.525   0.674
 3793SOL    HW112278   3.896   4.563   0.745
 3793SOL    HW212279   3.742   4.553   0.693
 3794SOL     OW12280   1.784   5.105   6.193
 3794SOL    HW112281   1.803   5.130   6.288
 3794SOL    HW212282   1.715   5.033   6.191
 3795SOL     OW12283   2.897   6.070   0.959
 3795SOL    HW112284   2.939   6.106   0.875
 3795SOL    HW212285   2.812   6.119   0.976
 3796SOL     OW12286   4.839   1.144   0.237
 3796SOL    HW112287   4.813   1.067   0.179
 3796SOL    HW212288   4.888   1.211   0.182
 3797SOL     OW12289   0.394   3.332   1.488
 3797SOL    HW112290   0.345   3.419   1.477
 3797SOL    HW212291   0.471   3.345   1.551
 3798SOL     OW12292   1.265   5.253   4.092
 3798SOL    HW112293   1.203   5.264   4.014
 3798SOL    HW212294   1.237   5.174   4.146
 3799SOL     OW12295   6.914   1.296   3.518
 3799SOL    HW112296   6.833   1.346   3.486
 3799SOL    HW212297   6.926   1.213   3.463
 3800SOL     OW12298   5.482   2.456   3.073
 3800SOL    HW112299   5.417   2.400   3.125
 3800SOL    HW212300   5.439   2.488   2.989
 3801SOL     OW12301   5.765   1.042   0.813
 3801SOL    HW112302   5.862   1.022   0.801
 3801SOL    HW212303   5.711   0.958   0.802
 3802SOL     OW12304   6.474   3.392   1.594
 3802SOL    HW112305   6.499   3.487   1.574
 3802SOL    HW212306   6.522   3.361   1.676
 3803SOL     OW12307   3.868   3.968   4.703
 3803SOL    HW112308   3.939   3.954   4.633
 3803SOL    HW212309   3.857   3.884   4.756
 3804SOL     OW12310   3.607   6.359   3.294
 3804SOL    HW112311   3.634   6.422   3.222
 3804SOL    HW212312   3.631   6.397   3.383
 3805SOL     OW12313   2.634   2.099   6.803
 3805SOL    HW112314   2.641   2.161   6.882
 3805SOL    HW212315   2.694   2.131   6.730
 3806SOL     OW12316   2.443   5.422   1.728
 3806SOL    HW112317   2.395   5.395   1.811
 3806SOL    HW212318   2.425   5.355   1.656
 3807SOL     OW12319   1.533   4.207   3.847
 3807SOL    HW112320   1.524   4.132   3.912
 3807SOL    HW212321   1.590   4.178   3.771
 3808SOL     OW12322   2.917   6.576   5.614
 3808SOL    HW112323   2.861   6.628   5.549
 3808SOL    HW212324   3.011   6.609   5.610
 3809SOL     OW12325   5.780   1.668   1.919
 3809SOL    HW112326   5.839   1.738   1.878
 3809SOL    HW212327   5.820   1.635   2.004
 3810SOL     OW12328   4.531   2.125   3.003
 3810SOL    HW112329   4.484   2.212   2.987
 3810SOL    HW212330   4.630   2.140   3.004
 3811SOL     OW12331   6.849   5.774   5.392
 3811SOL    HW112332   6.876   5.723   5.311
 3811SOL    HW212333   6.929   5.788   5.451
 3812SOL     OW12334   4.495   5.508   0.192
 3812SOL    HW112335   4.400   5.524   0.166
 3812SOL    HW212336   4.507   5.411   0.216
 3813SOL     OW12337   6.128   4.490   0.063
 3813SOL    HW112338   6.074   4.527   7.010
 3813SOL    HW212339   6.214   4.539   0.071
 3814SOL     OW12340   7.007   0.050   4.851
 3814SOL    HW112341   6.925   0.004   4.886
 3814SOL    HW212342   0.043   7.007   4.805
 3815SOL     OW12343   6.222   3.635   6.164
 3815SOL    HW112344   6.202   3.652   6.261
 3815SOL    HW212345   6.263   3.716   6.124
 3816SOL     OW12346   6.523   6.642   1.017
 3816SOL    HW112347   6.604   6.584   1.021
 3816SOL    HW212348   6.545   6.727   0.969
 3817SOL     OW12349   4.375   3.678   1.415
 3817SOL    HW112350   4.277   3.673   1.432
 3817SOL    HW212351   4.418   3.742   1.479
 3818SOL     OW12352   5.628   5.963   2.176
 3818SOL    HW112353   5.570   5.964   2.258
 3818SOL    HW212354   5.680   6.049   2.172
 3819SOL     OW12355   6.202   3.353   3.627
 3819SOL    HW112356   6.207   3.259   3.593
 3819SOL    HW212357   6.294   3.388   3.641
 3820SOL     OW12358   3.254   6.328   4.988
 3820SOL    HW112359   3.349   6.357   4.999
 3820SOL    HW212360   3.197   6.372   5.057
 3821SOL     OW12361   1.508   0.058   0.731
 3821SOL    HW112362   1.566   7.010   0.691
 3821SOL    HW212363   1.462   0.022   0.812
 3822SOL     OW12364   4.955   6.899   2.069
 3822SOL    HW112365   4.995   6.936   1.985
 3822SOL    HW212366   5.028   6.867   2.130
 3823SOL     OW12367   5.633   6.345   5.930
 3823SOL    HW112368   5.642   6.366   5.833
 3823SOL    HW212369   5.655   6.426   5.984
 3824SOL     OW12370   2.493   2.702   0.700
 3824SOL    HW112371   2.459   2.672   0.611
 3824SOL    HW212372   2.537   2.625   0.747
 3825SOL     OW12373   0.579   4.885   5.928
 3825SOL    HW112374   0.603   4.947   6.003
 3825SOL    HW212375   0.551   4.797   5.965
 3826SOL     OW12376   5.357   3.891   3.605
 3826SOL    HW112377   5.380   3.879   3.702
 3826SOL    HW212378   5.349   3.802   3.561
 3827SOL     OW12379   6.749   2.077   0.078
 3827SOL    HW112380   6.787   2.160   0.037
 3827SOL    HW212381   6.657   2.096   0.112
 3828SOL     OW12382   3.771   3.118   3.506
 3828SOL    HW112383   3.841   3.085   3.570
 3828SOL    HW212384   3.739   3.209   3.536
 3829SOL     OW12385   0.523   3.848   2.231
 3829SOL    HW112386   0.607   3.880   2.187
 3829SOL    HW212387   0.530   3.751   2.252
 3830SOL     OW12388   5.958   0.442   3.418
 3830SOL    HW112389   5.902   0.399   3.490
 3830SOL    HW212390   5.980   0.374   3.348
 3831SOL     OW12391   4.477   2.346   3.334
 3831SOL    HW112392   4.566   2.361   3.292
 3831SOL    HW212393   4.468   2.403   3.416
 3832SOL     OW12394   6.618   0.819   3.479
 3832SOL    HW112395   6.588   0.729   3.511
 3832SOL    HW212396   6.713   0.834   3.507
 3833SOL     OW12397   1.352   2.660   5.166
 3833SOL    HW112398   1.293   2.724   5.115
 3833SOL    HW212399   1.302   2.626   5.246
 3834SOL     OW12400   5.049   4.315   0.845
 3834SOL    HW112401   5.042   4.411   0.874
 3834SOL    HW212402   4.983   4.298   0.772
 3835SOL     OW12403   4.087   5.606   5.117
 3835SOL    HW112404   4.165   5.611   5.179
 3835SOL    HW212405   4.116   5.572   5.028
 3836SOL     OW12406   6.721   6.043   5.458
 3836SOL    HW112407   6.713   6.093   5.371
 3836SOL    HW212408   6.770   5.957   5.442
 3837SOL     OW12409   4.225   4.443   5.919
 3837SOL    HW112410   4.150   4.434   5.984
 3837SOL    HW212411   4.253   4.539   5.914
 3838SOL     OW12412   0.413   0.551   4.096
 3838SOL    HW112413   0.340   0.522   4.034
 3838SOL    HW212414   0.376   0.563   4.188
 3839SOL     OW12415   5.212   0.414   3.999
 3839SOL    HW112416   5.155   0.440   4.076
 3839SOL    HW212417   5.231   0.315   4.003
 3840SOL     OW12418   3.013   1.000   6.525
 3840SOL    HW112419   2.946   1.061   6.567
 3840SOL    HW212420   3.018   0.915   6.577
 3841SOL     OW12421   6.082   4.454   4.255
 3841SOL    HW112422   6.060   4.381   4.319
 3841SOL    HW212423   6.066   4.543   4.298
 3842SOL     OW12424   1.820   4.175   5.575
 3842SOL    HW112425   1.851   4.160   5.669
 3842SOL    HW212426   1.738   4.232   5.576
 3843SOL     OW12427   4.935   1.954   6.542
 3843SOL    HW112428   4.849   1.992   6.507
 3843SOL    HW212429   5.007   1.969   6.474
 3844SOL     OW12430   0.200   0.239   0.858
 3844SOL    HW112431   0.213   0.175   0.783
 3844SOL    HW212432   0.289   0.276   0.886
 3845SOL     OW12433   1.833   5.269   0.541
 3845SOL    HW112434   1.840   5.287   0.443
 3845SOL    HW212435   1.845   5.171   0.558
 3846SOL     OW12436   0.346   2.703   2.905
 3846SOL    HW112437   0.432   2.661   2.875
 3846SOL    HW212438   0.350   2.719   3.004
 3847SOL     OW12439   0.040   2.155   6.986
 3847SOL    HW112440   0.116   2.211   6.953
 3847SOL    HW212441   6.994   2.215   0.004
 3848SOL     OW12442   5.570   3.979   2.110
 3848SOL    HW112443   5.627   3.990   2.192
 3848SOL    HW212444   5.577   4.061   2.054
 3849SOL     OW12445   6.343   5.210   6.367
 3849SOL    HW112446   6.378   5.279   6.303
 3849SOL    HW212447   6.349   5.119   6.326
 3850SOL     OW12448   2.827   2.256   1.696
 3850SOL    HW112449   2.905   2.268   1.635
 3850SOL    HW212450   2.839   2.315   1.776
 3851SOL     OW12451   0.355   6.293   2.786
 3851SOL    HW112452   0.399   6.375   2.752
 3851SOL    HW212453   0.276   6.270   2.728
 3852SOL     OW12454   1.660   0.113   5.130
 3852SOL    HW112455   1.583   0.151   5.079
 3852SOL    HW212456   1.728   0.185   5.146
 3853SOL     OW12457   3.105   0.079   3.066
 3853SOL    HW112458   3.084   0.173   3.095
 3853SOL    HW212459   3.020   0.027   3.058
 3854SOL     OW12460   0.514   2.486   1.765
 3854SOL    HW112461   0.563   2.493   1.852
 3854SOL    HW212462   0.471   2.396   1.759
 3855SOL     OW12463   3.762   0.147   0.331
 3855SOL    HW112464   3.690   0.190   0.386
 3855SOL    HW212465   3.850   0.160   0.375
 3856SOL     OW12466   0.472   2.519   6.655
 3856SOL    HW112467   0.510   2.612   6.663
 3856SOL    HW212468   0.373   2.525   6.648
 3857SOL     OW12469   2.344   0.249   6.063
 3857SOL    HW112470   2.296   0.211   6.143
 3857SOL    HW212471   2.299   0.216   5.980
 3858SOL     OW12472   5.028   0.546   4.185
 3858SOL    HW112473   5.035   0.484   4.263
 3858SOL    HW212474   4.980   0.629   4.213
 3859SOL     OW12475   6.002   6.910   1.424
 3859SOL    HW112476   5.946   6.940   1.501
 3859SOL    HW212477   5.993   6.811   1.412
 3860SOL     OW12478   1.564   6.914   4.084
 3860SOL    HW112479   1.651   6.926   4.132
 3860SOL    HW212480   1.581   6.905   3.986
 3861SOL     OW12481   2.864   5.570   1.679
 3861SOL    HW112482   2.880   5.662   1.715
 3861SOL    HW212483   2.950   5.531   1.647
 3862SOL     OW12484   1.908   0.741   4.251
 3862SOL    HW112485   1.918   0.840   4.242
 3862SOL    HW212486   1.811   0.719   4.266
 3863SOL     OW12487   3.204   0.105   0.381
 3863SOL    HW112488   3.124   0.133   0.328
 3863SOL    HW212489   3.271   0.061   0.320
 3864SOL     OW12490   2.105   0.380   4.828
 3864SOL    HW112491   2.024   0.413   4.779
 3864SOL    HW212492   2.162   0.458   4.854
 3865SOL     OW12493   4.140   1.530   0.597
 3865SOL    HW112494   4.120   1.628   0.603
 3865SOL    HW212495   4.060   1.482   0.561
 3866SOL     OW12496   2.782   1.550   6.231
 3866SOL    HW112497   2.831   1.498   6.302
 3866SOL    HW212498   2.684   1.549   6.251
 3867SOL     OW12499   0.773   2.822   2.135
 3867SOL    HW112500   0.857   2.775   2.159
 3867SOL    HW212501   0.712   2.825   2.215
 3868SOL     OW12502   4.610   1.094   0.017
 3868SOL    HW112503   4.526   1.039   0.020
 3868SOL    HW212504   4.679   1.046   6.985
 3869SOL     OW12505   5.046   1.973   4.164
 3869SOL    HW112506   4.963   2.023   4.185
 3869SOL    HW212507   5.027   1.874   4.165
 3870SOL     OW12508   0.181   0.701   4.924
 3870SOL    HW112509   0.178   0.800   4.911
 3870SOL    HW212510   0.273   0.674   4.953
 3871SOL     OW12511   2.837   5.866   4.297
 3871SOL    HW112512   2.893   5.900   4.372
 3871SOL    HW212513   2.743   5.855   4.329
 3872SOL     OW12514   3.009   3.534   5.597
 3872SOL    HW112515   2.963   3.619   5.571
 3872SOL    HW212516   2.975   3.503   5.686
 3873SOL     OW12517   4.209   1.850   0.423
 3873SOL    HW112518   4.241   1.823   0.332
 3873SOL    HW212519   4.278   1.906   0.467
 3874SOL     OW12520   2.353   1.250   0.045
 3874SOL    HW112521   2.267   1.302   0.051
 3874SOL    HW212522   2.340   1.159   0.084
 3875SOL     OW12523   1.084   2.008   6.279
 3875SOL    HW112524   1.089   1.979   6.374
 3875SOL    HW212525   1.086   1.927   6.219
 3876SOL     OW12526   3.877   5.096   2.027
 3876SOL    HW112527   3.854   5.033   2.102
 3876SOL    HW212528   3.839   5.186   2.047
 3877SOL     OW12529   6.845   1.720   6.895
 3877SOL    HW112530   6.825   1.740   6.990
 3877SOL    HW212531   6.933   1.672   6.889
 3878SOL     OW12532   5.356   0.669   4.416
 3878SOL    HW112533   5.348   0.570   4.425
 3878SOL    HW212534   5.364   0.693   4.319
 3879SOL     OW12535   6.057   6.016   0.567
 3879SOL    HW112536   5.971   5.968   0.557
 3879SOL    HW212537   6.101   5.990   0.653
 3880SOL     OW12538   4.382   4.777   4.007
 3880SOL    HW112539   4.289   4.757   4.035
 3880SOL    HW212540   4.390   4.874   3.984
 3881SOL     OW12541   0.537   3.511   0.151
 3881SOL    HW112542   0.517   3.465   0.064
 3881SOL    HW212543   0.580   3.446   0.213
 3882SOL     OW12544   0.598   2.071   6.524
 3882SOL    HW112545   0.533   2.145   6.538
 3882SOL    HW212546   0.602   2.048   6.427
 3883SOL     OW12547   4.957   5.671   3.460
 3883SOL    HW112548   4.989   5.654   3.553
 3883SOL    HW212549   5.007   5.612   3.396
 3884SOL     OW12550   0.409   4.531   1.957
 3884SOL    HW112551   0.489   4.480   1.926
 3884SOL    HW212552   0.362   4.480   2.029
 3885SOL     OW12553   5.169   5.525   2.877
 3885SOL    HW112554   5.183   5.524   2.976
 3885SOL    HW212555   5.077   5.491   2.856
 3886SOL     OW12556   2.927   6.318   5.713
 3886SOL    HW112557   2.915   6.258   5.634
 3886SOL    HW212558   2.924   6.413   5.684
 3887SOL     OW12559   0.980   6.529   2.416
 3887SOL    HW112560   1.026   6.447   2.449
 3887SOL    HW212561   1.010   6.609   2.468
 3888SOL     OW12562   6.080   5.200   4.141
 3888SOL    HW112563   6.078   5.249   4.054
 3888SOL    HW212564   6.138   5.250   4.206
 3889SOL     OW12565   4.936   3.908   0.685
 3889SOL    HW112566   4.977   3.877   0.770
 3889SOL    HW212567   4.980   3.863   0.608
 3890SOL     OW12568   5.292   3.201   4.408
 3890SOL    HW112569   5.308   3.200   4.507
 3890SOL    HW212570   5.337   3.280   4.367
 3891SOL     OW12571   5.716   5.687   3.204
 3891SOL    HW112572   5.622   5.698   3.236
 3891SOL    HW212573   5.718   5.624   3.127
 3892SOL     OW12574   6.973   2.243   1.263
 3892SOL    HW112575   0.019   2.299   1.217
 3892SOL    HW212576   6.892   2.236   1.204
 3893SOL     OW12577   3.818   3.916   2.894
 3893SOL    HW112578   3.906   3.893   2.935
 3893SOL    HW212579   3.784   4.001   2.934
 3894SOL     OW12580   4.582   0.734   5.300
 3894SOL    HW112581   4.511   0.676   5.341
 3894SOL    HW212582   4.672   0.706   5.335
 3895SOL     OW12583   1.311   0.716   4.129
 3895SOL    HW112584   1.223   0.758   4.149
 3895SOL    HW212585   1.325   0.712   4.030
 3896SOL     OW12586   1.005   0.922   6.925
 3896SOL    HW112587   0.929   0.970   6.967
 3896SOL    HW212588   1.011   0.830   6.963
 3897SOL     OW12589   4.570   6.352   1.298
 3897SOL    HW112590   4.657   6.379   1.339
 3897SOL    HW212591   4.499   6.419   1.323
 3898SOL     OW12592   3.868   2.811   0.623
 3898SOL    HW112593   3.881   2.779   0.717
 3898SOL    HW212594   3.955   2.841   0.585
 3899SOL     OW12595   3.010   6.891   5.916
 3899SOL    HW112596   2.974   6.934   5.834
 3899SOL    HW212597   2.985   6.945   5.996
 3900SOL     OW12598   5.092   3.861   3.158
 3900SOL    HW112599   5.168   3.896   3.103
 3900SOL    HW212600   5.094   3.904   3.249
 3901SOL     OW12601   2.560   0.135   6.987
 3901SOL    HW112602   2.464   0.146   6.963
 3901SOL    HW212603   2.612   0.213   6.953
 3902SOL     OW12604   6.020   3.106   2.944
 3902SOL    HW112605   6.098   3.156   2.907
 3902SOL    HW212606   6.039   3.008   2.940
 3903SOL     OW12607   3.330   4.586   6.837
 3903SOL    HW112608   3.280   4.524   6.896
 3903SOL    HW212609   3.267   4.628   6.771
 3904SOL     OW12610   1.135   0.554   0.496
 3904SOL    HW112611   1.196   0.583   0.569
 3904SOL    HW212612   1.120   0.455   0.503
 3905SOL     OW12613   6.414   5.732   5.152
 3905SOL    HW112614   6.500   5.741   5.101
 3905SOL    HW212615   6.435   5.714   5.248
 3906SOL     OW12616   6.768   6.247   5.256
 3906SOL    HW112617   6.850   6.230   5.312
 3906SOL    HW212618   6.775   6.337   5.213
 3907SOL     OW12619   6.709   1.830   3.952
 3907SOL    HW112620   6.692   1.927   3.968
 3907SOL    HW212621   6.799   1.805   3.987
 3908SOL     OW12622   2.235   2.900   6.269
 3908SOL    HW112623   2.235   2.896   6.369
 3908SOL    HW212624   2.161   2.844   6.233
 3909SOL     OW12625   5.722   5.098   3.891
 3909SOL    HW112626   5.652   5.097   3.820
 3909SOL    HW212627   5.812   5.111   3.850
 3910SOL     OW12628   4.055   3.811   3.022
 3910SOL    HW112629   4.147   3.818   2.982
 3910SOL    HW212630   4.058   3.750   3.101
 3911SOL     OW12631   6.356   2.136   5.740
 3911SOL    HW112632   6.402   2.133   5.828
 3911SOL    HW212633   6.410   2.085   5.672
 3912SOL     OW12634   5.410   2.813   6.570
 3912SOL    HW112635   5.414   2.715   6.550
 3912SOL    HW212636   5.352   2.829   6.650
 3913SOL     OW12637   0.828   6.741   1.086
 3913SOL    HW112638   0.808   6.716   1.181
 3913SOL    HW212639   0.927   6.756   1.076
 3914SOL     OW12640   2.968   5.611   5.731
 3914SOL    HW112641   3.017   5.682   5.782
 3914SOL    HW212642   2.926   5.547   5.796
 3915SOL     OW12643   6.404   5.887   1.457
 3915SOL    HW112644   6.309   5.867   1.480
 3915SOL    HW212645   6.406   5.950   1.379
 3916SOL     OW12646   0.990   0.349   3.156
 3916SOL    HW112647   1.036   0.261   3.164
 3916SOL    HW212648   1.026   0.398   3.077
 3917SOL     OW12649   1.732   0.457   7.004
 3917SOL    HW112650   1.736   0.545   6.957
 3917SOL    HW212651   1.825   0.427   0.003
 3918SOL     OW12652   5.770   3.656   0.832
 3918SOL    HW112653   5.832   3.714   0.779
 3918SOL    HW212654   5.724   3.592   0.771
 3919SOL     OW12655   3.347   6.268   0.495
 3919SOL    HW112656   3.251   6.261   0.467
 3919SOL    HW212657   3.352   6.284   0.593
 3920SOL     OW12658   2.019   1.659   6.773
 3920SOL    HW112659   2.021   1.663   6.673
 3920SOL    HW212660   2.109   1.631   6.806
 3921SOL     OW12661   1.493   3.865   1.963
 3921SOL    HW112662   1.459   3.883   2.055
 3921SOL    HW212663   1.417   3.864   1.898
 3922SOL     OW12664   1.181   4.581   1.139
 3922SOL    HW112665   1.279   4.567   1.147
 3922SOL    HW212666   1.163   4.667   1.091
 3923SOL     OW12667   6.575   0.317   0.368
 3923SOL    HW112668   6.517   0.390   0.404
 3923SOL    HW212669   6.583   0.244   0.436
 3924SOL     OW12670   6.792   4.737   4.715
 3924SOL    HW112671   6.784   4.644   4.679
 3924SOL    HW212672   6.870   4.782   4.672
 3925SOL     OW12673   1.575   5.208   2.173
 3925SOL    HW112674   1.540   5.129   2.223
 3925SOL    HW212675   1.498   5.264   2.141
 3926SOL     OW12676   4.115   4.751   2.082
 3926SOL    HW112677   4.022   4.727   2.054
 3926SOL    HW212678   4.167   4.782   2.003
 3927SOL     OW12679   0.728   3.377   6.070
 3927SOL    HW112680   0.765   3.284   6.073
 3927SOL    HW212681   0.746   3.418   5.981
 3928SOL     OW12682   5.261   5.761   6.434
 3928SOL    HW112683   5.218   5.688   6.382
 3928SOL    HW212684   5.199   5.840   6.438
 3929SOL     OW12685   1.191   1.926   4.682
 3929SOL    HW112686   1.114   1.978   4.645
 3929SOL    HW212687   1.235   1.980   4.754
 3930SOL     OW12688   2.139   1.680   3.711
 3930SOL    HW112689   2.236   1.660   3.725
 3930SOL    HW212690   2.113   1.761   3.763
 3931SOL     OW12691   5.516   1.163   1.762
 3931SOL    HW112692   5.444   1.233   1.765
 3931SOL    HW212693   5.487   1.087   1.704
 3932SOL     OW12694   1.640   2.048   3.834
 3932SOL    HW112695   1.628   1.967   3.891
 3932SOL    HW212696   1.587   2.124   3.873
 3933SOL     OW12697   0.870   6.663   5.170
 3933SOL    HW112698   0.959   6.698   5.140
 3933SOL    HW212699   0.884   6.585   5.230
 3934SOL     OW12700   5.656   0.348   6.537
 3934SOL    HW112701   5.626   0.252   6.536
 3934SOL    HW212702   5.748   0.354   6.575
 3935SOL     OW12703   4.579   0.854   0.392
 3935SOL    HW112704   4.606   0.912   0.470
 3935SOL    HW212705   4.526   0.777   0.426
 3936SOL     OW12706   0.131   5.010   3.271
 3936SOL    HW112707   0.135   4.956   3.187
 3936SOL    HW212708   0.041   5.052   3.280
 3937SOL     OW12709   0.403   1.387   2.515
 3937SOL    HW112710   0.454   1.465   2.551
 3937SOL    HW212711   0.439   1.363   2.425
 3938SOL     OW12712   0.038   2.440   2.000
 3938SOL    HW112713   0.026   2.357   1.946
 3938SOL    HW212714   0.108   2.426   2.069
 3939SOL     OW12715   2.775   1.764   1.680
 3939SOL    HW112716   2.829   1.753   1.596
 3939SOL    HW212717   2.691   1.711   1.673
 3940SOL     OW12718   4.296   2.936   1.418
 3940SOL    HW112719   4.357   3.015   1.405
 3940SOL    HW212720   4.345   2.852   1.397
 3941SOL     OW12721   4.669   4.221   6.628
 3941SOL    HW112722   4.593   4.253   6.572
 3941SOL    HW212723   4.667   4.267   6.717
 3942SOL     OW12724   6.607   6.626   6.441
 3942SOL    HW112725   6.641   6.590   6.528
 3942SOL    HW212726   6.523   6.678   6.457
 3943SOL     OW12727   0.304   3.360   4.432
 3943SOL    HW112728   0.258   3.322   4.512
 3943SOL    HW212729   0.291   3.299   4.354
 3944SOL     OW12730   5.145   2.502   4.794
 3944SOL    HW112731   5.234   2.469   4.762
 3944SOL    HW212732   5.077   2.493   4.721
 3945SOL     OW12733   0.147   0.600   0.616
 3945SOL    HW112734   0.110   0.659   0.688
 3945SOL    HW212735   0.128   0.640   0.526
 3946SOL     OW12736   4.387   4.638   3.140
 3946SOL    HW112737   4.399   4.550   3.093
 3946SOL    HW212738   4.426   4.631   3.232
 3947SOL     OW12739   6.026   5.535   6.920
 3947SOL    HW112740   5.960   5.609   6.902
 3947SOL    HW212741   6.087   5.525   6.842
 3948SOL     OW12742   6.386   4.458   1.000
 3948SOL    HW112743   6.366   4.554   0.981
 3948SOL    HW212744   6.300   4.409   1.017
 3949SOL     OW12745   5.291   6.321   3.099
 3949SOL    HW112746   5.251   6.394   3.154
 3949SOL    HW212747   5.218   6.265   3.060
 3950SOL     OW12748   1.374   6.140   0.342
 3950SOL    HW112749   1.389   6.160   0.439
 3950SOL    HW212750   1.437   6.069   0.313
 3951SOL     OW12751   5.674   6.982   2.005
 3951SOL    HW112752   5.729   6.899   2.013
 3951SOL    HW212753   5.699   0.007   1.922
 3952SOL     OW12754   6.022   2.142   0.079
 3952SOL    HW112755   6.064   2.065   0.126
 3952SOL    HW212756   5.962   2.192   0.143
 3953SOL     OW12757   3.300   4.067   2.962
 3953SOL    HW112758   3.267   4.076   3.056
 3953SOL    HW212759   3.222   4.049   2.901
 3954SOL     OW12760   3.717   4.779   5.484
 3954SOL    HW112761   3.660   4.734   5.416
 3954SOL    HW212762   3.661   4.813   5.559
 3955SOL     OW12763   4.060   0.720   4.640
 3955SOL    HW112764   4.103   0.786   4.578
 3955SOL    HW212765   4.034   0.767   4.725
 3956SOL     OW12766   1.628   1.090   1.401
 3956SOL    HW112767   1.692   1.165   1.386
 3956SOL    HW212768   1.665   1.028   1.470
 3957SOL     OW12769   3.576   0.811   4.662
 3957SOL    HW112770   3.593   0.716   4.688
 3957SOL    HW212771   3.493   0.816   4.607
 3958SOL     OW12772   5.577   0.660   5.510
 3958SOL    HW112773   5.663   0.682   5.554
 3958SOL    HW212774   5.594   0.610   5.424
 3959SOL     OW12775   4.508   5.506   0.813
 3959SOL    HW112776   4.550   5.569   0.878
 3959SOL    HW212777   4.412   5.530   0.799
 3960SOL     OW12778   5.311   2.539   4.438
 3960SOL    HW112779   5.257   2.551   4.355
 3960SOL    HW212780   5.338   2.629   4.473
 3961SOL     OW12781   5.887   6.198   3.533
 3961SOL    HW112782   5.926   6.146   3.457
 3961SOL    HW212783   5.794   6.226   3.510
 3962SOL     OW12784   6.866   5.501   5.234
 3962SOL    HW112785   6.811   5.439   5.178
 3962SOL    HW212786   6.962   5.492   5.209
 3963SOL     OW12787   4.480   6.625   1.889
 3963SOL    HW112788   4.516   6.532   1.885
 3963SOL    HW212789   4.383   6.624   1.866
 3964SOL     OW12790   5.592   3.329   3.299
 3964SOL    HW112791   5.525   3.269   3.340
 3964SOL    HW212792   5.605   3.410   3.357
 3965SOL     OW12793   4.863   3.880   4.475
 3965SOL    HW112794   4.858   3.844   4.568
 3965SOL    HW212795   4.884   3.978   4.478
 3966SOL     OW12796   2.763   6.024   6.428
 3966SOL    HW112797   2.828   6.068   6.364
 3966SOL    HW212798   2.704   6.094   6.468
 3967SOL     OW12799   2.109   4.529   2.809
 3967SOL    HW112800   2.209   4.529   2.810
 3967SOL    HW212801   2.076   4.609   2.758
 3968SOL     OW12802   4.025   7.020   0.581
 3968SOL    HW112803   3.971   6.966   0.517
 3968SOL    HW212804   3.965   0.033   0.653
 3969SOL     OW12805   0.858   5.203   2.419
 3969SOL    HW112806   0.809   5.289   2.436
 3969SOL    HW212807   0.881   5.159   2.506
 3970SOL     OW12808   5.257   6.107   2.728
 3970SOL    HW112809   5.217   6.139   2.642
 3970SOL    HW212810   5.336   6.163   2.751
 3971SOL     OW12811   2.446   5.846   4.005
 3971SOL    HW112812   2.480   5.940   4.012
 3971SOL    HW212813   2.371   5.843   3.939
 3972SOL     OW12814   2.116   3.697   0.071
 3972SOL    HW112815   2.153   3.606   0.053
 3972SOL    HW212816   2.018   3.698   0.053
 3973SOL     OW12817   1.263   5.700   0.399
 3973SOL    HW112818   1.246   5.732   0.493
 3973SOL    HW212819   1.190   5.731   0.339
 3974SOL     OW12820   2.025   0.907   4.906
 3974SOL    HW112821   1.942   0.889   4.852
 3974SOL    HW212822   2.007   0.980   4.972
 3975SOL     OW12823   5.615   2.320   6.325
 3975SOL    HW112824   5.555   2.385   6.372
 3975SOL    HW212825   5.709   2.354   6.325
 3976SOL     OW12826   2.278   5.370   2.308
 3976SOL    HW112827   2.276   5.424   2.392
 3976SOL    HW212828   2.365   5.320   2.303
 3977SOL     OW12829   1.183   3.592   6.626
 3977SOL    HW112830   1.217   3.498   6.611
 3977SOL    HW212831   1.255   3.657   6.602
 3978SOL     OW12832   6.583   4.804   3.728
 3978SOL    HW112833   6.522   4.749   3.671
 3978SOL    HW212834   6.633   4.744   3.790
 3979SOL     OW12835   3.802   6.999   6.612
 3979SOL    HW112836   3.857   0.051   6.575
 3979SOL    HW212837   3.819   6.991   6.710
 3980SOL     OW12838   5.643   6.382   5.605
 3980SOL    HW112839   5.544   6.380   5.590
 3980SOL    HW212840   5.679   6.290   5.595
 3981SOL     OW12841   4.522   6.712   0.382
 3981SOL    HW112842   4.462   6.791   0.396
 3981SOL    HW212843   4.566   6.688   0.468
 3982SOL     OW12844   3.028   6.001   2.512
 3982SOL    HW112845   3.095   5.992   2.438
 3982SOL    HW212846   3.027   6.096   2.544
 3983SOL     OW12847   3.504   5.867   3.856
 3983SOL    HW112848   3.446   5.931   3.806
 3983SOL    HW212849   3.568   5.918   3.912
 3984SOL     OW12850   6.522   2.740   3.027
 3984SOL    HW112851   6.514   2.827   3.076
 3984SOL    HW212852   6.524   2.758   2.929
 3985SOL     OW12853   4.170   5.635   6.877
 3985SOL    HW112854   4.196   5.569   6.807
 3985SOL    HW212855   4.124   5.713   6.834
 3986SOL     OW12856   4.938   0.533   2.232
 3986SOL    HW112857   4.910   0.587   2.152
 3986SOL    HW212858   5.033   0.506   2.224
 3987SOL     OW12859   3.418   5.111   4.665
 3987SOL    HW112860   3.429   5.052   4.585
 3987SOL    HW212861   3.323   5.110   4.696
 3988SOL     OW12862   4.192   5.528   0.788
 3988SOL    HW112863   4.127   5.489   0.723
 3988SOL    HW212864   4.169   5.623   0.806
 3989SOL     OW12865   5.488   2.088   0.366
 3989SOL    HW112866   5.436   2.172   0.384
 3989SOL    HW212867   5.469   2.058   0.272
 3990SOL     OW12868   6.348   2.156   2.246
 3990SOL    HW112869   6.305   2.218   2.311
 3990SOL    HW212870   6.439   2.189   2.222
 3991SOL     OW12871   6.927   0.807   3.298
 3991SOL    HW112872   6.903   0.714   3.329
 3991SOL    HW212873   6.938   0.807   3.199
 3992SOL     OW12874   2.775   1.600   1.161
 3992SOL    HW112875   2.690   1.651   1.149
 3992SOL    HW212876   2.852   1.663   1.161
 3993SOL     OW12877   1.455   2.872   1.429
 3993SOL    HW112878   1.541   2.918   1.450
 3993SOL    HW212879   1.473   2.787   1.380
 3994SOL     OW12880   2.514   6.141   4.776
 3994SOL    HW112881   2.449   6.166   4.704
 3994SOL    HW212882   2.607   6.146   4.741
 3995SOL     OW12883   1.785   2.638   4.962
 3995SOL    HW112884   1.792   2.647   4.862
 3995SOL    HW212885   1.873   2.605   4.998
 3996SOL     OW12886   0.201   6.325   5.001
 3996SOL    HW112887   0.176   6.289   4.911
 3996SOL    HW212888   0.189   6.253   5.070
 3997SOL     OW12889   5.199   0.121   4.563
 3997SOL    HW112890   5.190   0.025   4.590
 3997SOL    HW212891   5.281   0.132   4.507
 3998SOL     OW12892   4.335   2.273   3.749
 3998SOL    HW112893   4.369   2.366   3.737
 3998SOL    HW212894   4.320   2.231   3.659
 3999SOL     OW12895   5.392   2.406   4.687
 3999SOL    HW112896   5.395   2.429   4.590
 3999SOL    HW212897   5.437   2.317   4.701
 4000SOL     OW12898   4.116   0.129   3.767
 4000SOL    HW112899   4.114   0.118   3.667
 4000SOL    HW212900   4.130   0.225   3.790
 4001SOL     OW12901   1.252   2.128   3.484
 4001SOL    HW112902   1.323   2.128   3.414
 4001SOL    HW212903   1.236   2.034   3.515
 4002SOL     OW12904   2.222   3.646   1.738
 4002SOL    HW112905   2.201   3.551   1.716
 4002SOL    HW212906   2.151   3.683   1.798
 4003SOL     OW12907   3.735   1.500   4.906
 4003SOL    HW112908   3.745   1.435   4.830
 4003SOL    HW212909   3.661   1.564   4.885
 4004SOL     OW12910   0.007   1.738   5.632
 4004SOL    HW112911   0.026   1.805   5.704
 4004SOL    HW212912   6.942   1.694   5.650
 4005SOL     OW12913   5.891   5.380   5.549
 4005SOL    HW112914   5.853   5.344   5.634
 4005SOL    HW212915   5.979   5.337   5.531
 4006SOL     OW12916   3.566   6.497   2.646
 4006SOL    HW112917   3.579   6.544   2.559
 4006SOL    HW212918   3.649   6.447   2.670
 4007SOL     OW12919   6.624   1.994   6.440
 4007SOL    HW112920   6.675   2.043   6.510
 4007SOL    HW212921   6.557   2.056   6.398
 4008SOL     OW12922   2.726   2.410   5.181
 4008SOL    HW112923   2.663   2.471   5.133
 4008SOL    HW212924   2.765   2.458   5.260
 4009SOL     OW12925   3.685   2.872   2.498
 4009SOL    HW112926   3.628   2.936   2.551
 4009SOL    HW212927   3.653   2.779   2.515
 4010SOL     OW12928   1.927   2.992   6.296
 4010SOL    HW112929   1.990   3.062   6.330
 4010SOL    HW212930   1.919   2.919   6.364
 4011SOL     OW12931   0.755   2.751   1.103
 4011SOL    HW112932   0.781   2.745   1.199
 4011SOL    HW212933   0.785   2.839   1.066
 4012SOL     OW12934   6.304   3.108   3.812
 4012SOL    HW112935   6.350   3.043   3.752
 4012SOL    HW212936   6.209   3.119   3.783
 4013SOL     OW12937   4.218   2.291   3.262
 4013SOL    HW112938   4.302   2.331   3.299
 4013SOL    HW212939   4.145   2.301   3.330
 4014SOL     OW12940   5.556   5.982   1.924
 4014SOL    HW112941   5.577   5.954   2.018
 4014SOL    HW212942   5.485   6.053   1.925
 4015SOL     OW12943   4.570   3.305   6.976
 4015SOL    HW112944   4.561   3.370   6.900
 4015SOL    HW212945   4.615   3.222   6.943
 4016SOL     OW12946   3.212   6.332   4.651
 4016SOL    HW112947   3.249   6.262   4.712
 4016SOL    HW212948   3.285   6.363   4.590
 4017SOL     OW12949   6.606   6.481   6.718
 4017SOL    HW112950   6.551   6.532   6.784
 4017SOL    HW212951   6.629   6.391   6.755
 4018SOL     OW12952   2.628   6.378   0.230
 4018SOL    HW112953   2.549   6.364   0.170
 4018SOL    HW212954   2.630   6.473   0.260
 4019SOL     OW12955   5.137   5.285   3.083
 4019SOL    HW112956   5.228   5.325   3.091
 4019SOL    HW212957   5.100   5.303   2.991
 4020SOL     OW12958   5.247   2.274   5.240
 4020SOL    HW112959   5.249   2.369   5.273
 4020SOL    HW212960   5.157   2.254   5.203
 4021SOL     OW12961   4.222   4.840   0.021
 4021SOL    HW112962   4.222   4.907   6.970
 4021SOL    HW212963   4.304   4.853   0.077
 4022SOL     OW12964   5.420   0.897   0.860
 4022SOL    HW112965   5.398   0.987   0.822
 4022SOL    HW212966   5.344   0.834   0.843
 4023SOL     OW12967   6.882   0.363   5.842
 4023SOL    HW112968   6.968   0.326   5.879
 4023SOL    HW212969   6.857   0.314   5.759
 4024SOL     OW12970   4.213   4.771   4.588
 4024SOL    HW112971   4.289   4.738   4.644
 4024SOL    HW212972   4.135   4.791   4.648
 4025SOL     OW12973   1.413   4.509   2.992
 4025SOL    HW112974   1.318   4.512   2.962
 4025SOL    HW212975   1.458   4.429   2.952
 4026SOL     OW12976   4.877   0.186   4.683
 4026SOL    HW112977   4.870   0.207   4.586
 4026SOL    HW212978   4.930   0.257   4.729
 4027SOL     OW12979   4.327   4.940   2.007
 4027SOL    HW112980   4.390   4.976   1.938
 4027SOL    HW212981   4.275   5.016   2.047
 4028SOL     OW12982   2.521   6.513   3.512
 4028SOL    HW112983   2.492   6.505   3.417
 4028SOL    HW212984   2.468   6.450   3.569
 4029SOL     OW12985   1.711   3.794   3.870
 4029SOL    HW112986   1.723   3.823   3.964
 4029SOL    HW212987   1.616   3.810   3.842
 4030SOL     OW12988   1.330   1.467   6.248
 4030SOL    HW112989   1.376   1.536   6.303
 4030SOL    HW212990   1.291   1.397   6.307
 4031SOL     OW12991   5.529   5.855   4.065
 4031SOL    HW112992   5.593   5.912   4.015
 4031SOL    HW212993   5.570   5.765   4.083
 4032SOL     OW12994   4.406   6.931   4.662
 4032SOL    HW112995   4.372   7.003   4.723
 4032SOL    HW212996   4.389   6.841   4.703
 4033SOL     OW12997   3.450   3.601   5.745
 4033SOL    HW112998   3.377   3.569   5.684
 4033SOL    HW212999   3.505   3.523   5.774
 4034SOL     OW13000   5.876   3.084   4.635
 4034SOL    HW113001   5.815   3.030   4.577
 4034SOL    HW213002   5.886   3.039   4.724
 4035SOL     OW13003   0.678   5.278   0.940
 4035SOL    HW113004   0.584   5.309   0.933
 4035SOL    HW213005   0.705   5.233   0.855
 4036SOL     OW13006   6.505   6.219   2.326
 4036SOL    HW113007   6.503   6.124   2.294
 4036SOL    HW213008   6.418   6.241   2.369
 4037SOL     OW13009   6.820   4.123   6.251
 4037SOL    HW113010   6.725   4.144   6.276
 4037SOL    HW213011   6.839   4.160   6.160
 4038SOL     OW13012   6.566   5.106   3.261
 4038SOL    HW113013   6.494   5.175   3.271
 4038SOL    HW213014   6.590   5.070   3.351
 4039SOL     OW13015   3.925   6.112   1.060
 4039SOL    HW113016   3.910   6.171   1.140
 4039SOL    HW213017   3.900   6.161   0.977
 4040SOL     OW13018   3.735   6.259   0.660
 4040SOL    HW113019   3.745   6.288   0.565
 4040SOL    HW213020   3.644   6.285   0.693
 4041SOL     OW13021   0.927   0.010   3.454
 4041SOL    HW113022   0.904   0.106   3.473
 4041SOL    HW213023   0.857   6.994   3.393
 4042SOL     OW13024   5.924   5.378   1.894
 4042SOL    HW113025   5.933   5.370   1.795
 4042SOL    HW213026   5.922   5.287   1.935
 4043SOL     OW13027   6.375   4.073   2.118
 4043SOL    HW113028   6.365   4.136   2.041
 4043SOL    HW213029   6.361   4.122   2.204
 4044SOL     OW13030   6.626   5.497   3.315
 4044SOL    HW113031   6.581   5.448   3.239
 4044SOL    HW213032   6.560   5.559   3.358
 4045SOL     OW13033   2.302   4.579   5.935
 4045SOL    HW113034   2.284   4.491   5.889
 4045SOL    HW213035   2.231   4.645   5.910
 4046SOL     OW13036   0.173   3.053   0.632
 4046SOL    HW113037   0.249   3.003   0.592
 4046SOL    HW213038   0.097   3.056   0.567
 4047SOL     OW13039   3.086   3.896   2.266
 4047SOL    HW113040   3.028   3.832   2.315
 4047SOL    HW213041   3.120   3.853   2.182
 4048SOL     OW13042   4.592   2.501   1.309
 4048SOL    HW113043   4.526   2.462   1.373
 4048SOL    HW213044   4.670   2.439   1.299
 4049SOL     OW13045   6.932   0.867   5.503
 4049SOL    HW113046   6.966   0.958   5.528
 4049SOL    HW213047   6.995   0.825   5.438
 4050SOL     OW13048   2.427   0.845   1.619
 4050SOL    HW113049   2.403   0.767   1.561
 4050SOL    HW213050   2.352   0.862   1.683
 4051SOL     OW13051   1.290   4.256   1.065
 4051SOL    HW113052   1.381   4.252   1.024
 4051SOL    HW213053   1.298   4.245   1.164
 4052SOL     OW13054   1.442   6.329   1.629
 4052SOL    HW113055   1.519   6.389   1.606
 4052SOL    HW213056   1.368   6.384   1.667
 4053SOL     OW13057   3.283   4.938   3.533
 4053SOL    HW113058   3.383   4.929   3.534
 4053SOL    HW213059   3.258   5.031   3.557
 4054SOL     OW13060   5.142   1.458   6.835
 4054SOL    HW113061   5.147   1.525   6.761
 4054SOL    HW213062   5.230   1.410   6.843
 4055SOL     OW13063   4.616   2.496   1.031
 4055SOL    HW113064   4.610   2.576   0.972
 4055SOL    HW213065   4.563   2.512   1.114
 4056SOL     OW13066   3.854   2.623   1.074
 4056SOL    HW113067   3.822   2.542   1.025
 4056SOL    HW213068   3.779   2.663   1.127
 4057SOL     OW13069   6.186   2.462   0.263
 4057SOL    HW113070   6.122   2.435   0.335
 4057SOL    HW213071   6.236   2.544   0.291
 4058SOL     OW13072   1.495   1.877   4.502
 4058SOL    HW113073   1.588   1.907   4.522
 4058SOL    HW213074   1.437   1.893   4.582
 4059SOL     OW13075   6.249   2.323   5.268
 4059SOL    HW113076   6.339   2.365   5.254
 4059SOL    HW213077   6.244   2.237   5.217
 4060SOL     OW13078   3.358   5.841   5.249
 4060SOL    HW113079   3.377   5.932   5.287
 4060SOL    HW213080   3.262   5.836   5.223
 4061SOL     OW13081   2.360   2.938   1.582
 4061SOL    HW113082   2.373   2.926   1.484
 4061SOL    HW213083   2.271   2.982   1.598
 4062SOL     OW13084   3.894   6.535   2.495
 4062SOL    HW113085   3.892   6.630   2.462
 4062SOL    HW213086   3.964   6.526   2.566
 4063SOL     OW13087   2.356   4.844   6.621
 4063SOL    HW113088   2.346   4.876   6.715
 4063SOL    HW213089   2.360   4.744   6.620
 4064SOL     OW13090   5.988   6.776   4.112
 4064SOL    HW113091   5.982   6.701   4.178
 4064SOL    HW213092   6.074   6.826   4.126
 4065SOL     OW13093   0.046   4.624   6.629
 4065SOL    HW113094   6.977   4.587   6.611
 4065SOL    HW213095   0.046   4.722   6.614
 4066SOL     OW13096   5.956   5.525   1.280
 4066SOL    HW113097   5.892   5.573   1.221
 4066SOL    HW213098   5.940   5.426   1.274
 4067SOL     OW13099   5.810   1.176   1.703
 4067SOL    HW113100   5.810   1.126   1.616
 4067SOL    HW213101   5.715   1.189   1.733
 4068SOL     OW13102   5.464   1.582   4.952
 4068SOL    HW113103   5.388   1.598   4.889
 4068SOL    HW213104   5.456   1.643   5.031
 4069SOL     OW13105   0.074   6.227   0.460
 4069SOL    HW113106   0.112   6.198   0.548
 4069SOL    HW213107   0.093   6.324   0.446
 4070SOL     OW13108   6.873   3.325   3.423
 4070SOL    HW113109   6.935   3.306   3.347
 4070SOL    HW213110   6.925   3.336   3.507
 4071SOL     OW13111   2.708   0.526   3.865
 4071SOL    HW113112   2.725   0.472   3.783
 4071SOL    HW213113   2.611   0.523   3.888
 4072SOL     OW13114   0.993   0.069   3.724
 4072SOL    HW113115   0.998   0.043   3.627
 4072SOL    HW213116   0.978   7.011   3.780
 4073SOL     OW13117   2.543   5.006   1.708
 4073SOL    HW113118   2.639   5.022   1.733
 4073SOL    HW213119   2.516   4.914   1.738
 4074SOL     OW13120   0.670   2.615   0.300
 4074SOL    HW113121   0.759   2.620   0.256
 4074SOL    HW213122   0.599   2.600   0.232
 4075SOL     OW13123   5.451   0.151   3.591
 4075SOL    HW113124   5.472   0.223   3.524
 4075SOL    HW213125   5.356   0.160   3.621
 4076SOL     OW13126   2.041   2.435   3.185
 4076SOL    HW113127   2.128   2.388   3.200
 4076SOL    HW213128   2.011   2.477   3.270
 4077SOL     OW13129   3.380   0.837   0.909
 4077SOL    HW113130   3.371   0.870   1.003
 4077SOL    HW213131   3.300   0.782   0.885
 4078SOL     OW13132   4.935   3.722   2.819
 4078SOL    HW113133   5.000   3.778   2.768
 4078SOL    HW213134   4.924   3.633   2.774
 4079SOL     OW13135   6.094   0.180   4.410
 4079SOL    HW113136   6.165   0.211   4.347
 4079SOL    HW213137   6.046   0.102   4.370
 4080SOL     OW13138   3.674   2.865   3.154
 4080SOL    HW113139   3.615   2.946   3.146
 4080SOL    HW213140   3.668   2.813   3.069
 4081SOL     OW13141   2.963   2.092   6.899
 4081SOL    HW113142   2.997   1.999   6.912
 4081SOL    HW213143   2.919   2.100   6.809
 4082SOL     OW13144   1.033   2.053   5.751
 4082SOL    HW113145   1.029   1.974   5.690
 4082SOL    HW213146   1.127   2.067   5.782
 4083SOL     OW13147   5.929   5.470   2.560
 4083SOL    HW113148   6.022   5.446   2.585
 4083SOL    HW213149   5.906   5.428   2.472
 4084SOL     OW13150   5.184   0.471   2.118
 4084SOL    HW113151   5.237   0.441   2.197
 4084SOL    HW213152   5.245   0.507   2.048
 4085SOL     OW13153   2.452   4.563   2.845
 4085SOL    HW113154   2.531   4.609   2.885
 4085SOL    HW213155   2.432   4.479   2.895
 4086SOL     OW13156   5.538   4.915   5.343
 4086SOL    HW113157   5.485   4.831   5.351
 4086SOL    HW213158   5.588   4.914   5.256
 4087SOL     OW13159   2.073   0.825   1.699
 4087SOL    HW113160   2.004   0.763   1.737
 4087SOL    HW213161   2.047   0.920   1.717
 4088SOL     OW13162   0.328   1.771   5.899
 4088SOL    HW113163   0.373   1.709   5.834
 4088SOL    HW213164   0.239   1.798   5.864
 4089SOL     OW13165   1.029   0.961   2.389
 4089SOL    HW113166   0.933   0.956   2.420
 4089SOL    HW213167   1.072   0.872   2.401
 4090SOL     OW13168   2.633   2.816   5.694
 4090SOL    HW113169   2.587   2.905   5.696
 4090SOL    HW213170   2.620   2.773   5.604
 4091SOL     OW13171   3.430   6.109   2.230
 4091SOL    HW113172   3.335   6.080   2.239
 4091SOL    HW213173   3.472   6.114   2.321
 4092SOL     OW13174   5.442   2.140   6.119
 4092SOL    HW113175   5.508   2.162   6.190
 4092SOL    HW213176   5.488   2.140   6.030
 4093SOL     OW13177   5.626   3.998   3.587
 4093SOL    HW113178   5.538   3.969   3.624
 4093SOL    HW213179   5.690   3.921   3.588
 4094SOL     OW13180   6.754   6.632   0.385
 4094SOL    HW113181   6.754   6.698   0.310
 4094SOL    HW213182   6.736   6.541   0.349
 4095SOL     OW13183   1.871   5.225   0.845
 4095SOL    HW113184   1.863   5.256   0.750
 4095SOL    HW213185   1.954   5.170   0.855
 4096SOL     OW13186   0.568   0.412   6.804
 4096SOL    HW113187   0.629   0.439   6.879
 4096SOL    HW213188   0.622   0.374   6.729
 4097SOL     OW13189   0.515   3.692   5.085
 4097SOL    HW113190   0.609   3.687   5.054
 4097SOL    HW213191   0.489   3.605   5.127
 4098SOL     OW13192   0.890   5.731   2.116
 4098SOL    HW113193   0.944   5.709   2.198
 4098SOL    HW213194   0.878   5.830   2.111
 4099SOL     OW13195   6.452   3.208   5.456
 4099SOL    HW113196   6.447   3.306   5.475
 4099SOL    HW213197   6.359   3.170   5.451
 4100SOL     OW13198   2.453   0.967   3.116
 4100SOL    HW113199   2.365   0.950   3.159
 4100SOL    HW213200   2.441   1.026   3.036
 4101SOL     OW13201   6.564   5.974   6.536
 4101SOL    HW113202   6.647   5.979   6.480
 4101SOL    HW213203   6.588   5.957   6.631
 4102SOL     OW13204   1.126   5.832   0.180
 4102SOL    HW113205   1.144   5.929   0.160
 4102SOL    HW213206   1.103   5.784   0.096
 4103SOL     OW13207   2.201   5.754   2.759
 4103SOL    HW113208   2.272   5.705   2.710
 4103SOL    HW213209   2.232   5.774   2.852
 4104SOL     OW13210   1.565   5.966   5.114
 4104SOL    HW113211   1.539   5.949   5.019
 4104SOL    HW213212   1.500   6.029   5.156
 4105SOL     OW13213   4.115   6.983   1.954
 4105SOL    HW113214   4.117   0.007   2.043
 4105SOL    HW213215   4.187   6.914   1.951
 4106SOL     OW13216   1.045   0.041   2.276
 4106SOL    HW113217   1.104   7.013   2.215
 4106SOL    HW213218   1.002   7.002   2.342
 4107SOL     OW13219   1.894   0.616   0.796
 4107SOL    HW113220   1.933   0.563   0.871
 4107SOL    HW213221   1.949   0.698   0.781
 4108SOL     OW13222   6.277   6.221   5.582
 4108SOL    HW113223   6.244   6.165   5.658
 4108SOL    HW213224   6.365   6.263   5.607
 4109SOL     OW13225   5.423   6.185   4.918
 4109SOL    HW113226   5.443   6.234   5.003
 4109SOL    HW213227   5.324   6.179   4.906
 4110SOL     OW13228   4.461   2.909   0.455
 4110SOL    HW113229   4.499   2.983   0.511
 4110SOL    HW213230   4.433   2.945   0.366
 4111SOL     OW13231   5.586   5.013   4.167
 4111SOL    HW113232   5.618   5.045   4.078
 4111SOL    HW213233   5.659   4.963   4.213
 4112SOL     OW13234   4.774   5.742   4.204
 4112SOL    HW113235   4.718   5.823   4.185
 4112SOL    HW213236   4.725   5.660   4.172
 4113SOL     OW13237   4.421   5.169   4.763
 4113SOL    HW113238   4.451   5.247   4.818
 4113SOL    HW213239   4.483   5.158   4.685
 4114SOL     OW13240   0.259   1.183   1.775
 4114SOL    HW113241   0.162   1.188   1.752
 4114SOL    HW213242   0.296   1.275   1.786
 4115SOL     OW13243   4.234   5.922   3.648
 4115SOL    HW113244   4.152   5.978   3.663
 4115SOL    HW213245   4.271   5.941   3.557
 4116SOL     OW13246   5.864   3.253   3.576
 4116SOL    HW113247   5.906   3.231   3.488
 4116SOL    HW213248   5.790   3.188   3.596
 4117SOL     OW13249   0.556   1.080   3.482
 4117SOL    HW113250   0.636   1.130   3.448
 4117SOL    HW213251   0.524   1.017   3.411
 4118SOL     OW13252   1.253   0.068   1.320
 4118SOL    HW113253   1.290   7.020   1.379
 4118SOL    HW213254   1.163   0.041   1.286
 4119SOL     OW13255   6.779   0.378   4.397
 4119SOL    HW113256   6.804   0.469   4.364
 4119SOL    HW213257   6.703   0.386   4.462
 4120SOL     OW13258   2.096   0.629   5.856
 4120SOL    HW113259   2.192   0.611   5.874
 4120SOL    HW213260   2.040   0.575   5.918
 4121SOL     OW13261   6.681   0.971   2.356
 4121SOL    HW113262   6.652   0.908   2.284
 4121SOL    HW213263   6.645   0.941   2.444
 4122SOL     OW13264   0.778   5.181   3.316
 4122SOL    HW113265   0.695   5.219   3.356
 4122SOL    HW213266   0.858   5.217   3.364
 4123SOL     OW13267   5.602   4.399   1.363
 4123SOL    HW113268   5.600   4.330   1.435
 4123SOL    HW213269   5.697   4.423   1.342
 4124SOL     OW13270   6.209   6.731   6.902
 4124SOL    HW113271   6.150   6.766   6.974
 4124SOL    HW213272   6.156   6.720   6.818
 4125SOL     OW13273   6.769   2.728   6.749
 4125SOL    HW113274   6.699   2.705   6.817
 4125SOL    HW213275   6.805   2.819   6.769
 4126SOL     OW13276   1.070   3.918   4.248
 4126SOL    HW113277   0.982   3.877   4.271
 4126SOL    HW213278   1.114   3.864   4.176
 4127SOL     OW13279   5.536   2.450   4.249
 4127SOL    HW113280   5.496   2.460   4.158
 4127SOL    HW213281   5.489   2.509   4.314
 4128SOL     OW13282   6.347   2.804   6.401
 4128SOL    HW113283   6.290   2.874   6.446
 4128SOL    HW213284   6.300   2.716   6.406
 4129SOL     OW13285   2.913   1.516   0.940
 4129SOL    HW113286   2.834   1.498   0.999
 4129SOL    HW213287   2.883   1.567   0.860
 4130SOL     OW13288   5.817   2.526   0.727
 4130SOL    HW113289   5.805   2.546   0.824
 4130SOL    HW213290   5.778   2.437   0.706
 4131SOL     OW13291   4.622   6.476   3.317
 4131SOL    HW113292   4.581   6.451   3.404
 4131SOL    HW213293   4.722   6.472   3.325
 4132SOL     OW13294   6.797   4.730   3.236
 4132SOL    HW113295   6.858   4.791   3.186
 4132SOL    HW213296   6.751   4.669   3.171
 4133SOL     OW13297   5.437   6.284   2.871
 4133SOL    HW113298   5.385   6.313   2.951
 4133SOL    HW213299   5.534   6.275   2.895
 4134SOL     OW13300   1.672   3.583   1.378
 4134SOL    HW113301   1.705   3.672   1.348
 4134SOL    HW213302   1.665   3.583   1.478
 4135SOL     OW13303   6.093   1.102   0.990
 4135SOL    HW113304   6.053   1.022   0.945
 4135SOL    HW213305   6.145   1.073   1.070
 4136SOL     OW13306   0.548   4.744   0.438
 4136SOL    HW113307   0.554   4.661   0.382
 4136SOL    HW213308   0.556   4.824   0.379
 4137SOL     OW13309   0.454   3.315   6.087
 4137SOL    HW113310   0.369   3.349   6.047
 4137SOL    HW213311   0.531   3.346   6.033
 4138SOL     OW13312   4.593   6.868   6.451
 4138SOL    HW113313   4.652   6.918   6.514
 4138SOL    HW213314   4.579   6.923   6.368
 4139SOL     OW13315   1.707   4.218   2.577
 4139SOL    HW113316   1.653   4.187   2.499
 4139SOL    HW213317   1.794   4.254   2.545
 4140SOL     OW13318   2.099   6.951   6.703
 4140SOL    HW113319   2.093   0.011   6.649
 4140SOL    HW213320   2.109   6.872   6.641
 4141SOL     OW13321   4.927   1.338   6.030
 4141SOL    HW113322   4.860   1.408   6.054
 4141SOL    HW213323   4.880   1.252   6.010
 4142SOL     OW13324   6.300   5.355   1.136
 4142SOL    HW113325   6.259   5.407   1.061
 4142SOL    HW213326   6.385   5.397   1.165
 4143SOL     OW13327   5.807   4.253   6.460
 4143SOL    HW113328   5.866   4.239   6.381
 4143SOL    HW213329   5.863   4.279   6.539
 4144SOL     OW13330   4.516   0.751   1.660
 4144SOL    HW113331   4.616   0.743   1.660
 4144SOL    HW213332   4.490   0.846   1.643
 4145SOL     OW13333   5.480   0.240   1.485
 4145SOL    HW113334   5.477   0.157   1.430
 4145SOL    HW213335   5.575   0.263   1.506
 4146SOL     OW13336   4.327   0.181   1.612
 4146SOL    HW113337   4.281   0.233   1.684
 4146SOL    HW213338   4.422   0.211   1.605
 4147SOL     OW13339   4.802   5.102   6.960
 4147SOL    HW113340   4.785   5.160   6.881
 4147SOL    HW213341   4.846   5.156   0.009
 4148SOL     OW13342   2.747   1.440   5.844
 4148SOL    HW113343   2.822   1.383   5.810
 4148SOL    HW213344   2.783   1.528   5.874
 4149SOL     OW13345   1.480   3.701   6.217
 4149SOL    HW113346   1.392   3.667   6.251
 4149SOL    HW213347   1.480   3.801   6.216
 4150SOL     OW13348   5.484   1.566   0.240
 4150SOL    HW113349   5.408   1.508   0.210
 4150SOL    HW213350   5.469   1.596   0.334
 4151SOL     OW13351   2.385   5.889   4.834
 4151SOL    HW113352   2.417   5.874   4.927
 4151SOL    HW213353   2.395   5.986   4.810
 4152SOL     OW13354   2.732   3.852   1.192
 4152SOL    HW113355   2.668   3.894   1.256
 4152SOL    HW213356   2.812   3.818   1.242
 4153SOL     OW13357   6.836   5.601   2.108
 4153SOL    HW113358   6.864   5.655   2.029
 4153SOL    HW213359   6.812   5.662   2.184
 4154SOL     OW13360   0.390   6.780   3.811
 4154SOL    HW113361   0.438   6.867   3.808
 4154SOL    HW213362   0.353   6.758   3.721
 4155SOL     OW13363   6.746   0.524   2.035
 4155SOL    HW113364   6.778   0.534   2.129
 4155SOL    HW213365   6.703   0.434   2.024
 4156SOL     OW13366   0.371   4.747   5.510
 4156SOL    HW113367   0.347   4.835   5.469
 4156SOL    HW213368   0.362   4.675   5.440
 4157SOL     OW13369   5.449   6.201   0.763
 4157SOL    HW113370   5.532   6.147   0.749
 4157SOL    HW213371   5.377   6.166   0.702
 4158SOL     OW13372   0.834   2.982   1.020
 4158SOL    HW113373   0.770   3.057   1.033
 4158SOL    HW213374   0.927   3.015   1.035
 4159SOL     OW13375   3.027   0.550   4.067
 4159SOL    HW113376   3.005   0.504   3.982
 4159SOL    HW213377   3.112   0.602   4.056
 4160SOL     OW13378   1.649   6.571   6.201
 4160SOL    HW113379   1.558   6.533   6.218
 4160SOL    HW213380   1.683   6.536   6.114
 4161SOL     OW13381   3.498   3.095   3.190
 4161SOL    HW113382   3.568   3.166   3.189
 4161SOL    HW213383   3.409   3.134   3.165
 4162SOL     OW13384   5.352   5.649   1.165
 4162SOL    HW113385   5.363   5.651   1.066
 4162SOL    HW213386   5.325   5.740   1.197
 4163SOL     OW13387   3.765   5.593   1.659
 4163SOL    HW113388   3.816   5.611   1.576
 4163SOL    HW213389   3.674   5.634   1.652
 4164SOL     OW13390   5.421   1.680   6.668
 4164SOL    HW113391   5.470   1.593   6.658
 4164SOL    HW213392   5.455   1.745   6.601
 4165SOL     OW13393   3.656   1.386   4.311
 4165SOL    HW113394   3.701   1.364   4.225
 4165SOL    HW213395   3.622   1.480   4.309
 4166SOL     OW13396   6.479   1.813   1.522
 4166SOL    HW113397   6.445   1.724   1.552
 4166SOL    HW213398   6.513   1.806   1.429
 4167SOL     OW13399   3.711   5.180   4.496
 4167SOL    HW113400   3.708   5.264   4.550
 4167SOL    HW213401   3.780   5.189   4.424
 4168SOL     OW13402   5.770   4.438   0.289
 4168SOL    HW113403   5.701   4.443   0.217
 4168SOL    HW213404   5.728   4.403   0.373
 4169SOL     OW13405   5.288   3.490   6.747
 4169SOL    HW113406   5.336   3.464   6.664
 4169SOL    HW213407   5.221   3.561   6.727
 4170SOL     OW13408   1.203   2.726   5.574
 4170SOL    HW113409   1.230   2.736   5.670
 4170SOL    HW213410   1.180   2.816   5.537
 4171SOL     OW13411   0.334   1.670   6.152
 4171SOL    HW113412   0.334   1.705   6.059
 4171SOL    HW213413   0.428   1.646   6.179
 4172SOL     OW13414   2.884   2.135   6.631
 4172SOL    HW113415   2.955   2.094   6.574
 4172SOL    HW213416   2.826   2.195   6.576
 4173SOL     OW13417   4.553   1.506   5.764
 4173SOL    HW113418   4.489   1.476   5.694
 4173SOL    HW213419   4.503   1.552   5.838
 4174SOL     OW13420   4.245   6.163   3.928
 4174SOL    HW113421   4.167   6.187   3.871
 4174SOL    HW213422   4.245   6.065   3.946
 4175SOL     OW13423   1.687   4.846   6.134
 4175SOL    HW113424   1.679   4.851   6.034
 4175SOL    HW213425   1.686   4.750   6.163
 4176SOL     OW13426   4.920   6.817   5.740
 4176SOL    HW113427   4.869   6.883   5.686
 4176SOL    HW213428   4.980   6.865   5.804
 4177SOL     OW13429   4.525   4.834   2.950
 4177SOL    HW113430   4.617   4.861   2.921
 4177SOL    HW213431   4.527   4.740   2.983
 4178SOL     OW13432   3.912   6.282   1.288
 4178SOL    HW113433   3.855   6.222   1.344
 4178SOL    HW213434   4.005   6.281   1.323
 4179SOL     OW13435   4.420   2.525   0.062
 4179SOL    HW113436   4.475   2.583   0.002
 4179SOL    HW213437   4.323   2.544   0.048
 4180SOL     OW13438   3.972   3.732   0.302
 4180SOL    HW113439   3.983   3.768   0.209
 4180SOL    HW213440   4.041   3.772   0.362
 4181SOL     OW13441   5.666   6.623   6.048
 4181SOL    HW113442   5.599   6.690   6.015
 4181SOL    HW213443   5.757   6.648   6.015
 4182SOL     OW13444   0.782   5.923   5.541
 4182SOL    HW113445   0.870   5.902   5.583
 4182SOL    HW213446   0.737   5.838   5.514
 4183SOL     OW13447   4.485   1.843   0.543
 4183SOL    HW113448   4.567   1.801   0.581
 4183SOL    HW213449   4.476   1.819   0.446
 4184SOL     OW13450   3.625   5.790   3.157
 4184SOL    HW113451   3.634   5.889   3.170
 4184SOL    HW213452   3.715   5.747   3.167
 4185SOL     OW13453   4.828   3.986   3.230
 4185SOL    HW113454   4.768   4.060   3.262
 4185SOL    HW213455   4.811   3.969   3.133
 4186SOL     OW13456   1.889   5.628   0.052
 4186SOL    HW113457   1.959   5.700   0.059
 4186SOL    HW213458   1.924   5.553   7.019
 4187SOL     OW13459   2.458   3.680   5.961
 4187SOL    HW113460   2.535   3.655   5.902
 4187SOL    HW213461   2.379   3.703   5.905
 4188SOL     OW13462   4.542   6.999   6.869
 4188SOL    HW113463   4.578   0.068   6.856
 4188SOL    HW213464   4.474   6.979   6.799
 4189SOL     OW13465   4.522   4.715   3.408
 4189SOL    HW113466   4.499   4.795   3.353
 4189SOL    HW213467   4.586   4.742   3.480
 4190SOL     OW13468   5.918   6.638   1.361
 4190SOL    HW113469   5.969   6.618   1.278
 4190SOL    HW213470   5.823   6.611   1.349
 4191SOL     OW13471   4.266   3.375   6.728
 4191SOL    HW113472   4.359   3.411   6.727
 4191SOL    HW213473   4.202   3.449   6.750
 4192SOL     OW13474   1.471   3.713   6.607
 4192SOL    HW113475   1.516   3.780   6.547
 4192SOL    HW213476   1.492   3.621   6.574
 4193SOL     OW13477   0.368   0.178   0.096
 4193SOL    HW113478   0.333   0.091   0.063
 4193SOL    HW213479   0.340   0.192   0.191
 4194SOL     OW13480   4.811   1.581   5.803
 4194SOL    HW113481   4.719   1.554   5.774
 4194SOL    HW213482   4.878   1.541   5.741
 4195SOL     OW13483   3.011   6.781   1.045
 4195SOL    HW113484   3.083   6.812   0.983
 4195SOL    HW213485   2.921   6.809   1.009
 4196SOL     OW13486   6.459   2.599   2.583
 4196SOL    HW113487   6.466   2.508   2.622
 4196SOL    HW213488   6.547   2.626   2.544
 4197SOL     OW13489   3.303   1.025   6.979
 4197SOL    HW113490   3.337   0.979   0.038
 4197SOL    HW213491   3.207   1.001   6.964
 4198SOL     OW13492   5.848   2.251   1.991
 4198SOL    HW113493   5.900   2.322   1.942
 4198SOL    HW213494   5.860   2.164   1.943
 4199SOL     OW13495   0.188   3.643   6.737
 4199SOL    HW113496   0.232   3.626   6.648
 4199SOL    HW213497   0.141   3.731   6.735
 4200SOL     OW13498   4.699   1.807   3.945
 4200SOL    HW113499   4.630   1.855   3.999
 4200SOL    HW213500   4.658   1.729   3.900
 4201SOL     OW13501   6.081   6.795   4.501
 4201SOL    HW113502   6.097   6.773   4.598
 4201SOL    HW213503   6.164   6.778   4.449
 4202SOL     OW13504   4.626   4.050   1.709
 4202SOL    HW113505   4.692   4.117   1.742
 4202SOL    HW213506   4.534   4.088   1.714
 4203SOL     OW13507   5.810   4.232   5.742
 4203SOL    HW113508   5.811   4.289   5.824
 4203SOL    HW213509   5.823   4.136   5.768
 4204SOL     OW13510   1.742   4.168   6.615
 4204SOL    HW113511   1.717   4.217   6.698
 4204SOL    HW213512   1.757   4.234   6.541
 4205SOL     OW13513   4.477   6.417   6.700
 4205SOL    HW113514   4.549   6.349   6.706
 4205SOL    HW213515   4.388   6.372   6.701
 4206SOL     OW13516   2.284   1.804   4.040
 4206SOL    HW113517   2.263   1.735   4.109
 4206SOL    HW213518   2.214   1.802   3.968
 4207SOL     OW13519   0.630   2.647   3.078
 4207SOL    HW113520   0.589   2.599   3.001
 4207SOL    HW213521   0.563   2.710   3.118
 4208SOL     OW13522   1.836   1.896   3.705
 4208SOL    HW113523   1.799   1.977   3.751
 4208SOL    HW213524   1.775   1.871   3.630
 4209SOL     OW13525   6.897   5.830   1.938
 4209SOL    HW113526   6.975   5.880   1.974
 4209SOL    HW213527   6.881   5.857   1.843
 4210SOL     OW13528   2.911   4.303   5.273
 4210SOL    HW113529   2.888   4.393   5.235
 4210SOL    HW213530   2.875   4.296   5.366
 4211SOL     OW13531   3.619   2.687   5.375
 4211SOL    HW113532   3.662   2.777   5.383
 4211SOL    HW213533   3.685   2.622   5.337
 4212SOL     OW13534   6.972   2.121   2.759
 4212SOL    HW113535   6.913   2.135   2.679
 4212SOL    HW213536   6.919   2.136   2.842
 4213SOL     OW13537   3.704   0.211   3.803
 4213SOL    HW113538   3.612   0.251   3.800
 4213SOL    HW213539   3.762   0.257   3.736
 4214SOL     OW13540   6.779   5.824   3.332
 4214SOL    HW113541   6.840   5.846   3.256
 4214SOL    HW213542   6.780   5.725   3.348
 4215SOL     OW13543   5.973   0.063   5.598
 4215SOL    HW113544   6.030   0.135   5.559
 4215SOL    HW213545   6.029   7.006   5.619
 4216SOL     OW13546   2.644   5.251   2.057
 4216SOL    HW113547   2.668   5.287   1.967
 4216SOL    HW213548   2.707   5.288   2.126
 4217SOL     OW13549   1.141   0.099   3.193
 4217SOL    HW113550   1.164   0.158   3.270
 4217SOL    HW213551   1.205   0.115   3.118
 4218SOL     OW13552   2.539   1.039   1.481
 4218SOL    HW113553   2.496   0.959   1.521
 4218SOL    HW213554   2.637   1.039   1.501
 4219SOL     OW13555   3.633   5.099   2.928
 4219SOL    HW113556   3.533   5.098   2.935
 4219SOL    HW213557   3.663   5.185   2.888
 4220SOL     OW13558   5.901   1.758   1.248
 4220SOL    HW113559   5.819   1.805   1.215
 4220SOL    HW213560   5.902   1.759   1.348
 4221SOL     OW13561   0.644   6.142   0.803
 4221SOL    HW113562   0.715   6.175   0.741
 4221SOL    HW213563   0.686   6.114   0.890
 4222SOL     OW13564   5.040   3.393   4.166
 4222SOL    HW113565   4.987   3.477   4.163
 4222SOL    HW213566   5.056   3.366   4.260
 4223SOL     OW13567   3.275   3.740   2.982
 4223SOL    HW113568   3.191   3.791   3.001
 4223SOL    HW213569   3.287   3.732   2.883
 4224SOL     OW13570   4.580   4.807   4.484
 4224SOL    HW113571   4.644   4.781   4.412
 4224SOL    HW213572   4.487   4.810   4.446
 4225SOL     OW13573   1.324   1.693   5.949
 4225SOL    HW113574   1.353   1.733   5.862
 4225SOL    HW213575   1.308   1.595   5.938
 4226SOL     OW13576   0.546   5.196   5.009
 4226SOL    HW113577   0.613   5.187   5.083
 4226SOL    HW213578   0.535   5.292   4.985
 4227SOL     OW13579   5.193   5.351   2.034
 4227SOL    HW113580   5.097   5.324   2.027
 4227SOL    HW213581   5.251   5.270   2.036
 4228SOL     OW13582   1.620   4.750   4.251
 4228SOL    HW113583   1.669   4.828   4.213
 4228SOL    HW213584   1.526   4.750   4.217
 4229SOL     OW13585   5.301   5.472   5.483
 4229SOL    HW113586   5.283   5.534   5.559
 4229SOL    HW213587   5.390   5.429   5.496
 4230SOL     OW13588   7.001   1.226   1.823
 4230SOL    HW113589   0.022   1.273   1.900
 4230SOL    HW213590   6.933   1.162   1.858
 4231SOL     OW13591   0.267   1.434   6.306
 4231SOL    HW113592   0.303   1.493   6.234
 4231SOL    HW213593   0.328   1.355   6.318
 4232SOL     OW13594   1.792   4.935   4.052
 4232SOL    HW113595   1.875   4.897   4.092
 4232SOL    HW213596   1.789   5.034   4.069
 4233SOL     OW13597   5.092   5.576   2.238
 4233SOL    HW113598   5.090   5.573   2.138
 4233SOL    HW213599   5.022   5.514   2.274
 4234SOL     OW13600   3.683   5.061   5.550
 4234SOL    HW113601   3.610   5.085   5.486
 4234SOL    HW213602   3.770   5.052   5.501
 4235SOL     OW13603   7.014   5.966   5.975
 4235SOL    HW113604   0.083   5.930   5.960
 4235SOL    HW213605   7.005   5.995   6.070
 4236SOL     OW13606   0.715   5.542   3.220
 4236SOL    HW113607   0.713   5.642   3.220
 4236SOL    HW213608   0.641   5.507   3.277
 4237SOL     OW13609   0.186   4.657   4.221
 4237SOL    HW113610   0.143   4.568   4.203
 4237SOL    HW213611   0.211   4.699   4.134
 4238SOL     OW13612   3.324   6.371   2.014
 4238SOL    HW113613   3.412   6.329   1.994
 4238SOL    HW213614   3.325   6.407   2.107
 4239SOL     OW13615   4.494   1.529   4.062
 4239SOL    HW113616   4.577   1.505   4.112
 4239SOL    HW213617   4.518   1.549   3.967
 4240SOL     OW13618   5.666   6.547   1.615
 4240SOL    HW113619   5.626   6.494   1.540
 4240SOL    HW213620   5.764   6.532   1.617
 4241SOL     OW13621   6.668   3.967   0.225
 4241SOL    HW113622   6.587   3.929   0.270
 4241SOL    HW213623   6.639   4.037   0.159
 4242SOL     OW13624   3.026   2.204   3.075
 4242SOL    HW113625   2.937   2.197   3.119
 4242SOL    HW213626   3.096   2.226   3.144
 4243SOL     OW13627   4.645   1.681   2.698
 4243SOL    HW113628   4.629   1.615   2.771
 4243SOL    HW213629   4.559   1.699   2.650
 4244SOL     OW13630   3.250   2.974   4.762
 4244SOL    HW113631   3.344   2.965   4.731
 4244SOL    HW213632   3.207   2.883   4.765
 4245SOL     OW13633   5.951   0.207   0.069
 4245SOL    HW113634   5.852   0.204   0.063
 4245SOL    HW213635   5.981   0.302   0.073
 4246SOL     OW13636   0.117   3.979   0.081
 4246SOL    HW113637   0.143   4.058   0.137
 4246SOL    HW213638   0.197   3.921   0.067
 4247SOL     OW13639   0.586   5.507   5.230
 4247SOL    HW113640   0.641   5.576   5.185
 4247SOL    HW213641   0.645   5.444   5.281
 4248SOL     OW13642   2.035   3.949   5.973
 4248SOL    HW113643   1.978   3.929   5.894
 4248SOL    HW213644   2.019   4.043   6.004
 4249SOL     OW13645   5.241   4.333   5.437
 4249SOL    HW113646   5.310   4.356   5.506
 4249SOL    HW213647   5.196   4.247   5.463
 4250SOL     OW13648   1.572   4.668   3.406
 4250SOL    HW113649   1.568   4.642   3.502
 4250SOL    HW213650   1.656   4.632   3.365
 4251SOL     OW13651   5.286   4.288   0.422
 4251SOL    HW113652   5.252   4.382   0.417
 4251SOL    HW213653   5.350   4.271   0.348
 4252SOL     OW13654   0.133   5.533   5.445
 4252SOL    HW113655   0.232   5.535   5.433
 4252SOL    HW213656   0.109   5.465   5.514
 4253SOL     OW13657   3.897   6.546   2.859
 4253SOL    HW113658   3.919   6.603   2.939
 4253SOL    HW213659   3.966   6.559   2.788
 4254SOL     OW13660   3.054   4.152   1.767
 4254SOL    HW113661   2.959   4.183   1.760
 4254SOL    HW213662   3.077   4.136   1.863
 4255SOL     OW13663   0.906   2.537   4.364
 4255SOL    HW113664   0.870   2.537   4.458
 4255SOL    HW213665   0.830   2.538   4.299
 4256SOL     OW13666   2.012   1.106   1.759
 4256SOL    HW113667   2.001   1.097   1.858
 4256SOL    HW213668   2.063   1.190   1.740
 4257SOL     OW13669   4.214   2.274   4.836
 4257SOL    HW113670   4.201   2.335   4.915
 4257SOL    HW213671   4.300   2.224   4.846
 4258SOL     OW13672   5.216   6.567   2.636
 4258SOL    HW113673   5.211   6.576   2.735
 4258SOL    HW213674   5.309   6.544   2.609
 4259SOL     OW13675   1.534   2.953   0.669
 4259SOL    HW113676   1.493   3.018   0.733
 4259SOL    HW213677   1.634   2.963   0.670
 4260SOL     OW13678   3.909   5.834   3.604
 4260SOL    HW113679   3.835   5.887   3.564
 4260SOL    HW213680   3.972   5.805   3.532
 4261SOL     OW13681   1.736   1.134   3.117
 4261SOL    HW113682   1.835   1.149   3.108
 4261SOL    HW213683   1.694   1.131   3.026
 4262SOL     OW13684   0.158   6.312   6.341
 4262SOL    HW113685   0.064   6.308   6.375
 4262SOL    HW213686   0.163   6.274   6.249
 4263SOL     OW13687   3.992   5.176   6.431
 4263SOL    HW113688   3.919   5.241   6.452
 4263SOL    HW213689   3.985   5.149   6.335
 4264SOL     OW13690   0.080   0.392   1.050
 4264SOL    HW113691   0.073   0.307   0.997
 4264SOL    HW213692   0.144   0.378   1.126
 4265SOL     OW13693   1.045   2.905   0.166
 4265SOL    HW113694   0.984   2.917   0.244
 4265SOL    HW213695   1.060   2.808   0.149
 4266SOL     OW13696   3.162   4.289   1.403
 4266SOL    HW113697   3.106   4.358   1.449
 4266SOL    HW213698   3.245   4.272   1.456
 4267SOL     OW13699   2.049   4.211   6.027
 4267SOL    HW113700   2.086   4.277   5.962
 4267SOL    HW213701   2.114   4.200   6.103
 4268SOL     OW13702   1.903   0.581   0.368
 4268SOL    HW113703   1.843   0.655   0.338
 4268SOL    HW213704   1.862   0.532   0.444
 4269SOL     OW13705   2.979   3.670   0.752
 4269SOL    HW113706   2.973   3.679   0.653
 4269SOL    HW213707   2.894   3.632   0.788
 4270SOL     OW13708   4.143   2.729   5.865
 4270SOL    HW113709   4.134   2.773   5.955
 4270SOL    HW213710   4.099   2.640   5.868
 4271SOL     OW13711   1.154   0.268   0.536
 4271SOL    HW113712   1.251   0.242   0.537
 4271SOL    HW213713   1.122   0.282   0.629
 4272SOL     OW13714   0.220   4.235   3.528
 4272SOL    HW113715   0.301   4.289   3.505
 4272SOL    HW213716   0.139   4.294   3.528
 4273SOL     OW13717   5.713   6.008   4.601
 4273SOL    HW113718   5.712   6.066   4.682
 4273SOL    HW213719   5.798   6.023   4.550
 4274SOL     OW13720   1.984   0.373   4.144
 4274SOL    HW113721   2.055   0.302   4.150
 4274SOL    HW213722   2.023   0.456   4.105
 4275SOL     OW13723   1.494   6.926   6.486
 4275SOL    HW113724   1.590   6.919   6.459
 4275SOL    HW213725   1.455   7.010   6.449
 4276SOL     OW13726   1.924   4.412   2.488
 4276SOL    HW113727   1.941   4.359   2.572
 4276SOL    HW213728   1.997   4.479   2.476
 4277SOL     OW13729   0.800   5.391   4.796
 4277SOL    HW113730   0.842   5.385   4.887
 4277SOL    HW213731   0.787   5.299   4.759
 4278SOL     OW13732   0.759   6.749   5.730
 4278SOL    HW113733   0.730   6.658   5.701
 4278SOL    HW213734   0.759   6.811   5.652
 4279SOL     OW13735   2.966   5.821   4.059
 4279SOL    HW113736   2.890   5.794   4.000
 4279SOL    HW213737   2.932   5.843   4.150
 4280SOL     OW13738   4.874   3.474   3.842
 4280SOL    HW113739   4.900   3.421   3.762
 4280SOL    HW213740   4.777   3.497   3.838
 4281SOL     OW13741   2.568   4.020   5.350
 4281SOL    HW113742   2.554   3.946   5.416
 4281SOL    HW213743   2.510   4.004   5.270
 4282SOL     OW13744   0.798   3.420   0.971
 4282SOL    HW113745   0.875   3.435   1.033
 4282SOL    HW213746   0.802   3.486   0.896
 4283SOL     OW13747   2.260   0.556   4.115
 4283SOL    HW113748   2.328   0.495   4.156
 4283SOL    HW213749   2.247   0.635   4.174
 4284SOL     OW13750   6.113   1.647   3.284
 4284SOL    HW113751   6.107   1.618   3.188
 4284SOL    HW213752   6.088   1.743   3.292
 4285SOL     OW13753   0.836   6.376   4.782
 4285SOL    HW113754   0.824   6.460   4.728
 4285SOL    HW213755   0.916   6.326   4.748
 4286SOL     OW13756   5.802   5.752   6.947
 4286SOL    HW113757   5.736   5.815   6.907
 4286SOL    HW213758   5.769   5.658   6.937
 4287SOL     OW13759   3.787   6.387   5.192
 4287SOL    HW113760   3.816   6.455   5.258
 4287SOL    HW213761   3.850   6.386   5.114
 4288SOL     OW13762   1.414   6.485   3.078
 4288SOL    HW113763   1.462   6.572   3.090
 4288SOL    HW213764   1.481   6.413   3.060
 4289SOL     OW13765   6.028   3.629   0.587
 4289SOL    HW113766   6.063   3.566   0.657
 4289SOL    HW213767   5.964   3.580   0.528
 4290SOL     OW13768   2.329   1.089   2.546
 4290SOL    HW113769   2.359   1.002   2.585
 4290SOL    HW213770   2.405   1.130   2.494
 4291SOL     OW13771   6.590   4.433   1.204
 4291SOL    HW113772   6.630   4.342   1.194
 4291SOL    HW213773   6.547   4.460   1.118
 4292SOL     OW13774   5.899   6.019   6.078
 4292SOL    HW113775   5.946   6.103   6.106
 4292SOL    HW213776   5.963   5.942   6.086
 4293SOL     OW13777   0.353   2.561   6.359
 4293SOL    HW113778   0.336   2.574   6.457
 4293SOL    HW213779   0.412   2.481   6.347
 4294SOL     OW13780   5.036   2.187   6.096
 4294SOL    HW113781   4.952   2.238   6.076
 4294SOL    HW213782   5.107   2.251   6.125
 4295SOL     OW13783   3.681   6.300   4.805
 4295SOL    HW113784   3.695   6.214   4.854
 4295SOL    HW213785   3.638   6.281   4.717
 4296SOL     OW13786   2.485   0.870   1.934
 4296SOL    HW113787   2.389   0.859   1.960
 4296SOL    HW213788   2.493   0.937   1.861
 4297SOL     OW13789   5.698   0.885   6.847
 4297SOL    HW113790   5.621   0.854   6.791
 4297SOL    HW213791   5.777   0.903   6.788
 4298SOL     OW13792   2.835   5.280   1.425
 4298SOL    HW113793   2.755   5.340   1.428
 4298SOL    HW213794   2.915   5.329   1.458
 4299SOL     OW13795   1.070   4.397   6.232
 4299SOL    HW113796   1.055   4.439   6.321
 4299SOL    HW213797   1.166   4.409   6.206
 4300SOL     OW13798   5.643   0.242   6.136
 4300SOL    HW113799   5.633   0.157   6.188
 4300SOL    HW213800   5.734   0.245   6.095
 4301SOL     OW13801   2.611   1.420   0.390
 4301SOL    HW113802   2.515   1.423   0.363
 4301SOL    HW213803   2.666   1.387   0.313
 4302SOL     OW13804   1.397   6.479   6.938
 4302SOL    HW113805   1.414   6.578   6.942
 4302SOL    HW213806   1.458   6.432   7.001
 4303SOL     OW13807   6.968   3.802   1.821
 4303SOL    HW113808   6.992   3.887   1.869
 4303SOL    HW213809   6.951   3.730   1.889
 4304SOL     OW13810   3.302   2.962   5.051
 4304SOL    HW113811   3.393   2.973   5.091
 4304SOL    HW213812   3.300   3.003   4.960
 4305SOL     OW13813   6.000   1.172   5.063
 4305SOL    HW113814   6.072   1.172   5.132
 4305SOL    HW213815   5.938   1.250   5.080
 4306SOL     OW13816   6.351   6.282   6.663
 4306SOL    HW113817   6.404   6.313   6.584
 4306SOL    HW213818   6.342   6.356   6.729
 4307SOL     OW13819   5.170   3.627   0.037
 4307SOL    HW113820   5.154   3.719   0.001
 4307SOL    HW213821   5.101   3.564   0.001
 4308SOL     OW13822   4.287   6.689   5.091
 4308SOL    HW113823   4.257   6.689   5.187
 4308SOL    HW213824   4.376   6.645   5.084
 4309SOL     OW13825   1.383   0.961   1.011
 4309SOL    HW113826   1.353   1.052   1.042
 4309SOL    HW213827   1.454   0.927   1.073
 4310SOL     OW13828   1.457   0.706   2.783
 4310SOL    HW113829   1.395   0.678   2.857
 4310SOL    HW213830   1.533   0.758   2.820
 4311SOL     OW13831   1.673   5.811   4.384
 4311SOL    HW113832   1.738   5.743   4.417
 4311SOL    HW213833   1.603   5.766   4.329
 4312SOL     OW13834   1.403   5.270   1.552
 4312SOL    HW113835   1.319   5.215   1.554
 4312SOL    HW213836   1.481   5.212   1.574
 4313SOL     OW13837   4.948   0.423   1.817
 4313SOL    HW113838   4.852   0.399   1.802
 4313SOL    HW213839   4.988   0.358   1.882
 4314SOL     OW13840   5.417   3.425   3.012
 4314SOL    HW113841   5.322   3.415   3.042
 4314SOL    HW213842   5.474   3.356   3.058
 4315SOL     OW13843   2.127   1.515   1.944
 4315SOL    HW113844   2.089   1.588   1.888
 4315SOL    HW213845   2.082   1.515   2.033
 4316SOL     OW13846   0.475   0.869   2.286
 4316SOL    HW113847   0.438   0.826   2.204
 4316SOL    HW213848   0.400   0.907   2.341
 4317SOL     OW13849   4.077   0.417   3.738
 4317SOL    HW113850   4.122   0.449   3.821
 4317SOL    HW213851   4.141   0.420   3.662
 4318SOL     OW13852   6.993   3.114   4.221
 4318SOL    HW113853   7.011   3.075   4.131
 4318SOL    HW213854   0.043   3.086   4.284
 4319SOL     OW13855   2.568   3.400   5.792
 4319SOL    HW113856   2.630   3.348   5.851
 4319SOL    HW213857   2.621   3.451   5.725
 4320SOL     OW13858   0.812   5.970   3.144
 4320SOL    HW113859   0.899   5.985   3.193
 4320SOL    HW213860   0.810   6.027   3.062
 4321SOL     OW13861   0.443   0.899   4.793
 4321SOL    HW113862   0.350   0.936   4.790
 4321SOL    HW213863   0.470   0.886   4.888
 4322SOL     OW13864   5.624   1.262   0.768
 4322SOL    HW113865   5.678   1.178   0.762
 4322SOL    HW213866   5.678   1.333   0.812
 4323SOL     OW13867   6.693   2.190   3.576
 4323SOL    HW113868   6.656   2.237   3.657
 4323SOL    HW213869   6.669   2.242   3.494
 4324SOL     OW13870   6.072   3.142   6.011
 4324SOL    HW113871   5.986   3.116   5.968
 4324SOL    HW213872   6.062   3.231   6.055
 4325SOL     OW13873   1.731   1.675   5.402
 4325SOL    HW113874   1.680   1.713   5.325
 4325SOL    HW213875   1.808   1.622   5.368
 4326SOL     OW13876   6.089   2.124   5.671
 4326SOL    HW113877   6.048   2.215   5.666
 4326SOL    HW213878   6.183   2.132   5.704
 4327SOL     OW13879   5.267   0.425   3.067
 4327SOL    HW113880   5.227   0.486   3.134
 4327SOL    HW213881   5.366   0.419   3.082
 4328SOL     OW13882   5.474   5.284   0.784
 4328SOL    HW113883   5.484   5.185   0.797
 4328SOL    HW213884   5.383   5.313   0.815
 4329SOL     OW13885   4.258   1.647   6.119
 4329SOL    HW113886   4.249   1.676   6.215
 4329SOL    HW213887   4.207   1.561   6.105
 4330SOL     OW13888   0.825   0.473   6.349
 4330SOL    HW113889   0.833   0.541   6.422
 4330SOL    HW213890   0.756   0.503   6.283
 4331SOL     OW13891   5.428   2.711   0.613
 4331SOL    HW113892   5.498   2.750   0.672
 4331SOL    HW213893   5.431   2.611   0.620
 4332SOL     OW13894   5.269   3.651   1.711
 4332SOL    HW113895   5.281   3.738   1.761
 4332SOL    HW213896   5.172   3.632   1.699
 4333SOL     OW13897   5.475   1.743   5.486
 4333SOL    HW113898   5.511   1.650   5.499
 4333SOL    HW213899   5.537   1.809   5.527
 4334SOL     OW13900   4.715   0.271   1.793
 4334SOL    HW113901   4.641   0.312   1.847
 4334SOL    HW213902   4.729   0.176   1.822
 4335SOL     OW13903   3.512   4.223   5.715
 4335SOL    HW113904   3.484   4.263   5.803
 4335SOL    HW213905   3.600   4.263   5.688
 4336SOL     OW13906   1.651   6.430   4.612
 4336SOL    HW113907   1.628   6.359   4.679
 4336SOL    HW213908   1.641   6.394   4.520
 4337SOL     OW13909   0.831   5.081   0.309
 4337SOL    HW113910   0.910   5.110   0.255
 4337SOL    HW213911   0.842   5.112   0.403
 4338SOL     OW13912   6.581   6.175   3.793
 4338SOL    HW113913   6.672   6.209   3.770
 4338SOL    HW213914   6.521   6.183   3.713
 4339SOL     OW13915   6.231   0.754   6.418
 4339SOL    HW113916   6.247   0.845   6.458
 4339SOL    HW213917   6.310   0.728   6.363
 4340SOL     OW13918   4.909   3.185   2.157
 4340SOL    HW113919   4.993   3.132   2.162
 4340SOL    HW213920   4.843   3.138   2.098
 4341SOL     OW13921   0.708   3.752   0.182
 4341SOL    HW113922   0.785   3.704   0.140
 4341SOL    HW213923   0.635   3.686   0.203
 4342SOL     OW13924   6.726   2.404   2.648
 4342SOL    HW113925   6.635   2.369   2.673
 4342SOL    HW213926   6.776   2.333   2.599
 4343SOL     OW13927   2.227   1.680   1.462
 4343SOL    HW113928   2.251   1.583   1.465
 4343SOL    HW213929   2.306   1.735   1.489
 4344SOL     OW13930   2.009   3.899   3.198
 4344SOL    HW113931   2.040   3.962   3.127
 4344SOL    HW213932   1.991   3.809   3.157
 4345SOL     OW13933   2.356   1.489   5.784
 4345SOL    HW113934   2.434   1.531   5.829
 4345SOL    HW213935   2.340   1.398   5.822
 4346SOL     OW13936   0.436   2.833   1.446
 4346SOL    HW113937   0.465   2.928   1.431
 4346SOL    HW213938   0.448   2.810   1.543
 4347SOL     OW13939   5.942   6.075   2.538
 4347SOL    HW113940   6.000   6.127   2.601
 4347SOL    HW213941   5.985   5.988   2.516
 4348SOL     OW13942   1.162   4.150   0.018
 4348SOL    HW113943   1.261   4.146   0.009
 4348SOL    HW213944   1.135   4.114   0.107
 4349SOL     OW13945   0.195   0.413   2.776
 4349SOL    HW113946   0.201   0.316   2.752
 4349SOL    HW213947   0.101   0.445   2.761
 4350SOL     OW13948   4.808   1.127   3.649
 4350SOL    HW113949   4.820   1.106   3.746
 4350SOL    HW213950   4.755   1.211   3.639
 4351SOL     OW13951   2.837   6.119   0.579
 4351SOL    HW113952   2.847   6.024   0.548
 4351SOL    HW213953   2.756   6.160   0.537
 4352SOL     OW13954   6.300   1.691   2.387
 4352SOL    HW113955   6.238   1.672   2.310
 4352SOL    HW213956   6.359   1.768   2.363
 4353SOL     OW13957   3.013   5.594   1.051
 4353SOL    HW113958   3.083   5.598   0.981
 4353SOL    HW213959   2.942   5.662   1.032
 4354SOL     OW13960   1.939   0.458   1.007
 4354SOL    HW113961   2.026   0.415   0.983
 4354SOL    HW213962   1.896   0.407   1.082
 4355SOL     OW13963   4.614   1.129   0.862
 4355SOL    HW113964   4.525   1.172   0.846
 4355SOL    HW213965   4.614   1.084   0.951
 4356SOL     OW13966   3.658   4.345   0.319
 4356SOL    HW113967   3.568   4.381   0.293
 4356SOL    HW213968   3.730   4.396   0.271
 4357SOL     OW13969   6.529   0.632   6.565
 4357SOL    HW113970   6.438   0.593   6.551
 4357SOL    HW213971   6.552   0.691   6.488
 4358SOL     OW13972   6.710   0.957   1.641
 4358SOL    HW113973   6.810   0.955   1.645
 4358SOL    HW213974   6.681   0.944   1.546
 4359SOL     OW13975   6.725   2.656   4.388
 4359SOL    HW113976   6.738   2.744   4.342
 4359SOL    HW213977   6.720   2.583   4.320
 4360SOL     OW13978   2.309   3.164   1.358
 4360SOL    HW113979   2.221   3.181   1.401
 4360SOL    HW213980   2.303   3.184   1.260
 4361SOL     OW13981   5.422   1.672   1.991
 4361SOL    HW113982   5.487   1.738   2.029
 4361SOL    HW213983   5.472   1.597   1.948
 4362SOL     OW13984   5.619   4.145   3.306
 4362SOL    HW113985   5.696   4.096   3.265
 4362SOL    HW213986   5.600   4.108   3.397
 4363SOL     OW13987   4.849   1.059   5.893
 4363SOL    HW113988   4.902   1.126   5.841
 4363SOL    HW213989   4.898   0.971   5.892
 4364SOL     OW13990   3.587   3.557   5.117
 4364SOL    HW113991   3.496   3.581   5.150
 4364SOL    HW213992   3.587   3.557   5.017
 4365SOL     OW13993   3.257   1.547   1.226
 4365SOL    HW113994   3.313   1.473   1.262
 4365SOL    HW213995   3.195   1.580   1.298
 4366SOL     OW13996   5.152   5.134   1.262
 4366SOL    HW113997   5.071   5.187   1.238
 4366SOL    HW213998   5.203   5.112   1.179
 4367SOL     OW13999   0.437   6.326   0.467
 4367SOL    HW114000   0.495   6.372   0.534
 4367SOL    HW214001   0.460   6.229   0.464
 4368SOL     OW14002   4.899   3.675   2.040
 4368SOL    HW114003   4.832   3.676   2.114
 4368SOL    HW214004   4.986   3.637   2.072
 4369SOL     OW14005   3.525   5.577   2.056
 4369SOL    HW114006   3.608   5.597   2.003
 4369SOL    HW214007   3.538   5.491   2.105
 4370SOL     OW14008   5.595   4.672   2.729
 4370SOL    HW114009   5.637   4.583   2.750
 4370SOL    HW214010   5.667   4.737   2.706
 4371SOL     OW14011   0.325   2.118   1.945
 4371SOL    HW114012   0.236   2.131   1.902
 4371SOL    HW214013   0.320   2.146   2.041
 4372SOL     OW14014   4.422   0.270   3.443
 4372SOL    HW114015   4.452   0.258   3.538
 4372SOL    HW214016   4.501   0.269   3.383
 4373SOL     OW14017   6.718   1.834   6.130
 4373SOL    HW114018   6.618   1.830   6.129
 4373SOL    HW214019   6.751   1.809   6.221
 4374SOL     OW14020   3.508   1.957   1.304
 4374SOL    HW114021   3.485   1.883   1.241
 4374SOL    HW214022   3.527   1.919   1.395
 4375SOL     OW14023   3.638   6.586   3.788
 4375SOL    HW114024   3.719   6.565   3.844
 4375SOL    HW214025   3.645   6.680   3.754
 4376SOL     OW14026   6.493   1.967   4.302
 4376SOL    HW114027   6.460   1.873   4.287
 4376SOL    HW214028   6.418   2.022   4.338
 4377SOL     OW14029   6.256   5.272   6.658
 4377SOL    HW114030   6.169   5.237   6.692
 4377SOL    HW214031   6.300   5.202   6.601
 4378SOL     OW14032   2.400   1.660   3.799
 4378SOL    HW114033   2.438   1.647   3.707
 4378SOL    HW214034   2.428   1.583   3.857
 4379SOL     OW14035   2.902   1.809   5.476
 4379SOL    HW114036   2.884   1.877   5.405
 4379SOL    HW214037   2.875   1.846   5.565
 4380SOL     OW14038   0.687   1.893   2.174
 4380SOL    HW114039   0.725   1.977   2.135
 4380SOL    HW214040   0.590   1.885   2.151
 4381SOL     OW14041   1.826   5.956   6.664
 4381SOL    HW114042   1.758   5.884   6.669
 4381SOL    HW214043   1.787   6.036   6.619
 4382SOL     OW14044   0.330   4.433   4.796
 4382SOL    HW114045   0.386   4.378   4.734
 4382SOL    HW214046   0.318   4.384   4.882
 4383SOL     OW14047   6.492   3.630   6.788
 4383SOL    HW114048   6.558   3.645   6.714
 4383SOL    HW214049   6.415   3.577   6.752
 4384SOL     OW14050   5.471   6.664   3.668
 4384SOL    HW114051   5.424   6.732   3.612
 4384SOL    HW214052   5.569   6.667   3.648
 4385SOL     OW14053   4.559   1.834   5.400
 4385SOL    HW114054   4.645   1.839   5.451
 4385SOL    HW214055   4.531   1.739   5.390
 4386SOL     OW14056   2.027   3.665   5.193
 4386SOL    HW114057   2.037   3.763   5.177
 4386SOL    HW214058   2.033   3.647   5.292
 4387SOL     OW14059   5.852   2.100   0.710
 4387SOL    HW114060   5.837   2.011   0.753
 4387SOL    HW214061   5.842   2.092   0.611
 4388SOL     OW14062   4.848   3.861   6.890
 4388SOL    HW114063   4.855   3.952   6.931
 4388SOL    HW214064   4.876   3.865   6.794
 4389SOL     OW14065   0.989   3.037   0.642
 4389SOL    HW114066   1.027   2.974   0.574
 4389SOL    HW214067   0.907   2.997   0.683
 4390SOL     OW14068   7.017   1.313   0.649
 4390SOL    HW114069   7.009   1.261   0.564
 4390SOL    HW214070   6.986   1.257   0.725
 4391SOL     OW14071   1.409   6.033   0.911
 4391SOL    HW114072   1.477   6.090   0.958
 4391SOL    HW214073   1.446   5.941   0.899
 4392SOL     OW14074   1.115   3.365   5.386
 4392SOL    HW114075   1.175   3.367   5.466
 4392SOL    HW214076   1.047   3.293   5.398
 4393SOL     OW14077   5.111   0.837   1.959
 4393SOL    HW114078   5.175   0.886   1.900
 4393SOL    HW214079   5.143   0.840   2.054
 4394SOL     OW14080   1.021   0.467   2.627
 4394SOL    HW114081   0.985   0.559   2.643
 4394SOL    HW214082   1.059   0.462   2.534
 4395SOL     OW14083   2.302   4.691   1.759
 4395SOL    HW114084   2.231   4.621   1.761
 4395SOL    HW214085   2.389   4.650   1.733
 4396SOL     OW14086   3.138   1.098   2.710
 4396SOL    HW114087   3.207   1.028   2.692
 4396SOL    HW214088   3.180   1.188   2.709
 4397SOL     OW14089   3.407   1.874   4.482
 4397SOL    HW114090   3.430   1.969   4.502
 4397SOL    HW214091   3.398   1.823   4.567
 4398SOL     OW14092   1.826   3.139   5.227
 4398SOL    HW114093   1.762   3.107   5.157
 4398SOL    HW214094   1.839   3.238   5.218
 4399SOL     OW14095   2.529   6.541   2.171
 4399SOL    HW114096   2.549   6.478   2.096
 4399SOL    HW214097   2.435   6.528   2.202
 4400SOL     OW14098   1.885   5.667   4.468
 4400SOL    HW114099   1.960   5.602   4.456
 4400SOL    HW214100   1.841   5.652   4.556
 4401SOL     OW14101   3.396   6.535   6.690
 4401SOL    HW114102   3.328   6.562   6.759
 4401SOL    HW214103   3.470   6.602   6.689
 4402SOL     OW14104   1.794   0.405   2.985
 4402SOL    HW114105   1.861   0.473   3.014
 4402SOL    HW214106   1.707   0.450   2.965
 4403SOL     OW14107   0.426   4.958   1.770
 4403SOL    HW114108   0.503   4.904   1.803
 4403SOL    HW214109   0.430   5.050   1.810
 4404SOL     OW14110   6.903   6.662   6.178
 4404SOL    HW114111   6.980   6.654   6.242
 4404SOL    HW214112   6.835   6.592   6.198
 4405SOL     OW14113   1.906   5.649   2.165
 4405SOL    HW114114   1.941   5.661   2.258
 4405SOL    HW214115   1.848   5.568   2.161
 4406SOL     OW14116   5.744   4.035   2.337
 4406SOL    HW114117   5.778   4.057   2.429
 4406SOL    HW214118   5.681   3.958   2.343
 4407SOL     OW14119   6.140   6.704   1.195
 4407SOL    HW114120   6.218   6.694   1.256
 4407SOL    HW214121   6.171   6.743   1.108
 4408SOL     OW14122   3.893   1.056   0.043
 4408SOL    HW114123   3.874   1.121   6.992
 4408SOL    HW214124   3.807   1.016   0.075
 4409SOL     OW14125   3.092   0.472   3.288
 4409SOL    HW114126   3.064   0.416   3.210
 4409SOL    HW214127   3.070   0.424   3.373
 4410SOL     OW14128   0.079   6.845   0.674
 4410SOL    HW114129   0.048   6.939   0.665
 4410SOL    HW214130   0.051   6.809   0.764
 4411SOL     OW14131   4.090   4.585   5.319
 4411SOL    HW114132   4.140   4.550   5.240
 4411SOL    HW214133   4.008   4.531   5.335
 4412SOL     OW14134   4.363   6.241   1.679
 4412SOL    HW114135   4.385   6.265   1.774
 4412SOL    HW214136   4.415   6.160   1.652
 4413SOL     OW14137   4.971   5.795   3.974
 4413SOL    HW114138   4.913   5.817   3.895
 4413SOL    HW214139   4.935   5.840   4.055
 4414SOL     OW14140   5.369   3.959   1.688
 4414SOL    HW114141   5.287   3.923   1.733
 4414SOL    HW214142   5.448   3.948   1.749
 4415SOL     OW14143   1.783   3.222   2.068
 4415SOL    HW114144   1.765   3.260   1.978
 4415SOL    HW214145   1.705   3.168   2.098
 4416SOL     OW14146   5.026   2.613   3.326
 4416SOL    HW114147   4.937   2.653   3.349
 4416SOL    HW214148   5.032   2.600   3.227
 4417SOL     OW14149   6.908   4.050   2.203
 4417SOL    HW114150   6.838   4.031   2.134
 4417SOL    HW214151   6.869   4.110   2.274
 4418SOL     OW14152   6.542   6.854   5.548
 4418SOL    HW114153   6.618   6.790   5.561
 4418SOL    HW214154   6.503   6.842   5.457
 4419SOL     OW14155   6.656   5.450   6.869
 4419SOL    HW114156   6.670   5.501   6.784
 4419SOL    HW214157   6.743   5.441   6.917
 4420SOL     OW14158   3.755   1.861   1.013
 4420SOL    HW114159   3.795   1.874   1.104
 4420SOL    HW214160   3.756   1.948   0.964
 4421SOL     OW14161   1.781   2.792   0.127
 4421SOL    HW114162   1.812   2.706   0.088
 4421SOL    HW214163   1.689   2.812   0.093
 4422SOL     OW14164   6.599   3.350   6.267
 4422SOL    HW114165   6.564   3.391   6.351
 4422SOL    HW214166   6.619   3.422   6.201
 4423SOL     OW14167   6.330   4.469   5.384
 4423SOL    HW114168   6.389   4.418   5.447
 4423SOL    HW214169   6.235   4.462   5.415
 4424SOL     OW14170   4.872   5.764   2.665
 4424SOL    HW114171   4.922   5.812   2.593
 4424SOL    HW214172   4.908   5.790   2.754
 4425SOL     OW14173   1.114   5.466   1.475
 4425SOL    HW114174   1.044   5.420   1.528
 4425SOL    HW214175   1.101   5.565   1.481
 4426SOL     OW14176   0.469   0.727   4.487
 4426SOL    HW114177   0.429   0.791   4.552
 4426SOL    HW214178   0.396   0.680   4.437
 4427SOL     OW14179   2.365   5.743   1.915
 4427SOL    HW114180   2.286   5.767   1.970
 4427SOL    HW214181   2.421   5.675   1.962
 4428SOL     OW14182   5.950   5.680   3.394
 4428SOL    HW114183   5.882   5.662   3.323
 4428SOL    HW214184   5.905   5.684   3.483
 4429SOL     OW14185   3.105   6.106   3.400
 4429SOL    HW114186   3.182   6.045   3.382
 4429SOL    HW214187   3.124   6.196   3.360
 4430SOL     OW14188   5.838   3.851   5.414
 4430SOL    HW114189   5.769   3.788   5.448
 4430SOL    HW214190   5.808   3.888   5.326
 4431SOL     OW14191   4.025   6.539   4.586
 4431SOL    HW114192   4.092   6.491   4.643
 4431SOL    HW214193   4.037   6.511   4.491
 4432SOL     OW14194   0.928   3.863   6.150
 4432SOL    HW114195   0.901   3.884   6.244
 4432SOL    HW214196   0.988   3.935   6.116
 4433SOL     OW14197   0.617   1.121   4.742
 4433SOL    HW114198   0.598   1.174   4.824
 4433SOL    HW214199   0.541   1.057   4.725
 4434SOL     OW14200   7.005   0.388   2.291
 4434SOL    HW114201   6.965   0.298   2.307
 4434SOL    HW214202   0.067   0.396   2.343
 4435SOL     OW14203   2.303   3.708   0.597
 4435SOL    HW114204   2.396   3.711   0.633
 4435SOL    HW214205   2.257   3.625   0.630
 4436SOL     OW14206   4.406   2.462   1.779
 4436SOL    HW114207   4.319   2.510   1.787
 4436SOL    HW214208   4.392   2.376   1.729
 4437SOL     OW14209   6.597   4.207   0.045
 4437SOL    HW114210   6.510   4.250   0.023
 4437SOL    HW214211   6.668   4.277   0.053
 4438SOL     OW14212   4.050   0.821   4.888
 4438SOL    HW114213   4.148   0.799   4.889
 4438SOL    HW214214   4.019   0.836   4.982
 4439SOL     OW14215   2.637   5.692   2.891
 4439SOL    HW114216   2.614   5.758   2.963
 4439SOL    HW214217   2.701   5.624   2.927
 4440SOL     OW14218   1.422   4.401   6.320
 4440SOL    HW114219   1.352   4.384   6.390
 4440SOL    HW214220   1.387   4.469   6.256
 4441SOL     OW14221   6.953   2.506   1.127
 4441SOL    HW114222   6.929   2.593   1.085
 4441SOL    HW214223   6.936   2.511   1.226
 4442SOL     OW14224   1.920   5.283   0.234
 4442SOL    HW114225   1.992   5.350   0.252
 4442SOL    HW214226   1.940   5.235   0.148
 4443SOL     OW14227   0.450   5.753   5.768
 4443SOL    HW114228   0.528   5.744   5.830
 4443SOL    HW214229   0.442   5.848   5.737
 4444SOL     OW14230   5.992   5.514   0.499
 4444SOL    HW114231   6.029   5.603   0.472
 4444SOL    HW214232   6.034   5.443   0.444
 4445SOL     OW14233   1.273   4.416   0.390
 4445SOL    HW114234   1.251   4.484   0.459
 4445SOL    HW214235   1.320   4.339   0.433
 4446SOL     OW14236   4.466   1.654   1.305
 4446SOL    HW114237   4.564   1.670   1.311
 4446SOL    HW214238   4.443   1.621   1.213
 4447SOL     OW14239   4.168   5.735   5.999
 4447SOL    HW114240   4.101   5.806   5.977
 4447SOL    HW214241   4.208   5.753   6.088
 4448SOL     OW14242   3.956   6.664   1.365
 4448SOL    HW114243   3.918   6.651   1.273
 4448SOL    HW214244   3.972   6.574   1.407
 4449SOL     OW14245   3.672   1.641   5.918
 4449SOL    HW114246   3.595   1.601   5.868
 4449SOL    HW214247   3.661   1.622   6.016
 4450SOL     OW14248   2.382   6.368   0.090
 4450SOL    HW114249   2.331   6.293   0.047
 4450SOL    HW214250   2.364   6.453   0.041
 4451SOL     OW14251   4.303   5.232   3.435
 4451SOL    HW114252   4.375   5.223   3.367
 4451SOL    HW214253   4.342   5.222   3.526
 4452SOL     OW14254   4.872   5.859   4.419
 4452SOL    HW114255   4.957   5.908   4.401
 4452SOL    HW214256   4.853   5.797   4.342
 4453SOL     OW14257   0.150   4.644   0.472
 4453SOL    HW114258   0.064   4.690   0.495
 4453SOL    HW214259   0.186   4.683   0.387
 4454SOL     OW14260   1.287   2.506   0.445
 4454SOL    HW114261   1.216   2.463   0.502
 4454SOL    HW214262   1.377   2.475   0.474
 4455SOL     OW14263   1.595   0.545   4.549
 4455SOL    HW114264   1.645   0.609   4.491
 4455SOL    HW214265   1.570   0.464   4.495
 4456SOL     OW14266   2.344   6.693   3.837
 4456SOL    HW114267   2.383   6.781   3.811
 4456SOL    HW214268   2.289   6.657   3.762
 4457SOL     OW14269   1.707   2.009   4.638
 4457SOL    HW114270   1.748   1.963   4.716
 4457SOL    HW214271   1.779   2.049   4.581
 4458SOL     OW14272   1.041   3.358   6.305
 4458SOL    HW114273   1.033   3.258   6.311
 4458SOL    HW214274   0.959   3.400   6.342
 4459SOL     OW14275   0.761   3.176   3.000
 4459SOL    HW114276   0.663   3.157   3.009
 4459SOL    HW214277   0.784   3.188   2.903
 4460SOL     OW14278   0.314   2.364   4.610
 4460SOL    HW114279   0.298   2.393   4.704
 4460SOL    HW214280   0.259   2.420   4.548
 4461SOL     OW14281   2.184   0.362   0.909
 4461SOL    HW114282   2.244   0.311   0.971
 4461SOL    HW214283   2.204   0.335   0.815
 4462SOL     OW14284   6.456   4.411   2.890
 4462SOL    HW114285   6.545   4.375   2.862
 4462SOL    HW214286   6.439   4.498   2.845
 4463SOL     OW14287   5.841   1.790   0.054
 4463SOL    HW114288   5.831   1.783   0.153
 4463SOL    HW214289   5.790   1.870   0.021
 4464SOL     OW14290   0.190   4.018   1.676
 4464SOL    HW114291   0.175   3.999   1.773
 4464SOL    HW214292   0.261   4.088   1.666
 4465SOL     OW14293   3.701   5.150   1.753
 4465SOL    HW114294   3.605   5.160   1.724
 4465SOL    HW214295   3.706   5.085   1.829
 4466SOL     OW14296   0.621   2.873   2.346
 4466SOL    HW114297   0.624   2.895   2.443
 4466SOL    HW214298   0.532   2.897   2.309
 4467SOL     OW14299   5.391   4.810   2.633
 4467SOL    HW114300   5.321   4.754   2.589
 4467SOL    HW214301   5.461   4.750   2.673
 4468SOL     OW14302   1.626   3.194   1.783
 4468SOL    HW114303   1.593   3.101   1.801
 4468SOL    HW214304   1.663   3.198   1.690
 4469SOL     OW14305   2.066   5.765   1.434
 4469SOL    HW114306   2.149   5.716   1.460
 4469SOL    HW214307   2.028   5.726   1.350
 4470SOL     OW14308   0.893   0.216   2.632
 4470SOL    HW114309   0.806   0.258   2.660
 4470SOL    HW214310   0.951   0.285   2.590
 4471SOL     OW14311   1.272   6.853   6.228
 4471SOL    HW114312   1.334   6.903   6.288
 4471SOL    HW214313   1.177   6.869   6.256
 4472SOL     OW14314   1.890   2.564   0.760
 4472SOL    HW114315   1.870   2.615   0.844
 4472SOL    HW214316   1.962   2.610   0.709
 4473SOL     OW14317   0.217   3.518   4.875
 4473SOL    HW114318   0.305   3.483   4.842
 4473SOL    HW214319   0.149   3.513   4.802
 4474SOL     OW14320   2.858   6.045   1.276
 4474SOL    HW114321   2.898   6.066   1.187
 4474SOL    HW214322   2.856   5.946   1.289
 4475SOL     OW14323   1.294   3.933   0.630
 4475SOL    HW114324   1.362   3.903   0.697
 4475SOL    HW214325   1.313   3.891   0.541
 4476SOL     OW14326   5.606   0.873   3.860
 4476SOL    HW114327   5.655   0.959   3.874
 4476SOL    HW214328   5.594   0.827   3.948
 4477SOL     OW14329   0.177   0.987   4.862
 4477SOL    HW114330   0.194   1.037   4.946
 4477SOL    HW214331   0.127   1.045   4.798
 4478SOL     OW14332   1.539   0.175   1.644
 4478SOL    HW114333   1.591   0.260   1.636
 4478SOL    HW214334   1.454   0.192   1.695
 4479SOL     OW14335   2.166   2.139   0.059
 4479SOL    HW114336   2.153   2.197   0.139
 4479SOL    HW214337   2.144   2.044   0.082
 4480SOL     OW14338   0.607   6.835   3.365
 4480SOL    HW114339   0.620   6.737   3.380
 4480SOL    HW214340   0.627   6.858   3.270
 4481SOL     OW14341   2.091   3.908   5.568
 4481SOL    HW114342   2.006   3.886   5.615
 4481SOL    HW214343   2.070   3.955   5.482
 4482SOL     OW14344   1.982   6.975   1.536
 4482SOL    HW114345   2.030   6.943   1.454
 4482SOL    HW214346   1.885   6.984   1.517
 4483SOL     OW14347   1.265   3.552   0.768
 4483SOL    HW114348   1.255   3.474   0.829
 4483SOL    HW214349   1.254   3.522   0.673
 4484SOL     OW14350   2.522   0.984   6.776
 4484SOL    HW114351   2.447   1.048   6.763
 4484SOL    HW214352   2.609   1.030   6.758
 4485SOL     OW14353   6.885   2.583   5.136
 4485SOL    HW114354   6.914   2.572   5.231
 4485SOL    HW214355   6.877   2.680   5.113
 4486SOL     OW14356   5.048   4.632   4.381
 4486SOL    HW114357   5.056   4.618   4.282
 4486SOL    HW214358   4.993   4.558   4.420
 4487SOL     OW14359   0.553   2.764   6.744
 4487SOL    HW114360   0.593   2.803   6.827
 4487SOL    HW214361   0.604   2.795   6.664
 4488SOL     OW14362   0.032   3.957   3.340
 4488SOL    HW114363   0.093   4.013   3.284
 4488SOL    HW214364   0.059   3.965   3.436
 4489SOL     OW14365   3.691   6.096   6.227
 4489SOL    HW114366   3.703   6.000   6.252
 4489SOL    HW214367   3.736   6.154   6.295
 4490SOL     OW14368   5.331   1.339   1.974
 4490SOL    HW114369   5.280   1.407   1.921
 4490SOL    HW214370   5.421   1.376   1.997
 4491SOL     OW14371   1.151   3.169   3.163
 4491SOL    HW114372   1.131   3.258   3.122
 4491SOL    HW214373   1.065   3.120   3.180
 4492SOL     OW14374   6.916   1.396   2.386
 4492SOL    HW114375   6.857   1.474   2.407
 4492SOL    HW214376   7.011   1.425   2.388
 4493SOL     OW14377   5.011   1.470   5.594
 4493SOL    HW114378   5.070   1.523   5.533
 4493SOL    HW214379   4.917   1.477   5.563
 4494SOL     OW14380   1.493   0.783   2.154
 4494SOL    HW114381   1.528   0.820   2.068
 4494SOL    HW214382   1.561   0.723   2.195
 4495SOL     OW14383   4.140   6.528   1.002
 4495SOL    HW114384   4.209   6.461   1.029
 4495SOL    HW214385   4.185   6.608   0.961
 4496SOL     OW14386   2.796   6.408   5.365
 4496SOL    HW114387   2.809   6.399   5.463
 4496SOL    HW214388   2.741   6.488   5.345
 4497SOL     OW14389   4.050   0.748   6.075
 4497SOL    HW114390   4.054   0.791   5.985
 4497SOL    HW214391   3.997   0.806   6.137
 4498SOL     OW14392   0.834   5.016   4.718
 4498SOL    HW114393   0.910   5.061   4.671
 4498SOL    HW214394   0.753   5.017   4.660
 4499SOL     OW14395   5.863   1.099   2.577
 4499SOL    HW114396   5.782   1.155   2.597
 4499SOL    HW214397   5.860   1.069   2.482
 4500SOL     OW14398   3.897   6.032   0.523
 4500SOL    HW114399   3.904   6.130   0.544
 4500SOL    HW214400   3.977   6.003   0.472
 4501SOL     OW14401   5.959   0.756   2.617
 4501SOL    HW114402   5.879   0.695   2.619
 4501SOL    HW214403   5.945   0.825   2.546
 4502SOL     OW14404   0.504   4.176   6.764
 4502SOL    HW114405   0.434   4.211   6.826
 4502SOL    HW214406   0.463   4.114   6.697
 4503SOL     OW14407   3.445   1.672   2.502
 4503SOL    HW114408   3.509   1.639   2.571
 4503SOL    HW214409   3.491   1.739   2.444
 4504SOL     OW14410   0.640   2.451   3.293
 4504SOL    HW114411   0.657   2.359   3.258
 4504SOL    HW214412   0.654   2.518   3.220
 4505SOL     OW14413   6.086   3.299   3.952
 4505SOL    HW114414   6.126   3.303   3.861
 4505SOL    HW214415   6.027   3.379   3.966
 4506SOL     OW14416   4.463   4.014   6.770
 4506SOL    HW114417   4.498   4.097   6.812
 4506SOL    HW214418   4.382   4.036   6.716
 4507SOL     OW14419   6.287   2.244   3.543
 4507SOL    HW114420   6.290   2.146   3.524
 4507SOL    HW214421   6.334   2.293   3.470
 4508SOL     OW14422   6.836   5.052   0.445
 4508SOL    HW114423   6.891   4.975   0.476
 4508SOL    HW214424   6.739   5.029   0.452
 4509SOL     OW14425   5.611   2.355   2.074
 4509SOL    HW114426   5.691   2.312   2.033
 4509SOL    HW214427   5.564   2.409   2.004
 4510SOL     OW14428   4.489   1.794   4.311
 4510SOL    HW114429   4.423   1.857   4.352
 4510SOL    HW214430   4.442   1.734   4.246
 4511SOL     OW14431   6.882   5.002   6.567
 4511SOL    HW114432   6.798   4.958   6.599
 4511SOL    HW214433   6.861   5.060   6.489
 4512SOL     OW14434   3.293   2.927   5.712
 4512SOL    HW114435   3.278   3.019   5.678
 4512SOL    HW214436   3.242   2.861   5.656
 4513SOL     OW14437   0.268   0.180   0.337
 4513SOL    HW114438   0.235   0.089   0.362
 4513SOL    HW214439   0.249   0.244   0.412
 4514SOL     OW14440   4.844   4.923   6.548
 4514SOL    HW114441   4.791   5.001   6.581
 4514SOL    HW214442   4.800   4.884   6.468
 4515SOL     OW14443   3.893   0.889   6.259
 4515SOL    HW114444   3.922   0.981   6.232
 4515SOL    HW214445   3.794   0.880   6.250
 4516SOL     OW14446   3.056   2.615   5.745
 4516SOL    HW114447   3.002   2.698   5.755
 4516SOL    HW214448   3.060   2.588   5.649
 4517SOL     OW14449   4.583   0.670   4.217
 4517SOL    HW114450   4.572   0.766   4.240
 4517SOL    HW214451   4.633   0.662   4.130
 4518SOL     OW14452   0.065   6.452   0.839
 4518SOL    HW114453   0.076   6.463   0.740
 4518SOL    HW214454   0.108   6.366   0.868
 4519SOL     OW14455   4.848   6.796   6.908
 4519SOL    HW114456   4.924   6.843   6.953
 4519SOL    HW214457   4.856   6.697   6.923
 4520SOL     OW14458   4.622   5.208   5.146
 4520SOL    HW114459   4.534   5.252   5.165
 4520SOL    HW214460   4.647   5.148   5.222
 4521SOL     OW14461   4.461   2.231   4.009
 4521SOL    HW114462   4.445   2.264   3.917
 4521SOL    HW214463   4.466   2.131   4.009
 4522SOL     OW14464   5.828   4.069   3.830
 4522SOL    HW114465   5.820   4.081   3.731
 4522SOL    HW214466   5.894   3.996   3.849
 4523SOL     OW14467   6.738   3.071   6.080
 4523SOL    HW114468   6.751   3.072   6.179
 4523SOL    HW214469   6.726   2.977   6.049
 4524SOL     OW14470   1.971   3.867   2.439
 4524SOL    HW114471   2.033   3.793   2.412
 4524SOL    HW214472   1.990   3.948   2.384
 4525SOL     OW14473   3.932   2.680   5.525
 4525SOL    HW114474   3.863   2.639   5.465
 4525SOL    HW214475   3.910   2.659   5.620
 4526SOL     OW14476   1.294   0.274   5.387
 4526SOL    HW114477   1.253   0.242   5.301
 4526SOL    HW214478   1.332   0.365   5.374
 4527SOL     OW14479   0.429   1.651   3.142
 4527SOL    HW114480   0.504   1.619   3.084
 4527SOL    HW214481   0.455   1.736   3.186
 4528SOL     OW14482   5.227   0.616   4.677
 4528SOL    HW114483   5.222   0.640   4.580
 4528SOL    HW214484   5.206   0.519   4.688
 4529SOL     OW14485   2.066   1.901   3.866
 4529SOL    HW114486   2.060   1.983   3.923
 4529SOL    HW214487   1.995   1.905   3.795
 4530SOL     OW14488   3.901   5.836   6.226
 4530SOL    HW114489   3.928   5.740   6.218
 4530SOL    HW214490   3.914   5.881   6.138
 4531SOL     OW14491   1.524   6.406   5.349
 4531SOL    HW114492   1.466   6.487   5.343
 4531SOL    HW214493   1.615   6.428   5.313
 4532SOL     OW14494   6.751   1.584   2.451
 4532SOL    HW114495   6.699   1.608   2.369
 4532SOL    HW214496   6.704   1.512   2.501
 4533SOL     OW14497   2.783   6.837   1.537
 4533SOL    HW114498   2.839   6.782   1.599
 4533SOL    HW214499   2.741   6.778   1.468
 4534SOL     OW14500   5.552   1.462   4.239
 4534SOL    HW114501   5.594   1.372   4.252
 4534SOL    HW214502   5.459   1.461   4.277
 4535SOL     OW14503   2.244   0.327   6.718
 4535SOL    HW114504   2.235   0.287   6.810
 4535SOL    HW214505   2.192   0.412   6.714
 4536SOL     OW14506   3.689   1.160   5.580
 4536SOL    HW114507   3.748   1.081   5.563
 4536SOL    HW214508   3.605   1.151   5.527
 4537SOL     OW14509   3.181   3.009   3.154
 4537SOL    HW114510   3.154   2.935   3.216
 4537SOL    HW214511   3.154   3.096   3.194
 4538SOL     OW14512   0.709   2.458   0.567
 4538SOL    HW114513   0.699   2.441   0.469
 4538SOL    HW214514   0.761   2.542   0.582
 4539SOL     OW14515   1.783   5.642   4.706
 4539SOL    HW114516   1.796   5.739   4.728
 4539SOL    HW214517   1.691   5.613   4.734
 4540SOL     OW14518   1.537   1.800   0.049
 4540SOL    HW114519   1.505   1.846   0.132
 4540SOL    HW214520   1.603   1.729   0.073
 4541SOL     OW14521   3.960   3.063   6.792
 4541SOL    HW114522   3.867   3.063   6.755
 4541SOL    HW214523   3.963   3.005   6.874
 4542SOL     OW14524   0.478   1.470   6.586
 4542SOL    HW114525   0.564   1.447   6.539
 4542SOL    HW214526   0.401   1.453   6.525
 4543SOL     OW14527   3.937   1.876   0.723
 4543SOL    HW114528   3.846   1.895   0.758
 4543SOL    HW214529   3.938   1.888   0.623
 4544SOL     OW14530   4.846   6.783   0.901
 4544SOL    HW114531   4.887   6.823   0.819
 4544SOL    HW214532   4.751   6.814   0.909
 4545SOL     OW14533   2.455   3.016   5.797
 4545SOL    HW114534   2.399   2.971   5.867
 4545SOL    HW214535   2.425   3.111   5.787
 4546SOL     OW14536   3.910   0.285   6.021
 4546SOL    HW114537   3.927   0.365   6.078
 4546SOL    HW214538   3.950   0.204   6.065
 4547SOL     OW14539   0.408   0.464   0.087
 4547SOL    HW114540   0.426   0.456   0.185
 4547SOL    HW214541   0.400   0.373   0.047
 4548SOL     OW14542   3.168   1.087   1.946
 4548SOL    HW114543   3.081   1.083   1.995
 4548SOL    HW214544   3.230   1.017   1.981
 4549SOL     OW14545   0.125   3.604   4.086
 4549SOL    HW114546   0.111   3.505   4.078
 4549SOL    HW214547   0.175   3.637   4.006
 4550SOL     OW14548   1.792   5.971   5.248
 4550SOL    HW114549   1.805   5.875   5.273
 4550SOL    HW214550   1.715   5.978   5.184
 4551SOL     OW14551   3.414   2.357   5.862
 4551SOL    HW114552   3.378   2.361   5.769
 4551SOL    HW214553   3.364   2.423   5.919
 4552SOL     OW14554   4.132   0.984   0.251
 4552SOL    HW114555   4.187   1.055   0.295
 4552SOL    HW214556   4.064   1.027   0.191
 4553SOL     OW14557   0.448   6.394   0.199
 4553SOL    HW114558   0.405   6.409   0.288
 4553SOL    HW214559   0.497   6.308   0.199
 4554SOL     OW14560   5.930   0.018   3.005
 4554SOL    HW114561   5.899   6.977   3.076
 4554SOL    HW214562   5.976   6.991   2.933
 4555SOL     OW14563   0.733   0.805   1.669
 4555SOL    HW114564   0.757   0.849   1.582
 4555SOL    HW214565   0.710   0.876   1.736
 4556SOL     OW14566   5.098   4.533   4.083
 4556SOL    HW114567   5.015   4.480   4.068
 4556SOL    HW214568   5.172   4.473   4.113
 4557SOL     OW14569   0.154   5.124   4.283
 4557SOL    HW114570   0.158   5.042   4.340
 4557SOL    HW214571   0.180   5.101   4.189
 4558SOL     OW14572   1.524   4.060   5.006
 4558SOL    HW114573   1.497   4.149   5.042
 4558SOL    HW214574   1.589   4.073   4.931
 4559SOL     OW14575   0.023   3.038   3.968
 4559SOL    HW114576   7.000   2.977   3.903
 4559SOL    HW214577   0.114   3.061   3.933
 4560SOL     OW14578   6.177   4.408   2.954
 4560SOL    HW114579   6.274   4.399   2.933
 4560SOL    HW214580   6.160   4.499   2.993
 4561SOL     OW14581   4.715   2.349   3.780
 4561SOL    HW114582   4.712   2.284   3.857
 4561SOL    HW214583   4.776   2.314   3.709
 4562SOL     OW14584   3.750   1.287   0.420
 4562SOL    HW114585   3.706   1.212   0.469
 4562SOL    HW214586   3.727   1.282   0.323
 4563SOL     OW14587   0.707   4.452   1.889
 4563SOL    HW114588   0.735   4.516   1.818
 4563SOL    HW214589   0.766   4.370   1.886
 4564SOL     OW14590   2.157   4.178   2.589
 4564SOL    HW114591   2.083   4.206   2.651
 4564SOL    HW214592   2.226   4.250   2.586
 4565SOL     OW14593   1.703   7.016   5.824
 4565SOL    HW114594   1.740   6.967   5.902
 4565SOL    HW214595   1.698   6.955   5.745
 4566SOL     OW14596   7.004   4.397   3.010
 4566SOL    HW114597   6.958   4.308   3.007
 4566SOL    HW214598   7.013   4.427   3.105
 4567SOL     OW14599   6.956   0.010   6.480
 4567SOL    HW114600   7.022   0.077   6.514
 4567SOL    HW214601   7.003   6.947   6.460
 4568SOL     OW14602   1.029   5.270   3.966
 4568SOL    HW114603   0.945   5.305   3.924
 4568SOL    HW214604   1.053   5.182   3.925
 4569SOL     OW14605   1.657   1.666   3.178
 4569SOL    HW114606   1.566   1.652   3.215
 4569SOL    HW214607   1.690   1.758   3.201
 4570SOL     OW14608   5.031   4.998   1.470
 4570SOL    HW114609   4.962   5.064   1.499
 4570SOL    HW214610   5.094   5.041   1.405
 4571SOL     OW14611   2.501   3.922   6.084
 4571SOL    HW114612   2.492   3.840   6.026
 4571SOL    HW214613   2.427   3.986   6.062
 4572SOL     OW14614   3.943   3.007   1.893
 4572SOL    HW114615   3.963   3.092   1.843
 4572SOL    HW214616   3.952   2.929   1.831
 4573SOL     OW14617   2.650   4.954   0.474
 4573SOL    HW114618   2.718   5.025   0.457
 4573SOL    HW214619   2.620   4.958   0.570
 4574SOL     OW14620   4.867   0.960   2.240
 4574SOL    HW114621   4.894   1.011   2.158
 4574SOL    HW214622   4.858   1.023   2.317
 4575SOL     OW14623   0.199   0.730   5.451
 4575SOL    HW114624   0.263   0.707   5.377
 4575SOL    HW214625   0.120   0.669   5.446
 4576SOL     OW14626   3.475   3.954   6.822
 4576SOL    HW114627   3.382   3.969   6.857
 4576SOL    HW214628   3.482   3.862   6.783
 4577SOL     OW14629   0.564   1.809   1.862
 4577SOL    HW114630   0.545   1.844   1.771
 4577SOL    HW214631   0.499   1.848   1.927
 4578SOL     OW14632   1.732   1.159   2.834
 4578SOL    HW114633   1.821   1.141   2.792
 4578SOL    HW214634   1.708   1.255   2.821
 4579SOL     OW14635   4.569   0.870   3.380
 4579SOL    HW114636   4.497   0.809   3.415
 4579SOL    HW214637   4.658   0.827   3.394
 4580SOL     OW14638   0.499   1.227   0.594
 4580SOL    HW114639   0.419   1.246   0.652
 4580SOL    HW214640   0.571   1.293   0.613
 4581SOL     OW14641   2.685   0.615   1.051
 4581SOL    HW114642   2.755   0.545   1.056
 4581SOL    HW214643   2.600   0.574   1.018
 4582SOL     OW14644   0.033   0.557   3.552
 4582SOL    HW114645   0.129   0.571   3.579
 4582SOL    HW214646   0.028   0.547   3.452
 4583SOL     OW14647   1.856   0.004   0.100
 4583SOL    HW114648   1.953   0.010   0.122
 4583SOL    HW214649   1.814   0.095   0.106
 4584SOL     OW14650   0.301   1.654   4.404
 4584SOL    HW114651   0.349   1.718   4.344
 4584SOL    HW214652   0.206   1.684   4.416
 4585SOL     OW14653   1.818   3.016   3.194
 4585SOL    HW114654   1.899   2.960   3.177
 4585SOL    HW214655   1.846   3.102   3.239
 4586SOL     OW14656   6.094   4.839   6.277
 4586SOL    HW114657   6.030   4.904   6.318
 4586SOL    HW214658   6.081   4.748   6.318
 4587SOL     OW14659   3.832   3.959   5.630
 4587SOL    HW114660   3.839   4.005   5.719
 4587SOL    HW214661   3.743   3.980   5.590
 4588SOL     OW14662   3.278   3.956   6.562
 4588SOL    HW114663   3.275   3.859   6.537
 4588SOL    HW214664   3.361   3.973   6.616
 4589SOL     OW14665   5.857   6.198   2.234
 4589SOL    HW114666   5.825   6.146   2.314
 4589SOL    HW214667   5.901   6.282   2.265
 4590SOL     OW14668   3.314   5.566   1.233
 4590SOL    HW114669   3.345   5.486   1.283
 4590SOL    HW214670   3.261   5.625   1.293
 4591SOL     OW14671   2.355   1.156   5.018
 4591SOL    HW114672   2.408   1.151   4.934
 4591SOL    HW214673   2.326   1.251   5.035
 4592SOL     OW14674   2.566   1.820   3.618
 4592SOL    HW114675   2.603   1.913   3.623
 4592SOL    HW214676   2.628   1.763   3.565
 4593SOL     OW14677   1.225   6.522   4.480
 4593SOL    HW114678   1.253   6.561   4.393
 4593SOL    HW214679   1.289   6.550   4.552
 4594SOL     OW14680   2.019   6.316   3.790
 4594SOL    HW114681   1.969   6.243   3.743
 4594SOL    HW214682   1.960   6.358   3.860
 4595SOL     OW14683   5.637   1.628   6.322
 4595SOL    HW114684   5.646   1.544   6.376
 4595SOL    HW214685   5.668   1.706   6.376
 4596SOL     OW14686   0.966   1.124   2.191
 4596SOL    HW114687   0.996   1.049   2.249
 4596SOL    HW214688   0.866   1.124   2.186
 4597SOL     OW14689   2.579   5.571   0.451
 4597SOL    HW114690   2.523   5.595   0.530
 4597SOL    HW214691   2.643   5.497   0.476
 4598SOL     OW14692   0.863   4.103   0.499
 4598SOL    HW114693   0.917   4.041   0.555
 4598SOL    HW214694   0.899   4.104   0.405
 4599SOL     OW14695   3.580   6.548   1.885
 4599SOL    HW114696   3.538   6.462   1.915
 4599SOL    HW214697   3.655   6.572   1.946
 4600SOL     OW14698   0.468   6.943   6.582
 4600SOL    HW114699   0.410   6.974   6.657
 4600SOL    HW214700   0.499   6.850   6.600
 4601SOL     OW14701   1.963   0.646   5.387
 4601SOL    HW114702   1.905   0.572   5.421
 4601SOL    HW214703   1.962   0.646   5.287
 4602SOL     OW14704   3.298   1.842   6.229
 4602SOL    HW114705   3.261   1.902   6.299
 4602SOL    HW214706   3.336   1.760   6.271
 4603SOL     OW14707   3.921   6.939   0.884
 4603SOL    HW114708   4.003   6.982   0.922
 4603SOL    HW214709   3.855   7.010   0.857
 4604SOL     OW14710   6.879   6.952   3.847
 4604SOL    HW114711   6.817   7.012   3.796
 4604SOL    HW214712   6.903   6.995   3.934
 4605SOL     OW14713   4.068   0.721   1.423
 4605SOL    HW114714   4.028   0.705   1.332
 4605SOL    HW214715   4.047   0.644   1.482
 4606SOL     OW14716   6.945   6.732   5.140
 4606SOL    HW114717   6.964   6.672   5.217
 4606SOL    HW214718   7.005   6.708   5.063
 4607SOL     OW14719   1.917   1.609   0.738
 4607SOL    HW114720   1.980   1.532   0.727
 4607SOL    HW214721   1.847   1.604   0.666
 4608SOL     OW14722   6.890   2.926   4.455
 4608SOL    HW114723   6.914   3.023   4.457
 4608SOL    HW214724   6.790   2.916   4.461
 4609SOL     OW14725   5.012   5.678   6.631
 4609SOL    HW114726   5.093   5.718   6.589
 4609SOL    HW214727   4.985   5.596   6.581
 4610SOL     OW14728   5.158   4.812   0.521
 4610SOL    HW114729   5.174   4.803   0.619
 4610SOL    HW214730   5.061   4.829   0.504
 4611SOL     OW14731   6.996   1.238   6.329
 4611SOL    HW114732   6.941   1.321   6.337
 4611SOL    HW214733   6.996   1.207   6.234
 4612SOL     OW14734   2.304   1.516   2.375
 4612SOL    HW114735   2.260   1.429   2.353
 4612SOL    HW214736   2.325   1.564   2.290
 4613SOL     OW14737   1.346   5.080   1.860
 4613SOL    HW114738   1.279   5.080   1.935
 4613SOL    HW214739   1.417   5.012   1.879
 4614SOL     OW14740   6.914   4.614   3.662
 4614SOL    HW114741   6.987   4.628   3.729
 4614SOL    HW214742   6.829   4.591   3.709
 4615SOL     OW14743   1.700   4.322   6.350
 4615SOL    HW114744   1.608   4.353   6.326
 4615SOL    HW214745   1.716   4.232   6.311
 4616SOL     OW14746   1.261   3.502   6.292
 4616SOL    HW114747   1.201   3.422   6.299
 4616SOL    HW214748   1.205   3.585   6.291
 4617SOL     OW14749   0.107   3.103   3.589
 4617SOL    HW114750   0.073   3.064   3.504
 4617SOL    HW214751   0.207   3.102   3.589
 4618SOL     OW14752   2.043   3.568   5.778
 4618SOL    HW114753   1.957   3.606   5.811
 4618SOL    HW214754   2.037   3.468   5.778
 4619SOL     OW14755   4.427   5.949   6.055
 4619SOL    HW114756   4.501   6.013   6.076
 4619SOL    HW214757   4.453   5.893   5.977
 4620SOL     OW14758   0.726   4.346   1.512
 4620SOL    HW114759   0.684   4.278   1.572
 4620SOL    HW214760   0.698   4.329   1.418
 4621SOL     OW14761   3.227   0.374   2.743
 4621SOL    HW114762   3.253   0.281   2.770
 4621SOL    HW214763   3.293   0.409   2.677
 4622SOL     OW14764   5.242   6.999   0.448
 4622SOL    HW114765   5.179   0.047   0.478
 4622SOL    HW214766   5.319   6.994   0.511
 4623SOL     OW14767   3.414   5.113   2.577
 4623SOL    HW114768   3.382   5.048   2.509
 4623SOL    HW214769   3.384   5.084   2.668
 4624SOL     OW14770   4.938   1.636   1.542
 4624SOL    HW114771   4.895   1.686   1.617
 4624SOL    HW214772   5.024   1.596   1.574
 4625SOL     OW14773   1.528   6.064   1.703
 4625SOL    HW114774   1.601   6.096   1.764
 4625SOL    HW214775   1.487   6.143   1.657
 4626SOL     OW14776   4.089   3.267   1.770
 4626SOL    HW114777   4.086   3.186   1.712
 4626SOL    HW214778   4.165   3.325   1.742
 4627SOL     OW14779   5.402   6.887   4.827
 4627SOL    HW114780   5.501   6.874   4.819
 4627SOL    HW214781   5.383   6.981   4.855
 4628SOL     OW14782   5.874   4.617   3.194
 4628SOL    HW114783   5.841   4.524   3.178
 4628SOL    HW214784   5.875   4.668   3.108
 4629SOL     OW14785   1.679   5.531   6.945
 4629SOL    HW114786   1.752   5.571   7.001
 4629SOL    HW214787   1.647   5.447   6.989
 4630SOL     OW14788   1.935   3.557   1.568
 4630SOL    HW114789   1.854   3.608   1.596
 4630SOL    HW214790   1.933   3.466   1.607
 4631SOL     OW14791   6.589   1.048   3.073
 4631SOL    HW114792   6.665   1.110   3.095
 4631SOL    HW214793   6.599   0.963   3.125
 4632SOL     OW14794   2.860   5.259   2.941
 4632SOL    HW114795   2.951   5.229   2.912
 4632SOL    HW214796   2.808   5.179   2.973
 4633SOL     OW14797   4.908   2.477   4.609
 4633SOL    HW114798   4.856   2.403   4.652
 4633SOL    HW214799   4.851   2.559   4.605
 4634SOL     OW14800   3.847   3.003   4.665
 4634SOL    HW114801   3.778   3.001   4.594
 4634SOL    HW214802   3.803   3.006   4.755
 4635SOL     OW14803   4.637   5.703   2.531
 4635SOL    HW114804   4.596   5.632   2.589
 4635SOL    HW214805   4.725   5.729   2.569
 4636SOL     OW14806   1.672   5.538   6.677
 4636SOL    HW114807   1.680   5.552   6.775
 4636SOL    HW214808   1.758   5.501   6.641
 4637SOL     OW14809   2.528   2.152   3.415
 4637SOL    HW114810   2.577   2.239   3.415
 4637SOL    HW214811   2.555   2.098   3.335
 4638SOL     OW14812   4.140   4.564   0.466
 4638SOL    HW114813   4.117   4.638   0.530
 4638SOL    HW214814   4.238   4.568   0.444
 4639SOL     OW14815   3.894   2.067   1.823
 4639SOL    HW114816   3.836   2.008   1.768
 4639SOL    HW214817   3.838   2.128   1.878
 4640SOL     OW14818   6.069   3.290   0.375
 4640SOL    HW114819   5.985   3.324   0.418
 4640SOL    HW214820   6.134   3.365   0.364
 4641SOL     OW14821   1.430   5.435   4.609
 4641SOL    HW114822   1.460   5.504   4.674
 4641SOL    HW214823   1.482   5.444   4.524
 4642SOL     OW14824   6.460   1.378   5.354
 4642SOL    HW114825   6.448   1.470   5.315
 4642SOL    HW214826   6.376   1.352   5.402
 4643SOL     OW14827   0.468   1.374   6.985
 4643SOL    HW114828   0.429   1.439   6.920
 4643SOL    HW214829   0.402   1.356   0.035
 4644SOL     OW14830   1.326   0.325   0.281
 4644SOL    HW114831   1.345   0.257   0.351
 4644SOL    HW214832   1.230   0.353   0.287
 4645SOL     OW14833   6.082   1.836   5.094
 4645SOL    HW114834   6.110   1.878   5.008
 4645SOL    HW214835   6.021   1.898   5.144
 4646SOL     OW14836   1.896   4.233   3.276
 4646SOL    HW114837   1.841   4.227   3.359
 4646SOL    HW214838   1.993   4.228   3.300
 4647SOL     OW14839   1.640   6.086   1.967
 4647SOL    HW114840   1.626   5.992   1.997
 4647SOL    HW214841   1.738   6.108   1.970
 4648SOL     OW14842   2.991   0.915   4.565
 4648SOL    HW114843   2.988   0.828   4.613
 4648SOL    HW214844   2.928   0.913   4.488
 4649SOL     OW14845   5.914   2.045   0.442
 4649SOL    HW114846   5.904   1.947   0.426
 4649SOL    HW214847   6.007   2.065   0.473
 4650SOL     OW14848   4.827   5.780   1.038
 4650SOL    HW114849   4.913   5.813   0.999
 4650SOL    HW214850   4.842   5.753   1.133
 4651SOL     OW14851   0.320   3.995   6.190
 4651SOL    HW114852   0.310   4.094   6.187
 4651SOL    HW214853   0.304   3.962   6.283
 4652SOL     OW14854   6.944   0.049   5.488
 4652SOL    HW114855   0.011   0.062   5.449
 4652SOL    HW214856   6.923   6.974   5.494
 4653SOL     OW14857   0.078   5.583   0.980
 4653SOL    HW114858   0.132   5.652   1.028
 4653SOL    HW214859   0.101   5.492   1.015
 4654SOL     OW14860   0.581   0.635   5.845
 4654SOL    HW114861   0.558   0.600   5.754
 4654SOL    HW214862   0.500   0.631   5.903
 4655SOL     OW14863   5.632   3.761   2.647
 4655SOL    HW114864   5.676   3.704   2.716
 4655SOL    HW214865   5.571   3.705   2.591
 4656SOL     OW14866   6.650   1.229   2.277
 4656SOL    HW114867   6.625   1.235   2.180
 4656SOL    HW214868   6.667   1.134   2.301
 4657SOL     OW14869   3.752   1.381   2.986
 4657SOL    HW114870   3.738   1.479   2.976
 4657SOL    HW214871   3.787   1.343   2.900
 4658SOL     OW14872   1.294   1.948   6.534
 4658SOL    HW114873   1.349   2.016   6.486
 4658SOL    HW214874   1.309   1.957   6.633
 4659SOL     OW14875   2.020   4.432   0.562
 4659SOL    HW114876   2.071   4.396   0.483
 4659SOL    HW214877   2.083   4.480   0.623
 4660SOL     OW14878   0.816   5.392   3.862
 4660SOL    HW114879   0.735   5.339   3.836
 4660SOL    HW214880   0.789   5.465   3.925
 4661SOL     OW14881   0.852   1.566   5.687
 4661SOL    HW114882   0.929   1.587   5.748
 4661SOL    HW214883   0.813   1.651   5.652
 4662SOL     OW14884   2.316   6.931   5.916
 4662SOL    HW114885   2.360   6.998   5.856
 4662SOL    HW214886   2.218   6.929   5.897
 4663SOL     OW14887   1.143   6.779   0.374
 4663SOL    HW114888   1.073   6.827   0.428
 4663SOL    HW214889   1.117   6.779   0.278
 4664SOL     OW14890   5.790   0.079   5.826
 4664SOL    HW114891   5.704   0.105   5.781
 4664SOL    HW214892   5.866   0.090   5.762
 4665SOL     OW14893   0.296   0.546   3.156
 4665SOL    HW114894   0.387   0.551   3.115
 4665SOL    HW214895   0.304   0.536   3.255
 4666SOL     OW14896   1.588   2.302   5.955
 4666SOL    HW114897   1.629   2.314   5.865
 4666SOL    HW214898   1.657   2.317   6.026
 4667SOL     OW14899   6.760   3.179   0.695
 4667SOL    HW114900   6.715   3.268   0.706
 4667SOL    HW214901   6.850   3.182   0.739
 4668SOL     OW14902   4.965   2.268   4.399
 4668SOL    HW114903   4.963   2.354   4.449
 4668SOL    HW214904   4.961   2.191   4.463
 4669SOL     OW14905   5.106   6.983   6.313
 4669SOL    HW114906   5.172   0.007   6.372
 4669SOL    HW214907   5.114   7.018   6.220
 4670SOL     OW14908   0.345   3.592   6.508
 4670SOL    HW114909   0.412   3.518   6.502
 4670SOL    HW214910   0.263   3.567   6.455
 4671SOL     OW14911   0.133   2.937   1.871
 4671SOL    HW114912   0.057   2.962   1.812
 4671SOL    HW214913   0.124   2.841   1.899
 4672SOL     OW14914   3.130   3.971   0.313
 4672SOL    HW114915   3.115   4.056   0.362
 4672SOL    HW214916   3.047   3.946   0.263
 4673SOL     OW14917   6.089   0.991   0.344
 4673SOL    HW114918   6.092   1.086   0.376
 4673SOL    HW214919   6.121   0.930   0.417
 4674SOL     OW14920   1.186   3.082   0.821
 4674SOL    HW114921   1.269   3.123   0.783
 4674SOL    HW214922   1.112   3.091   0.754
 4675SOL     OW14923   1.994   5.403   6.949
 4675SOL    HW114924   1.938   5.354   6.881
 4675SOL    HW214925   2.091   5.388   6.928
 4676SOL     OW14926   0.712   6.356   4.391
 4676SOL    HW114927   0.641   6.329   4.326
 4676SOL    HW214928   0.720   6.288   4.464
 4677SOL     OW14929   4.081   6.991   0.175
 4677SOL    HW114930   4.142   0.045   0.190
 4677SOL    HW214931   4.072   6.938   0.260
 4678SOL     OW14932   2.259   4.255   0.124
 4678SOL    HW114933   2.294   4.209   0.042
 4678SOL    HW214934   2.286   4.202   0.205
 4679SOL     OW14935   2.431   6.817   5.646
 4679SOL    HW114936   2.465   6.908   5.668
 4679SOL    HW214937   2.454   6.754   5.720
 4680SOL     OW14938   1.512   4.749   6.962
 4680SOL    HW114939   1.485   4.725   0.032
 4680SOL    HW214940   1.611   4.763   6.959
 4681SOL     OW14941   6.740   5.848   4.271
 4681SOL    HW114942   6.649   5.821   4.303
 4681SOL    HW214943   6.767   5.788   4.196
 4682SOL     OW14944   3.051   6.135   0.755
 4682SOL    HW114945   3.142   6.094   0.758
 4682SOL    HW214946   3.007   6.111   0.668
 4683SOL     OW14947   0.284   4.649   3.112
 4683SOL    HW114948   0.273   4.617   3.206
 4683SOL    HW214949   0.195   4.660   3.069
 4684SOL     OW14950   1.626   1.474   5.025
 4684SOL    HW114951   1.610   1.432   5.114
 4684SOL    HW214952   1.554   1.447   4.961
 4685SOL     OW14953   4.888   4.587   5.338
 4685SOL    HW114954   4.925   4.678   5.319
 4685SOL    HW214955   4.956   4.518   5.315
 4686SOL     OW14956   5.422   6.158   0.304
 4686SOL    HW114957   5.500   6.218   0.289
 4686SOL    HW214958   5.442   6.067   0.267
 4687SOL     OW14959   5.122   6.653   4.339
 4687SOL    HW114960   5.159   6.603   4.260
 4687SOL    HW214961   5.086   6.587   4.406
 4688SOL     OW14962   0.773   1.846   0.468
 4688SOL    HW114963   0.847   1.803   0.520
 4688SOL    HW214964   0.807   1.872   0.378
 4689SOL     OW14965   1.822   4.955   4.776
 4689SOL    HW114966   1.865   4.867   4.754
 4689SOL    HW214967   1.860   4.990   4.862
 4690SOL     OW14968   1.584   1.349   0.736
 4690SOL    HW114969   1.491   1.385   0.738
 4690SOL    HW214970   1.581   1.249   0.731
 4691SOL     OW14971   3.878   4.575   0.383
 4691SOL    HW114972   3.820   4.618   0.452
 4691SOL    HW214973   3.973   4.576   0.415
 4692SOL     OW14974   0.596   5.826   3.330
 4692SOL    HW114975   0.603   5.869   3.420
 4692SOL    HW214976   0.651   5.877   3.264
 4693SOL     OW14977   0.863   0.896   3.672
 4693SOL    HW114978   0.868   0.885   3.771
 4693SOL    HW214979   0.944   0.855   3.629
 4694SOL     OW14980   1.031   0.938   5.953
 4694SOL    HW114981   1.018   0.933   6.052
 4694SOL    HW214982   1.007   1.030   5.921
 4695SOL     OW14983   3.169   3.011   1.769
 4695SOL    HW114984   3.204   2.973   1.854
 4695SOL    HW214985   3.091   3.070   1.788
 4696SOL     OW14986   6.120   3.776   0.065
 4696SOL    HW114987   6.152   3.868   0.089
 4696SOL    HW214988   6.026   3.782   0.031
 4697SOL     OW14989   1.176   5.506   6.476
 4697SOL    HW114990   1.261   5.519   6.526
 4697SOL    HW214991   1.145   5.411   6.486
 4698SOL     OW14992   6.144   3.509   2.490
 4698SOL    HW114993   6.103   3.525   2.579
 4698SOL    HW214994   6.087   3.549   2.419
 4699SOL     OW14995   6.625   0.011   2.912
 4699SOL    HW114996   6.693   6.990   2.970
 4699SOL    HW214997   6.666   0.032   2.823
 4700SOL     OW14998   5.505   6.708   6.951
 4700SOL    HW114999   5.570   6.767   6.998
 4700SOL    HW215000   5.493   6.624   7.004
 4701SOL     OW15001   0.800   1.111   0.151
 4701SOL    HW115002   0.796   1.156   0.062
 4701SOL    HW215003   0.716   1.058   0.166
 4702SOL     OW15004   2.634   3.473   0.332
 4702SOL    HW115005   2.635   3.513   0.424
 4702SOL    HW215006   2.722   3.489   0.288
 4703SOL     OW15007   1.098   0.881   1.563
 4703SOL    HW115008   1.091   0.805   1.499
 4703SOL    HW215009   1.123   0.964   1.514
 4704SOL     OW15010   4.678   6.667   0.126
 4704SOL    HW115011   4.770   6.649   0.159
 4704SOL    HW215012   4.614   6.669   0.203
 4705SOL     OW15013   3.085   4.008   3.956
 4705SOL    HW115014   3.067   4.106   3.964
 4705SOL    HW215015   3.174   3.987   3.997
 4706SOL     OW15016   4.934   4.998   0.905
 4706SOL    HW115017   5.031   4.976   0.897
 4706SOL    HW215018   4.894   4.944   0.979
 4707SOL     OW15019   3.551   5.760   1.600
 4707SOL    HW115020   3.621   5.782   1.532
 4707SOL    HW215021   3.461   5.765   1.558
 4708SOL     OW15022   1.842   3.110   2.849
 4708SOL    HW115023   1.826   3.060   2.764
 4708SOL    HW215024   1.755   3.128   2.894
 4709SOL     OW15025   2.661   3.941   0.438
 4709SOL    HW115026   2.597   3.875   0.398
 4709SOL    HW215027   2.686   4.009   0.369
 4710SOL     OW15028   5.019   2.992   1.371
 4710SOL    HW115029   4.965   2.908   1.364
 4710SOL    HW215030   4.958   3.071   1.361
 4711SOL     OW15031   2.712   6.505   2.765
 4711SOL    HW115032   2.772   6.437   2.807
 4711SOL    HW215033   2.751   6.596   2.778
 4712SOL     OW15034   1.626   4.306   6.829
 4712SOL    HW115035   1.555   4.253   6.875
 4712SOL    HW215036   1.589   4.395   6.803
 4713SOL     OW15037   1.916   5.684   1.200
 4713SOL    HW115038   1.917   5.655   1.105
 4713SOL    HW215039   1.892   5.606   1.258
 4714SOL     OW15040   2.940   2.127   0.765
 4714SOL    HW115041   2.852   2.170   0.785
 4714SOL    HW215042   2.989   2.183   0.697
 4715SOL     OW15043   5.142   4.086   4.788
 4715SOL    HW115044   5.043   4.086   4.770
 4715SOL    HW215045   5.170   3.994   4.816
 4716SOL     OW15046   2.490   5.228   0.552
 4716SOL    HW115047   2.391   5.240   0.561
 4716SOL    HW215048   2.515   5.227   0.455
 4717SOL     OW15049   1.691   5.466   3.983
 4717SOL    HW115050   1.749   5.487   4.062
 4717SOL    HW215051   1.714   5.528   3.908
 4718SOL     OW15052   5.431   0.901   6.411
 4718SOL    HW115053   5.360   0.965   6.438
 4718SOL    HW215054   5.466   0.926   6.321
 4719SOL     OW15055   4.680   3.126   1.615
 4719SOL    HW115056   4.638   3.088   1.698
 4719SOL    HW215057   4.653   3.222   1.606
 4720SOL     OW15058   2.921   1.158   3.777
 4720SOL    HW115059   2.996   1.125   3.834
 4720SOL    HW215060   2.840   1.173   3.834
 4721SOL     OW15061   1.277   1.588   0.893
 4721SOL    HW115062   1.359   1.643   0.907
 4721SOL    HW215063   1.254   1.541   0.978
 4722SOL     OW15064   3.223   0.452   2.367
 4722SOL    HW115065   3.285   0.414   2.435
 4722SOL    HW215066   3.145   0.391   2.354
 4723SOL     OW15067   2.775   0.102   5.848
 4723SOL    HW115068   2.816   0.041   5.780
 4723SOL    HW215069   2.725   0.048   5.915
 4724SOL     OW15070   4.233   4.865   1.639
 4724SOL    HW115071   4.190   4.803   1.704
 4724SOL    HW215072   4.234   4.957   1.676
 4725SOL     OW15073   5.613   4.961   3.179
 4725SOL    HW115074   5.709   4.957   3.208
 4725SOL    HW215075   5.607   5.002   3.089
 4726SOL     OW15076   0.423   5.817   5.185
 4726SOL    HW115077   0.468   5.893   5.231
 4726SOL    HW215078   0.460   5.730   5.219
 4727SOL     OW15079   6.176   6.307   0.811
 4727SOL    HW115080   6.155   6.370   0.886
 4727SOL    HW215081   6.154   6.351   0.724
 4728SOL     OW15082   0.214   0.606   6.947
 4728SOL    HW115083   0.140   0.544   6.924
 4728SOL    HW215084   0.266   0.570   0.001
 4729SOL     OW15085   2.767   0.604   0.297
 4729SOL    HW115086   2.776   0.653   0.384
 4729SOL    HW215087   2.673   0.613   0.264
 4730SOL     OW15088   2.018   0.698   5.123
 4730SOL    HW115089   2.036   0.786   5.079
 4730SOL    HW215090   1.962   0.641   5.062
 4731SOL     OW15091   5.393   2.013   0.100
 4731SOL    HW115092   5.387   2.053   0.009
 4731SOL    HW215093   5.327   1.938   0.108
 4732SOL     OW15094   0.077   1.618   0.117
 4732SOL    HW115095   0.087   1.715   0.139
 4732SOL    HW215096   0.164   1.571   0.133
 4733SOL     OW15097   6.745   3.591   4.076
 4733SOL    HW115098   6.761   3.650   3.997
 4733SOL    HW215099   6.815   3.609   4.145
 4734SOL     OW15100   4.655   4.327   5.870
 4734SOL    HW115101   4.661   4.359   5.775
 4734SOL    HW215102   4.742   4.342   5.916
 4735SOL     OW15103   0.221   4.592   3.371
 4735SOL    HW115104   0.218   4.686   3.404
 4735SOL    HW215105   0.274   4.536   3.434
 4736SOL     OW15106   2.201   6.815   1.120
 4736SOL    HW115107   2.241   6.859   1.040
 4736SOL    HW215108   2.212   6.716   1.113
 4737SOL     OW15109   3.427   5.110   1.715
 4737SOL    HW115110   3.388   5.039   1.773
 4737SOL    HW215111   3.454   5.071   1.627
 4738SOL     OW15112   6.932   6.276   2.703
 4738SOL    HW115113   6.906   6.206   2.637
 4738SOL    HW215114   6.851   6.319   2.741
 4739SOL     OW15115   4.239   6.953   1.221
 4739SOL    HW115116   4.191   6.919   1.302
 4739SOL    HW215117   4.299   0.005   1.247
 4740SOL     OW15118   0.310   2.241   3.836
 4740SOL    HW115119   0.362   2.323   3.809
 4740SOL    HW215120   0.359   2.194   3.910
 4741SOL     OW15121   3.744   3.452   1.139
 4741SOL    HW115122   3.773   3.485   1.050
 4741SOL    HW215123   3.755   3.352   1.143
 4742SOL     OW15124   4.044   1.066   0.548
 4742SOL    HW115125   4.124   1.007   0.557
 4742SOL    HW215126   3.968   1.014   0.509
 4743SOL     OW15127   1.711   6.049   0.701
 4743SOL    HW115128   1.624   6.018   0.661
 4743SOL    HW215129   1.769   6.087   0.628
 4744SOL     OW15130   1.780   5.611   1.702
 4744SOL    HW115131   1.708   5.600   1.771
 4744SOL    HW215132   1.767   5.543   1.629
 4745SOL     OW15133   1.709   3.408   6.958
 4745SOL    HW115134   1.720   3.338   0.005
 4745SOL    HW215135   1.798   3.430   6.918
 4746SOL     OW15136   5.225   5.765   3.928
 4746SOL    HW115137   5.225   5.809   3.838
 4746SOL    HW215138   5.131   5.755   3.960
 4747SOL     OW15139   2.838   0.626   6.263
 4747SOL    HW115140   2.924   0.578   6.249
 4747SOL    HW215141   2.793   0.593   6.346
 4748SOL     OW15142   2.098   6.825   1.775
 4748SOL    HW115143   2.036   6.865   1.707
 4748SOL    HW215144   2.127   6.735   1.745
 4749SOL     OW15145   2.199   1.982   0.759
 4749SOL    HW115146   2.250   1.901   0.786
 4749SOL    HW215147   2.104   1.958   0.739
 4750SOL     OW15148   4.849   3.331   5.945
 4750SOL    HW115149   4.846   3.231   5.945
 4750SOL    HW215150   4.780   3.366   6.008
 4751SOL     OW15151   4.856   1.750   3.399
 4751SOL    HW115152   4.942   1.799   3.410
 4751SOL    HW215153   4.817   1.769   3.309
 4752SOL     OW15154   5.628   1.492   6.619
 4752SOL    HW115155   5.617   1.401   6.578
 4752SOL    HW215156   5.689   1.486   6.698
 4753SOL     OW15157   3.219   6.567   4.846
 4753SOL    HW115158   3.217   6.589   4.748
 4753SOL    HW215159   3.217   6.468   4.858
 4754SOL     OW15160   4.716   4.624   6.920
 4754SOL    HW115161   4.771   4.617   6.837
 4754SOL    HW215162   4.661   4.708   6.916
 4755SOL     OW15163   0.761   1.174   1.170
 4755SOL    HW115164   0.681   1.154   1.227
 4755SOL    HW215165   0.825   1.098   1.174
 4756SOL     OW15166   6.951   3.771   5.666
 4756SOL    HW115167   0.010   3.828   5.663
 4756SOL    HW215168   6.917   3.756   5.574
 4757SOL     OW15169   2.242   3.418   0.072
 4757SOL    HW115170   2.296   3.456   7.020
 4757SOL    HW215171   2.300   3.412   0.154
 4758SOL     OW15172   2.265   5.632   3.489
 4758SOL    HW115173   2.210   5.550   3.504
 4758SOL    HW215174   2.308   5.660   3.575
 4759SOL     OW15175   0.380   6.374   1.849
 4759SOL    HW115176   0.402   6.468   1.872
 4759SOL    HW215177   0.343   6.371   1.756
 4760SOL     OW15178   1.925   5.602   0.929
 4760SOL    HW115179   1.875   5.688   0.927
 4760SOL    HW215180   1.899   5.547   0.849
 4761SOL     OW15181   5.071   6.936   1.845
 4761SOL    HW115182   5.121   6.855   1.875
 4761SOL    HW215183   5.123   7.018   1.868
 4762SOL     OW15184   1.369   0.165   2.492
 4762SOL    HW115185   1.306   0.242   2.482
 4762SOL    HW215186   1.434   0.185   2.565
 4763SOL     OW15187   5.807   5.741   2.192
 4763SOL    HW115188   5.742   5.817   2.183
 4763SOL    HW215189   5.860   5.733   2.108
 4764SOL     OW15190   4.806   3.143   0.320
 4764SOL    HW115191   4.793   3.219   0.257
 4764SOL    HW215192   4.858   3.174   0.399
 4765SOL     OW15193   4.479   1.933   5.845
 4765SOL    HW115194   4.422   1.913   5.925
 4765SOL    HW215195   4.561   1.876   5.848
 4766SOL     OW15196   1.259   0.974   4.538
 4766SOL    HW115197   1.169   1.008   4.512
 4766SOL    HW215198   1.275   0.885   4.497
 4767SOL     OW15199   2.046   4.832   3.800
 4767SOL    HW115200   2.085   4.867   3.715
 4767SOL    HW215201   1.973   4.894   3.831
 4768SOL     OW15202   4.616   2.232   6.337
 4768SOL    HW115203   4.661   2.265   6.254
 4768SOL    HW215204   4.595   2.309   6.397
 4769SOL     OW15205   1.435   3.204   0.822
 4769SOL    HW115206   1.415   3.243   0.732
 4769SOL    HW215207   1.521   3.242   0.857
 4770SOL     OW15208   0.025   1.558   3.461
 4770SOL    HW115209   6.980   1.611   3.511
 4770SOL    HW215210   7.018   1.463   3.452
 4771SOL     OW15211   1.801   0.149   3.778
 4771SOL    HW115212   1.799   0.245   3.751
 4771SOL    HW215213   1.861   0.137   3.857
 4772SOL     OW15214   2.533   5.286   3.082
 4772SOL    HW115215   2.497   5.207   3.133
 4772SOL    HW215216   2.622   5.263   3.043
 4773SOL     OW15217   3.007   5.291   4.870
 4773SOL    HW115218   3.048   5.379   4.848
 4773SOL    HW215219   2.930   5.305   4.932
 4774SOL     OW15220   1.094   4.069   1.009
 4774SOL    HW115221   1.145   4.154   1.020
 4774SOL    HW215222   1.080   4.051   0.912
 4775SOL     OW15223   5.927   5.292   4.992
 4775SOL    HW115224   6.012   5.288   5.044
 4775SOL    HW215225   5.881   5.203   4.996
 4776SOL     OW15226   0.440   1.828   4.908
 4776SOL    HW115227   0.452   1.780   4.821
 4776SOL    HW215228   0.349   1.808   4.944
 4777SOL     OW15229   1.436   6.883   3.301
 4777SOL    HW115230   1.379   6.880   3.218
 4777SOL    HW215231   1.377   6.894   3.381
 4778SOL     OW15232   1.666   0.715   6.917
 4778SOL    HW115233   1.649   0.783   6.845
 4778SOL    HW215234   1.598   0.725   6.989
 4779SOL     OW15235   5.057   0.771   4.803
 4779SOL    HW115236   5.074   0.860   4.759
 4779SOL    HW215237   5.128   0.706   4.775
 4780SOL     OW15238   4.753   2.893   4.382
 4780SOL    HW115239   4.684   2.840   4.431
 4780SOL    HW215240   4.822   2.926   4.447
 4781SOL     OW15241   0.985   5.004   1.893
 4781SOL    HW115242   0.895   5.023   1.932
 4781SOL    HW215243   1.049   4.983   1.967
 4782SOL     OW15244   0.142   6.722   4.260
 4782SOL    HW115245   0.230   6.697   4.299
 4782SOL    HW215246   0.143   6.705   4.162
 4783SOL     OW15247   0.075   3.588   6.422
 4783SOL    HW115248   7.005   3.608   6.452
 4783SOL    HW215249   0.102   3.653   6.351
 4784SOL     OW15250   5.409   3.537   0.046
 4784SOL    HW115251   5.434   3.450   0.005
 4784SOL    HW215252   5.310   3.551   0.039
 4785SOL     OW15253   0.488   0.287   3.900
 4785SOL    HW115254   0.576   0.297   3.855
 4785SOL    HW215255   0.452   0.378   3.924
 4786SOL     OW15256   0.805   5.786   0.040
 4786SOL    HW115257   0.793   5.792   0.139
 4786SOL    HW215258   0.726   5.741   7.022
 4787SOL     OW15259   4.693   1.215   4.810
 4787SOL    HW115260   4.706   1.138   4.747
 4787SOL    HW215261   4.749   1.201   4.892
 4788SOL     OW15262   7.006   6.107   0.742
 4788SOL    HW115263   0.001   6.016   0.780
 4788SOL    HW215264   6.935   6.101   0.673
 4789SOL     OW15265   6.203   1.255   2.778
 4789SOL    HW115266   6.152   1.176   2.744
 4789SOL    HW215267   6.251   1.229   2.862
 4790SOL     OW15268   0.015   2.005   4.381
 4790SOL    HW115269   0.095   2.056   4.413
 4790SOL    HW215270   6.968   2.069   4.351
 4791SOL     OW15271   0.764   0.460   6.985
 4791SOL    HW115272   0.788   0.516   0.041
 4791SOL    HW215273   0.801   0.368   6.997
 4792SOL     OW15274   1.851   3.736   2.147
 4792SOL    HW115275   1.879   3.826   2.115
 4792SOL    HW215276   1.905   3.711   2.228
 4793SOL     OW15277   1.234   4.195   5.553
 4793SOL    HW115278   1.231   4.160   5.646
 4793SOL    HW215279   1.196   4.288   5.551
 4794SOL     OW15280   5.156   1.953   5.341
 4794SOL    HW115281   5.092   1.940   5.266
 4794SOL    HW215282   5.234   2.007   5.308
 4795SOL     OW15283   6.673   1.474   6.207
 4795SOL    HW115284   6.717   1.473   6.297
 4795SOL    HW215285   6.584   1.518   6.214
 4796SOL     OW15286   4.513   1.352   4.968
 4796SOL    HW115287   4.511   1.318   5.062
 4796SOL    HW215288   4.555   1.283   4.909
 4797SOL     OW15289   2.387   4.967   6.364
 4797SOL    HW115290   2.455   4.930   6.301
 4797SOL    HW215291   2.365   4.898   6.434
 4798SOL     OW15292   3.452   5.885   0.545
 4798SOL    HW115293   3.449   5.919   0.452
 4798SOL    HW215294   3.546   5.866   0.572
 4799SOL     OW15295   4.350   2.562   0.366
 4799SOL    HW115296   4.371   2.464   0.371
 4799SOL    HW215297   4.312   2.584   0.276
 4800SOL     OW15298   1.161   4.684   0.125
 4800SOL    HW115299   1.202   4.709   0.213
 4800SOL    HW215300   1.061   4.690   0.132
 4801SOL     OW15301   5.394   1.917   3.232
 4801SOL    HW115302   5.296   1.937   3.225
 4801SOL    HW215303   5.414   1.886   3.325
 4802SOL     OW15304   6.938   0.411   4.604
 4802SOL    HW115305   6.874   0.391   4.530
 4802SOL    HW215306   6.892   0.399   4.692
 4803SOL     OW15307   4.909   4.205   5.616
 4803SOL    HW115308   4.843   4.278   5.633
 4803SOL    HW215309   4.970   4.195   5.695
 4804SOL     OW15310   5.203   2.166   0.745
 4804SOL    HW115311   5.117   2.118   0.726
 4804SOL    HW215312   5.186   2.264   0.744
 4805SOL     OW15313   5.872   1.297   0.185
 4805SOL    HW115314   5.801   1.306   0.255
 4805SOL    HW215315   5.830   1.267   0.099
 4806SOL     OW15316   1.160   1.600   3.022
 4806SOL    HW115317   1.160   1.501   3.032
 4806SOL    HW215318   1.142   1.624   2.927
 4807SOL     OW15319   6.586   4.167   6.353
 4807SOL    HW115320   6.618   4.085   6.400
 4807SOL    HW215321   6.558   4.235   6.421
 4808SOL     OW15322   3.717   5.828   2.401
 4808SOL    HW115323   3.717   5.886   2.320
 4808SOL    HW215324   3.636   5.769   2.400
 4809SOL     OW15325   3.104   3.795   1.583
 4809SOL    HW115326   3.201   3.809   1.562
 4809SOL    HW215327   3.095   3.717   1.644
 4810SOL     OW15328   1.762   5.200   4.080
 4810SOL    HW115329   1.711   5.269   4.029
 4810SOL    HW215330   1.723   5.190   4.171
 4811SOL     OW15331   3.583   3.289   4.525
 4811SOL    HW115332   3.519   3.215   4.504
 4811SOL    HW215333   3.665   3.280   4.469
 4812SOL     OW15334   1.607   6.302   3.008
 4812SOL    HW115335   1.663   6.324   3.088
 4812SOL    HW215336   1.660   6.318   2.925
 4813SOL     OW15337   0.615   2.503   5.180
 4813SOL    HW115338   0.674   2.426   5.155
 4813SOL    HW215339   0.519   2.476   5.168
 4814SOL     OW15340   6.509   3.126   0.846
 4814SOL    HW115341   6.597   3.123   0.797
 4814SOL    HW215342   6.444   3.180   0.793
 4815SOL     OW15343   6.222   4.632   2.145
 4815SOL    HW115344   6.180   4.693   2.078
 4815SOL    HW215345   6.308   4.672   2.176
 4816SOL     OW15346   2.961   0.449   2.598
 4816SOL    HW115347   3.026   0.385   2.640
 4816SOL    HW215348   2.956   0.433   2.500
 4817SOL     OW15349   4.435   2.271   1.326
 4817SOL    HW115350   4.477   2.250   1.238
 4817SOL    HW215351   4.335   2.273   1.315
 4818SOL     OW15352   4.491   6.981   4.144
 4818SOL    HW115353   4.494   6.929   4.229
 4818SOL    HW215354   4.459   0.051   4.162
 4819SOL     OW15355   3.005   0.987   0.501
 4819SOL    HW115356   3.030   0.922   0.430
 4819SOL    HW215357   2.905   0.998   0.504
 4820SOL     OW15358   6.490   4.148   1.736
 4820SOL    HW115359   6.446   4.189   1.656
 4820SOL    HW215360   6.581   4.116   1.710
 4821SOL     OW15361   0.129   5.687   1.618
 4821SOL    HW115362   0.109   5.779   1.586
 4821SOL    HW215363   0.148   5.628   1.539
 4822SOL     OW15364   0.741   4.160   1.872
 4822SOL    HW115365   0.703   4.154   1.780
 4822SOL    HW215366   0.826   4.107   1.877
 4823SOL     OW15367   0.688   1.512   3.601
 4823SOL    HW115368   0.779   1.497   3.640
 4823SOL    HW215369   0.654   1.602   3.630
 4824SOL     OW15370   6.001   2.269   2.237
 4824SOL    HW115371   5.929   2.337   2.250
 4824SOL    HW215372   5.994   2.229   2.146
 4825SOL     OW15373   0.805   3.308   4.139
 4825SOL    HW115374   0.835   3.213   4.129
 4825SOL    HW215375   0.791   3.348   4.049
 4826SOL     OW15376   7.016   6.629   0.051
 4826SOL    HW115377   7.013   6.728   0.043
 4826SOL    HW215378   0.086   6.596   0.032
 4827SOL     OW15379   5.045   1.614   0.011
 4827SOL    HW115380   5.096   1.550   6.976
 4827SOL    HW215381   4.992   1.677   6.976
 4828SOL     OW15382   5.203   3.937   6.789
 4828SOL    HW115383   5.183   3.896   6.878
 4828SOL    HW215384   5.135   3.907   6.722
 4829SOL     OW15385   3.877   0.237   5.000
 4829SOL    HW115386   3.869   0.278   5.091
 4829SOL    HW215387   3.912   0.306   4.936
 4830SOL     OW15388   4.591   5.604   5.172
 4830SOL    HW115389   4.661   5.632   5.106
 4830SOL    HW215390   4.509   5.660   5.159
 4831SOL     OW15391   5.906   3.352   6.727
 4831SOL    HW115392   5.872   3.350   6.822
 4831SOL    HW215393   5.942   3.443   6.707
 4832SOL     OW15394   1.831   2.495   6.109
 4832SOL    HW115395   1.760   2.545   6.059
 4832SOL    HW215396   1.876   2.431   6.046
 4833SOL     OW15397   6.109   1.621   3.679
 4833SOL    HW115398   6.148   1.550   3.621
 4833SOL    HW215399   6.178   1.654   3.743
 4834SOL     OW15400   5.922   0.438   3.125
 4834SOL    HW115401   5.959   0.454   3.033
 4834SOL    HW215402   5.912   0.525   3.173
 4835SOL     OW15403   1.447   1.099   5.843
 4835SOL    HW115404   1.469   1.168   5.775
 4835SOL    HW215405   1.444   1.141   5.934
 4836SOL     OW15406   5.699   2.925   2.359
 4836SOL    HW115407   5.618   2.980   2.341
 4836SOL    HW215408   5.691   2.836   2.313
 4837SOL     OW15409   0.709   4.226   0.911
 4837SOL    HW115410   0.736   4.308   0.861
 4837SOL    HW215411   0.686   4.250   1.005
 4838SOL     OW15412   2.993   5.098   2.317
 4838SOL    HW115413   2.943   5.123   2.234
 4838SOL    HW215414   2.983   5.171   2.385
 4839SOL     OW15415   0.720   0.228   6.651
 4839SOL    HW115416   0.819   0.221   6.655
 4839SOL    HW215417   0.684   0.162   6.585
 4840SOL     OW15418   6.316   6.548   6.047
 4840SOL    HW115419   6.347   6.634   6.005
 4840SOL    HW215420   6.337   6.549   6.145
 4841SOL     OW15421   2.053   5.454   1.780
 4841SOL    HW115422   2.079   5.440   1.875
 4841SOL    HW215423   1.956   5.475   1.774
 4842SOL     OW15424   3.482   6.412   1.388
 4842SOL    HW115425   3.408   6.475   1.364
 4842SOL    HW215426   3.536   6.391   1.307
 4843SOL     OW15427   1.297   2.947   6.731
 4843SOL    HW115428   1.332   2.856   6.706
 4843SOL    HW215429   1.198   2.949   6.719
 4844SOL     OW15430   0.345   1.721   5.375
 4844SOL    HW115431   0.360   1.806   5.325
 4844SOL    HW215432   0.425   1.661   5.365
 4845SOL     OW15433   5.835   5.768   3.619
 4845SOL    HW115434   5.924   5.755   3.663
 4845SOL    HW215435   5.763   5.767   3.689
 4846SOL     OW15436   0.222   5.188   6.912
 4846SOL    HW115437   0.159   5.120   6.876
 4846SOL    HW215438   0.177   5.243   6.982
 4847SOL     OW15439   5.093   2.844   4.833
 4847SOL    HW115440   5.104   2.874   4.927
 4847SOL    HW215441   5.091   2.744   4.830
 4848SOL     OW15442   2.471   2.233   1.823
 4848SOL    HW115443   2.530   2.283   1.886
 4848SOL    HW215444   2.527   2.194   1.749
 4849SOL     OW15445   1.547   6.332   5.765
 4849SOL    HW115446   1.499   6.420   5.765
 4849SOL    HW215447   1.485   6.261   5.798
 4850SOL     OW15448   4.062   6.708   3.428
 4850SOL    HW115449   4.119   6.768   3.372
 4850SOL    HW215450   3.966   6.736   3.418
 4851SOL     OW15451   4.848   1.223   5.064
 4851SOL    HW115452   4.876   1.141   5.113
 4851SOL    HW215453   4.923   1.289   5.063
 4852SOL     OW15454   1.628   1.989   1.666
 4852SOL    HW115455   1.610   1.950   1.756
 4852SOL    HW215456   1.693   2.065   1.675
 4853SOL     OW15457   3.551   1.948   1.581
 4853SOL    HW115458   3.586   2.042   1.583
 4853SOL    HW215459   3.602   1.891   1.645
 4854SOL     OW15460   3.194   0.085   6.764
 4854SOL    HW115461   3.273   0.083   6.704
 4854SOL    HW215462   3.224   0.070   6.859
 4855SOL     OW15463   6.475   3.072   2.692
 4855SOL    HW115464   6.530   3.127   2.629
 4855SOL    HW215465   6.391   3.122   2.716
 4856SOL     OW15466   1.532   4.321   2.853
 4856SOL    HW115467   1.494   4.229   2.866
 4856SOL    HW215468   1.579   4.325   2.765
 4857SOL     OW15469   0.153   1.425   5.956
 4857SOL    HW115470   0.106   1.475   6.029
 4857SOL    HW215471   0.249   1.452   5.954
 4858SOL     OW15472   1.618   0.669   4.018
 4858SOL    HW115473   1.583   0.701   4.106
 4858SOL    HW215474   1.630   0.748   3.957
 4859SOL     OW15475   3.587   5.374   6.260
 4859SOL    HW115476   3.516   5.340   6.198
 4859SOL    HW215477   3.546   5.402   6.346
 4860SOL     OW15478   4.105   3.993   0.909
 4860SOL    HW115479   4.129   3.930   0.836
 4860SOL    HW215480   4.073   4.080   0.870
 4861SOL     OW15481   4.684   3.895   6.555
 4861SOL    HW115482   4.647   3.970   6.611
 4861SOL    HW215483   4.608   3.845   6.514
 4862SOL     OW15484   0.314   6.587   0.986
 4862SOL    HW115485   0.227   6.604   0.938
 4862SOL    HW215486   0.341   6.491   0.973
 4863SOL     OW15487   5.056   4.620   6.791
 4863SOL    HW115488   5.115   4.655   6.864
 4863SOL    HW215489   5.045   4.521   6.801
 4864SOL     OW15490   3.328   1.232   3.894
 4864SOL    HW115491   3.264   1.300   3.930
 4864SOL    HW215492   3.287   1.141   3.901
 4865SOL     OW15493   1.552   0.051   5.353
 4865SOL    HW115494   1.520   6.982   5.372
 4865SOL    HW215495   1.578   0.059   5.257
 4866SOL     OW15496   6.643   3.914   6.507
 4866SOL    HW115497   6.560   3.955   6.544
 4866SOL    HW215498   6.618   3.836   6.449
 4867SOL     OW15499   4.786   0.918   2.802
 4867SOL    HW115500   4.834   0.832   2.823
 4867SOL    HW215501   4.692   0.897   2.774
 4868SOL     OW15502   6.821   4.355   0.352
 4868SOL    HW115503   6.899   4.293   0.351
 4868SOL    HW215504   6.767   4.339   0.435
 4869SOL     OW15505   0.595   1.481   0.990
 4869SOL    HW115506   0.519   1.449   1.045
 4869SOL    HW215507   0.679   1.479   1.044
 4870SOL     OW15508   0.235   6.717   1.422
 4870SOL    HW115509   0.285   6.698   1.507
 4870SOL    HW215510   0.293   6.769   1.360
 4871SOL     OW15511   1.278   1.346   3.702
 4871SOL    HW115512   1.338   1.271   3.728
 4871SOL    HW215513   1.276   1.415   3.775
 4872SOL     OW15514   6.058   6.451   2.592
 4872SOL    HW115515   6.004   6.530   2.623
 4872SOL    HW215516   6.053   6.444   2.493
 4873SOL     OW15517   6.382   5.396   4.954
 4873SOL    HW115518   6.399   5.381   5.052
 4873SOL    HW215519   6.469   5.404   4.906
 4874SOL     OW15520   4.746   2.932   3.241
 4874SOL    HW115521   4.754   2.965   3.336
 4874SOL    HW215522   4.677   2.861   3.236
 4875SOL     OW15523   5.877   6.394   5.083
 4875SOL    HW115524   5.848   6.300   5.067
 4875SOL    HW215525   5.911   6.403   5.177
 4876SOL     OW15526   0.676   1.260   2.150
 4876SOL    HW115527   0.629   1.194   2.209
 4876SOL    HW215528   0.610   1.326   2.115
 4877SOL     OW15529   6.339   1.345   6.497
 4877SOL    HW115530   6.376   1.326   6.588
 4877SOL    HW215531   6.316   1.442   6.490
 4878SOL     OW15532   6.481   3.636   2.233
 4878SOL    HW115533   6.526   3.654   2.320
 4878SOL    HW215534   6.438   3.546   2.236
 4879SOL     OW15535   5.449   1.035   2.757
 4879SOL    HW115536   5.421   1.055   2.851
 4879SOL    HW215537   5.458   1.121   2.706
 4880SOL     OW15538   6.820   2.979   6.769
 4880SOL    HW115539   6.759   3.056   6.785
 4880SOL    HW215540   6.855   2.983   6.675
 4881SOL     OW15541   1.803   2.891   1.659
 4881SOL    HW115542   1.874   2.891   1.730
 4881SOL    HW215543   1.715   2.912   1.700
 4882SOL     OW15544   4.854   2.578   3.918
 4882SOL    HW115545   4.843   2.604   4.014
 4882SOL    HW215546   4.828   2.482   3.906
 4883SOL     OW15547   6.044   4.275   0.769
 4883SOL    HW115548   5.990   4.228   0.699
 4883SOL    HW215549   5.983   4.309   0.840
 4884SOL     OW15550   1.813   0.989   1.599
 4884SOL    HW115551   1.869   0.960   1.521
 4884SOL    HW215552   1.869   1.043   1.662
 4885SOL     OW15553   1.473   4.527   6.784
 4885SOL    HW115554   1.483   4.615   6.829
 4885SOL    HW215555   1.378   4.496   6.794
 4886SOL     OW15556   2.695   0.712   1.800
 4886SOL    HW115557   2.741   0.655   1.868
 4886SOL    HW215558   2.619   0.760   1.843
 4887SOL     OW15559   5.206   6.346   0.245
 4887SOL    HW115560   5.107   6.357   0.259
 4887SOL    HW215561   5.225   6.251   0.219
 4888SOL     OW15562   4.258   0.137   2.777
 4888SOL    HW115563   4.239   0.039   2.784
 4888SOL    HW215564   4.288   0.171   2.866
 4889SOL     OW15565   6.576   3.410   4.485
 4889SOL    HW115566   6.617   3.333   4.436
 4889SOL    HW215567   6.550   3.481   4.419
 4890SOL     OW15568   6.525   1.559   4.633
 4890SOL    HW115569   6.580   1.642   4.635
 4890SOL    HW215570   6.559   1.498   4.562
 4891SOL     OW15571   2.995   5.367   7.006
 4891SOL    HW115572   2.977   5.428   6.928
 4891SOL    HW215573   3.036   5.282   6.973
 4892SOL     OW15574   4.952   5.179   2.606
 4892SOL    HW115575   4.990   5.087   2.600
 4892SOL    HW215576   4.987   5.225   2.688
 4893SOL     OW15577   1.050   3.439   1.122
 4893SOL    HW115578   1.091   3.372   1.061
 4893SOL    HW215579   1.087   3.428   1.214
 4894SOL     OW15580   4.953   6.379   1.706
 4894SOL    HW115581   5.051   6.361   1.708
 4894SOL    HW215582   4.938   6.477   1.701
 4895SOL     OW15583   0.286   4.425   5.637
 4895SOL    HW115584   0.321   4.404   5.546
 4895SOL    HW215585   0.347   4.490   5.683
 4896SOL     OW15586   2.797   5.076   4.880
 4896SOL    HW115587   2.743   5.157   4.902
 4896SOL    HW215588   2.887   5.104   4.845
 4897SOL     OW15589   1.812   0.780   4.737
 4897SOL    HW115590   1.842   0.698   4.785
 4897SOL    HW215591   1.822   0.768   4.638
 4898SOL     OW15592   4.977   1.766   3.963
 4898SOL    HW115593   4.880   1.788   3.977
 4898SOL    HW215594   5.023   1.845   3.922
 4899SOL     OW15595   6.421   6.613   1.713
 4899SOL    HW115596   6.517   6.585   1.714
 4899SOL    HW215597   6.410   6.701   1.759
 4900SOL     OW15598   3.961   6.250   5.997
 4900SOL    HW115599   4.056   6.220   6.005
 4900SOL    HW215600   3.940   6.314   6.071
 4901SOL     OW15601   1.235   0.671   6.966
 4901SOL    HW115602   1.295   0.596   6.936
 4901SOL    HW215603   1.145   0.635   6.989
 4902SOL     OW15604   2.864   6.950   5.647
 4902SOL    HW115605   2.937   6.938   5.580
 4902SOL    HW215606   2.813   6.865   5.657
 4903SOL     OW15607   5.144   3.477   3.177
 4903SOL    HW115608   5.111   3.387   3.206
 4903SOL    HW215609   5.066   3.539   3.168
 4904SOL     OW15610   1.441   0.301   1.311
 4904SOL    HW115611   1.383   0.225   1.340
 4904SOL    HW215612   1.486   0.341   1.390
 4905SOL     OW15613   2.627   0.033   3.106
 4905SOL    HW115614   2.555   0.016   3.040
 4905SOL    HW215615   2.595   0.010   3.198
 4906SOL     OW15616   4.892   3.782   4.811
 4906SOL    HW115617   4.965   3.720   4.783
 4906SOL    HW215618   4.826   3.733   4.868
 4907SOL     OW15619   4.375   2.655   6.756
 4907SOL    HW115620   4.328   2.567   6.761
 4907SOL    HW215621   4.468   2.646   6.790
 4908SOL     OW15622   3.595   6.882   7.006
 4908SOL    HW115623   3.630   6.824   0.056
 4908SOL    HW215624   3.527   6.945   0.021
 4909SOL     OW15625   5.268   4.990   4.290
 4909SOL    HW115626   5.333   4.917   4.311
 4909SOL    HW215627   5.261   5.000   4.191
 4910SOL     OW15628   4.145   2.292   6.398
 4910SOL    HW115629   4.175   2.200   6.424
 4910SOL    HW215630   4.197   2.323   6.318
 4911SOL     OW15631   6.643   4.095   2.749
 4911SOL    HW115632   6.704   4.016   2.754
 4911SOL    HW215633   6.687   4.173   2.794
 4912SOL     OW15634   5.824   2.666   4.146
 4912SOL    HW115635   5.784   2.756   4.131
 4912SOL    HW215636   5.797   2.605   4.071
 4913SOL     OW15637   0.286   4.076   4.898
 4913SOL    HW115638   0.215   4.017   4.861
 4913SOL    HW215639   0.370   4.066   4.844
 4914SOL     OW15640   3.959   0.302   4.071
 4914SOL    HW115641   3.933   0.364   4.145
 4914SOL    HW215642   4.008   0.354   4.000
 4915SOL     OW15643   3.885   5.559   5.900
 4915SOL    HW115644   3.943   5.640   5.906
 4915SOL    HW215645   3.860   5.528   5.991
 4916SOL     OW15646   5.695   2.266   3.699
 4916SOL    HW115647   5.641   2.350   3.690
 4916SOL    HW215648   5.650   2.204   3.764
 4917SOL     OW15649   3.670   6.726   0.165
 4917SOL    HW115650   3.693   6.631   0.141
 4917SOL    HW215651   3.687   6.741   0.262
 4918SOL     OW15652   5.803   5.022   3.561
 4918SOL    HW115653   5.724   5.072   3.596
 4918SOL    HW215654   5.773   4.933   3.527
 4919SOL     OW15655   3.248   3.604   1.744
 4919SOL    HW115656   3.215   3.521   1.699
 4919SOL    HW215657   3.186   3.629   1.818
 4920SOL     OW15658   6.021   1.553   6.163
 4920SOL    HW115659   5.942   1.586   6.112
 4920SOL    HW215660   6.065   1.630   6.209
 4921SOL     OW15661   0.134   6.945   1.749
 4921SOL    HW115662   0.135   6.850   1.717
 4921SOL    HW215663   0.047   6.987   1.724
 4922SOL     OW15664   3.340   1.409   6.067
 4922SOL    HW115665   3.398   1.403   5.987
 4922SOL    HW215666   3.392   1.384   6.149
 4923SOL     OW15667   3.741   1.822   1.761
 4923SOL    HW115668   3.799   1.751   1.723
 4923SOL    HW215669   3.719   1.800   1.857
 4924SOL     OW15670   2.236   0.969   5.160
 4924SOL    HW115671   2.272   1.030   5.089
 4924SOL    HW215672   2.276   0.878   5.150
 4925SOL     OW15673   5.427   5.734   3.276
 4925SOL    HW115674   5.370   5.693   3.204
 4925SOL    HW215675   5.418   5.833   3.274
 4926SOL     OW15676   5.456   2.877   1.703
 4926SOL    HW115677   5.522   2.948   1.680
 4926SOL    HW215678   5.424   2.833   1.619
 4927SOL     OW15679   3.111   1.435   0.348
 4927SOL    HW115680   3.076   1.468   0.436
 4927SOL    HW215681   3.063   1.480   0.273
 4928SOL     OW15682   6.887   2.322   0.671
 4928SOL    HW115683   6.894   2.306   0.770
 4928SOL    HW215684   6.795   2.352   0.649
 4929SOL     OW15685   0.323   6.647   5.216
 4929SOL    HW115686   0.418   6.671   5.196
 4929SOL    HW215687   0.272   6.636   5.130
 4930SOL     OW15688   4.815   5.540   2.831
 4930SOL    HW115689   4.822   5.624   2.777
 4930SOL    HW215690   4.754   5.476   2.784
 4931SOL     OW15691   6.908   0.009   0.814
 4931SOL    HW115692   6.872   0.093   0.773
 4931SOL    HW215693   6.859   6.953   0.776
 4932SOL     OW15694   3.426   3.157   2.454
 4932SOL    HW115695   3.327   3.162   2.463
 4932SOL    HW215696   3.451   3.128   2.362
 4933SOL     OW15697   1.168   0.374   5.822
 4933SOL    HW115698   1.082   0.333   5.852
 4933SOL    HW215699   1.164   0.473   5.837
 4934SOL     OW15700   3.794   6.695   2.105
 4934SOL    HW115701   3.778   6.674   2.201
 4934SOL    HW215702   3.800   6.794   2.092
 4935SOL     OW15703   0.455   0.934   5.070
 4935SOL    HW115704   0.368   0.981   5.086
 4935SOL    HW215705   0.507   0.932   5.155
 4936SOL     OW15706   4.512   2.298   0.813
 4936SOL    HW115707   4.555   2.217   0.773
 4936SOL    HW215708   4.559   2.323   0.897
 4937SOL     OW15709   4.645   2.789   5.259
 4937SOL    HW115710   4.558   2.769   5.304
 4937SOL    HW215711   4.715   2.806   5.329
 4938SOL     OW15712   3.563   4.603   6.703
 4938SOL    HW115713   3.623   4.644   6.771
 4938SOL    HW215714   3.472   4.589   6.743
 4939SOL     OW15715   4.706   3.901   6.276
 4939SOL    HW115716   4.698   4.000   6.265
 4939SOL    HW215717   4.731   3.879   6.370
 4940SOL     OW15718   2.306   6.381   3.749
 4940SOL    HW115719   2.225   6.345   3.794
 4940SOL    HW215720   2.288   6.474   3.717
 4941SOL     OW15721   5.724   0.554   0.692
 4941SOL    HW115722   5.651   0.610   0.731
 4941SOL    HW215723   5.783   0.611   0.635
 4942SOL     OW15724   5.057   2.802   6.256
 4942SOL    HW115725   5.083   2.738   6.184
 4942SOL    HW215726   4.975   2.769   6.303
 4943SOL     OW15727   5.265   2.799   1.434
 4943SOL    HW115728   5.186   2.833   1.484
 4943SOL    HW215729   5.258   2.700   1.423
 4944SOL     OW15730   2.323   4.096   2.036
 4944SOL    HW115731   2.260   4.035   2.083
 4944SOL    HW215732   2.416   4.061   2.046
 4945SOL     OW15733   6.864   6.251   4.355
 4945SOL    HW115734   6.899   6.203   4.274
 4945SOL    HW215735   6.764   6.252   4.352
 4946SOL     OW15736   0.189   4.165   2.130
 4946SOL    HW115737   0.116   4.199   2.070
 4946SOL    HW215738   0.251   4.107   2.077
 4947SOL     OW15739   6.827   0.654   0.998
 4947SOL    HW115740   6.748   0.608   0.958
 4947SOL    HW215741   6.840   0.743   0.954
 4948SOL     OW15742   2.512   1.142   2.348
 4948SOL    HW115743   2.608   1.137   2.321
 4948SOL    HW215744   2.459   1.192   2.280
 4949SOL     OW15745   5.356   2.944   4.624
 4949SOL    HW115746   5.367   2.904   4.534
 4949SOL    HW215747   5.306   2.880   4.683
 4950SOL     OW15748   3.516   4.920   4.898
 4950SOL    HW115749   3.521   5.019   4.884
 4950SOL    HW215750   3.533   4.899   4.994
 4951SOL     OW15751   4.498   1.890   3.611
 4951SOL    HW115752   4.527   1.810   3.558
 4951SOL    HW215753   4.434   1.861   3.683
 4952SOL     OW15754   6.982   4.489   4.808
 4952SOL    HW115755   6.902   4.485   4.749
 4952SOL    HW215756   6.960   4.541   4.891
 4953SOL     OW15757   1.718   4.961   2.383
 4953SOL    HW115758   1.702   5.053   2.420
 4953SOL    HW215759   1.743   4.900   2.458
 4954SOL     OW15760   6.063   6.433   0.242
 4954SOL    HW115761   6.092   6.508   0.301
 4954SOL    HW215762   5.993   6.465   0.178
 4955SOL     OW15763   1.597   0.922   1.179
 4955SOL    HW115764   1.571   0.988   1.250
 4955SOL    HW215765   1.646   0.846   1.222
 4956SOL     OW15766   6.249   6.313   4.136
 4956SOL    HW115767   6.314   6.274   4.070
 4956SOL    HW215768   6.157   6.283   4.112
 4957SOL     OW15769   2.056   5.972   3.641
 4957SOL    HW115770   2.103   5.983   3.728
 4957SOL    HW215771   1.973   6.029   3.641
 4958SOL     OW15772   0.067   6.793   6.505
 4958SOL    HW115773   0.142   6.766   6.565
 4958SOL    HW215774   0.065   6.733   6.425
 4959SOL     OW15775   0.381   1.568   6.818
 4959SOL    HW115776   0.429   1.540   6.735
 4959SOL    HW215777   0.392   1.667   6.831
 4960SOL     OW15778   3.984   6.814   5.442
 4960SOL    HW115779   4.028   6.900   5.467
 4960SOL    HW215780   3.939   6.775   5.523
 4961SOL     OW15781   4.506   0.996   5.326
 4961SOL    HW115782   4.543   0.905   5.305
 4961SOL    HW215783   4.453   1.029   5.248
 4962SOL     OW15784   6.579   2.295   1.867
 4962SOL    HW115785   6.621   2.383   1.844
 4962SOL    HW215786   6.574   2.239   1.784
 4963SOL     OW15787   6.858   4.824   1.098
 4963SOL    HW115788   6.901   4.739   1.128
 4963SOL    HW215789   6.869   4.834   0.999
 4964SOL     OW15790   3.705   6.530   3.118
 4964SOL    HW115791   3.748   6.591   3.184
 4964SOL    HW215792   3.691   6.578   3.031
 4965SOL     OW15793   6.882   6.279   4.779
 4965SOL    HW115794   6.823   6.199   4.773
 4965SOL    HW215795   6.950   6.276   4.705
 4966SOL     OW15796   4.023   5.510   4.456
 4966SOL    HW115797   4.047   5.456   4.536
 4966SOL    HW215798   4.063   5.467   4.374
 4967SOL     OW15799   5.957   2.027   6.323
 4967SOL    HW115800   5.992   2.086   6.250
 4967SOL    HW215801   5.857   2.029   6.324
 4968SOL     OW15802   5.574   4.504   0.089
 4968SOL    HW115803   5.496   4.452   0.123
 4968SOL    HW215804   5.641   4.442   0.049
 4969SOL     OW15805   0.978   1.783   1.391
 4969SOL    HW115806   1.022   1.867   1.360
 4969SOL    HW215807   0.909   1.755   1.324
 4970SOL     OW15808   1.910   2.832   5.772
 4970SOL    HW115809   1.933   2.896   5.844
 4970SOL    HW215810   1.993   2.789   5.737
 4971SOL     OW15811   6.805   5.375   4.066
 4971SOL    HW115812   6.854   5.298   4.108
 4971SOL    HW215813   6.857   5.407   3.987
 4972SOL     OW15814   1.982   2.359   5.321
 4972SOL    HW115815   2.024   2.269   5.311
 4972SOL    HW215816   2.027   2.408   5.396
 4973SOL     OW15817   5.594   5.506   2.901
 4973SOL    HW115818   5.592   5.434   2.832
 4973SOL    HW215819   5.525   5.575   2.880
 4974SOL     OW15820   4.305   6.417   6.990
 4974SOL    HW115821   4.301   6.452   0.060
 4974SOL    HW215822   4.399   6.392   6.967
 4975SOL     OW15823   4.303   6.100   0.177
 4975SOL    HW115824   4.275   6.117   0.083
 4975SOL    HW215825   4.328   6.004   0.188
 4976SOL     OW15826   2.769   0.657   4.146
 4976SOL    HW115827   2.866   0.634   4.157
 4976SOL    HW215828   2.732   0.607   4.068
 4977SOL     OW15829   3.041   2.657   0.421
 4977SOL    HW115830   2.971   2.725   0.397
 4977SOL    HW215831   3.127   2.704   0.441
 4978SOL     OW15832   6.313   4.250   6.494
 4978SOL    HW115833   6.318   4.202   6.407
 4978SOL    HW215834   6.293   4.347   6.478
 4979SOL     OW15835   2.044   1.682   4.111
 4979SOL    HW115836   1.984   1.608   4.083
 4979SOL    HW215837   2.003   1.770   4.086
 4980SOL     OW15838   2.334   4.762   3.249
 4980SOL    HW115839   2.407   4.697   3.230
 4980SOL    HW215840   2.278   4.775   3.167
 4981SOL     OW15841   4.716   6.095   5.462
 4981SOL    HW115842   4.617   6.081   5.470
 4981SOL    HW215843   4.741   6.180   5.509
 4982SOL     OW15844   2.969   2.296   0.397
 4982SOL    HW115845   2.884   2.245   0.412
 4982SOL    HW215846   3.047   2.237   0.420
 4983SOL     OW15847   6.538   2.760   4.845
 4983SOL    HW115848   6.566   2.691   4.777
 4983SOL    HW215849   6.543   2.851   4.804
 4984SOL     OW15850   5.059   4.150   3.105
 4984SOL    HW115851   5.003   4.085   3.155
 4984SOL    HW215852   5.048   4.134   3.007
 4985SOL     OW15853   5.286   4.272   1.910
 4985SOL    HW115854   5.366   4.331   1.923
 4985SOL    HW215855   5.274   4.253   1.813
 4986SOL     OW15856   4.554   4.443   3.447
 4986SOL    HW115857   4.590   4.414   3.358
 4986SOL    HW215858   4.539   4.542   3.447
 4987SOL     OW15859   0.575   3.484   0.679
 4987SOL    HW115860   0.672   3.474   0.703
 4987SOL    HW215861   0.553   3.581   0.670
 4988SOL     OW15862   1.621   2.198   5.129
 4988SOL    HW115863   1.622   2.280   5.071
 4988SOL    HW215864   1.583   2.222   5.219
 4989SOL     OW15865   0.098   1.062   0.523
 4989SOL    HW115866   0.138   1.117   0.449
 4989SOL    HW215867   0.169   1.038   0.589
 4990SOL     OW15868   1.244   2.150   6.094
 4990SOL    HW115869   1.272   2.239   6.128
 4990SOL    HW215870   1.165   2.117   6.147
 4991SOL     OW15871   2.447   1.845   4.971
 4991SOL    HW115872   2.507   1.836   5.050
 4991SOL    HW215873   2.459   1.936   4.930
 4992SOL     OW15874   4.212   0.342   4.357
 4992SOL    HW115875   4.134   0.372   4.303
 4992SOL    HW215876   4.237   0.414   4.422
 4993SOL     OW15877   1.558   6.274   4.098
 4993SOL    HW115878   1.514   6.194   4.139
 4993SOL    HW215879   1.491   6.324   4.044
 4994SOL     OW15880   0.285   6.621   2.493
 4994SOL    HW115881   0.363   6.661   2.444
 4994SOL    HW215882   0.237   6.692   2.544
 4995SOL     OW15883   5.860   3.011   5.840
 4995SOL    HW115884   5.786   3.078   5.831
 4995SOL    HW215885   5.882   2.974   5.750
 4996SOL     OW15886   0.183   1.829   3.824
 4996SOL    HW115887   0.222   1.873   3.744
 4996SOL    HW215888   0.085   1.814   3.810
 4997SOL     OW15889   0.353   2.445   4.073
 4997SOL    HW115890   0.425   2.448   4.143
 4997SOL    HW215891   0.264   2.461   4.116
 4998SOL     OW15892   0.725   5.383   5.542
 4998SOL    HW115893   0.796   5.319   5.571
 4998SOL    HW215894   0.637   5.357   5.584
 4999SOL     OW15895   6.596   4.861   1.034
 4999SOL    HW115896   6.669   4.823   1.090
 4999SOL    HW215897   6.602   4.961   1.035
 5000SOL     OW15898   0.040   5.453   4.262
 5000SOL    HW115899   6.987   5.389   4.259
 5000SOL    HW215900   0.072   5.461   4.356
 5001SOL     OW15901   4.648   4.742   5.431
 5001SOL    HW115902   4.717   4.670   5.439
 5001SOL    HW215903   4.631   4.761   5.334
 5002SOL     OW15904   2.075   2.440   1.703
 5002SOL    HW115905   1.982   2.436   1.738
 5002SOL    HW215906   2.074   2.474   1.609
 5003SOL     OW15907   6.445   5.116   4.059
 5003SOL    HW115908   6.390   5.108   4.142
 5003SOL    HW215909   6.435   5.208   4.021
 5004SOL     OW15910   2.800   4.398   6.302
 5004SOL    HW115911   2.881   4.366   6.252
 5004SOL    HW215912   2.806   4.497   6.315
 5005SOL     OW15913   4.500   1.740   0.302
 5005SOL    HW115914   4.422   1.749   0.240
 5005SOL    HW215915   4.580   1.710   0.250
 5006SOL     OW15916   5.190   4.674   2.516
 5006SOL    HW115917   5.117   4.664   2.448
 5006SOL    HW215918   5.229   4.584   2.537
 5007SOL     OW15919   3.831   1.425   5.534
 5007SOL    HW115920   3.838   1.460   5.441
 5007SOL    HW215921   3.754   1.360   5.539
 5008SOL     OW15922   6.384   0.429   3.553
 5008SOL    HW115923   6.309   0.472   3.604
 5008SOL    HW215924   6.392   0.472   3.463
 5009SOL     OW15925   2.095   5.858   2.038
 5009SOL    HW115926   2.032   5.786   2.066
 5009SOL    HW215927   2.065   5.894   1.949
 5010SOL     OW15928   3.563   3.058   5.678
 5010SOL    HW115929   3.558   3.008   5.764
 5010SOL    HW215930   3.631   3.131   5.686
 5011SOL     OW15931   1.177   2.915   3.792
 5011SOL    HW115932   1.224   2.974   3.858
 5011SOL    HW215933   1.240   2.844   3.760
 5012SOL     OW15934   5.672   2.972   7.013
 5012SOL    HW115935   5.660   2.989   6.915
 5012SOL    HW215936   5.591   3.002   0.040
 5013SOL     OW15937   4.875   2.228   5.647
 5013SOL    HW115938   4.945   2.157   5.659
 5013SOL    HW215939   4.802   2.214   5.714
 5014SOL     OW15940   6.876   5.583   6.590
 5014SOL    HW115941   6.786   5.624   6.607
 5014SOL    HW215942   6.917   5.625   6.509
 5015SOL     OW15943   5.509   2.172   3.896
 5015SOL    HW115944   5.432   2.234   3.878
 5015SOL    HW215945   5.572   2.215   3.960
 5016SOL     OW15946   2.387   6.107   2.381
 5016SOL    HW115947   2.461   6.065   2.434
 5016SOL    HW215948   2.333   6.167   2.439
 5017SOL     OW15949   1.085   2.224   2.105
 5017SOL    HW115950   1.170   2.176   2.082
 5017SOL    HW215951   1.085   2.248   2.202
 5018SOL     OW15952   6.932   4.935   3.898
 5018SOL    HW115953   6.892   4.899   3.814
 5018SOL    HW215954   6.859   4.970   3.958
 5019SOL     OW15955   2.389   5.334   5.520
 5019SOL    HW115956   2.299   5.373   5.504
 5019SOL    HW215957   2.411   5.270   5.447
 5020SOL     OW15958   4.301   5.264   0.104
 5020SOL    HW115959   4.229   5.207   0.064
 5020SOL    HW215960   4.308   5.350   0.053
 5021SOL     OW15961   2.367   4.195   5.557
 5021SOL    HW115962   2.381   4.218   5.461
 5021SOL    HW215963   2.374   4.096   5.569
 5022SOL     OW15964   2.203   3.561   0.948
 5022SOL    HW115965   2.128   3.505   0.985
 5022SOL    HW215966   2.167   3.651   0.924
 5023SOL     OW15967   0.200   3.021   4.378
 5023SOL    HW115968   0.167   2.946   4.321
 5023SOL    HW215969   0.157   3.016   4.468
 5024SOL     OW15970   4.881   3.494   5.652
 5024SOL    HW115971   4.979   3.507   5.635
 5024SOL    HW215972   4.867   3.470   5.748
 5025SOL     OW15973   6.395   1.039   3.875
 5025SOL    HW115974   6.366   0.955   3.830
 5025SOL    HW215975   6.320   1.076   3.930
 5026SOL     OW15976   0.787   6.395   3.249
 5026SOL    HW115977   0.881   6.394   3.284
 5026SOL    HW215978   0.773   6.478   3.195
 5027SOL     OW15979   0.729   6.146   3.943
 5027SOL    HW115980   0.782   6.069   3.908
 5027SOL    HW215981   0.644   6.155   3.890
 5028SOL     OW15982   0.576   6.989   2.824
 5028SOL    HW115983   0.672   6.964   2.821
 5028SOL    HW215984   0.563   0.057   2.784
 5029SOL     OW15985   6.537   1.039   3.608
 5029SOL    HW115986   6.490   1.015   3.694
 5029SOL    HW215987   6.575   0.957   3.567
 5030SOL     OW15988   2.141   5.739   0.019
 5030SOL    HW115989   2.222   5.739   0.078
 5030SOL    HW215990   2.168   5.750   6.947
 5031SOL     OW15991   5.240   0.580   6.475
 5031SOL    HW115992   5.261   0.669   6.434
 5031SOL    HW215993   5.325   0.530   6.493
 5032SOL     OW15994   1.662   5.984   2.309
 5032SOL    HW115995   1.700   5.932   2.233
 5032SOL    HW215996   1.567   6.006   2.290
 5033SOL     OW15997   0.773   3.831   5.278
 5033SOL    HW115998   0.718   3.818   5.360
 5033SOL    HW215999   0.724   3.795   5.199
 5034SOL     OW16000   6.476   4.113   6.056
 5034SOL    HW116001   6.419   4.193   6.035
 5034SOL    HW216002   6.572   4.136   6.044
 5035SOL     OW16003   6.558   4.631   1.405
 5035SOL    HW116004   6.598   4.566   1.342
 5035SOL    HW216005   6.460   4.640   1.386
 5036SOL     OW16006   1.424   0.891   2.427
 5036SOL    HW116007   1.409   0.868   2.331
 5036SOL    HW216008   1.473   0.978   2.432
 5037SOL     OW16009   4.773   2.770   2.944
 5037SOL    HW116010   4.757   2.796   3.039
 5037SOL    HW216011   4.846   2.826   2.906
 5038SOL     OW16012   3.016   5.732   4.970
 5038SOL    HW116013   3.091   5.667   4.957
 5038SOL    HW216014   3.037   5.792   5.047
 5039SOL     OW16015   1.333   1.967   2.750
 5039SOL    HW116016   1.365   1.995   2.840
 5039SOL    HW216017   1.300   2.047   2.700
 5040SOL     OW16018   3.058   3.401   5.875
 5040SOL    HW116019   3.109   3.485   5.891
 5040SOL    HW216020   2.994   3.386   5.951
 5041SOL     OW16021   0.530   5.482   0.672
 5041SOL    HW116022   0.467   5.553   0.642
 5041SOL    HW216023   0.617   5.524   0.699
 5042SOL     OW16024   5.731   1.479   5.828
 5042SOL    HW116025   5.634   1.497   5.809
 5042SOL    HW216026   5.787   1.531   5.764
 5043SOL     OW16027   4.933   6.529   3.725
 5043SOL    HW116028   4.978   6.516   3.813
 5043SOL    HW216029   4.994   6.577   3.663
 5044SOL     OW16030   5.897   4.759   1.725
 5044SOL    HW116031   5.870   4.666   1.700
 5044SOL    HW216032   5.823   4.822   1.702
 5045SOL     OW16033   5.648   3.682   4.926
 5045SOL    HW116034   5.650   3.583   4.909
 5045SOL    HW216035   5.625   3.729   4.841
 5046SOL     OW16036   3.760   3.266   5.728
 5046SOL    HW116037   3.825   3.236   5.798
 5046SOL    HW216038   3.810   3.300   5.648
 5047SOL     OW16039   0.412   1.874   2.103
 5047SOL    HW116040   0.346   1.806   2.074
 5047SOL    HW216041   0.364   1.957   2.133
 5048SOL     OW16042   5.879   3.388   1.469
 5048SOL    HW116043   5.885   3.478   1.425
 5048SOL    HW216044   5.816   3.330   1.417
 5049SOL     OW16045   0.877   2.028   1.541
 5049SOL    HW116046   0.926   2.025   1.454
 5049SOL    HW216047   0.904   1.949   1.597
 5050SOL     OW16048   1.908   4.180   0.296
 5050SOL    HW116049   1.974   4.132   0.237
 5050SOL    HW216050   1.894   4.127   0.380
 5051SOL     OW16051   2.633   3.371   6.578
 5051SOL    HW116052   2.568   3.427   6.526
 5051SOL    HW216053   2.723   3.414   6.576
 5052SOL     OW16054   5.968   3.102   0.622
 5052SOL    HW116055   5.966   3.168   0.698
 5052SOL    HW216056   5.883   3.108   0.570
 5053SOL     OW16057   1.744   4.094   1.023
 5053SOL    HW116058   1.802   4.103   1.104
 5053SOL    HW216059   1.689   4.011   1.031
 5054SOL     OW16060   3.946   6.307   5.449
 5054SOL    HW116061   3.985   6.307   5.357
 5054SOL    HW216062   3.877   6.235   5.456
 5055SOL     OW16063   1.311   1.967   3.941
 5055SOL    HW116064   1.302   2.060   3.976
 5055SOL    HW216065   1.300   1.967   3.842
 5056SOL     OW16066   3.127   2.274   5.592
 5056SOL    HW116067   3.132   2.178   5.618
 5056SOL    HW216068   3.213   2.319   5.617
 5057SOL     OW16069   0.240   4.049   3.019
 5057SOL    HW116070   0.277   4.079   3.107
 5057SOL    HW216071   0.252   4.122   2.951
 5058SOL     OW16072   3.589   1.961   0.469
 5058SOL    HW116073   3.489   1.959   0.464
 5058SOL    HW216074   3.627   1.910   0.391
 5059SOL     OW16075   4.795   2.154   2.991
 5059SOL    HW116076   4.853   2.107   2.924
 5059SOL    HW216077   4.799   2.252   2.975
 5060SOL     OW16078   6.986   3.399   5.540
 5060SOL    HW116079   6.957   3.434   5.629
 5060SOL    HW216080   6.957   3.303   5.531
 5061SOL     OW16081   4.459   2.772   6.198
 5061SOL    HW116082   4.371   2.813   6.177
 5061SOL    HW216083   4.464   2.750   6.296
 5062SOL     OW16084   5.306   1.119   3.469
 5062SOL    HW116085   5.212   1.107   3.500
 5062SOL    HW216086   5.350   1.191   3.523
 5063SOL     OW16087   1.122   1.221   1.400
 5063SOL    HW116088   1.058   1.218   1.476
 5063SOL    HW216089   1.181   1.302   1.408
 5064SOL     OW16090   5.483   4.915   1.076
 5064SOL    HW116091   5.528   4.942   0.991
 5064SOL    HW216092   5.530   4.837   1.116
 5065SOL     OW16093   2.574   1.602   2.408
 5065SOL    HW116094   2.543   1.641   2.322
 5065SOL    HW216095   2.504   1.540   2.444
 5066SOL     OW16096   1.660   5.435   2.446
 5066SOL    HW116097   1.666   5.497   2.524
 5066SOL    HW216098   1.739   5.374   2.445
 5067SOL     OW16099   5.687   3.029   1.671
 5067SOL    HW116100   5.730   2.963   1.733
 5067SOL    HW216101   5.733   3.118   1.679
 5068SOL     OW16102   1.675   6.269   0.847
 5068SOL    HW116103   1.647   6.230   0.935
 5068SOL    HW216104   1.708   6.196   0.787
 5069SOL     OW16105   4.622   5.347   5.464
 5069SOL    HW116106   4.667   5.436   5.467
 5069SOL    HW216107   4.563   5.342   5.383
 5070SOL     OW16108   6.045   3.325   5.775
 5070SOL    HW116109   6.068   3.254   5.842
 5070SOL    HW216110   6.039   3.414   5.821
 5071SOL     OW16111   2.529   6.145   2.983
 5071SOL    HW116112   2.580   6.063   3.009
 5071SOL    HW216113   2.437   6.140   3.021
 5072SOL     OW16114   0.955   1.207   1.615
 5072SOL    HW116115   0.920   1.127   1.665
 5072SOL    HW216116   1.004   1.267   1.678
 5073SOL     OW16117   1.861   1.023   3.368
 5073SOL    HW116118   1.926   1.098   3.349
 5073SOL    HW216119   1.770   1.061   3.382
 5074SOL     OW16120   3.172   2.178   1.489
 5074SOL    HW116121   3.091   2.174   1.431
 5074SOL    HW216122   3.155   2.129   1.574
 5075SOL     OW16123   6.357   2.645   0.426
 5075SOL    HW116124   6.398   2.686   0.508
 5075SOL    HW216125   6.391   2.692   0.345
 5076SOL     OW16126   7.003   1.115   5.561
 5076SOL    HW116127   0.075   1.116   5.590
 5076SOL    HW216128   6.956   1.195   5.600
 5077SOL     OW16129   0.814   4.361   3.604
 5077SOL    HW116130   0.867   4.293   3.553
 5077SOL    HW216131   0.866   4.390   3.684
 5078SOL     OW16132   6.376   2.367   3.789
 5078SOL    HW116133   6.326   2.302   3.732
 5078SOL    HW216134   6.474   2.361   3.769
 5079SOL     OW16135   1.673   3.852   4.694
 5079SOL    HW116136   1.750   3.789   4.685
 5079SOL    HW216137   1.589   3.800   4.709
 5080SOL     OW16138   6.170   6.057   6.604
 5080SOL    HW116139   6.154   6.042   6.506
 5080SOL    HW216140   6.237   6.130   6.615
 5081SOL     OW16141   2.395   4.806   5.200
 5081SOL    HW116142   2.369   4.871   5.128
 5081SOL    HW216143   2.492   4.818   5.222
 5082SOL     OW16144   5.573   5.866   1.399
 5082SOL    HW116145   5.574   5.916   1.313
 5082SOL    HW216146   5.510   5.788   1.392
 5083SOL     OW16147   2.088   0.179   3.691
 5083SOL    HW116148   2.010   0.234   3.720
 5083SOL    HW216149   2.075   0.085   3.721
 5084SOL     OW16150   3.572   4.685   5.737
 5084SOL    HW116151   3.494   4.729   5.694
 5084SOL    HW216152   3.636   4.755   5.770
 5085SOL     OW16153   0.420   4.630   5.747
 5085SOL    HW116154   0.398   4.678   5.662
 5085SOL    HW216155   0.357   4.659   5.819
 5086SOL     OW16156   1.328   4.840   2.484
 5086SOL    HW116157   1.343   4.743   2.500
 5086SOL    HW216158   1.397   4.893   2.534
 5087SOL     OW16159   0.198   4.742   1.985
 5087SOL    HW116160   0.147   4.666   1.944
 5087SOL    HW216161   0.280   4.760   1.931
 5088SOL     OW16162   4.898   5.283   2.348
 5088SOL    HW116163   4.801   5.264   2.366
 5088SOL    HW216164   4.952   5.260   2.428
 5089SOL     OW16165   5.276   6.317   6.366
 5089SOL    HW116166   5.367   6.279   6.378
 5089SOL    HW216167   5.240   6.290   6.276
 5090SOL     OW16168   2.824   6.615   4.746
 5090SOL    HW116169   2.730   6.595   4.720
 5090SOL    HW216170   2.884   6.541   4.718
 5091SOL     OW16171   6.706   6.283   6.068
 5091SOL    HW116172   6.801   6.303   6.041
 5091SOL    HW216173   6.685   6.331   6.153
 5092SOL     OW16174   3.975   3.581   4.256
 5092SOL    HW116175   3.951   3.527   4.176
 5092SOL    HW216176   4.025   3.524   4.321
 5093SOL     OW16177   2.847   2.162   2.826
 5093SOL    HW116178   2.929   2.142   2.772
 5093SOL    HW216179   2.842   2.100   2.904
 5094SOL     OW16180   1.796   5.940   4.789
 5094SOL    HW116181   1.849   6.015   4.829
 5094SOL    HW216182   1.762   5.968   4.699
 5095SOL     OW16183   6.781   1.152   3.232
 5095SOL    HW116184   6.864   1.207   3.228
 5095SOL    HW216185   6.790   1.083   3.303
 5096SOL     OW16186   6.391   3.290   6.003
 5096SOL    HW116187   6.422   3.269   5.911
 5096SOL    HW216188   6.429   3.223   6.068
 5097SOL     OW16189   0.444   0.644   5.612
 5097SOL    HW116190   0.518   0.708   5.592
 5097SOL    HW216191   0.360   0.675   5.566
 5098SOL     OW16192   3.201   2.512   0.214
 5098SOL    HW116193   3.137   2.564   0.270
 5098SOL    HW216194   3.155   2.432   0.176
 5099SOL     OW16195   1.864   6.135   2.393
 5099SOL    HW116196   1.782   6.089   2.358
 5099SOL    HW216197   1.944   6.106   2.341
 5100SOL     OW16198   5.478   3.588   2.493
 5100SOL    HW116199   5.430   3.602   2.406
 5100SOL    HW216200   5.485   3.491   2.512
 5101SOL     OW16201   3.215   0.513   4.576
 5101SOL    HW116202   3.225   0.414   4.583
 5101SOL    HW216203   3.143   0.544   4.638
 5102SOL     OW16204   5.514   5.185   5.223
 5102SOL    HW116205   5.514   5.103   5.280
 5102SOL    HW216206   5.421   5.208   5.197
 5103SOL     OW16207   0.726   0.450   5.947
 5103SOL    HW116208   0.812   0.494   5.973
 5103SOL    HW216209   0.664   0.518   5.909
 5104SOL     OW16210   4.116   3.254   3.054
 5104SOL    HW116211   4.072   3.164   3.063
 5104SOL    HW216212   4.088   3.296   2.968
 5105SOL     OW16213   4.318   3.155   7.013
 5105SOL    HW116214   4.414   3.169   0.011
 5105SOL    HW216215   4.308   3.132   6.916
 5106SOL     OW16216   3.672   1.476   1.343
 5106SOL    HW116217   3.751   1.535   1.364
 5106SOL    HW216218   3.588   1.523   1.371
 5107SOL     OW16219   6.407   5.091   0.841
 5107SOL    HW116220   6.377   5.073   0.934
 5107SOL    HW216221   6.350   5.164   0.801
 5108SOL     OW16222   3.421   4.474   1.275
 5108SOL    HW116223   3.333   4.479   1.227
 5108SOL    HW216224   3.477   4.553   1.251
 5109SOL     OW16225   1.473   2.575   2.864
 5109SOL    HW116226   1.456   2.574   2.765
 5109SOL    HW216227   1.487   2.670   2.894
 5110SOL     OW16228   4.944   6.824   5.266
 5110SOL    HW116229   5.024   6.781   5.306
 5110SOL    HW216230   4.958   6.923   5.262
 5111SOL     OW16231   1.154   5.486   5.680
 5111SOL    HW116232   1.155   5.394   5.720
 5111SOL    HW216233   1.219   5.545   5.729
 5112SOL     OW16234   1.369   6.131   3.534
 5112SOL    HW116235   1.447   6.110   3.593
 5112SOL    HW216236   1.400   6.142   3.440
 5113SOL     OW16237   1.855   3.919   0.740
 5113SOL    HW116238   1.941   3.869   0.740
 5113SOL    HW216239   1.872   4.015   0.763
 5114SOL     OW16240   4.368   4.594   1.383
 5114SOL    HW116241   4.341   4.516   1.438
 5114SOL    HW216242   4.429   4.564   1.310
 5115SOL     OW16243   1.610   3.688   0.552
 5115SOL    HW116244   1.616   3.632   0.634
 5115SOL    HW216245   1.658   3.775   0.568
 5116SOL     OW16246   0.604   6.716   5.091
 5116SOL    HW116247   0.693   6.676   5.116
 5116SOL    HW216248   0.566   6.665   5.013
 5117SOL     OW16249   0.233   2.548   3.596
 5117SOL    HW116250   0.154   2.487   3.603
 5117SOL    HW216251   0.297   2.512   3.528
 5118SOL     OW16252   4.394   5.849   0.238
 5118SOL    HW116253   4.429   5.784   0.306
 5118SOL    HW216254   4.416   5.816   0.146
 5119SOL     OW16255   5.836   1.779   0.335
 5119SOL    HW116256   5.802   1.743   0.422
 5119SOL    HW216257   5.932   1.753   0.323
 5120SOL     OW16258   5.299   6.850   0.036
 5120SOL    HW116259   5.354   6.772   0.006
 5120SOL    HW216260   5.355   6.911   0.092
 5121SOL     OW16261   1.300   3.266   6.521
 5121SOL    HW116262   1.244   3.262   6.438
 5121SOL    HW216263   1.261   3.208   6.591
 5122SOL     OW16264   4.820   4.421   3.671
 5122SOL    HW116265   4.834   4.507   3.623
 5122SOL    HW216266   4.724   4.414   3.699
 5123SOL     OW16267   5.023   2.918   2.503
 5123SOL    HW116268   4.948   2.858   2.474
 5123SOL    HW216269   4.989   3.012   2.510
 5124SOL     OW16270   1.225   5.930   4.671
 5124SOL    HW116271   1.190   5.839   4.647
 5124SOL    HW216272   1.163   5.999   4.634
 5125SOL     OW16273   6.254   1.840   3.808
 5125SOL    HW116274   6.222   1.921   3.858
 5125SOL    HW216275   6.334   1.802   3.855
 5126SOL     OW16276   1.757   0.626   2.085
 5126SOL    HW116277   1.820   0.554   2.115
 5126SOL    HW216278   1.804   0.715   2.091
 5127SOL     OW16279   2.326   6.063   6.930
 5127SOL    HW116280   2.333   5.967   6.903
 5127SOL    HW216281   2.248   6.105   6.883
 5128SOL     OW16282   5.314   0.132   1.661
 5128SOL    HW116283   5.251   0.130   1.584
 5128SOL    HW216284   5.400   0.176   1.634
 5129SOL     OW16285   6.457   6.868   0.488
 5129SOL    HW116286   6.553   6.888   0.468
 5129SOL    HW216287   6.452   6.796   0.558
 5130SOL     OW16288   6.243   5.136   2.484
 5130SOL    HW116289   6.238   5.111   2.387
 5130SOL    HW216290   6.298   5.219   2.495
 5131SOL     OW16291   2.226   2.505   2.454
 5131SOL    HW116292   2.313   2.464   2.482
 5131SOL    HW216293   2.176   2.441   2.397
 5132SOL     OW16294   2.493   5.849   5.070
 5132SOL    HW116295   2.409   5.875   5.119
 5132SOL    HW216296   2.491   5.751   5.051
 5133SOL     OW16297   3.376   6.113   5.274
 5133SOL    HW116298   3.322   6.138   5.194
 5133SOL    HW216299   3.469   6.148   5.263
 5134SOL     OW16300   6.591   3.688   6.359
 5134SOL    HW116301   6.613   3.662   6.265
 5134SOL    HW216302   6.601   3.609   6.419
 5135SOL     OW16303   6.452   1.442   4.304
 5135SOL    HW116304   6.439   1.348   4.273
 5135SOL    HW216305   6.544   1.473   4.281
 5136SOL     OW16306   4.026   2.167   5.850
 5136SOL    HW116307   3.944   2.118   5.879
 5136SOL    HW216308   4.103   2.143   5.909
 5137SOL     OW16309   3.536   3.247   0.026
 5137SOL    HW116310   3.616   3.227   0.084
 5137SOL    HW216311   3.488   3.327   0.061
 5138SOL     OW16312   2.324   3.187   6.183
 5138SOL    HW116313   2.316   3.258   6.253
 5138SOL    HW216314   2.284   3.102   6.216
 5139SOL     OW16315   0.430   6.957   3.531
 5139SOL    HW116316   0.497   6.931   3.462
 5139SOL    HW216317   0.468   6.944   3.622
 5140SOL     OW16318   3.058   2.882   1.363
 5140SOL    HW116319   3.049   2.978   1.335
 5140SOL    HW216320   2.968   2.846   1.386
 5141SOL     OW16321   0.658   4.363   6.110
 5141SOL    HW116322   0.691   4.367   6.204
 5141SOL    HW216323   0.678   4.273   6.071
 5142SOL     OW16324   6.043   2.822   2.950
 5142SOL    HW116325   5.959   2.806   3.001
 5142SOL    HW216326   6.036   2.780   2.859
 5143SOL     OW16327   6.677   5.349   5.071
 5143SOL    HW116328   6.680   5.413   4.994
 5143SOL    HW216329   6.682   5.255   5.037
 5144SOL     OW16330   1.868   1.477   4.873
 5144SOL    HW116331   1.845   1.530   4.792
 5144SOL    HW216332   1.803   1.498   4.946
 5145SOL     OW16333   3.371   5.252   5.821
 5145SOL    HW116334   3.436   5.324   5.845
 5145SOL    HW216335   3.294   5.292   5.771
 5146SOL     OW16336   2.422   5.012   0.297
 5146SOL    HW116337   2.476   4.973   0.372
 5146SOL    HW216338   2.462   5.100   0.269
 5147SOL     OW16339   6.704   5.400   6.402
 5147SOL    HW116340   6.773   5.433   6.467
 5147SOL    HW216341   6.618   5.449   6.418
 5148SOL     OW16342   0.407   0.611   0.701
 5148SOL    HW116343   0.308   0.615   0.683
 5148SOL    HW216344   0.422   0.602   0.799
 5149SOL     OW16345   0.380   0.991   5.966
 5149SOL    HW116346   0.423   1.065   5.914
 5149SOL    HW216347   0.342   0.924   5.903
 5150SOL     OW16348   2.584   5.809   4.354
 5150SOL    HW116349   2.544   5.747   4.287
 5150SOL    HW216350   2.569   5.773   4.446
 5151SOL     OW16351   4.123   0.822   5.519
 5151SOL    HW116352   4.152   0.916   5.499
 5151SOL    HW216353   4.193   0.777   5.574
 5152SOL     OW16354   0.329   4.855   0.191
 5152SOL    HW116355   0.315   4.849   0.092
 5152SOL    HW216356   0.390   4.931   0.212
 5153SOL     OW16357   1.794   2.077   0.997
 5153SOL    HW116358   1.835   1.991   0.968
 5153SOL    HW216359   1.822   2.150   0.936
 5154SOL     OW16360   2.012   4.473   5.852
 5154SOL    HW116361   1.974   4.558   5.814
 5154SOL    HW216362   2.090   4.444   5.797
 5155SOL     OW16363   3.636   0.212   2.695
 5155SOL    HW116364   3.643   0.211   2.795
 5155SOL    HW216365   3.670   0.299   2.660
 5156SOL     OW16366   5.427   2.535   6.263
 5156SOL    HW116367   5.479   2.530   6.348
 5156SOL    HW216368   5.490   2.548   6.186
 5157SOL     OW16369   6.344   2.222   4.381
 5157SOL    HW116370   6.341   2.282   4.461
 5157SOL    HW216371   6.284   2.259   4.310
 5158SOL     OW16372   3.571   0.544   1.531
 5158SOL    HW116373   3.610   0.533   1.622
 5158SOL    HW216374   3.508   0.622   1.531
 5159SOL     OW16375   2.149   3.534   4.860
 5159SOL    HW116376   2.129   3.454   4.917
 5159SOL    HW216377   2.247   3.538   4.840
 5160SOL     OW16378   2.070   2.484   4.143
 5160SOL    HW116379   2.022   2.455   4.061
 5160SOL    HW216380   2.017   2.556   4.189
 5161SOL     OW16381   2.217   2.892   6.540
 5161SOL    HW116382   2.138   2.866   6.595
 5161SOL    HW216383   2.299   2.848   6.575
 5162SOL     OW16384   6.419   5.002   4.450
 5162SOL    HW116385   6.361   5.007   4.531
 5162SOL    HW216386   6.461   4.911   4.444
 5163SOL     OW16387   5.614   4.268   0.841
 5163SOL    HW116388   5.571   4.211   0.912
 5163SOL    HW216389   5.562   4.259   0.756
 5164SOL     OW16390   5.775   5.819   5.667
 5164SOL    HW116391   5.723   5.903   5.682
 5164SOL    HW216392   5.718   5.753   5.618
 5165SOL     OW16393   6.357   4.068   4.710
 5165SOL    HW116394   6.319   4.024   4.792
 5165SOL    HW216395   6.380   3.998   4.643
 5166SOL     OW16396   1.453   6.997   2.027
 5166SOL    HW116397   1.385   0.034   2.070
 5166SOL    HW216398   1.496   6.939   2.097
 5167SOL     OW16399   1.849   0.413   5.468
 5167SOL    HW116400   1.763   0.410   5.519
 5167SOL    HW216401   1.923   0.376   5.525
 5168SOL     OW16402   3.923   1.949   2.866
 5168SOL    HW116403   3.834   1.973   2.827
 5168SOL    HW216404   3.990   1.936   2.793
 5169SOL     OW16405   4.141   4.472   6.512
 5169SOL    HW116406   4.147   4.376   6.483
 5169SOL    HW216407   4.179   4.482   6.604
 5170SOL     OW16408   4.168   5.404   4.234
 5170SOL    HW116409   4.150   5.424   4.138
 5170SOL    HW216410   4.201   5.310   4.244
 5171SOL     OW16411   2.589   4.933   4.822
 5171SOL    HW116412   2.672   4.983   4.845
 5171SOL    HW216413   2.601   4.836   4.844
 5172SOL     OW16414   1.871   4.458   0.243
 5172SOL    HW116415   1.860   4.365   0.276
 5172SOL    HW216416   1.788   4.486   0.194
 5173SOL     OW16417   6.958   2.451   6.099
 5173SOL    HW116418   7.013   2.372   6.072
 5173SOL    HW216419   6.988   2.484   6.188
 5174SOL     OW16420   1.906   5.031   5.707
 5174SOL    HW116421   1.975   5.075   5.650
 5174SOL    HW216422   1.943   5.018   5.799
 5175SOL     OW16423   0.212   5.185   5.965
 5175SOL    HW116424   0.127   5.181   5.913
 5175SOL    HW216425   0.277   5.245   5.918
 5176SOL     OW16426   4.936   4.144   6.028
 5176SOL    HW116427   4.929   4.236   6.067
 5176SOL    HW216428   4.845   4.109   6.008
 5177SOL     OW16429   5.237   5.854   6.065
 5177SOL    HW116430   5.239   5.885   6.160
 5177SOL    HW216431   5.160   5.896   6.018
 5178SOL     OW16432   2.580   2.439   1.314
 5178SOL    HW116433   2.524   2.513   1.351
 5178SOL    HW216434   2.548   2.415   1.223
 5179SOL     OW16435   2.942   6.166   5.492
 5179SOL    HW116436   2.918   6.157   5.396
 5179SOL    HW216437   2.917   6.082   5.540
 5180SOL     OW16438   3.261   1.632   0.014
 5180SOL    HW116439   3.302   1.575   0.085
 5180SOL    HW216440   3.164   1.644   0.034
 5181SOL     OW16441   3.044   5.615   2.465
 5181SOL    HW116442   3.014   5.699   2.420
 5181SOL    HW216443   3.111   5.568   2.408
 5182SOL     OW16444   4.545   3.839   1.544
 5182SOL    HW116445   4.576   3.906   1.612
 5182SOL    HW216446   4.556   3.877   1.453
 5183SOL     OW16447   3.865   1.016   3.558
 5183SOL    HW116448   3.940   1.067   3.600
 5183SOL    HW216449   3.855   0.928   3.604
 5184SOL     OW16450   1.030   2.143   2.964
 5184SOL    HW116451   0.992   2.087   3.037
 5184SOL    HW216452   1.027   2.240   2.991
 5185SOL     OW16453   3.606   0.246   1.691
 5185SOL    HW116454   3.517   0.221   1.729
 5185SOL    HW216455   3.603   0.239   1.591
 5186SOL     OW16456   5.503   4.908   0.123
 5186SOL    HW116457   5.452   4.991   0.147
 5186SOL    HW216458   5.580   4.898   0.186
 5187SOL     OW16459   5.001   1.622   4.704
 5187SOL    HW116460   5.083   1.620   4.647
 5187SOL    HW216461   4.921   1.635   4.645
 5188SOL     OW16462   1.076   2.350   3.321
 5188SOL    HW116463   1.175   2.345   3.338
 5188SOL    HW216464   1.059   2.354   3.222
 5189SOL     OW16465   4.444   6.026   6.905
 5189SOL    HW116466   4.460   5.931   6.929
 5189SOL    HW216467   4.353   6.054   6.934
 5190SOL     OW16468   1.940   2.885   2.434
 5190SOL    HW116469   1.994   2.964   2.404
 5190SOL    HW216470   1.999   2.821   2.483
 5191SOL     OW16471   5.375   0.390   2.305
 5191SOL    HW116472   5.382   0.291   2.317
 5191SOL    HW216473   5.464   0.431   2.319
 5192SOL     OW16474   6.031   4.271   1.871
 5192SOL    HW116475   6.008   4.204   1.941
 5192SOL    HW216476   6.128   4.295   1.878
 5193SOL     OW16477   4.684   4.333   2.184
 5193SOL    HW116478   4.726   4.254   2.227
 5193SOL    HW216479   4.609   4.303   2.125
 5194SOL     OW16480   5.026   1.314   0.326
 5194SOL    HW116481   5.088   1.310   0.404
 5194SOL    HW216482   4.968   1.232   0.325
 5195SOL     OW16483   5.987   6.405   5.333
 5195SOL    HW116484   6.025   6.324   5.378
 5195SOL    HW216485   5.959   6.471   5.403
 5196SOL     OW16486   6.675   3.643   2.435
 5196SOL    HW116487   6.701   3.607   2.524
 5196SOL    HW216488   6.719   3.732   2.420
 5197SOL     OW16489   3.303   5.513   5.520
 5197SOL    HW116490   3.355   5.583   5.568
 5197SOL    HW216491   3.278   5.440   5.584
 5198SOL     OW16492   4.016   1.033   4.720
 5198SOL    HW116493   4.025   0.963   4.791
 5198SOL    HW216494   3.923   1.031   4.683
 5199SOL     OW16495   0.237   5.446   1.481
 5199SOL    HW116496   0.224   5.365   1.539
 5199SOL    HW216497   0.304   5.425   1.410
 5200SOL     OW16498   6.662   0.247   4.989
 5200SOL    HW116499   6.664   0.221   5.086
 5200SOL    HW216500   6.604   0.184   4.938
 5201SOL     OW16501   5.692   4.649   5.608
 5201SOL    HW116502   5.609   4.694   5.576
 5201SOL    HW216503   5.698   4.558   5.568
 5202SOL     OW16504   3.938   2.906   5.731
 5202SOL    HW116505   3.845   2.874   5.747
 5202SOL    HW216506   4.003   2.848   5.781
 5203SOL     OW16507   1.643   0.335   5.931
 5203SOL    HW116508   1.693   0.384   5.860
 5203SOL    HW216509   1.565   0.286   5.890
 5204SOL     OW16510   2.136   0.724   1.442
 5204SOL    HW116511   2.124   0.757   1.535
 5204SOL    HW216512   2.107   0.628   1.437
 5205SOL     OW16513   6.721   0.284   1.602
 5205SOL    HW116514   6.739   0.284   1.503
 5205SOL    HW216515   6.807   0.284   1.652
 5206SOL     OW16516   1.241   4.543   4.092
 5206SOL    HW116517   1.227   4.542   3.993
 5206SOL    HW216518   1.258   4.637   4.122
 5207SOL     OW16519   5.704   6.764   4.775
 5207SOL    HW116520   5.656   6.724   4.696
 5207SOL    HW216521   5.760   6.693   4.819
 5208SOL     OW16522   6.698   2.142   0.463
 5208SOL    HW116523   6.789   2.148   0.423
 5208SOL    HW216524   6.634   2.103   0.396
 5209SOL     OW16525   5.496   6.396   3.732
 5209SOL    HW116526   5.551   6.356   3.805
 5209SOL    HW216527   5.487   6.495   3.747
 5210SOL     OW16528   5.593   4.694   1.171
 5210SOL    HW116529   5.691   4.674   1.165
 5210SOL    HW216530   5.541   4.614   1.142
 5211SOL     OW16531   5.097   2.903   5.094
 5211SOL    HW116532   5.173   2.927   5.155
 5211SOL    HW216533   5.058   2.815   5.123
 5212SOL     OW16534   0.069   4.136   0.719
 5212SOL    HW116535   0.024   4.159   0.633
 5212SOL    HW216536   0.168   4.132   0.706
 5213SOL     OW16537   4.060   3.256   2.555
 5213SOL    HW116538   3.977   3.212   2.522
 5213SOL    HW216539   4.041   3.352   2.576
 5214SOL     OW16540   5.356   3.449   5.752
 5214SOL    HW116541   5.383   3.355   5.772
 5214SOL    HW216542   5.434   3.510   5.769
 5215SOL     OW16543   0.237   4.940   5.313
 5215SOL    HW116544   0.211   5.036   5.303
 5215SOL    HW216545   0.246   4.898   5.223
 5216SOL     OW16546   5.779   4.517   1.696
 5216SOL    HW116547   5.794   4.484   1.789
 5216SOL    HW216548   5.700   4.470   1.656
 5217SOL     OW16549   4.677   6.960   2.765
 5217SOL    HW116550   4.722   0.014   2.810
 5217SOL    HW216551   4.611   6.919   2.827
 5218SOL     OW16552   6.306   0.015   0.706
 5218SOL    HW116553   6.232   6.970   0.702
 5218SOL    HW216554   6.292   0.084   0.635
 5219SOL     OW16555   3.410   1.368   5.249
 5219SOL    HW116556   3.311   1.357   5.242
 5219SOL    HW216557   3.434   1.463   5.230
 5220SOL     OW16558   2.431   5.000   4.600
 5220SOL    HW116559   2.354   4.937   4.607
 5220SOL    HW216560   2.478   5.005   4.688
 5221SOL     OW16561   5.345   6.148   1.302
 5221SOL    HW116562   5.358   6.171   1.399
 5221SOL    HW216563   5.359   6.230   1.246
 5222SOL     OW16564   6.935   3.297   2.151
 5222SOL    HW116565   7.001   3.345   2.093
 5222SOL    HW216566   6.876   3.240   2.093
 5223SOL     OW16567   6.408   2.647   0.706
 5223SOL    HW116568   6.373   2.622   0.796
 5223SOL    HW216569   6.492   2.596   0.688
 5224SOL     OW16570   1.122   1.741   4.905
 5224SOL    HW116571   1.028   1.714   4.885
 5224SOL    HW216572   1.167   1.772   4.821
 5225SOL     OW16573   6.898   2.076   5.191
 5225SOL    HW116574   6.845   2.058   5.108
 5225SOL    HW216575   6.928   2.172   5.190
 5226SOL     OW16576   0.027   6.244   4.587
 5226SOL    HW116577   6.984   6.272   4.518
 5226SOL    HW216578   0.115   6.286   4.567
 5227SOL     OW16579   1.033   3.407   6.043
 5227SOL    HW116580   0.989   3.497   6.033
 5227SOL    HW216581   1.034   3.381   6.139
 5228SOL     OW16582   1.242   1.985   5.179
 5228SOL    HW116583   1.162   1.967   5.121
 5228SOL    HW216584   1.263   1.904   5.233
 5229SOL     OW16585   3.583   2.047   6.158
 5229SOL    HW116586   3.559   2.114   6.228
 5229SOL    HW216587   3.521   2.054   6.081
 5230SOL     OW16588   6.668   0.686   2.524
 5230SOL    HW116589   6.684   0.663   2.428
 5230SOL    HW216590   6.569   0.686   2.541
 5231SOL     OW16591   6.668   3.930   2.387
 5231SOL    HW116592   6.668   4.025   2.418
 5231SOL    HW216593   6.688   3.927   2.289
 5232SOL     OW16594   1.674   2.363   5.704
 5232SOL    HW116595   1.722   2.451   5.708
 5232SOL    HW216596   1.724   2.300   5.644
 5233SOL     OW16597   3.822   6.830   3.438
 5233SOL    HW116598   3.737   6.789   3.472
 5233SOL    HW216599   3.828   6.924   3.469
 5234SOL     OW16600   2.929   2.626   6.286
 5234SOL    HW116601   2.850   2.657   6.233
 5234SOL    HW216602   2.954   2.533   6.258
 5235SOL     OW16603   2.338   1.800   1.764
 5235SOL    HW116604   2.376   1.876   1.817
 5235SOL    HW216605   2.410   1.760   1.707
 5236SOL     OW16606   3.077   4.975   1.947
 5236SOL    HW116607   3.009   5.022   2.003
 5236SOL    HW216608   3.040   4.888   1.915
 5237SOL     OW16609   1.822   1.709   1.804
 5237SOL    HW116610   1.819   1.714   1.704
 5237SOL    HW216611   1.915   1.727   1.836
 5238SOL     OW16612   6.713   0.419   2.865
 5238SOL    HW116613   6.667   0.360   2.932
 5238SOL    HW216614   6.653   0.496   2.844
 5239SOL     OW16615   2.554   4.168   1.115
 5239SOL    HW116616   2.539   4.081   1.161
 5239SOL    HW216617   2.530   4.243   1.176
 5240SOL     OW16618   2.180   4.150   6.266
 5240SOL    HW116619   2.153   4.225   6.327
 5240SOL    HW216620   2.147   4.063   6.304
 5241SOL     OW16621   2.341   6.738   2.730
 5241SOL    HW116622   2.429   6.777   2.759
 5241SOL    HW216623   2.270   6.809   2.735
 5242SOL     OW16624   3.745   6.937   6.018
 5242SOL    HW116625   3.775   6.920   6.111
 5242SOL    HW216626   3.716   0.010   6.009
 5243SOL     OW16627   2.586   5.870   3.130
 5243SOL    HW116628   2.530   5.800   3.175
 5243SOL    HW216629   2.594   5.950   3.190
 5244SOL     OW16630   4.201   0.968   6.689
 5244SOL    HW116631   4.125   0.920   6.734
 5244SOL    HW216632   4.165   1.031   6.621
 5245SOL     OW16633   3.122   4.084   2.039
 5245SOL    HW116634   3.078   4.074   2.129
 5245SOL    HW216635   3.215   4.118   2.051
 5246SOL     OW16636   5.628   3.789   6.224
 5246SOL    HW116637   5.598   3.805   6.318
 5246SOL    HW216638   5.588   3.703   6.190
 5247SOL     OW16639   5.154   1.640   6.647
 5247SOL    HW116640   5.251   1.664   6.643
 5247SOL    HW216641   5.120   1.621   6.555
 5248SOL     OW16642   5.117   1.257   3.792
 5248SOL    HW116643   5.085   1.271   3.699
 5248SOL    HW216644   5.215   1.239   3.791
 5249SOL     OW16645   0.200   4.824   1.234
 5249SOL    HW116646   0.119   4.772   1.262
 5249SOL    HW216647   0.198   4.914   1.279
 5250SOL     OW16648   2.696   5.564   1.205
 5250SOL    HW116649   2.699   5.512   1.291
 5250SOL    HW216650   2.688   5.500   1.128
 5251SOL     OW16651   0.252   4.804   6.957
 5251SOL    HW116652   0.197   4.874   6.912
 5251SOL    HW216653   0.206   4.716   6.951
 5252SOL     OW16654   3.846   5.713   2.821
 5252SOL    HW116655   3.851   5.630   2.877
 5252SOL    HW216656   3.860   5.689   2.725
 5253SOL     OW16657   0.496   6.302   4.988
 5253SOL    HW116658   0.398   6.284   4.995
 5253SOL    HW216659   0.528   6.282   4.896
 5254SOL     OW16660   4.617   5.784   2.845
 5254SOL    HW116661   4.535   5.795   2.790
 5254SOL    HW216662   4.693   5.834   2.803
 5255SOL     OW16663   6.559   1.870   5.602
 5255SOL    HW116664   6.566   1.867   5.702
 5255SOL    HW216665   6.565   1.777   5.565
 5256SOL     OW16666   5.447   1.653   2.830
 5256SOL    HW116667   5.541   1.688   2.835
 5256SOL    HW216668   5.395   1.705   2.762
 5257SOL     OW16669   4.649   2.217   6.730
 5257SOL    HW116670   4.713   2.284   6.693
 5257SOL    HW216671   4.599   2.259   6.807
 5258SOL     OW16672   4.756   1.613   5.051
 5258SOL    HW116673   4.748   1.555   5.132
 5258SOL    HW216674   4.695   1.579   4.980
 5259SOL     OW16675   5.672   5.440   3.689
 5259SOL    HW116676   5.767   5.448   3.718
 5259SOL    HW216677   5.614   5.496   3.748
 5260SOL     OW16678   1.855   5.864   1.619
 5260SOL    HW116679   1.918   5.825   1.552
 5260SOL    HW216680   1.820   5.791   1.678
 5261SOL     OW16681   5.952   4.713   0.201
 5261SOL    HW116682   6.019   4.639   0.190
 5261SOL    HW216683   5.998   4.801   0.189
 5262SOL     OW16684   1.588   1.093   1.723
 5262SOL    HW116685   1.549   1.019   1.668
 5262SOL    HW216686   1.687   1.095   1.710
 5263SOL     OW16687   2.029   6.158   2.969
 5263SOL    HW116688   1.978   6.244   2.980
 5263SOL    HW216689   2.009   6.120   2.878
 5264SOL     OW16690   6.448   2.724   1.721
 5264SOL    HW116691   6.501   2.803   1.690
 5264SOL    HW216692   6.502   2.671   1.786
 5265SOL     OW16693   6.343   5.902   5.468
 5265SOL    HW116694   6.255   5.854   5.471
 5265SOL    HW216695   6.328   5.998   5.444
 5266SOL     OW16696   1.417   6.795   5.936
 5266SOL    HW116697   1.357   6.764   6.010
 5266SOL    HW216698   1.492   6.850   5.974
 5267SOL     OW16699   5.586   1.946   4.049
 5267SOL    HW116700   5.638   1.866   4.021
 5267SOL    HW216701   5.569   2.004   3.970
 5268SOL     OW16702   5.375   6.995   6.048
 5268SOL    HW116703   5.459   7.019   6.097
 5268SOL    HW216704   5.331   6.917   6.092
 5269SOL     OW16705   1.427   0.518   3.910
 5269SOL    HW116706   1.501   0.579   3.939
 5269SOL    HW216707   1.461   0.424   3.904
 5270SOL     OW16708   0.607   1.978   6.264
 5270SOL    HW116709   0.698   2.012   6.240
 5270SOL    HW216710   0.560   1.946   6.181
 5271SOL     OW16711   1.282   4.986   4.312
 5271SOL    HW116712   1.239   4.953   4.396
 5271SOL    HW216713   1.321   5.076   4.328
 5272SOL     OW16714   4.180   0.543   6.362
 5272SOL    HW116715   4.175   0.581   6.454
 5272SOL    HW216716   4.250   0.591   6.310
 5273SOL     OW16717   2.919   1.649   2.790
 5273SOL    HW116718   2.860   1.685   2.717
 5273SOL    HW216719   2.968   1.724   2.833
 5274SOL     OW16720   5.387   5.099   1.413
 5274SOL    HW116721   5.299   5.109   1.367
 5274SOL    HW216722   5.450   5.049   1.354
 5275SOL     OW16723   5.373   1.590   6.214
 5275SOL    HW116724   5.463   1.614   6.250
 5275SOL    HW216725   5.303   1.648   6.256
 5276SOL     OW16726   4.103   6.293   1.752
 5276SOL    HW116727   4.195   6.285   1.713
 5276SOL    HW216728   4.106   6.270   1.850
 5277SOL     OW16729   2.025   2.978   2.035
 5277SOL    HW116730   2.102   2.950   2.093
 5277SOL    HW216731   2.037   3.074   2.009
 5278SOL     OW16732   3.473   3.076   2.197
 5278SOL    HW116733   3.479   3.106   2.102
 5278SOL    HW216734   3.560   3.036   2.225
 5279SOL     OW16735   1.449   6.044   2.994
 5279SOL    HW116736   1.442   6.143   2.979
 5279SOL    HW216737   1.543   6.021   3.019
 5280SOL     OW16738   3.798   1.021   4.575
 5280SOL    HW116739   3.721   1.081   4.555
 5280SOL    HW216740   3.773   0.926   4.555
 5281SOL     OW16741   6.955   2.482   3.872
 5281SOL    HW116742   0.017   2.534   3.867
 5281SOL    HW216743   6.973   2.394   3.916
 5282SOL     OW16744   4.884   2.178   1.103
 5282SOL    HW116745   4.868   2.091   1.151
 5282SOL    HW216746   4.903   2.160   1.007
 5283SOL     OW16747   4.460   4.522   6.259
 5283SOL    HW116748   4.535   4.588   6.266
 5283SOL    HW216749   4.474   4.463   6.180
 5284SOL     OW16750   5.114   3.005   3.859
 5284SOL    HW116751   5.120   2.919   3.909
 5284SOL    HW216752   5.055   3.068   3.909
 5285SOL     OW16753   4.256   6.365   2.607
 5285SOL    HW116754   4.344   6.395   2.644
 5285SOL    HW216755   4.242   6.268   2.628
 5286SOL     OW16756   2.061   4.885   1.901
 5286SOL    HW116757   1.965   4.859   1.891
 5286SOL    HW216758   2.067   4.970   1.954
 5287SOL     OW16759   0.651   1.081   2.457
 5287SOL    HW116760   0.730   1.103   2.514
 5287SOL    HW216761   0.677   1.014   2.387
 5288SOL     OW16762   4.374   0.189   0.807
 5288SOL    HW116763   4.303   0.236   0.861
 5288SOL    HW216764   4.378   0.229   0.716
 5289SOL     OW16765   1.255   6.235   1.367
 5289SOL    HW116766   1.314   6.264   1.443
 5289SOL    HW216767   1.216   6.316   1.323
 5290SOL     OW16768   5.913   5.776   0.174
 5290SOL    HW116769   5.930   5.871   0.203
 5290SOL    HW216770   5.870   5.776   0.084
 5291SOL     OW16771   0.972   5.676   6.366
 5291SOL    HW116772   0.887   5.633   6.335
 5291SOL    HW216773   1.046   5.610   6.364
 5292SOL     OW16774   5.516   1.336   1.036
 5292SOL    HW116775   5.530   1.435   1.035
 5292SOL    HW216776   5.546   1.297   0.949
 5293SOL     OW16777   1.513   1.637   4.358
 5293SOL    HW116778   1.415   1.622   4.345
 5293SOL    HW216779   1.527   1.712   4.423
 5294SOL     OW16780   4.177   2.888   6.139
 5294SOL    HW116781   4.125   2.842   6.210
 5294SOL    HW216782   4.181   2.986   6.159
 5295SOL     OW16783   6.380   1.753   2.641
 5295SOL    HW116784   6.309   1.718   2.579
 5295SOL    HW216785   6.336   1.793   2.721
 5296SOL     OW16786   0.498   3.110   6.629
 5296SOL    HW116787   0.583   3.082   6.674
 5296SOL    HW216788   0.484   3.055   6.547
 5297SOL     OW16789   1.086   2.663   1.842
 5297SOL    HW116790   1.130   2.753   1.844
 5297SOL    HW216791   1.147   2.597   1.798
 5298SOL     OW16792   1.229   4.350   1.712
 5298SOL    HW116793   1.171   4.430   1.696
 5298SOL    HW216794   1.267   4.354   1.804
 5299SOL     OW16795   2.877   0.182   0.557
 5299SOL    HW116796   2.920   0.094   0.580
 5299SOL    HW216797   2.935   0.256   0.590
 5300SOL     OW16798   0.343   5.264   3.983
 5300SOL    HW116799   0.301   5.177   4.009
 5300SOL    HW216800   0.335   5.329   4.059
 5301SOL     OW16801   4.666   0.213   6.826
 5301SOL    HW116802   4.736   0.242   6.892
 5301SOL    HW216803   4.674   0.268   6.743
 5302SOL     OW16804   6.660   4.043   3.568
 5302SOL    HW116805   6.572   4.038   3.521
 5302SOL    HW216806   6.728   3.993   3.515
 5303SOL     OW16807   1.822   4.799   3.453
 5303SOL    HW116808   1.868   4.884   3.426
 5303SOL    HW216809   1.794   4.749   3.371
 5304SOL     OW16810   4.429   2.954   5.611
 5304SOL    HW116811   4.378   2.954   5.525
 5304SOL    HW216812   4.524   2.980   5.593
 5305SOL     OW16813   3.262   1.547   4.207
 5305SOL    HW116814   3.304   1.548   4.116
 5305SOL    HW216815   3.331   1.519   4.274
 5306SOL     OW16816   2.123   6.356   4.461
 5306SOL    HW116817   2.069   6.338   4.379
 5306SOL    HW216818   2.093   6.442   4.502
 5307SOL     OW16819   4.775   0.247   0.123
 5307SOL    HW116820   4.862   0.276   0.085
 5307SOL    HW216821   4.730   0.326   0.165
 5308SOL     OW16822   6.365   1.335   1.807
 5308SOL    HW116823   6.384   1.410   1.870
 5308SOL    HW216824   6.301   1.366   1.737
 5309SOL     OW16825   3.794   3.755   5.031
 5309SOL    HW116826   3.707   3.735   5.077
 5309SOL    HW216827   3.788   3.726   4.936
 5310SOL     OW16828   5.255   2.907   0.745
 5310SOL    HW116829   5.160   2.880   0.760
 5310SOL    HW216830   5.303   2.836   0.693
 5311SOL     OW16831   0.288   6.347   6.843
 5311SOL    HW116832   0.299   6.361   6.744
 5311SOL    HW216833   0.367   6.297   6.878
 5312SOL     OW16834   0.546   3.129   2.038
 5312SOL    HW116835   0.451   3.158   2.046
 5312SOL    HW216836   0.598   3.199   1.988
 5313SOL     OW16837   0.378   6.117   0.719
 5313SOL    HW116838   0.312   6.137   0.792
 5313SOL    HW216839   0.471   6.121   0.755
 5314SOL     OW16840   3.596   5.145   1.344
 5314SOL    HW116841   3.692   5.149   1.317
 5314SOL    HW216842   3.567   5.234   1.381
 5315SOL     OW16843   5.642   2.192   2.364
 5315SOL    HW116844   5.636   2.226   2.270
 5315SOL    HW216845   5.737   2.169   2.385
 5316SOL     OW16846   5.706   5.318   4.045
 5316SOL    HW116847   5.678   5.282   4.134
 5316SOL    HW216848   5.725   5.242   3.982
 5317SOL     OW16849   6.671   5.467   2.389
 5317SOL    HW116850   6.610   5.431   2.318
 5317SOL    HW216851   6.712   5.552   2.357
 5318SOL     OW16852   0.622   2.928   4.018
 5318SOL    HW116853   0.622   2.833   4.048
 5318SOL    HW216854   0.575   2.984   4.087
 5319SOL     OW16855   3.147   6.744   2.691
 5319SOL    HW116856   3.141   6.661   2.637
 5319SOL    HW216857   3.240   6.779   2.690
 5320SOL     OW16858   6.988   3.082   6.476
 5320SOL    HW116859   0.021   3.151   6.430
 5320SOL    HW216860   6.894   3.088   6.443
 5321SOL     OW16861   2.701   4.206   6.456
 5321SOL    HW116862   2.727   4.271   6.385
 5321SOL    HW216863   2.603   4.211   6.473
 5322SOL     OW16864   2.346   5.724   0.913
 5322SOL    HW116865   2.260   5.759   0.875
 5322SOL    HW216866   2.400   5.801   0.947
 5323SOL     OW16867   5.420   3.200   0.350
 5323SOL    HW116868   5.437   3.182   0.446
 5323SOL    HW216869   5.436   3.297   0.330
 5324SOL     OW16870   4.354   2.817   1.133
 5324SOL    HW116871   4.437   2.811   1.189
 5324SOL    HW216872   4.297   2.737   1.149
 5325SOL     OW16873   4.056   6.059   4.689
 5325SOL    HW116874   3.981   6.099   4.636
 5325SOL    HW216875   4.071   5.965   4.659
 5326SOL     OW16876   0.343   0.507   2.225
 5326SOL    HW116877   0.314   0.489   2.131
 5326SOL    HW216878   0.412   0.440   2.253
 5327SOL     OW16879   0.038   0.665   3.833
 5327SOL    HW116880   7.005   0.673   3.751
 5327SOL    HW216881   7.019   0.716   3.908
 5328SOL     OW16882   3.677   4.972   0.310
 5328SOL    HW116883   3.663   4.915   0.391
 5328SOL    HW216884   3.774   4.968   0.283
 5329SOL     OW16885   0.304   5.401   6.433
 5329SOL    HW116886   0.215   5.370   6.467
 5329SOL    HW216887   0.350   5.326   6.386
 5330SOL     OW16888   3.562   4.541   0.615
 5330SOL    HW116889   3.563   4.516   0.712
 5330SOL    HW216890   3.480   4.503   0.571
 5331SOL     OW16891   5.494   1.126   6.842
 5331SOL    HW116892   5.521   1.117   6.747
 5331SOL    HW216893   5.424   1.058   6.864
 5332SOL     OW16894   6.347   3.006   0.190
 5332SOL    HW116895   6.294   3.017   0.274
 5332SOL    HW216896   6.414   3.079   0.183
 5333SOL     OW16897   1.174   0.690   3.860
 5333SOL    HW116898   1.082   0.651   3.867
 5333SOL    HW216899   1.241   0.616   3.851
 5334SOL     OW16900   3.178   6.355   1.449
 5334SOL    HW116901   3.122   6.436   1.438
 5334SOL    HW216902   3.275   6.382   1.451
 5335SOL     OW16903   0.210   4.652   2.253
 5335SOL    HW116904   0.251   4.563   2.233
 5335SOL    HW216905   0.216   4.711   2.173
 5336SOL     OW16906   1.822   3.403   5.195
 5336SOL    HW116907   1.842   3.501   5.191
 5336SOL    HW216908   1.724   3.388   5.191
 5337SOL     OW16909   6.606   3.343   1.352
 5337SOL    HW116910   6.550   3.343   1.435
 5337SOL    HW216911   6.672   3.267   1.356
 5338SOL     OW16912   6.880   3.345   1.046
 5338SOL    HW116913   6.943   3.292   0.989
 5338SOL    HW216914   6.923   3.364   1.134
 5339SOL     OW16915   5.534   2.778   2.833
 5339SOL    HW116916   5.440   2.747   2.847
 5339SOL    HW216917   5.589   2.702   2.796
 5340SOL     OW16918   4.946   3.397   1.518
 5340SOL    HW116919   4.963   3.484   1.564
 5340SOL    HW216920   4.849   3.376   1.521
 5341SOL     OW16921   4.931   4.968   3.482
 5341SOL    HW116922   4.837   4.982   3.513
 5341SOL    HW216923   4.942   5.007   3.390
 5342SOL     OW16924   6.286   5.906   4.517
 5342SOL    HW116925   6.265   5.809   4.511
 5342SOL    HW216926   6.327   5.937   4.431
 5343SOL     OW16927   3.876   3.407   6.703
 5343SOL    HW116928   3.813   3.460   6.646
 5343SOL    HW216929   3.955   3.464   6.726
 5344SOL     OW16930   6.443   1.888   6.948
 5344SOL    HW116931   6.496   1.965   6.915
 5344SOL    HW216932   6.478   1.803   6.908
 5345SOL     OW16933   3.477   1.685   0.517
 5345SOL    HW116934   3.547   1.703   0.448
 5345SOL    HW216935   3.512   1.712   0.607
 5346SOL     OW16936   2.724   6.651   3.311
 5346SOL    HW116937   2.794   6.585   3.337
 5346SOL    HW216938   2.640   6.603   3.288
 5347SOL     OW16939   5.429   1.740   5.195
 5347SOL    HW116940   5.463   1.819   5.144
 5347SOL    HW216941   5.462   1.744   5.289
 5348SOL     OW16942   4.884   2.912   5.331
 5348SOL    HW116943   4.946   2.953   5.398
 5348SOL    HW216944   4.865   2.979   5.259
 5349SOL     OW16945   0.994   4.202   1.417
 5349SOL    HW116946   0.910   4.252   1.438
 5349SOL    HW216947   0.970   4.116   1.371
 5350SOL     OW16948   0.742   6.759   5.979
 5350SOL    HW116949   0.834   6.782   6.010
 5350SOL    HW216950   0.740   6.758   5.879
 5351SOL     OW16951   0.319   5.793   3.342
 5351SOL    HW116952   0.302   5.770   3.246
 5351SOL    HW216953   0.415   5.775   3.364
 5352SOL     OW16954   1.379   2.658   5.778
 5352SOL    HW116955   1.452   2.676   5.712
 5352SOL    HW216956   1.354   2.561   5.774
 5353SOL     OW16957   2.990   6.574   3.614
 5353SOL    HW116958   2.946   6.525   3.689
 5353SOL    HW216959   3.033   6.658   3.649
 5354SOL     OW16960   3.910   5.870   1.956
 5354SOL    HW116961   3.979   5.839   1.891
 5354SOL    HW216962   3.918   5.819   2.041
 5355SOL     OW16963   5.046   5.732   5.215
 5355SOL    HW116964   5.021   5.825   5.241
 5355SOL    HW216965   5.056   5.726   5.116
 5356SOL     OW16966   1.138   6.487   1.629
 5356SOL    HW116967   1.193   6.538   1.563
 5356SOL    HW216968   1.068   6.548   1.668
 5357SOL     OW16969   6.229   3.250   2.573
 5357SOL    HW116970   6.206   3.344   2.550
 5357SOL    HW216971   6.187   3.189   2.506
 5358SOL     OW16972   5.992   0.887   6.456
 5358SOL    HW116973   6.073   0.867   6.400
 5358SOL    HW216974   5.926   0.812   6.448
 5359SOL     OW16975   3.025   2.370   6.890
 5359SOL    HW116976   2.956   2.391   6.960
 5359SOL    HW216977   3.048   2.273   6.894
 5360SOL     OW16978   5.607   5.862   3.772
 5360SOL    HW116979   5.554   5.885   3.690
 5360SOL    HW216980   5.663   5.941   3.798
 5361SOL     OW16981   1.856   3.843   3.411
 5361SOL    HW116982   1.926   3.881   3.350
 5361SOL    HW216983   1.883   3.856   3.506
 5362SOL     OW16984   6.519   1.187   3.383
 5362SOL    HW116985   6.551   1.129   3.308
 5362SOL    HW216986   6.510   1.133   3.466
 5363SOL     OW16987   5.657   5.604   4.090
 5363SOL    HW116988   5.754   5.629   4.089
 5363SOL    HW216989   5.647   5.510   4.058
 5364SOL     OW16990   4.818   2.397   2.226
 5364SOL    HW116991   4.768   2.311   2.232
 5364SOL    HW216992   4.753   2.473   2.217
 5365SOL     OW16993   3.212   3.815   5.439
 5365SOL    HW116994   3.248   3.904   5.408
 5365SOL    HW216995   3.286   3.748   5.441
 5366SOL     OW16996   0.579   4.806   3.298
 5366SOL    HW116997   0.672   4.826   3.329
 5366SOL    HW216998   0.575   4.815   3.198
 5367SOL     OW16999   6.176   6.173   1.166
 5367SOL    HW117000   6.101   6.132   1.217
 5367SOL    HW217001   6.183   6.270   1.189
 5368SOL     OW17002   0.328   5.532   5.010
 5368SOL    HW117003   0.413   5.501   5.052
 5368SOL    HW217004   0.253   5.522   5.075
 5369SOL     OW17005   4.528   6.919   2.986
 5369SOL    HW117006   4.505   6.987   3.056
 5369SOL    HW217007   4.575   6.842   3.029
 5370SOL     OW17008   2.585   2.037   0.649
 5370SOL    HW117009   2.504   2.026   0.591
 5370SOL    HW217010   2.647   1.961   0.635
 5371SOL     OW17011   5.852   5.342   3.490
 5371SOL    HW117012   5.777   5.368   3.552
 5371SOL    HW217013   5.814   5.322   3.399
 5372SOL     OW17014   1.538   0.224   3.724
 5372SOL    HW117015   1.564   0.236   3.628
 5372SOL    HW217016   1.604   0.165   3.769
 5373SOL     OW17017   3.111   0.710   6.868
 5373SOL    HW117018   3.092   0.794   6.918
 5373SOL    HW217019   3.209   0.689   6.874
 5374SOL     OW17020   1.548   3.944   1.163
 5374SOL    HW117021   1.484   3.951   1.087
 5374SOL    HW217022   1.539   4.024   1.222
 5375SOL     OW17023   2.613   4.671   4.885
 5375SOL    HW117024   2.555   4.603   4.930
 5375SOL    HW217025   2.709   4.653   4.909
 5376SOL     OW17026   1.007   0.982   1.277
 5376SOL    HW117027   1.023   0.948   1.185
 5376SOL    HW217028   1.059   1.066   1.291
 5377SOL     OW17029   0.618   2.329   2.178
 5377SOL    HW117030   0.616   2.246   2.122
 5377SOL    HW217031   0.607   2.304   2.274
 5378SOL     OW17032   5.509   0.018   2.629
 5378SOL    HW117033   5.535   6.974   2.698
 5378SOL    HW217034   5.456   0.092   2.671
 5379SOL     OW17035   2.500   1.910   3.902
 5379SOL    HW117036   2.469   1.816   3.890
 5379SOL    HW217037   2.592   1.920   3.864
 5380SOL     OW17038   5.079   6.483   1.202
 5380SOL    HW117039   5.148   6.530   1.257
 5380SOL    HW217040   5.068   6.389   1.236
 5381SOL     OW17041   3.468   2.013   3.017
 5381SOL    HW117042   3.465   2.103   2.974
 5381SOL    HW217043   3.537   2.012   3.089
 5382SOL     OW17044   4.309   0.321   2.593
 5382SOL    HW117045   4.258   0.405   2.611
 5382SOL    HW217046   4.276   0.248   2.654
 5383SOL     OW17047   2.488   3.531   5.383
 5383SOL    HW117048   2.449   3.606   5.329
 5383SOL    HW217049   2.414   3.480   5.427
 5384SOL     OW17050   4.948   6.796   6.214
 5384SOL    HW117051   5.011   6.859   6.259
 5384SOL    HW217052   4.854   6.821   6.234
 5385SOL     OW17053   3.135   3.152   0.160
 5385SOL    HW117054   3.203   3.103   0.106
 5385SOL    HW217055   3.181   3.198   0.236
 5386SOL     OW17056   4.207   4.940   3.436
 5386SOL    HW117057   4.256   5.022   3.406
 5386SOL    HW217058   4.154   4.903   3.360
 5387SOL     OW17059   1.209   2.670   4.135
 5387SOL    HW117060   1.233   2.669   4.232
 5387SOL    HW217061   1.281   2.716   4.084
 5388SOL     OW17062   6.796   6.286   3.670
 5388SOL    HW117063   6.871   6.352   3.681
 5388SOL    HW217064   6.777   6.274   3.573
 5389SOL     OW17065   5.155   1.659   4.319
 5389SOL    HW117066   5.216   1.699   4.252
 5389SOL    HW217067   5.065   1.703   4.313
 5390SOL     OW17068   5.674   3.496   3.497
 5390SOL    HW117069   5.602   3.472   3.562
 5390SOL    HW217070   5.756   3.444   3.517
 5391SOL     OW17071   4.888   2.735   1.375
 5391SOL    HW117072   4.883   2.635   1.379
 5391SOL    HW217073   4.865   2.765   1.282
 5392SOL     OW17074   5.335   0.374   4.420
 5392SOL    HW117075   5.237   0.357   4.432
 5392SOL    HW217076   5.368   0.321   4.341
 5393SOL     OW17077   3.985   1.564   3.430
 5393SOL    HW117078   3.941   1.634   3.485
 5393SOL    HW217079   3.938   1.476   3.443
 5394SOL     OW17080   0.003   2.801   2.247
 5394SOL    HW117081   6.989   2.804   2.340
 5394SOL    HW217082   0.097   2.767   2.250
 5395SOL     OW17083   0.154   1.405   1.076
 5395SOL    HW117084   0.060   1.372   1.071
 5395SOL    HW217085   0.189   1.393   1.169
 5396SOL     OW17086   4.171   2.628   1.126
 5396SOL    HW117087   4.087   2.641   1.074
 5396SOL    HW217088   4.160   2.552   1.190
 5397SOL     OW17089   0.212   0.381   1.948
 5397SOL    HW117090   0.258   0.295   1.926
 5397SOL    HW217091   0.166   0.372   2.036
 5398SOL     OW17092   6.101   2.381   3.663
 5398SOL    HW117093   6.014   2.334   3.651
 5398SOL    HW217094   6.173   2.329   3.617
 5399SOL     OW17095   2.335   3.090   0.537
 5399SOL    HW117096   2.390   3.072   0.455
 5399SOL    HW217097   2.373   3.040   0.615
 5400SOL     OW17098   5.271   3.135   1.303
 5400SOL    HW117099   5.201   3.073   1.338
 5400SOL    HW217100   5.242   3.230   1.319
 5401SOL     OW17101   5.107   3.203   1.668
 5401SOL    HW117102   5.077   3.268   1.598
 5401SOL    HW217103   5.027   3.161   1.710
 5402SOL     OW17104   1.587   5.783   1.819
 5402SOL    HW117105   1.527   5.810   1.744
 5402SOL    HW217106   1.561   5.691   1.851
 5403SOL     OW17107   6.075   2.202   6.096
 5403SOL    HW117108   6.167   2.193   6.132
 5403SOL    HW217109   6.075   2.268   6.020
 5404SOL     OW17110   4.773   6.436   0.509
 5404SOL    HW117111   4.686   6.392   0.531
 5404SOL    HW217112   4.799   6.498   0.582
 5405SOL     OW17113   0.086   5.244   6.494
 5405SOL    HW117114   0.128   5.153   6.501
 5405SOL    HW217115   0.034   5.262   6.577
 5406SOL     OW17116   2.551   0.756   5.316
 5406SOL    HW117117   2.548   0.843   5.267
 5406SOL    HW217118   2.488   0.691   5.273
 5407SOL     OW17119   1.833   0.249   2.754
 5407SOL    HW117120   1.850   0.317   2.826
 5407SOL    HW217121   1.913   0.245   2.693
 5408SOL     OW17122   1.847   2.363   4.499
 5408SOL    HW117123   1.887   2.298   4.434
 5408SOL    HW217124   1.750   2.342   4.511
 5409SOL     OW17125   0.850   3.186   2.742
 5409SOL    HW117126   0.909   3.116   2.701
 5409SOL    HW217127   0.778   3.211   2.677
 5410SOL     OW17128   5.860   2.259   0.291
 5410SOL    HW117129   5.865   2.178   0.350
 5410SOL    HW217130   5.765   2.286   0.278
 5411SOL     OW17131   3.062   5.448   1.490
 5411SOL    HW117132   3.138   5.397   1.450
 5411SOL    HW217133   3.029   5.516   1.424
 5412SOL     OW17134   1.386   2.367   5.663
 5412SOL    HW117135   1.485   2.359   5.665
 5412SOL    HW217136   1.345   2.294   5.717
 5413SOL     OW17137   0.052   5.625   5.829
 5413SOL    HW117138   0.130   5.631   5.891
 5413SOL    HW217139   0.082   5.646   5.736
 5414SOL     OW17140   5.618   5.610   6.218
 5414SOL    HW117141   5.617   5.511   6.229
 5414SOL    HW217142   5.706   5.639   6.180
 5415SOL     OW17143   1.739   1.421   6.220
 5415SOL    HW117144   1.815   1.389   6.276
 5415SOL    HW217145   1.720   1.353   6.149
 5416SOL     OW17146   3.565   5.891   6.399
 5416SOL    HW117147   3.625   5.823   6.442
 5416SOL    HW217148   3.575   5.978   6.445
 5417SOL     OW17149   5.676   0.168   2.423
 5417SOL    HW117150   5.599   0.146   2.483
 5417SOL    HW217151   5.746   0.216   2.477
 5418SOL     OW17152   0.413   3.791   5.612
 5418SOL    HW117153   0.381   3.840   5.693
 5418SOL    HW217154   0.348   3.807   5.537
 5419SOL     OW17155   3.913   1.407   6.195
 5419SOL    HW117156   3.907   1.503   6.220
 5419SOL    HW217157   3.984   1.394   6.126
 5420SOL     OW17158   1.634   2.060   0.732
 5420SOL    HW117159   1.593   2.145   0.699
 5420SOL    HW217160   1.584   2.029   0.813
 5421SOL     OW17161   4.274   5.117   1.738
 5421SOL    HW117162   4.218   5.199   1.742
 5421SOL    HW217163   4.371   5.142   1.742
 5422SOL     OW17164   2.586   6.154   3.296
 5422SOL    HW117165   2.643   6.196   3.366
 5422SOL    HW217166   2.494   6.193   3.299
 5423SOL     OW17167   4.072   6.879   1.452
 5423SOL    HW117168   4.022   6.965   1.443
 5423SOL    HW217169   4.018   6.804   1.413
 5424SOL     OW17170   3.789   3.858   5.340
 5424SOL    HW117171   3.727   3.781   5.350
 5424SOL    HW217172   3.846   3.866   5.422
 5425SOL     OW17173   1.494   5.049   5.342
 5425SOL    HW117174   1.487   5.114   5.266
 5425SOL    HW217175   1.565   4.982   5.323
 5426SOL     OW17176   0.947   4.250   6.919
 5426SOL    HW117177   0.948   4.350   6.912
 5426SOL    HW217178   1.033   4.219   6.958
 5427SOL     OW17179   4.831   2.265   0.360
 5427SOL    HW117180   4.775   2.300   0.435
 5427SOL    HW217181   4.822   2.325   0.281
 5428SOL     OW17182   4.464   5.817   3.112
 5428SOL    HW117183   4.510   5.804   3.024
 5428SOL    HW217184   4.379   5.764   3.113
 5429SOL     OW17185   2.312   6.358   4.056
 5429SOL    HW117186   2.253   6.439   4.059
 5429SOL    HW217187   2.370   6.362   3.975
 5430SOL     OW17188   1.264   4.204   5.144
 5430SOL    HW117189   1.295   4.261   5.069
 5430SOL    HW217190   1.220   4.122   5.107
 5431SOL     OW17191   5.120   4.586   1.444
 5431SOL    HW117192   5.215   4.617   1.442
 5431SOL    HW217193   5.069   4.629   1.369
 5432SOL     OW17194   0.580   5.089   6.339
 5432SOL    HW117195   0.643   5.014   6.320
 5432SOL    HW217196   0.534   5.116   6.255
 5433SOL     OW17197   2.864   0.122   1.289
 5433SOL    HW117198   2.922   0.040   1.287
 5433SOL    HW217199   2.867   0.163   1.380
 5434SOL     OW17200   5.261   6.195   4.035
 5434SOL    HW117201   5.289   6.169   3.943
 5434SOL    HW217202   5.264   6.114   4.095
 5435SOL     OW17203   6.891   3.832   6.508
 5435SOL    HW117204   6.802   3.875   6.521
 5435SOL    HW217205   6.922   3.850   6.414
 5436SOL     OW17206   2.066   4.510   1.824
 5436SOL    HW117207   1.986   4.568   1.840
 5436SOL    HW217208   2.044   4.442   1.754
 5437SOL     OW17209   3.378   6.171   0.091
 5437SOL    HW117210   3.329   6.243   0.043
 5437SOL    HW217211   3.415   6.105   0.025
 5438SOL     OW17212   5.904   6.949   2.559
 5438SOL    HW117213   5.826   6.940   2.497
 5438SOL    HW217214   5.920   0.023   2.578
 5439SOL     OW17215   1.713   3.821   1.787
 5439SOL    HW117216   1.642   3.844   1.854
 5439SOL    HW217217   1.796   3.871   1.809
 5440SOL     OW17218   6.340   6.919   3.749
 5440SOL    HW117219   6.353   6.977   3.668
 5440SOL    HW217220   6.256   6.945   3.796
 5441SOL     OW17221   5.858   2.036   4.671
 5441SOL    HW117222   5.797   1.965   4.706
 5441SOL    HW217223   5.805   2.120   4.654
 5442SOL     OW17224   2.433   0.052   6.588
 5442SOL    HW117225   2.421   0.151   6.579
 5442SOL    HW217226   2.369   0.005   6.527
 5443SOL     OW17227   5.967   0.688   3.513
 5443SOL    HW117228   5.897   0.695   3.584
 5443SOL    HW217229   5.977   0.593   3.484
 5444SOL     OW17230   1.032   1.298   5.860
 5444SOL    HW117231   0.961   1.350   5.812
 5444SOL    HW217232   1.121   1.341   5.842
 5445SOL     OW17233   5.971   6.751   5.136
 5445SOL    HW117234   5.925   6.738   5.224
 5445SOL    HW217235   6.008   6.843   5.131
 5446SOL     OW17236   1.440   5.322   5.685
 5446SOL    HW117237   1.455   5.399   5.622
 5446SOL    HW217238   1.433   5.357   5.779
 5447SOL     OW17239   6.213   2.175   1.345
 5447SOL    HW117240   6.237   2.102   1.282
 5447SOL    HW217241   6.213   2.140   1.439
 5448SOL     OW17242   6.496   4.796   1.901
 5448SOL    HW117243   6.532   4.771   1.812
 5448SOL    HW217244   6.441   4.879   1.892
 5449SOL     OW17245   1.920   6.636   2.136
 5449SOL    HW117246   1.981   6.712   2.114
 5449SOL    HW217247   1.880   6.600   2.052
 5450SOL     OW17248   4.651   5.647   1.469
 5450SOL    HW117249   4.575   5.671   1.409
 5450SOL    HW217250   4.619   5.644   1.564
 5451SOL     OW17251   0.499   6.522   3.782
 5451SOL    HW117252   0.487   6.616   3.814
 5451SOL    HW217253   0.503   6.520   3.682
 5452SOL     OW17254   2.365   4.333   2.987
 5452SOL    HW117255   2.297   4.379   3.044
 5452SOL    HW217256   2.434   4.291   3.045
 5453SOL     OW17257   5.720   4.792   4.092
 5453SOL    HW117258   5.662   4.718   4.126
 5453SOL    HW217259   5.712   4.799   3.993
 5454SOL     OW17260   5.849   4.197   2.574
 5454SOL    HW117261   5.801   4.273   2.531
 5454SOL    HW217262   5.946   4.203   2.553
 5455SOL     OW17263   2.736   2.229   3.135
 5455SOL    HW117264   2.656   2.169   3.140
 5455SOL    HW217265   2.706   2.321   3.110
 5456SOL     OW17266   5.435   2.419   0.690
 5456SOL    HW117267   5.381   2.424   0.774
 5456SOL    HW217268   5.529   2.392   0.712
 5457SOL     OW17269   6.952   1.222   0.041
 5457SOL    HW117270   0.017   1.183   0.069
 5457SOL    HW217271   6.945   1.316   0.075
 5458SOL     OW17272   5.615   4.481   5.889
 5458SOL    HW117273   5.592   4.528   5.805
 5458SOL    HW217274   5.557   4.514   5.964
 5459SOL     OW17275   2.163   3.097   5.080
 5459SOL    HW117276   2.107   3.024   5.041
 5459SOL    HW217277   2.255   3.063   5.096
 5460SOL     OW17278   0.407   0.588   1.317
 5460SOL    HW117279   0.313   0.614   1.342
 5460SOL    HW217280   0.468   0.607   1.394
 5461SOL     OW17281   6.180   1.465   6.806
 5461SOL    HW117282   6.140   1.549   6.768
 5461SOL    HW217283   6.211   1.482   6.899
 5462SOL     OW17284   5.117   5.428   6.206
 5462SOL    HW117285   5.146   5.344   6.251
 5462SOL    HW217286   5.196   5.488   6.190
 5463SOL     OW17287   1.963   5.058   5.967
 5463SOL    HW117288   2.041   5.040   6.027
 5463SOL    HW217289   1.880   5.066   6.022
 5464SOL     OW17290   2.104   5.527   4.426
 5464SOL    HW117291   2.149   5.596   4.370
 5464SOL    HW217292   2.173   5.470   4.471
 5465SOL     OW17293   0.706   0.391   5.074
 5465SOL    HW117294   0.636   0.325   5.046
 5465SOL    HW217295   0.769   0.348   5.138
 5466SOL     OW17296   5.019   2.485   5.013
 5466SOL    HW117297   5.075   2.477   4.931
 5466SOL    HW217298   4.971   2.398   5.030
 5467SOL     OW17299   6.149   3.469   4.356
 5467SOL    HW117300   6.183   3.496   4.266
 5467SOL    HW217301   6.098   3.545   4.397
 5468SOL     OW17302   6.926   2.723   1.524
 5468SOL    HW117303   7.023   2.708   1.547
 5468SOL    HW217304   6.919   2.793   1.454
 5469SOL     OW17305   4.025   2.013   3.724
 5469SOL    HW117306   3.925   2.017   3.725
 5469SOL    HW217307   4.061   2.073   3.795
 5470SOL     OW17308   3.221   5.128   3.260
 5470SOL    HW117309   3.294   5.140   3.327
 5470SOL    HW217310   3.142   5.184   3.286
 5471SOL     OW17311   5.587   0.903   3.101
 5471SOL    HW117312   5.554   0.969   3.168
 5471SOL    HW217313   5.618   0.951   3.019
 5472SOL     OW17314   2.330   3.721   6.680
 5472SOL    HW117315   2.415   3.773   6.692
 5472SOL    HW217316   2.252   3.782   6.693
 5473SOL     OW17317   2.909   4.738   2.237
 5473SOL    HW117318   2.895   4.673   2.163
 5473SOL    HW217319   2.832   4.802   2.241
 5474SOL     OW17320   1.128   4.828   2.044
 5474SOL    HW117321   1.203   4.770   2.013
 5474SOL    HW217322   1.041   4.778   2.035
 5475SOL     OW17323   1.296   1.036   5.322
 5475SOL    HW117324   1.280   1.039   5.223
 5475SOL    HW217325   1.375   0.977   5.341
 5476SOL     OW17326   2.195   0.984   4.709
 5476SOL    HW117327   2.137   0.945   4.781
 5476SOL    HW217328   2.188   1.084   4.711
 5477SOL     OW17329   2.184   3.066   2.997
 5477SOL    HW117330   2.188   2.983   2.942
 5477SOL    HW217331   2.178   3.146   2.937
 5478SOL     OW17332   6.067   4.087   5.910
 5478SOL    HW117333   6.086   4.164   5.851
 5478SOL    HW217334   5.996   4.112   5.976
 5479SOL     OW17335   5.613   3.241   4.362
 5479SOL    HW117336   5.698   3.282   4.395
 5479SOL    HW217337   5.602   3.262   4.265
 5480SOL     OW17338   1.459   3.576   4.669
 5480SOL    HW117339   1.380   3.539   4.620
 5480SOL    HW217340   1.543   3.539   4.629
 5481SOL     OW17341   3.955   1.221   6.569
 5481SOL    HW117342   3.998   1.131   6.558
 5481SOL    HW217343   3.894   1.239   6.492
 5482SOL     OW17344   5.643   3.796   2.314
 5482SOL    HW117345   5.637   3.740   2.397
 5482SOL    HW217346   5.699   3.750   2.246
 5483SOL     OW17347   6.500   2.819   0.289
 5483SOL    HW117348   6.446   2.886   0.239
 5483SOL    HW217349   6.557   2.866   0.357
 5484SOL     OW17350   6.393   0.538   5.491
 5484SOL    HW117351   6.482   0.556   5.534
 5484SOL    HW217352   6.407   0.491   5.404
 5485SOL     OW17353   2.999   0.510   4.387
 5485SOL    HW117354   3.056   0.482   4.465
 5485SOL    HW217355   3.039   0.591   4.344
 5486SOL     OW17356   1.007   0.612   3.636
 5486SOL    HW117357   0.970   0.603   3.729
 5486SOL    HW217358   1.065   0.533   3.616
 5487SOL     OW17359   4.169   5.359   1.659
 5487SOL    HW117360   4.078   5.350   1.700
 5487SOL    HW217361   4.173   5.441   1.603
 5488SOL     OW17362   4.756   1.480   5.507
 5488SOL    HW117363   4.703   1.407   5.550
 5488SOL    HW217364   4.696   1.534   5.448
 5489SOL     OW17365   6.823   4.340   2.154
 5489SOL    HW117366   6.750   4.316   2.219
 5489SOL    HW217367   6.866   4.425   2.183
 5490SOL     OW17368   2.730   1.981   6.234
 5490SOL    HW117369   2.773   2.044   6.169
 5490SOL    HW217370   2.755   1.887   6.210
 5491SOL     OW17371   0.416   5.770   2.539
 5491SOL    HW117372   0.343   5.804   2.598
 5491SOL    HW217373   0.406   5.809   2.447
 5492SOL     OW17374   1.148   1.364   4.376
 5492SOL    HW117375   1.234   1.330   4.416
 5492SOL    HW217376   1.162   1.456   4.341
 5493SOL     OW17377   2.907   1.849   0.885
 5493SOL    HW117378   2.873   1.943   0.891
 5493SOL    HW217379   2.971   1.842   0.809
 5494SOL     OW17380   5.855   2.906   2.584
 5494SOL    HW117381   5.803   2.968   2.643
 5494SOL    HW217382   5.807   2.893   2.498
 5495SOL     OW17383   3.729   2.907   4.037
 5495SOL    HW117384   3.664   2.951   4.098
 5495SOL    HW217385   3.683   2.883   3.951
 5496SOL     OW17386   4.951   5.206   2.091
 5496SOL    HW117387   4.959   5.214   2.190
 5496SOL    HW217388   4.969   5.111   2.063
 5497SOL     OW17389   5.619   0.392   1.033
 5497SOL    HW117390   5.711   0.427   1.014
 5497SOL    HW217391   5.555   0.428   0.965
 5498SOL     OW17392   4.196   1.218   4.672
 5498SOL    HW117393   4.179   1.270   4.588
 5498SOL    HW217394   4.118   1.157   4.689
 5499SOL     OW17395   0.515   1.410   5.525
 5499SOL    HW117396   0.552   1.338   5.584
 5499SOL    HW217397   0.469   1.479   5.581
 5500SOL     OW17398   1.635   6.490   1.047
 5500SOL    HW117399   1.695   6.565   1.076
 5500SOL    HW217400   1.673   6.447   0.966
 5501SOL     OW17401   2.944   0.776   2.433
 5501SOL    HW117402   3.029   0.735   2.400
 5501SOL    HW217403   2.952   0.876   2.431
 5502SOL     OW17404   4.339   3.052   0.234
 5502SOL    HW117405   4.314   3.134   0.286
 5502SOL    HW217406   4.312   3.064   0.139
 5503SOL     OW17407   0.218   6.581   4.568
 5503SOL    HW117408   0.136   6.590   4.513
 5503SOL    HW217409   0.216   6.648   4.643
 5504SOL     OW17410   2.880   1.997   4.409
 5504SOL    HW117411   2.851   1.942   4.331
 5504SOL    HW217412   2.802   2.049   4.444
 5505SOL     OW17413   3.725   4.740   6.927
 5505SOL    HW117414   3.676   4.709   7.008
 5505SOL    HW217415   3.817   4.771   6.953
 5506SOL     OW17416   6.668   6.707   5.997
 5506SOL    HW117417   6.580   6.730   6.037
 5506SOL    HW217418   6.741   6.733   6.060
 5507SOL     OW17419   3.424   5.749   4.576
 5507SOL    HW117420   3.505   5.689   4.572
 5507SOL    HW217421   3.344   5.699   4.543
 5508SOL     OW17422   1.274   0.719   5.595
 5508SOL    HW117423   1.303   0.711   5.500
 5508SOL    HW217424   1.265   0.816   5.619
 5509SOL     OW17425   6.219   0.009   6.336
 5509SOL    HW117426   6.145   0.042   6.277
 5509SOL    HW217427   6.306   0.019   6.289
 5510SOL     OW17428   6.023   0.758   6.064
 5510SOL    HW117429   6.044   0.686   6.129
 5510SOL    HW217430   6.040   0.725   5.971
 5511SOL     OW17431   6.799   2.494   1.357
 5511SOL    HW117432   6.851   2.488   1.442
 5511SOL    HW217433   6.741   2.576   1.359
 5512SOL     OW17434   0.481   0.446   0.359
 5512SOL    HW117435   0.399   0.411   0.405
 5512SOL    HW217436   0.560   0.390   0.383
 5513SOL     OW17437   2.764   5.890   5.022
 5513SOL    HW117438   2.693   5.845   5.077
 5513SOL    HW217439   2.844   5.831   5.016
 5514SOL     OW17440   6.073   5.740   3.755
 5514SOL    HW117441   6.149   5.679   3.737
 5514SOL    HW217442   6.066   5.757   3.854
 5515SOL     OW17443   6.623   3.606   3.307
 5515SOL    HW117444   6.635   3.664   3.227
 5515SOL    HW217445   6.573   3.523   3.282
 5516SOL     OW17446   1.337   2.972   6.208
 5516SOL    HW117447   1.418   2.988   6.264
 5516SOL    HW217448   1.358   2.994   6.113
 5517SOL     OW17449   2.614   0.879   2.185
 5517SOL    HW117450   2.564   0.889   2.099
 5517SOL    HW217451   2.674   0.958   2.197
 5518SOL     OW17452   5.444   4.628   5.206
 5518SOL    HW117453   5.483   4.640   5.297
 5518SOL    HW217454   5.495   4.558   5.156
 5519SOL     OW17455   5.447   3.735   3.180
 5519SOL    HW117456   5.381   3.671   3.141
 5519SOL    HW217457   5.431   3.827   3.144
 5520SOL     OW17458   2.116   2.710   0.685
 5520SOL    HW117459   2.178   2.642   0.646
 5520SOL    HW217460   2.096   2.780   0.617
 5521SOL     OW17461   5.273   5.375   0.526
 5521SOL    HW117462   5.191   5.319   0.518
 5521SOL    HW217463   5.352   5.323   0.494
 5522SOL     OW17464   1.811   2.865   2.192
 5522SOL    HW117465   1.842   2.889   2.284
 5522SOL    HW217466   1.873   2.904   2.124
 5523SOL     OW17467   3.696   0.844   1.808
 5523SOL    HW117468   3.698   0.770   1.740
 5523SOL    HW217469   3.601   0.874   1.822
 5524SOL     OW17470   5.651   6.085   5.722
 5524SOL    HW117471   5.639   6.058   5.817
 5524SOL    HW217472   5.718   6.159   5.716
 5525SOL     OW17473   6.459   5.844   3.722
 5525SOL    HW117474   6.382   5.906   3.736
 5525SOL    HW217475   6.536   5.874   3.778
 5526SOL     OW17476   5.512   3.308   4.954
 5526SOL    HW117477   5.454   3.227   4.957
 5526SOL    HW217478   5.551   3.324   5.045
 5527SOL     OW17479   1.995   3.328   0.067
 5527SOL    HW117480   1.995   3.255   7.021
 5527SOL    HW217481   2.081   3.378   0.063
 5528SOL     OW17482   6.819   3.553   3.012
 5528SOL    HW117483   6.754   3.610   3.062
 5528SOL    HW217484   6.911   3.588   3.023
 5529SOL     OW17485   0.698   1.210   4.281
 5529SOL    HW117486   0.637   1.286   4.260
 5529SOL    HW217487   0.772   1.243   4.340
 5530SOL     OW17488   6.977   3.477   6.705
 5530SOL    HW117489   0.041   3.525   6.713
 5530SOL    HW217490   6.992   3.385   6.670
 5531SOL     OW17491   1.756   2.870   6.704
 5531SOL    HW117492   1.692   2.805   6.744
 5531SOL    HW217493   1.802   2.828   6.626
 5532SOL     OW17494   1.960   2.098   1.316
 5532SOL    HW117495   1.923   2.011   1.282
 5532SOL    HW217496   2.046   2.118   1.269
 5533SOL     OW17497   3.571   0.317   0.520
 5533SOL    HW117498   3.649   0.372   0.550
 5533SOL    HW217499   3.515   0.370   0.456
 5534SOL     OW17500   6.964   3.935   5.252
 5534SOL    HW117501   6.929   3.981   5.170
 5534SOL    HW217502   0.032   3.898   5.233
 5535SOL     OW17503   6.436   3.132   4.045
 5535SOL    HW117504   6.394   3.130   3.955
 5535SOL    HW217505   6.521   3.184   4.041
 5536SOL     OW17506   3.075   0.410   3.835
 5536SOL    HW117507   3.023   0.344   3.889
 5536SOL    HW217508   3.167   0.419   3.872
 5537SOL     OW17509   3.719   1.344   4.648
 5537SOL    HW117510   3.661   1.293   4.585
 5537SOL    HW217511   3.753   1.426   4.603
 5538SOL     OW17512   5.412   2.469   2.419
 5538SOL    HW117513   5.449   2.543   2.362
 5538SOL    HW217514   5.482   2.399   2.433
 5539SOL     OW17515   2.498   6.870   7.008
 5539SOL    HW117516   2.533   6.963   7.002
 5539SOL    HW217517   2.575   6.806   7.002
 5540SOL     OW17518   5.245   0.263   5.520
 5540SOL    HW117519   5.282   0.267   5.427
 5540SOL    HW217520   5.220   0.169   5.542
 5541SOL     OW17521   5.021   3.263   0.066
 5541SOL    HW117522   4.921   3.259   0.069
 5541SOL    HW217523   5.050   3.331   7.022
 5542SOL     OW17524   4.426   4.619   0.400
 5542SOL    HW117525   4.489   4.547   0.427
 5542SOL    HW217526   4.421   4.687   0.474
 5543SOL     OW17527   1.436   0.509   6.841
 5543SOL    HW117528   1.507   0.525   6.772
 5543SOL    HW217529   1.443   0.416   6.875
 5544SOL     OW17530   3.742   4.969   0.718
 5544SOL    HW117531   3.827   5.014   0.691
 5544SOL    HW217532   3.686   5.032   0.772
 5545SOL     OW17533   5.254   1.009   4.169
 5545SOL    HW117534   5.270   1.034   4.265
 5545SOL    HW217535   5.258   1.092   4.113
 5546SOL     OW17536   0.409   4.954   4.400
 5546SOL    HW117537   0.312   4.929   4.400
 5546SOL    HW217538   0.449   4.930   4.312
 5547SOL     OW17539   4.895   2.067   4.561
 5547SOL    HW117540   4.808   2.104   4.593
 5547SOL    HW217541   4.956   2.053   4.639
 5548SOL     OW17542   0.501   4.851   5.222
 5548SOL    HW117543   0.532   4.869   5.129
 5548SOL    HW217544   0.414   4.802   5.220
 5549SOL     OW17545   4.149   2.799   0.473
 5549SOL    HW117546   4.233   2.831   0.429
 5549SOL    HW217547   4.157   2.701   0.491
 5550SOL     OW17548   2.425   4.107   1.734
 5550SOL    HW117549   2.369   4.185   1.762
 5550SOL    HW217550   2.366   4.029   1.713
 5551SOL     OW17551   1.929   5.055   2.689
 5551SOL    HW117552   1.952   4.962   2.715
 5551SOL    HW217553   1.896   5.105   2.769
 5552SOL     OW17554   0.900   6.863   0.025
 5552SOL    HW117555   0.916   6.825   6.957
 5552SOL    HW217556   0.980   6.918   0.052
 5553SOL     OW17557   5.302   0.443   0.153
 5553SOL    HW117558   5.203   0.431   0.150
 5553SOL    HW217559   5.337   0.455   0.060
 5554SOL     OW17560   6.953   1.963   1.402
 5554SOL    HW117561   6.971   2.051   1.359
 5554SOL    HW217562   7.013   1.894   1.362
 5555SOL     OW17563   1.396   5.064   2.856
 5555SOL    HW117564   1.375   5.110   2.942
 5555SOL    HW217565   1.360   4.971   2.858
 5556SOL     OW17566   6.878   0.845   4.380
 5556SOL    HW117567   6.915   0.938   4.385
 5556SOL    HW217568   6.866   0.809   4.472
 5557SOL     OW17569   3.652   6.058   3.245
 5557SOL    HW117570   3.606   6.146   3.261
 5557SOL    HW217571   3.741   6.075   3.203
 5558SOL     OW17572   4.393   4.031   0.178
 5558SOL    HW117573   4.313   4.067   0.226
 5558SOL    HW217574   4.476   4.054   0.229
 5559SOL     OW17575   3.362   1.318   2.652
 5559SOL    HW117576   3.434   1.386   2.642
 5559SOL    HW217577   3.292   1.332   2.581
 5560SOL     OW17578   0.592   5.220   3.882
 5560SOL    HW117579   0.559   5.181   3.796
 5560SOL    HW217580   0.519   5.272   3.925
 5561SOL     OW17581   3.194   6.483   2.904
 5561SOL    HW117582   3.229   6.573   2.879
 5561SOL    HW217583   3.257   6.412   2.871
 5562SOL     OW17584   3.587   3.465   0.825
 5562SOL    HW117585   3.563   3.532   0.896
 5562SOL    HW217586   3.508   3.450   0.766
 5563SOL     OW17587   2.417   4.554   2.382
 5563SOL    HW117588   2.476   4.583   2.457
 5563SOL    HW217589   2.453   4.591   2.296
 5564SOL     OW17590   4.948   0.466   6.018
 5564SOL    HW117591   5.046   0.445   6.022
 5564SOL    HW217592   4.933   0.536   5.948
 5565SOL     OW17593   3.500   1.277   6.360
 5565SOL    HW117594   3.479   1.189   6.316
 5565SOL    HW217595   3.415   1.317   6.394
 5566SOL     OW17596   1.569   3.977   6.493
 5566SOL    HW117597   1.501   4.011   6.559
 5566SOL    HW217598   1.657   4.020   6.512
 5567SOL     OW17599   0.453   4.358   0.383
 5567SOL    HW117600   0.414   4.385   0.471
 5567SOL    HW217601   0.487   4.439   0.335
 5568SOL     OW17602   4.825   4.510   1.228
 5568SOL    HW117603   4.832   4.411   1.217
 5568SOL    HW217604   4.820   4.533   1.325
 5569SOL     OW17605   2.327   2.530   3.001
 5569SOL    HW117606   2.333   2.536   3.101
 5569SOL    HW217607   2.383   2.454   2.968
 5570SOL     OW17608   0.025   3.819   2.151
 5570SOL    HW117609   0.116   3.816   2.190
 5570SOL    HW217610   7.002   3.903   2.182
 5571SOL     OW17611   6.328   4.725   0.988
 5571SOL    HW117612   6.278   4.746   0.904
 5571SOL    HW217613   6.419   4.766   0.985
 5572SOL     OW17614   1.862   4.057   5.097
 5572SOL    HW117615   1.782   4.051   5.157
 5572SOL    HW217616   1.940   4.011   5.140
 5573SOL     OW17617   2.815   5.061   3.556
 5573SOL    HW117618   2.885   5.109   3.608
 5573SOL    HW217619   2.820   5.089   3.460
 5574SOL     OW17620   0.314   2.240   5.367
 5574SOL    HW117621   0.244   2.232   5.438
 5574SOL    HW217622   0.402   2.208   5.402
 5575SOL     OW17623   0.185   0.092   1.546
 5575SOL    HW117624   0.108   0.054   1.495
 5575SOL    HW217625   0.181   0.060   1.641
 5576SOL     OW17626   1.315   5.309   2.789
 5576SOL    HW117627   1.364   5.225   2.811
 5576SOL    HW217628   1.351   5.385   2.843
 5577SOL     OW17629   2.176   2.778   5.752
 5577SOL    HW117630   2.215   2.689   5.728
 5577SOL    HW217631   2.210   2.805   5.842
 5578SOL     OW17632   3.404   4.122   3.402
 5578SOL    HW117633   3.393   4.163   3.492
 5578SOL    HW217634   3.315   4.092   3.367
 5579SOL     OW17635   6.592   3.205   2.484
 5579SOL    HW117636   6.564   3.138   2.416
 5579SOL    HW217637   6.669   3.258   2.449
 5580SOL     OW17638   5.787   2.112   5.676
 5580SOL    HW117639   5.877   2.069   5.672
 5580SOL    HW217640   5.791   2.201   5.630
 5581SOL     OW17641   1.331   2.688   6.666
 5581SOL    HW117642   1.397   2.701   6.740
 5581SOL    HW217643   1.378   2.656   6.584
 5582SOL     OW17644   2.497   2.834   6.249
 5582SOL    HW117645   2.400   2.858   6.249
 5582SOL    HW217646   2.541   2.871   6.330
 5583SOL     OW17647   5.237   0.593   1.409
 5583SOL    HW117648   5.321   0.553   1.371
 5583SOL    HW217649   5.207   0.540   1.488
 5584SOL     OW17650   1.670   2.939   4.082
 5584SOL    HW117651   1.630   2.984   4.002
 5584SOL    HW217652   1.698   3.008   4.148
 5585SOL     OW17653   5.428   5.033   1.793
 5585SOL    HW117654   5.363   4.981   1.737
 5585SOL    HW217655   5.411   5.015   1.890
 5586SOL     OW17656   6.871   4.091   0.513
 5586SOL    HW117657   6.798   4.023   0.526
 5586SOL    HW217658   6.903   4.087   0.419
 5587SOL     OW17659   6.245   0.912   6.006
 5587SOL    HW117660   6.161   0.864   6.033
 5587SOL    HW217661   6.295   0.855   5.940
 5588SOL     OW17662   3.838   6.697   0.810
 5588SOL    HW117663   3.866   6.783   0.854
 5588SOL    HW217664   3.908   6.669   0.744
 5589SOL     OW17665   5.815   4.957   6.021
 5589SOL    HW117666   5.748   5.030   6.006
 5589SOL    HW217667   5.805   4.887   5.951
 5590SOL     OW17668   6.123   5.494   3.311
 5590SOL    HW117669   6.057   5.560   3.347
 5590SOL    HW217670   6.097   5.469   3.217
 5591SOL     OW17671   5.649   1.108   1.989
 5591SOL    HW117672   5.689   1.016   1.991
 5591SOL    HW217673   5.602   1.123   1.902
 5592SOL     OW17674   1.053   3.884   3.375
 5592SOL    HW117675   1.152   3.894   3.361
 5592SOL    HW217676   1.031   3.787   3.386
 5593SOL     OW17677   0.003   3.757   0.396
 5593SOL    HW117678   6.966   3.834   0.378
 5593SOL    HW217679   7.008   3.720   0.487
 5594SOL     OW17680   6.220   2.043   6.369
 5594SOL    HW117681   6.121   2.052   6.372
 5594SOL    HW217682   6.254   2.019   6.460
 5595SOL     OW17683   1.358   2.677   6.075
 5595SOL    HW117684   1.262   2.687   6.100
 5595SOL    HW217685   1.372   2.708   5.981
 5596SOL     OW17686   2.907   5.961   3.210
 5596SOL    HW117687   2.973   5.994   3.278
 5596SOL    HW217688   2.850   6.037   3.180
 5597SOL     OW17689   4.930   3.210   2.859
 5597SOL    HW117690   5.027   3.205   2.836
 5597SOL    HW217691   4.920   3.244   2.952
 5598SOL     OW17692   5.038   1.990   4.774
 5598SOL    HW117693   4.971   1.952   4.837
 5598SOL    HW217694   5.126   2.003   4.821
 5599SOL     OW17695   0.772   0.539   3.460
 5599SOL    HW117696   0.770   0.551   3.361
 5599SOL    HW217697   0.865   0.551   3.493
 5600SOL     OW17698   1.627   2.361   4.884
 5600SOL    HW117699   1.534   2.391   4.861
 5600SOL    HW217700   1.680   2.439   4.916
 5601SOL     OW17701   2.329   0.520   6.006
 5601SOL    HW117702   2.335   0.426   6.039
 5601SOL    HW217703   2.372   0.527   5.916
 5602SOL     OW17704   1.787   1.056   0.100
 5602SOL    HW117705   1.876   1.018   0.076
 5602SOL    HW217706   1.744   1.096   0.018
 5603SOL     OW17707   5.763   4.955   6.295
 5603SOL    HW117708   5.684   4.895   6.281
 5603SOL    HW217709   5.808   4.973   6.208
 5604SOL     OW17710   6.257   1.415   6.081
 5604SOL    HW117711   6.246   1.322   6.046
 5604SOL    HW217712   6.168   1.458   6.092
 5605SOL     OW17713   1.580   2.736   6.204
 5605SOL    HW117714   1.633   2.798   6.146
 5605SOL    HW217715   1.508   2.693   6.150
 5606SOL     OW17716   5.772   0.243   2.976
 5606SOL    HW117717   5.817   0.154   2.967
 5606SOL    HW217718   5.836   0.308   3.018
 5607SOL     OW17719   5.925   0.980   1.227
 5607SOL    HW117720   5.902   1.026   1.141
 5607SOL    HW217721   5.973   0.894   1.206
 5608SOL     OW17722   3.951   6.540   4.994
 5608SOL    HW117723   3.903   6.594   5.064
 5608SOL    HW217724   3.952   6.591   4.908
 5609SOL     OW17725   1.802   5.469   5.218
 5609SOL    HW117726   1.799   5.398   5.288
 5609SOL    HW217727   1.796   5.427   5.128
 5610SOL     OW17728   4.466   0.201   6.392
 5610SOL    HW117729   4.523   0.147   6.330
 5610SOL    HW217730   4.477   0.298   6.373
 5611SOL     OW17731   2.299   4.733   3.881
 5611SOL    HW117732   2.289   4.811   3.944
 5611SOL    HW217733   2.219   4.728   3.822
 5612SOL     OW17734   2.412   0.530   4.915
 5612SOL    HW117735   2.385   0.592   4.841
 5612SOL    HW217736   2.405   0.436   4.883
 5613SOL     OW17737   3.809   4.903   1.650
 5613SOL    HW117738   3.861   4.874   1.730
 5613SOL    HW217739   3.789   5.001   1.657
 5614SOL     OW17740   4.863   2.397   3.444
 5614SOL    HW117741   4.865   2.318   3.505
 5614SOL    HW217742   4.902   2.477   3.490
 5615SOL     OW17743   1.753   1.361   1.096
 5615SOL    HW117744   1.840   1.380   1.141
 5615SOL    HW217745   1.732   1.433   1.030
 5616SOL     OW17746   2.321   0.494   4.539
 5616SOL    HW117747   2.348   0.414   4.593
 5616SOL    HW217748   2.287   0.463   4.450
 5617SOL     OW17749   0.652   0.766   5.004
 5617SOL    HW117750   0.593   0.843   5.027
 5617SOL    HW217751   0.597   0.682   5.003
 5618SOL     OW17752   6.733   4.375   2.879
 5618SOL    HW117753   6.761   4.307   2.947
 5618SOL    HW217754   6.758   4.466   2.910
 5619SOL     OW17755   2.207   4.045   4.720
 5619SOL    HW117756   2.296   4.078   4.687
 5619SOL    HW217757   2.213   4.027   4.818
 5620SOL     OW17758   3.783   2.270   6.267
 5620SOL    HW117759   3.805   2.277   6.364
 5620SOL    HW217760   3.687   2.293   6.252
 5621SOL     OW17761   2.145   1.942   6.354
 5621SOL    HW117762   2.199   1.993   6.288
 5621SOL    HW217763   2.058   1.915   6.313
 5622SOL     OW17764   5.475   1.012   5.084
 5622SOL    HW117765   5.506   1.025   4.990
 5622SOL    HW217766   5.405   1.081   5.105
 5623SOL     OW17767   0.671   5.797   6.685
 5623SOL    HW117768   0.746   5.756   6.633
 5623SOL    HW217769   0.599   5.729   6.698
 5624SOL     OW17770   1.149   4.536   2.701
 5624SOL    HW117771   1.187   4.519   2.792
 5624SOL    HW217772   1.049   4.535   2.705
 5625SOL     OW17773   6.360   2.638   5.869
 5625SOL    HW117774   6.355   2.573   5.793
 5625SOL    HW217775   6.322   2.726   5.841
 5626SOL     OW17776   4.702   6.772   4.116
 5626SOL    HW117777   4.608   6.804   4.113
 5626SOL    HW217778   4.737   6.780   4.209
 5627SOL     OW17779   0.996   6.411   1.029
 5627SOL    HW117780   1.065   6.338   1.029
 5627SOL    HW217781   0.984   6.444   0.935
 5628SOL     OW17782   0.930   1.483   4.696
 5628SOL    HW117783   0.998   1.524   4.636
 5628SOL    HW217784   0.911   1.544   4.773
 5629SOL     OW17785   3.695   3.218   2.848
 5629SOL    HW117786   3.708   3.276   2.768
 5629SOL    HW217787   3.710   3.122   2.822
 5630SOL     OW17788   0.263   4.182   1.443
 5630SOL    HW117789   0.205   4.135   1.510
 5630SOL    HW217790   0.291   4.118   1.372
 5631SOL     OW17791   4.746   0.565   6.686
 5631SOL    HW117792   4.725   0.482   6.634
 5631SOL    HW217793   4.699   0.643   6.645
 5632SOL     OW17794   3.031   3.216   6.952
 5632SOL    HW117795   3.032   3.160   0.012
 5632SOL    HW217796   3.054   3.160   6.873
 5633SOL     OW17797   6.323   2.690   5.059
 5633SOL    HW117798   6.227   2.699   5.036
 5633SOL    HW217799   6.379   2.721   4.982
 5634SOL     OW17800   5.146   5.630   4.666
 5634SOL    HW117801   5.106   5.720   4.681
 5634SOL    HW217802   5.183   5.626   4.573
 5635SOL     OW17803   3.191   2.067   5.202
 5635SOL    HW117804   3.189   2.159   5.240
 5635SOL    HW217805   3.183   2.071   5.103
 5636SOL     OW17806   4.111   5.880   4.087
 5636SOL    HW117807   4.113   5.799   4.145
 5636SOL    HW217808   4.174   5.867   4.010
 5637SOL     OW17809   6.315   0.106   2.838
 5637SOL    HW117810   6.224   0.066   2.844
 5637SOL    HW217811   6.310   0.203   2.859
 5638SOL     OW17812   4.844   4.122   6.992
 5638SOL    HW117813   4.744   4.134   6.993
 5638SOL    HW217814   4.874   4.083   0.056
 5639SOL     OW17815   3.129   0.429   6.884
 5639SOL    HW117816   3.179   0.407   6.800
 5639SOL    HW217817   3.080   0.515   6.872
 5640SOL     OW17818   1.901   6.797   3.153
 5640SOL    HW117819   1.863   6.707   3.133
 5640SOL    HW217820   1.985   6.809   3.101
 5641SOL     OW17821   6.215   6.188   4.541
 5641SOL    HW117822   6.237   6.092   4.529
 5641SOL    HW217823   6.119   6.198   4.567
 5642SOL     OW17824   1.998   1.665   0.276
 5642SOL    HW117825   1.899   1.651   0.283
 5642SOL    HW217826   2.039   1.587   0.228
 5643SOL     OW17827   5.513   2.015   5.145
 5643SOL    HW117828   5.592   1.955   5.160
 5643SOL    HW217829   5.536   2.108   5.174
 5644SOL     OW17830   2.915   6.862   6.265
 5644SOL    HW117831   2.817   6.877   6.275
 5644SOL    HW217832   2.962   6.949   6.250
 5645SOL     OW17833   5.106   3.630   4.649
 5645SOL    HW117834   5.192   3.580   4.645
 5645SOL    HW217835   5.085   3.667   4.559
 5646SOL     OW17836   1.372   4.734   3.179
 5646SOL    HW117837   1.388   4.688   3.092
 5646SOL    HW217838   1.446   4.711   3.243
 5647SOL     OW17839   6.319   6.633   2.296
 5647SOL    HW117840   6.402   6.592   2.259
 5647SOL    HW217841   6.312   6.611   2.394
 5648SOL     OW17842   4.883   6.276   3.436
 5648SOL    HW117843   4.885   6.360   3.382
 5648SOL    HW217844   4.860   6.298   3.531
 5649SOL     OW17845   1.088   6.849   4.406
 5649SOL    HW117846   1.099   6.944   4.377
 5649SOL    HW217847   1.164   6.794   4.372
 5650SOL     OW17848   6.556   4.363   6.703
 5650SOL    HW117849   6.506   4.286   6.743
 5650SOL    HW217850   6.644   4.331   6.668
 5651SOL     OW17851   2.988   1.006   0.837
 5651SOL    HW117852   2.946   1.027   0.748
 5651SOL    HW217853   3.021   1.091   0.879
 5652SOL     OW17854   0.246   6.159   1.523
 5652SOL    HW117855   0.329   6.160   1.467
 5652SOL    HW217856   0.183   6.229   1.491
 5653SOL     OW17857   7.003   0.320   1.727
 5653SOL    HW117858   0.069   0.346   1.763
 5653SOL    HW217859   6.986   0.223   1.745
 5654SOL     OW17860   3.256   5.708   4.358
 5654SOL    HW117861   3.316   5.758   4.296
 5654SOL    HW217862   3.215   5.631   4.310
 5655SOL     OW17863   5.627   2.889   5.454
 5655SOL    HW117864   5.588   2.927   5.371
 5655SOL    HW217865   5.661   2.797   5.436
 5656SOL     OW17866   6.489   3.484   0.257
 5656SOL    HW117867   6.475   3.552   0.185
 5656SOL    HW217868   6.561   3.516   0.319
 5657SOL     OW17869   5.244   5.500   4.878
 5657SOL    HW117870   5.322   5.551   4.914
 5657SOL    HW217871   5.216   5.541   4.791
 5658SOL     OW17872   2.161   3.072   5.692
 5658SOL    HW117873   2.248   3.097   5.649
 5658SOL    HW217874   2.149   2.972   5.688
 5659SOL     OW17875   2.585   3.829   6.707
 5659SOL    HW117876   2.626   3.742   6.735
 5659SOL    HW217877   2.646   3.876   6.644
 5660SOL     OW17878   4.617   0.799   5.627
 5660SOL    HW117879   4.544   0.781   5.692
 5660SOL    HW217880   4.660   0.712   5.601
 5661SOL     OW17881   1.474   5.431   5.922
 5661SOL    HW117882   1.526   5.389   5.996
 5661SOL    HW217883   1.385   5.462   5.957
 5662SOL     OW17884   3.228   6.395   0.974
 5662SOL    HW117885   3.131   6.377   0.990
 5662SOL    HW217886   3.269   6.435   1.055
 5663SOL     OW17887   1.869   3.375   6.008
 5663SOL    HW117888   1.940   3.322   5.962
 5663SOL    HW217889   1.784   3.323   6.009
 5664SOL     OW17890   4.853   4.315   4.692
 5664SOL    HW117891   4.832   4.219   4.709
 5664SOL    HW217892   4.815   4.372   4.765
 5665SOL     OW17893   1.615   1.319   0.422
 5665SOL    HW117894   1.699   1.302   0.371
 5665SOL    HW217895   1.622   1.278   0.513
 5666SOL     OW17896   6.179   2.436   4.949
 5666SOL    HW117897   6.117   2.474   5.018
 5666SOL    HW217898   6.188   2.337   4.963
 5667SOL     OW17899   2.602   4.713   4.263
 5667SOL    HW117900   2.548   4.635   4.232
 5667SOL    HW217901   2.639   4.693   4.353
 5668SOL     OW17902   4.888   3.882   3.456
 5668SOL    HW117903   4.844   3.922   3.536
 5668SOL    HW217904   4.840   3.911   3.373
 5669SOL     OW17905   5.377   4.130   6.310
 5669SOL    HW117906   5.371   4.095   6.404
 5669SOL    HW217907   5.319   4.212   6.302
 5670SOL     OW17908   1.440   2.638   3.311
 5670SOL    HW117909   1.384   2.708   3.267
 5670SOL    HW217910   1.528   2.677   3.337
 5671SOL     OW17911   0.558   5.773   4.125
 5671SOL    HW117912   0.610   5.858   4.138
 5671SOL    HW217913   0.473   5.777   4.177
 5672SOL     OW17914   5.334   3.465   4.378
 5672SOL    HW117915   5.283   3.533   4.324
 5672SOL    HW217916   5.422   3.505   4.406
 5673SOL     OW17917   0.873   1.706   0.833
 5673SOL    HW117918   0.870   1.636   0.904
 5673SOL    HW217919   0.781   1.723   0.799
 5674SOL     OW17920   2.355   4.942   4.986
 5674SOL    HW117921   2.417   4.916   4.912
 5674SOL    HW217922   2.317   5.033   4.966
 5675SOL     OW17923   2.539   1.759   1.154
 5675SOL    HW117924   2.473   1.794   1.087
 5675SOL    HW217925   2.589   1.835   1.194
 5676SOL     OW17926   3.179   1.223   1.664
 5676SOL    HW117927   3.099   1.219   1.604
 5676SOL    HW217928   3.163   1.168   1.745
 5677SOL     OW17929   6.993   1.555   6.610
 5677SOL    HW117930   0.044   1.491   6.593
 5677SOL    HW217931   7.008   1.601   6.698
 5678SOL     OW17932   3.465   2.070   2.068
 5678SOL    HW117933   3.379   2.098   2.111
 5678SOL    HW217934   3.524   2.150   2.055
 5679SOL     OW17935   6.495   3.473   5.204
 5679SOL    HW117936   6.486   3.558   5.254
 5679SOL    HW217937   6.538   3.491   5.115
 5680SOL     OW17938   1.055   5.929   5.108
 5680SOL    HW117939   1.087   5.939   5.202
 5680SOL    HW217940   1.050   5.832   5.084
 5681SOL     OW17941   0.898   3.769   3.724
 5681SOL    HW117942   0.897   3.713   3.807
 5681SOL    HW217943   0.930   3.714   3.647
 5682SOL     OW17944   2.069   4.507   1.284
 5682SOL    HW117945   2.083   4.408   1.280
 5682SOL    HW217946   1.971   4.526   1.279
 5683SOL     OW17947   6.426   0.848   5.789
 5683SOL    HW117948   6.422   0.748   5.782
 5683SOL    HW217949   6.515   0.875   5.826
 5684SOL     OW17950   2.254   2.826   4.833
 5684SOL    HW117951   2.263   2.921   4.804
 5684SOL    HW217952   2.316   2.809   4.910
 5685SOL     OW17953   2.400   1.668   2.155
 5685SOL    HW117954   2.476   1.641   2.096
 5685SOL    HW217955   2.384   1.767   2.147
 5686SOL     OW17956   4.737   5.603   5.584
 5686SOL    HW117957   4.748   5.566   5.676
 5686SOL    HW217958   4.824   5.596   5.535
 5687SOL     OW17959   1.686   6.161   6.542
 5687SOL    HW117960   1.702   6.107   6.459
 5687SOL    HW217961   1.730   6.250   6.533
 5688SOL     OW17962   1.951   2.201   2.801
 5688SOL    HW117963   1.933   2.206   2.899
 5688SOL    HW217964   2.033   2.253   2.778
 5689SOL     OW17965   0.135   2.732   1.209
 5689SOL    HW117966   0.039   2.760   1.208
 5689SOL    HW217967   0.150   2.660   1.141
 5690SOL     OW17968   2.396   4.899   6.955
 5690SOL    HW117969   2.400   4.850   0.019
 5690SOL    HW217970   2.488   4.926   6.928
 5691SOL     OW17971   3.948   1.710   3.004
 5691SOL    HW117972   3.946   1.779   2.931
 5691SOL    HW217973   4.043   1.691   3.029
 5692SOL     OW17974   5.825   4.443   1.967
 5692SOL    HW117975   5.914   4.399   1.954
 5692SOL    HW217976   5.836   4.526   2.021
 5693SOL     OW17977   4.044   0.485   1.566
 5693SOL    HW117978   3.961   0.459   1.615
 5693SOL    HW217979   4.124   0.464   1.621
 5694SOL     OW17980   0.980   6.883   1.561
 5694SOL    HW117981   0.959   6.941   1.482
 5694SOL    HW217982   1.013   6.940   1.636
 5695SOL     OW17983   2.536   1.100   1.796
 5695SOL    HW117984   2.619   1.073   1.749
 5695SOL    HW217985   2.485   1.166   1.740
 5696SOL     OW17986   0.951   0.558   3.908
 5696SOL    HW117987   0.887   0.542   3.983
 5696SOL    HW217988   0.968   0.472   3.860
 5697SOL     OW17989   6.265   2.286   0.083
 5697SOL    HW117990   6.220   2.353   0.141
 5697SOL    HW217991   6.197   2.229   0.039
 5698SOL     OW17992   3.023   1.861   4.585
 5698SOL    HW117993   3.080   1.786   4.550
 5698SOL    HW217994   2.970   1.900   4.511
 5699SOL     OW17995   2.126   2.753   2.566
 5699SOL    HW117996   2.185   2.681   2.529
 5699SOL    HW217997   2.157   2.777   2.659
 5700SOL     OW17998   6.412   0.688   2.597
 5700SOL    HW117999   6.328   0.654   2.555
 5700SOL    HW218000   6.428   0.640   2.683
 5701SOL     OW18001   0.889   0.739   0.713
 5701SOL    HW118002   0.973   0.689   0.731
 5701SOL    HW218003   0.814   0.675   0.699
 5702SOL     OW18004   2.358   0.234   4.622
 5702SOL    HW118005   2.454   0.235   4.649
 5702SOL    HW218006   2.321   0.142   4.635
 5703SOL     OW18007   0.406   3.283   6.344
 5703SOL    HW118008   0.411   3.277   6.244
 5703SOL    HW218009   0.310   3.286   6.372
 5704SOL     OW18010   4.227   5.533   3.998
 5704SOL    HW118011   4.249   5.603   4.066
 5704SOL    HW218012   4.236   5.571   3.906
 5705SOL     OW18013   5.960   0.746   5.448
 5705SOL    HW118014   5.905   0.736   5.530
 5705SOL    HW218015   5.992   0.840   5.440
 5706SOL     OW18016   4.690   2.042   0.437
 5706SOL    HW118017   4.741   2.127   0.447
 5706SOL    HW218018   4.750   1.971   0.400
 5707SOL     OW18019   5.910   5.242   1.316
 5707SOL    HW118020   5.838   5.189   1.361
 5707SOL    HW218021   5.951   5.188   1.243
 5708SOL     OW18022   5.349   6.337   2.350
 5708SOL    HW118023   5.424   6.285   2.389
 5708SOL    HW218024   5.341   6.316   2.252
 5709SOL     OW18025   0.018   2.357   2.461
 5709SOL    HW118026   0.100   2.379   2.409
 5709SOL    HW218027   7.000   2.441   2.496
 5710SOL     OW18028   3.943   1.782   0.462
 5710SOL    HW118029   4.040   1.788   0.440
 5710SOL    HW218030   3.914   1.686   0.461
 5711SOL     OW18031   5.183   1.694   3.039
 5711SOL    HW118032   5.201   1.767   2.973
 5711SOL    HW218033   5.265   1.638   3.050
 5712SOL     OW18034   6.295   0.020   0.345
 5712SOL    HW118035   6.274   0.101   0.399
 5712SOL    HW218036   6.347   6.979   0.401
 5713SOL     OW18037   1.977   1.052   0.575
 5713SOL    HW118038   2.047   1.124   0.577
 5713SOL    HW218039   1.891   1.088   0.611
 5714SOL     OW18040   6.244   0.325   0.096
 5714SOL    HW118041   6.335   0.320   0.055
 5714SOL    HW218042   6.213   0.232   0.118
 5715SOL     OW18043   0.313   0.056   1.907
 5715SOL    HW118044   0.269   0.046   1.996
 5715SOL    HW218045   0.255   0.016   1.836
 5716SOL     OW18046   6.449   4.372   5.596
 5716SOL    HW118047   6.498   4.409   5.675
 5716SOL    HW218048   6.449   4.272   5.601
 5717SOL     OW18049   0.944   5.443   3.645
 5717SOL    HW118050   0.905   5.452   3.737
 5717SOL    HW218051   0.890   5.498   3.581
 5718SOL     OW18052   0.794   3.326   6.812
 5718SOL    HW118053   0.804   3.341   6.910
 5718SOL    HW218054   0.834   3.403   6.762
 5719SOL     OW18055   2.478   3.301   0.615
 5719SOL    HW118056   2.571   3.286   0.583
 5719SOL    HW218057   2.420   3.225   0.587
 5720SOL     OW18058   2.815   4.728   5.794
 5720SOL    HW118059   2.803   4.685   5.705
 5720SOL    HW218060   2.864   4.815   5.783
 5721SOL     OW18061   1.537   2.704   6.840
 5721SOL    HW118062   1.515   2.766   6.915
 5721SOL    HW218063   1.540   2.610   6.874
 5722SOL     OW18064   1.360   0.107   6.756
 5722SOL    HW118065   1.350   0.158   6.842
 5722SOL    HW218066   1.385   0.171   6.683
 5723SOL     OW18067   3.727   3.223   0.228
 5723SOL    HW118068   3.763   3.177   0.309
 5723SOL    HW218069   3.801   3.238   0.162
 5724SOL     OW18070   5.270   2.272   5.693
 5724SOL    HW118071   5.237   2.183   5.726
 5724SOL    HW218072   5.342   2.257   5.626
 5725SOL     OW18073   0.227   4.756   5.110
 5725SOL    HW118074   0.224   4.801   5.021
 5725SOL    HW218075   0.148   4.696   5.120
 5726SOL     OW18076   5.284   4.087   2.667
 5726SOL    HW118077   5.381   4.111   2.672
 5726SOL    HW218078   5.240   4.111   2.753
 5727SOL     OW18079   0.715   2.806   5.118
 5727SOL    HW118080   0.659   2.724   5.125
 5727SOL    HW218081   0.765   2.819   5.203
 5728SOL     OW18082   4.094   0.019   5.027
 5728SOL    HW118083   4.058   6.967   4.972
 5728SOL    HW218084   4.020   0.083   5.050
 5729SOL     OW18085   2.715   2.130   4.898
 5729SOL    HW118086   2.754   2.048   4.855
 5729SOL    HW218087   2.779   2.165   4.966
 5730SOL     OW18088   6.702   4.478   4.657
 5730SOL    HW118089   6.674   4.384   4.677
 5730SOL    HW218090   6.622   4.538   4.665
 5731SOL     OW18091   0.411   6.785   2.885
 5731SOL    HW118092   0.460   6.872   2.878
 5731SOL    HW218093   0.355   6.785   2.968
 5732SOL     OW18094   0.378   0.781   3.541
 5732SOL    HW118095   0.468   0.762   3.580
 5732SOL    HW218096   0.335   0.855   3.592
 5733SOL     OW18097   3.156   0.441   5.202
 5733SOL    HW118098   3.184   0.489   5.286
 5733SOL    HW218099   3.083   0.492   5.158
 5734SOL     OW18100   1.713   6.714   3.702
 5734SOL    HW118101   1.634   6.654   3.704
 5734SOL    HW218102   1.713   6.767   3.618
 5735SOL     OW18103   3.357   0.711   1.509
 5735SOL    HW118104   3.300   0.678   1.434
 5735SOL    HW218105   3.313   0.690   1.596
 5736SOL     OW18106   1.444   5.815   6.803
 5736SOL    HW118107   1.383   5.742   6.833
 5736SOL    HW218108   1.504   5.781   6.731
 5737SOL     OW18109   5.390   4.305   0.153
 5737SOL    HW118110   5.429   4.213   0.161
 5737SOL    HW218111   5.330   4.309   0.073
 5738SOL     OW18112   0.992   4.341   5.025
 5738SOL    HW118113   1.055   4.346   4.947
 5738SOL    HW218114   0.900   4.321   4.991
 5739SOL     OW18115   0.817   2.696   1.810
 5739SOL    HW118116   0.765   2.643   1.876
 5739SOL    HW218117   0.913   2.668   1.812
 5740SOL     OW18118   3.563   5.624   0.175
 5740SOL    HW118119   3.486   5.575   0.216
 5740SOL    HW218120   3.614   5.562   0.115
 5741SOL     OW18121   0.359   4.273   1.718
 5741SOL    HW118122   0.402   4.273   1.808
 5741SOL    HW218123   0.343   4.367   1.689
 5742SOL     OW18124   0.320   5.812   4.544
 5742SOL    HW118125   0.241   5.862   4.578
 5742SOL    HW218126   0.315   5.805   4.445
 5743SOL     OW18127   1.630   6.016   4.587
 5743SOL    HW118128   1.562   6.075   4.544
 5743SOL    HW218129   1.632   5.928   4.540
 5744SOL     OW18130   6.135   0.234   1.664
 5744SOL    HW118131   6.129   0.234   1.564
 5744SOL    HW218132   6.056   0.282   1.702
 5745SOL     OW18133   1.298   2.461   3.039
 5745SOL    HW118134   1.362   2.508   2.979
 5745SOL    HW218135   1.345   2.387   3.087
 5746SOL     OW18136   6.746   4.424   0.002
 5746SOL    HW118137   6.734   4.443   6.928
 5746SOL    HW218138   6.767   4.509   0.050
 5747SOL     OW18139   0.412   6.406   3.265
 5747SOL    HW118140   0.423   6.459   3.181
 5747SOL    HW218141   0.462   6.319   3.256
 5748SOL     OW18142   2.147   6.599   3.663
 5748SOL    HW118143   2.075   6.632   3.724
 5748SOL    HW218144   2.128   6.630   3.570
 5749SOL     OW18145   2.050   1.016   3.043
 5749SOL    HW118146   2.117   0.971   3.102
 5749SOL    HW218147   2.089   1.099   3.004
 5750SOL     OW18148   6.209   5.856   2.170
 5750SOL    HW118149   6.158   5.828   2.251
 5750SOL    HW218150   6.147   5.863   2.092
 5751SOL     OW18151   0.821   3.463   6.443
 5751SOL    HW118152   0.855   3.494   6.532
 5751SOL    HW218153   0.722   3.477   6.438
 5752SOL     OW18154   1.206   1.268   6.418
 5752SOL    HW118155   1.236   1.177   6.393
 5752SOL    HW218156   1.130   1.262   6.483
 5753SOL     OW18157   4.269   1.821   0.155
 5753SOL    HW118158   4.282   1.914   0.120
 5753SOL    HW218159   4.222   1.766   0.086
 5754SOL     OW18160   6.308   5.383   0.533
 5754SOL    HW118161   6.381   5.441   0.570
 5754SOL    HW218162   6.260   5.339   0.609
 5755SOL     OW18163   3.349   3.856   1.539
 5755SOL    HW118164   3.439   3.831   1.575
 5755SOL    HW218165   3.328   3.950   1.565
 5756SOL     OW18166   6.948   6.530   4.354
 5756SOL    HW118167   7.010   6.568   4.285
 5756SOL    HW218168   6.922   6.437   4.327
 5757SOL     OW18169   0.105   6.147   1.774
 5757SOL    HW118170   0.169   6.118   1.703
 5757SOL    HW218171   0.037   6.210   1.735
 5758SOL     OW18172   2.546   1.300   5.424
 5758SOL    HW118173   2.452   1.277   5.450
 5758SOL    HW218174   2.582   1.367   5.489
 5759SOL     OW18175   0.081   2.178   5.511
 5759SOL    HW118176   7.006   2.161   5.500
 5759SOL    HW218177   0.128   2.090   5.526
 5760SOL     OW18178   0.882   5.434   1.620
 5760SOL    HW118179   0.827   5.489   1.684
 5760SOL    HW218180   0.828   5.355   1.590
 5761SOL     OW18181   5.490   0.320   4.624
 5761SOL    HW118182   5.563   0.389   4.625
 5761SOL    HW218183   5.427   0.340   4.549
 5762SOL     OW18184   5.815   6.189   1.264
 5762SOL    HW118185   5.829   6.213   1.169
 5762SOL    HW218186   5.790   6.092   1.271
 5763SOL     OW18187   2.262   1.331   0.801
 5763SOL    HW118188   2.241   1.405   0.865
 5763SOL    HW218189   2.360   1.330   0.783
 5764SOL     OW18190   4.603   3.149   6.494
 5764SOL    HW118191   4.672   3.215   6.524
 5764SOL    HW218192   4.635   3.104   6.410
 5765SOL     OW18193   6.542   5.706   0.414
 5765SOL    HW118194   6.510   5.760   0.336
 5765SOL    HW218195   6.563   5.613   0.384
 5766SOL     OW18196   3.021   1.428   3.075
 5766SOL    HW118197   2.970   1.412   3.159
 5766SOL    HW218198   2.967   1.397   2.997
 5767SOL     OW18199   5.902   0.693   0.535
 5767SOL    HW118200   6.001   0.707   0.529
 5767SOL    HW218201   5.857   0.738   0.458
 5768SOL     OW18202   6.224   1.011   2.465
 5768SOL    HW118203   6.213   1.042   2.559
 5768SOL    HW218204   6.198   0.914   2.460
 5769SOL     OW18205   1.860   5.296   3.410
 5769SOL    HW118206   1.767   5.278   3.379
 5769SOL    HW218207   1.861   5.302   3.510
 5770SOL     OW18208   5.761   2.339   1.669
 5770SOL    HW118209   5.690   2.304   1.608
 5770SOL    HW218210   5.822   2.400   1.618
 5771SOL     OW18211   0.975   1.009   0.727
 5771SOL    HW118212   0.949   0.912   0.731
 5771SOL    HW218213   0.924   1.053   0.653
 5772SOL     OW18214   6.542   4.448   6.434
 5772SOL    HW118215   6.528   4.428   6.531
 5772SOL    HW218216   6.456   4.439   6.385
 5773SOL     OW18217   5.150   6.086   5.154
 5773SOL    HW118218   5.074   6.081   5.089
 5773SOL    HW218219   5.213   6.010   5.139
 5774SOL     OW18220   2.300   4.756   2.665
 5774SOL    HW118221   2.379   4.734   2.723
 5774SOL    HW218222   2.291   4.855   2.656
 5775SOL     OW18223   0.676   0.794   0.316
 5775SOL    HW118224   0.656   0.875   0.373
 5775SOL    HW218225   0.598   0.776   0.256
 5776SOL     OW18226   4.374   1.365   6.355
 5776SOL    HW118227   4.370   1.284   6.413
 5776SOL    HW218228   4.469   1.397   6.350
 5777SOL     OW18229   5.662   0.537   5.272
 5777SOL    HW118230   5.669   0.438   5.285
 5777SOL    HW218231   5.640   0.556   5.177
 5778SOL     OW18232   2.372   6.428   4.314
 5778SOL    HW118233   2.279   6.453   4.340
 5778SOL    HW218234   2.374   6.398   4.219
 5779SOL     OW18235   4.148   0.039   0.984
 5779SOL    HW118236   4.150   0.134   1.015
 5779SOL    HW218237   4.179   7.003   1.059
 5780SOL     OW18238   5.933   3.846   0.690
 5780SOL    HW118239   5.907   3.921   0.630
 5780SOL    HW218240   5.972   3.772   0.636
 5781SOL     OW18241   3.074   4.823   5.248
 5781SOL    HW118242   3.009   4.859   5.182
 5781SOL    HW218243   3.027   4.763   5.313
 5782SOL     OW18244   4.596   1.560   2.944
 5782SOL    HW118245   4.529   1.486   2.954
 5782SOL    HW218246   4.647   1.571   3.029
 5783SOL     OW18247   2.251   6.541   2.184
 5783SOL    HW118248   2.260   6.610   2.256
 5783SOL    HW218249   2.188   6.469   2.215
 5784SOL     OW18250   1.212   6.107   0.133
 5784SOL    HW118251   1.264   6.108   0.048
 5784SOL    HW218252   1.273   6.128   0.210
 5785SOL     OW18253   2.157   2.009   6.638
 5785SOL    HW118254   2.253   1.990   6.659
 5785SOL    HW218255   2.143   2.002   6.540
 5786SOL     OW18256   0.867   2.120   6.194
 5786SOL    HW118257   0.853   2.086   6.101
 5786SOL    HW218258   0.948   2.077   6.233
 5787SOL     OW18259   0.434   2.682   4.914
 5787SOL    HW118260   0.400   2.589   4.907
 5787SOL    HW218261   0.359   2.743   4.938
 5788SOL     OW18262   0.474   1.810   1.584
 5788SOL    HW118263   0.388   1.825   1.535
 5788SOL    HW218264   0.510   1.720   1.561
 5789SOL     OW18265   2.907   5.529   6.814
 5789SOL    HW118266   2.959   5.596   6.760
 5789SOL    HW218267   2.826   5.501   6.762
 5790SOL     OW18268   6.687   6.463   2.501
 5790SOL    HW118269   6.768   6.410   2.476
 5790SOL    HW218270   6.665   6.527   2.427
 5791SOL     OW18271   4.138   0.908   1.028
 5791SOL    HW118272   4.150   0.911   1.127
 5791SOL    HW218273   4.134   1.002   0.993
 5792SOL     OW18274   4.703   2.182   2.335
 5792SOL    HW118275   4.781   2.133   2.373
 5792SOL    HW218276   4.634   2.115   2.306
 5793SOL     OW18277   3.505   1.814   6.964
 5793SOL    HW118278   3.494   1.725   6.920
 5793SOL    HW218279   3.416   1.859   6.971
 5794SOL     OW18280   3.410   5.732   6.985
 5794SOL    HW118281   3.487   5.692   0.011
 5794SOL    HW218282   3.330   5.671   6.994
 5795SOL     OW18283   0.826   0.304   0.818
 5795SOL    HW118284   0.821   0.306   0.918
 5795SOL    HW218285   0.774   0.381   0.781
 5796SOL     OW18286   4.868   0.568   5.785
 5796SOL    HW118287   4.781   0.520   5.781
 5796SOL    HW218288   4.933   0.525   5.721
 5797SOL     OW18289   0.452   2.552   0.119
 5797SOL    HW118290   0.402   2.485   0.174
 5797SOL    HW218291   0.494   2.506   0.041
 5798SOL     OW18292   2.012   2.871   4.094
 5798SOL    HW118293   1.954   2.810   4.147
 5798SOL    HW218294   1.985   2.966   4.111
 5799SOL     OW18295   2.581   0.295   3.658
 5799SOL    HW118296   2.505   0.257   3.607
 5799SOL    HW218297   2.614   0.377   3.612
 5800SOL     OW18298   1.055   6.259   2.449
 5800SOL    HW118299   1.147   6.275   2.413
 5800SOL    HW218300   1.030   6.163   2.437
 5801SOL     OW18301   1.635   1.851   2.812
 5801SOL    HW118302   1.582   1.913   2.870
 5801SOL    HW218303   1.573   1.790   2.762
 5802SOL     OW18304   0.597   0.264   2.743
 5802SOL    HW118305   0.655   0.291   2.820
 5802SOL    HW218306   0.513   0.318   2.745
 5803SOL     OW18307   0.691   6.894   4.002
 5803SOL    HW118308   0.762   6.938   4.057
 5803SOL    HW218309   0.613   6.870   4.060
 5804SOL     OW18310   6.519   2.001   3.214
 5804SOL    HW118311   6.514   1.907   3.245
 5804SOL    HW218312   6.611   2.021   3.181
 5805SOL     OW18313   0.705   2.784   1.577
 5805SOL    HW118314   0.734   2.733   1.657
 5805SOL    HW218315   0.641   2.729   1.523
 5806SOL     OW18316   6.634   3.938   2.090
 5806SOL    HW118317   6.539   3.958   2.066
 5806SOL    HW218318   6.666   3.860   2.037
 5807SOL     OW18319   0.956   1.477   2.003
 5807SOL    HW118320   0.899   1.469   1.921
 5807SOL    HW218321   0.939   1.565   2.047
 5808SOL     OW18322   0.031   0.339   5.507
 5808SOL    HW118323   0.115   0.297   5.540
 5808SOL    HW218324   6.983   0.269   5.497
 5809SOL     OW18325   6.941   3.709   4.255
 5809SOL    HW118326   6.999   3.693   4.175
 5809SOL    HW218327   6.942   3.628   4.314
 5810SOL     OW18328   1.622   6.795   5.655
 5810SOL    HW118329   1.535   6.778   5.701
 5810SOL    HW218330   1.674   6.710   5.650
 5811SOL     OW18331   3.863   5.209   0.053
 5811SOL    HW118332   3.867   5.281   0.122
 5811SOL    HW218333   3.774   5.214   0.006
 5812SOL     OW18334   6.307   3.878   6.068
 5812SOL    HW118335   6.251   3.955   6.036
 5812SOL    HW218336   6.400   3.910   6.086
 5813SOL     OW18337   5.840   4.673   0.553
 5813SOL    HW118338   5.931   4.661   0.593
 5813SOL    HW218339   5.830   4.613   0.474
 5814SOL     OW18340   5.624   1.249   2.606
 5814SOL    HW118341   5.657   1.312   2.535
 5814SOL    HW218342   5.551   1.293   2.658
 5815SOL     OW18343   6.806   3.743   4.802
 5815SOL    HW118344   6.782   3.832   4.761
 5815SOL    HW218345   6.900   3.746   4.834
 5816SOL     OW18346   6.750   4.014   1.230
 5816SOL    HW118347   6.769   4.090   1.167
 5816SOL    HW218348   6.836   3.978   1.265
 5817SOL     OW18349   7.019   2.890   3.751
 5817SOL    HW118350   6.959   2.830   3.698
 5817SOL    HW218351   0.028   2.964   3.692
 5818SOL     OW18352   2.312   0.142   4.358
 5818SOL    HW118353   2.292   0.155   4.455
 5818SOL    HW218354   2.307   0.044   4.336
 5819SOL     OW18355   4.260   4.011   1.248
 5819SOL    HW118356   4.183   4.054   1.200
 5819SOL    HW218357   4.311   4.082   1.297
 5820SOL     OW18358   0.023   6.822   2.254
 5820SOL    HW118359   0.017   6.878   2.337
 5820SOL    HW218360   0.019   6.725   2.278
 5821SOL     OW18361   6.464   6.530   2.067
 5821SOL    HW118362   6.553   6.538   2.024
 5821SOL    HW218363   6.421   6.444   2.040
 5822SOL     OW18364   0.761   3.993   2.748
 5822SOL    HW118365   0.798   4.083   2.773
 5822SOL    HW218366   0.798   3.924   2.810
 5823SOL     OW18367   2.484   6.464   4.987
 5823SOL    HW118368   2.486   6.564   4.999
 5823SOL    HW218369   2.578   6.429   4.988
 5824SOL     OW18370   2.056   5.994   2.242
 5824SOL    HW118371   2.069   5.934   2.163
 5824SOL    HW218372   2.106   5.956   2.320
 5825SOL     OW18373   4.275   1.761   5.076
 5825SOL    HW118374   4.196   1.784   5.133
 5825SOL    HW218375   4.273   1.664   5.054
 5826SOL     OW18376   1.414   6.188   4.484
 5826SOL    HW118377   1.321   6.221   4.501
 5826SOL    HW218378   1.464   6.256   4.430
 5827SOL     OW18379   2.202   3.966   3.370
 5827SOL    HW118380   2.251   4.047   3.339
 5827SOL    HW218381   2.140   3.935   3.298
 5828SOL     OW18382   4.713   6.683   5.304
 5828SOL    HW118383   4.788   6.731   5.259
 5828SOL    HW218384   4.707   6.590   5.267
 5829SOL     OW18385   2.053   0.550   2.760
 5829SOL    HW118386   2.130   0.574   2.702
 5829SOL    HW218387   1.972   0.534   2.704
 5830SOL     OW18388   4.809   5.748   4.682
 5830SOL    HW118389   4.713   5.722   4.686
 5830SOL    HW218390   4.831   5.780   4.590
 5831SOL     OW18391   2.474   1.789   4.414
 5831SOL    HW118392   2.379   1.767   4.435
 5831SOL    HW218393   2.508   1.856   4.480
 5832SOL     OW18394   2.332   5.378   4.048
 5832SOL    HW118395   2.370   5.456   4.098
 5832SOL    HW218396   2.395   5.350   3.976
 5833SOL     OW18397   3.028   4.658   1.032
 5833SOL    HW118398   2.938   4.643   0.991
 5833SOL    HW218399   3.076   4.570   1.040
 5834SOL     OW18400   6.251   2.426   6.424
 5834SOL    HW118401   6.275   2.456   6.516
 5834SOL    HW218402   6.158   2.389   6.424
 5835SOL     OW18403   4.318   1.534   3.441
 5835SOL    HW118404   4.306   1.477   3.360
 5835SOL    HW218405   4.339   1.627   3.413
 5836SOL     OW18406   4.885   5.201   1.595
 5836SOL    HW118407   4.874   5.205   1.694
 5836SOL    HW218408   4.880   5.294   1.557
 5837SOL     OW18409   2.700   4.163   0.262
 5837SOL    HW118410   2.715   4.226   0.339
 5837SOL    HW218411   2.666   4.214   0.184
 5838SOL     OW18412   3.333   3.038   7.010
 5838SOL    HW118413   3.406   3.090   0.031
 5838SOL    HW218414   3.356   3.026   6.913
 5839SOL     OW18415   2.049   1.378   0.634
 5839SOL    HW118416   2.131   1.350   0.684
 5839SOL    HW218417   1.968   1.339   0.678
 5840SOL     OW18418   0.351   3.431   2.583
 5840SOL    HW118419   0.261   3.418   2.625
 5840SOL    HW218420   0.365   3.363   2.511
 5841SOL     OW18421   5.362   1.621   0.581
 5841SOL    HW118422   5.377   1.616   0.679
 5841SOL    HW218423   5.276   1.669   0.562
 5842SOL     OW18424   3.222   2.134   2.192
 5842SOL    HW118425   3.255   2.135   2.286
 5842SOL    HW218426   3.127   2.165   2.190
 5843SOL     OW18427   3.380   3.220   0.758
 5843SOL    HW118428   3.477   3.222   0.733
 5843SOL    HW218429   3.369   3.179   0.848
 5844SOL     OW18430   0.625   5.681   5.572
 5844SOL    HW118431   0.671   5.592   5.580
 5844SOL    HW218432   0.536   5.675   5.616
 5845SOL     OW18433   2.130   6.442   2.671
 5845SOL    HW118434   2.163   6.494   2.592
 5845SOL    HW218435   2.093   6.505   2.739
 5846SOL     OW18436   0.561   4.627   5.988
 5846SOL    HW118437   0.528   4.611   5.895
 5846SOL    HW218438   0.599   4.542   6.025
 5847SOL     OW18439   1.780   4.106   6.203
 5847SOL    HW118440   1.845   4.160   6.149
 5847SOL    HW218441   1.821   4.017   6.225
 5848SOL     OW18442   2.501   6.386   1.678
 5848SOL    HW118443   2.515   6.289   1.659
 5848SOL    HW218444   2.429   6.396   1.747
 5849SOL     OW18445   2.842   5.613   6.540
 5849SOL    HW118446   2.934   5.632   6.507
 5849SOL    HW218447   2.815   5.520   6.514
 5850SOL     OW18448   5.774   1.476   1.522
 5850SOL    HW118449   5.819   1.563   1.544
 5850SOL    HW218450   5.842   1.402   1.523
 5851SOL     OW18451   0.327   3.876   4.683
 5851SOL    HW118452   0.384   3.811   4.732
 5851SOL    HW218453   0.251   3.828   4.640
 5852SOL     OW18454   5.024   4.225   2.830
 5852SOL    HW118455   5.059   4.309   2.787
 5852SOL    HW218456   4.933   4.204   2.794
 5853SOL     OW18457   4.581   4.965   0.363
 5853SOL    HW118458   4.617   4.966   0.457
 5853SOL    HW218459   4.536   5.053   0.344
 5854SOL     OW18460   2.930   4.628   5.405
 5854SOL    HW118461   2.850   4.624   5.465
 5854SOL    HW218462   2.902   4.610   5.310
 5855SOL     OW18463   2.147   2.082   4.242
 5855SOL    HW118464   2.186   2.149   4.305
 5855SOL    HW218465   2.165   1.990   4.276
 5856SOL     OW18466   0.195   0.424   2.447
 5856SOL    HW118467   0.256   0.483   2.395
 5856SOL    HW218468   0.161   0.473   2.527
 5857SOL     OW18469   5.657   5.234   0.045
 5857SOL    HW118470   5.584   5.300   0.029
 5857SOL    HW218471   5.618   5.143   0.060
 5858SOL     OW18472   2.277   1.549   2.648
 5858SOL    HW118473   2.303   1.642   2.675
 5858SOL    HW218474   2.271   1.543   2.549
 5859SOL     OW18475   5.410   5.739   2.219
 5859SOL    HW118476   5.392   5.835   2.236
 5859SOL    HW218477   5.460   5.700   2.296
 5860SOL     OW18478   2.097   3.269   2.828
 5860SOL    HW118479   2.105   3.364   2.797
 5860SOL    HW218480   2.001   3.243   2.832
 5861SOL     OW18481   5.846   0.718   5.084
 5861SOL    HW118482   5.942   0.696   5.099
 5861SOL    HW218483   5.795   0.706   5.170
 5862SOL     OW18484   6.901   5.149   3.222
 5862SOL    HW118485   6.829   5.134   3.154
 5862SOL    HW218486   6.879   5.230   3.276
 5863SOL     OW18487   4.128   6.870   6.025
 5863SOL    HW118488   4.053   6.820   6.069
 5863SOL    HW218489   4.116   6.968   6.039
 5864SOL     OW18490   3.692   2.850   2.883
 5864SOL    HW118491   3.609   2.847   2.827
 5864SOL    HW218492   3.764   2.898   2.833
 5865SOL     OW18493   6.272   6.879   1.563
 5865SOL    HW118494   6.202   6.844   1.501
 5865SOL    HW218495   6.236   6.957   1.614
 5866SOL     OW18496   3.531   3.574   3.574
 5866SOL    HW118497   3.538   3.580   3.674
 5866SOL    HW218498   3.450   3.521   3.549
 5867SOL     OW18499   3.788   1.373   0.877
 5867SOL    HW118500   3.835   1.288   0.854
 5867SOL    HW218501   3.779   1.429   0.795
 5868SOL     OW18502   1.639   0.605   0.437
 5868SOL    HW118503   1.693   0.537   0.487
 5868SOL    HW218504   1.610   0.566   0.349
 5869SOL     OW18505   1.680   5.606   2.646
 5869SOL    HW118506   1.700   5.704   2.643
 5869SOL    HW218507   1.718   5.567   2.729
 5870SOL     OW18508   4.804   0.223   3.748
 5870SOL    HW118509   4.817   0.220   3.847
 5870SOL    HW218510   4.860   0.297   3.710
 5871SOL     OW18511   3.627   3.230   3.807
 5871SOL    HW118512   3.623   3.134   3.782
 5871SOL    HW218513   3.661   3.284   3.730
 5872SOL     OW18514   3.766   5.911   1.145
 5872SOL    HW118515   3.729   5.944   1.231
 5872SOL    HW218516   3.831   5.978   1.109
 5873SOL     OW18517   4.117   6.219   2.006
 5873SOL    HW118518   4.030   6.171   2.017
 5873SOL    HW218519   4.188   6.173   2.059
 5874SOL     OW18520   0.371   4.511   5.118
 5874SOL    HW118521   0.460   4.525   5.075
 5874SOL    HW218522   0.317   4.595   5.110
 5875SOL     OW18523   4.112   2.401   1.291
 5875SOL    HW118524   4.057   2.320   1.273
 5875SOL    HW218525   4.077   2.448   1.372
 5876SOL     OW18526   3.260   2.897   2.031
 5876SOL    HW118527   3.353   2.862   2.022
 5876SOL    HW218528   3.211   2.846   2.102
 5877SOL     OW18529   5.293   4.210   1.643
 5877SOL    HW118530   5.197   4.194   1.620
 5877SOL    HW218531   5.336   4.123   1.667
 5878SOL     OW18532   1.786   3.795   2.621
 5878SOL    HW118533   1.863   3.823   2.562
 5878SOL    HW218534   1.748   3.876   2.666
 5879SOL     OW18535   2.060   3.512   4.161
 5879SOL    HW118536   2.057   3.424   4.207
 5879SOL    HW218537   2.074   3.498   4.063
 5880SOL     OW18538   3.204   5.572   7.013
 5880SOL    HW118539   3.114   5.615   7.013
 5880SOL    HW218540   3.202   5.492   0.049
 5881SOL     OW18541   1.575   6.365   4.343
 5881SOL    HW118542   1.596   6.462   4.344
 5881SOL    HW218543   1.568   6.333   4.249
 5882SOL     OW18544   5.201   0.194   3.340
 5882SOL    HW118545   5.297   0.214   3.356
 5882SOL    HW218546   5.174   0.229   3.250
 5883SOL     OW18547   0.773   3.193   4.894
 5883SOL    HW118548   0.861   3.154   4.867
 5883SOL    HW218549   0.787   3.280   4.939
 5884SOL     OW18550   0.530   0.855   3.074
 5884SOL    HW118551   0.608   0.907   3.109
 5884SOL    HW218552   0.449   0.912   3.076
 5885SOL     OW18553   5.869   6.908   0.923
 5885SOL    HW118554   5.887   6.944   1.015
 5885SOL    HW218555   5.878   6.809   0.924
 5886SOL     OW18556   6.104   1.791   6.244
 5886SOL    HW118557   6.191   1.838   6.255
 5886SOL    HW218558   6.032   1.857   6.222
 5887SOL     OW18559   3.958   5.949   2.911
 5887SOL    HW118560   3.914   5.867   2.875
 5887SOL    HW218561   3.967   6.017   2.838
 5888SOL     OW18562   6.714   6.554   1.971
 5888SOL    HW118563   6.740   6.644   1.935
 5888SOL    HW218564   6.792   6.492   1.964
 5889SOL     OW18565   2.648   6.902   6.619
 5889SOL    HW118566   2.551   6.919   6.606
 5889SOL    HW218567   2.660   6.820   6.675
 5890SOL     OW18568   3.981   5.096   6.143
 5890SOL    HW118569   3.981   4.997   6.158
 5890SOL    HW218570   3.900   5.122   6.091
 5891SOL     OW18571   2.081   3.747   6.136
 5891SOL    HW118572   2.015   3.679   6.101
 5891SOL    HW218573   2.066   3.834   6.088
 5892SOL     OW18574   2.203   6.216   2.551
 5892SOL    HW118575   2.149   6.141   2.591
 5892SOL    HW218576   2.190   6.299   2.604
 5893SOL     OW18577   1.431   2.038   3.184
 5893SOL    HW118578   1.391   1.946   3.186
 5893SOL    HW218579   1.477   2.057   3.271
 5894SOL     OW18580   1.414   4.012   4.090
 5894SOL    HW118581   1.460   4.098   4.114
 5894SOL    HW218582   1.406   3.955   4.172
 5895SOL     OW18583   5.928   3.710   3.454
 5895SOL    HW118584   5.937   3.668   3.544
 5895SOL    HW218585   5.831   3.725   3.434
 5896SOL     OW18586   5.095   3.359   6.499
 5896SOL    HW118587   5.081   3.335   6.403
 5896SOL    HW218588   5.174   3.310   6.535
 5897SOL     OW18589   4.665   5.142   1.029
 5897SOL    HW118590   4.746   5.177   0.983
 5897SOL    HW218591   4.610   5.218   1.062
 5898SOL     OW18592   2.950   6.746   3.178
 5898SOL    HW118593   2.938   6.809   3.101
 5898SOL    HW218594   2.860   6.718   3.212
 5899SOL     OW18595   5.723   0.309   3.868
 5899SOL    HW118596   5.662   0.230   3.877
 5899SOL    HW218597   5.749   0.342   3.958
 5900SOL     OW18598   3.902   4.843   1.925
 5900SOL    HW118599   3.809   4.808   1.930
 5900SOL    HW218600   3.907   4.930   1.973
 5901SOL     OW18601   2.952   6.415   4.604
 5901SOL    HW118602   3.040   6.371   4.623
 5901SOL    HW218603   2.965   6.486   4.534
 5902SOL     OW18604   5.875   2.489   0.121
 5902SOL    HW118605   5.806   2.458   0.056
 5902SOL    HW218606   5.893   2.416   0.187
 5903SOL     OW18607   0.548   2.820   6.066
 5903SOL    HW118608   0.464   2.871   6.049
 5903SOL    HW218609   0.619   2.884   6.096
 5904SOL     OW18610   1.798   2.931   2.647
 5904SOL    HW118611   1.805   2.846   2.700
 5904SOL    HW218612   1.839   2.917   2.557
 5905SOL     OW18613   0.184   4.532   2.739
 5905SOL    HW118614   0.213   4.626   2.723
 5905SOL    HW218615   0.108   4.510   2.679
 5906SOL     OW18616   1.314   1.137   2.645
 5906SOL    HW118617   1.403   1.124   2.688
 5906SOL    HW218618   1.253   1.185   2.708
 5907SOL     OW18619   2.167   6.966   2.804
 5907SOL    HW118620   2.073   6.956   2.837
 5907SOL    HW218621   2.168   7.023   2.722
 5908SOL     OW18622   1.017   2.931   5.977
 5908SOL    HW118623   1.053   2.878   6.054
 5908SOL    HW218624   0.958   2.872   5.922
 5909SOL     OW18625   6.612   4.691   0.445
 5909SOL    HW118626   6.558   4.618   0.489
 5909SOL    HW218627   6.670   4.651   0.375
 5910SOL     OW18628   1.337   1.779   3.201
 5910SOL    HW118629   1.281   1.734   3.131
 5910SOL    HW218630   1.380   1.710   3.258
 5911SOL     OW18631   6.605   5.637   6.654
 5911SOL    HW118632   6.605   5.719   6.710
 5911SOL    HW218633   6.560   5.656   6.567
 5912SOL     OW18634   0.037   0.145   3.180
 5912SOL    HW118635   6.997   0.085   3.229
 5912SOL    HW218636   0.120   0.159   3.234
 5913SOL     OW18637   6.432   2.453   1.075
 5913SOL    HW118638   6.394   2.439   1.166
 5913SOL    HW218639   6.358   2.454   1.008
 5914SOL     OW18640   0.693   6.507   0.967
 5914SOL    HW118641   0.733   6.595   0.990
 5914SOL    HW218642   0.602   6.520   0.928
 5915SOL     OW18643   3.852   0.635   5.614
 5915SOL    HW118644   3.940   0.637   5.662
 5915SOL    HW218645   3.778   0.634   5.681
 5916SOL     OW18646   0.944   0.475   2.297
 5916SOL    HW118647   0.931   0.445   2.202
 5916SOL    HW218648   0.864   0.527   2.326
 5917SOL     OW18649   3.272   2.830   0.495
 5917SOL    HW118650   3.318   2.836   0.406
 5917SOL    HW218651   3.314   2.757   0.549
 5918SOL     OW18652   3.596   6.747   4.305
 5918SOL    HW118653   3.626   6.842   4.295
 5918SOL    HW218654   3.671   6.686   4.278
 5919SOL     OW18655   3.214   3.229   4.834
 5919SOL    HW118656   3.236   3.154   4.772
 5919SOL    HW218657   3.119   3.220   4.865
 5920SOL     OW18658   0.596   0.231   5.809
 5920SOL    HW118659   0.606   0.246   5.908
 5920SOL    HW218660   0.529   0.158   5.794
 5921SOL     OW18661   2.621   4.307   0.033
 5921SOL    HW118662   2.565   4.374   0.082
 5921SOL    HW218663   2.700   4.354   7.016
 5922SOL     OW18664   5.279   2.975   2.658
 5922SOL    HW118665   5.190   3.007   2.624
 5922SOL    HW218666   5.296   2.883   2.623
 5923SOL     OW18667   5.868   0.694   3.230
 5923SOL    HW118668   5.952   0.692   3.284
 5923SOL    HW218669   5.844   0.790   3.211
 5924SOL     OW18670   5.785   6.666   3.524
 5924SOL    HW118671   5.761   6.668   3.426
 5924SOL    HW218672   5.880   6.696   3.535
 5925SOL     OW18673   4.386   1.504   0.791
 5925SOL    HW118674   4.464   1.522   0.732
 5925SOL    HW218675   4.302   1.501   0.735
 5926SOL     OW18676   5.643   3.749   3.391
 5926SOL    HW118677   5.582   3.762   3.312
 5926SOL    HW218678   5.643   3.653   3.417
 5927SOL     OW18679   0.415   5.204   1.849
 5927SOL    HW118680   0.467   5.230   1.930
 5927SOL    HW218681   0.317   5.217   1.866
 5928SOL     OW18682   2.844   6.964   6.889
 5928SOL    HW118683   2.765   7.006   6.845
 5928SOL    HW218684   2.868   6.880   6.841
 5929SOL     OW18685   1.123   0.604   0.818
 5929SOL    HW118686   1.219   0.582   0.802
 5929SOL    HW218687   1.110   0.631   0.913
 5930SOL     OW18688   1.609   3.856   2.361
 5930SOL    HW118689   1.644   3.804   2.283
 5930SOL    HW218690   1.591   3.794   2.437
 5931SOL     OW18691   5.065   6.123   3.028
 5931SOL    HW118692   5.021   6.049   2.978
 5931SOL    HW218693   5.021   6.210   3.005
 5932SOL     OW18694   3.091   6.337   0.428
 5932SOL    HW118695   3.032   6.391   0.488
 5932SOL    HW218696   3.115   6.391   0.348
 5933SOL     OW18697   6.247   5.621   4.423
 5933SOL    HW118698   6.150   5.634   4.405
 5933SOL    HW218699   6.271   5.525   4.407
 5934SOL     OW18700   3.000   3.346   0.704
 5934SOL    HW118701   3.026   3.319   0.797
 5934SOL    HW218702   2.951   3.271   0.660
 5935SOL     OW18703   1.004   0.542   5.271
 5935SOL    HW118704   1.084   0.547   5.331
 5935SOL    HW218705   0.922   0.535   5.327
 5936SOL     OW18706   3.628   2.979   1.706
 5936SOL    HW118707   3.622   2.949   1.801
 5936SOL    HW218708   3.585   3.068   1.696
 5937SOL     OW18709   0.511   2.979   0.747
 5937SOL    HW118710   0.463   2.964   0.661
 5937SOL    HW218711   0.448   2.967   0.824
 5938SOL     OW18712   0.491   3.692   3.918
 5938SOL    HW118713   0.492   3.615   3.854
 5938SOL    HW218714   0.486   3.778   3.867
 5939SOL     OW18715   4.355   1.283   5.915
 5939SOL    HW118716   4.403   1.322   5.994
 5939SOL    HW218717   4.337   1.186   5.931
 5940SOL     OW18718   4.674   4.954   1.623
 5940SOL    HW118719   4.726   4.921   1.701
 5940SOL    HW218720   4.707   5.045   1.596
 5941SOL     OW18721   7.005   1.849   2.648
 5941SOL    HW118722   6.914   1.810   2.667
 5941SOL    HW218723   7.003   1.947   2.665
 5942SOL     OW18724   5.528   2.505   6.508
 5942SOL    HW118725   5.440   2.525   6.551
 5942SOL    HW218726   5.596   2.486   6.579
 5943SOL     OW18727   1.715   4.640   1.274
 5943SOL    HW118728   1.707   4.689   1.361
 5943SOL    HW218729   1.760   4.699   1.207
 5944SOL     OW18730   5.985   3.547   5.911
 5944SOL    HW118731   5.987   3.646   5.902
 5944SOL    HW218732   5.899   3.519   5.956
 5945SOL     OW18733   6.629   6.371   4.674
 5945SOL    HW118734   6.675   6.446   4.626
 5945SOL    HW218735   6.692   6.327   4.737
 5946SOL     OW18736   2.012   3.185   6.842
 5946SOL    HW118737   1.945   3.212   6.773
 5946SOL    HW218738   1.987   3.096   6.879
 5947SOL     OW18739   3.526   3.543   4.486
 5947SOL    HW118740   3.481   3.534   4.398
 5947SOL    HW218741   3.538   3.453   4.527
 5948SOL     OW18742   4.804   3.697   1.530
 5948SOL    HW118743   4.717   3.733   1.563
 5948SOL    HW218744   4.837   3.755   1.455
 5949SOL     OW18745   0.595   4.123   3.030
 5949SOL    HW118746   0.547   4.071   2.959
 5949SOL    HW218747   0.626   4.061   3.101
 5950SOL     OW18748   3.218   6.665   4.595
 5950SOL    HW118749   3.285   6.728   4.556
 5950SOL    HW218750   3.172   6.616   4.521
 5951SOL     OW18751   0.024   3.897   6.721
 5951SOL    HW118752   7.003   3.891   6.811
 5951SOL    HW218753   6.982   3.867   6.651
 5952SOL     OW18754   3.817   4.049   1.879
 5952SOL    HW118755   3.797   4.056   1.976
 5952SOL    HW218756   3.737   4.014   1.830
 5953SOL     OW18757   6.641   3.634   6.112
 5953SOL    HW118758   6.556   3.618   6.060
 5953SOL    HW218759   6.719   3.600   6.059
 5954SOL     OW18760   2.014   5.661   3.930
 5954SOL    HW118761   1.938   5.675   3.867
 5954SOL    HW218762   2.067   5.580   3.902
 5955SOL     OW18763   4.584   3.160   0.544
 5955SOL    HW118764   4.680   3.154   0.516
 5955SOL    HW218765   4.563   3.255   0.568
 5956SOL     OW18766   4.767   2.923   5.671
 5956SOL    HW118767   4.858   2.932   5.632
 5956SOL    HW218768   4.729   2.833   5.650
 5957SOL     OW18769   6.782   1.743   3.526
 5957SOL    HW118770   6.755   1.648   3.544
 5957SOL    HW218771   6.702   1.802   3.533
 5958SOL     OW18772   2.482   6.565   3.245
 5958SOL    HW118773   2.401   6.622   3.260
 5958SOL    HW218774   2.484   6.537   3.149
 5959SOL     OW18775   5.547   2.943   3.055
 5959SOL    HW118776   5.545   2.877   2.980
 5959SOL    HW218777   5.626   3.003   3.045
 5960SOL     OW18778   4.938   0.809   5.926
 5960SOL    HW118779   5.037   0.823   5.929
 5960SOL    HW218780   4.917   0.730   5.868
 5961SOL     OW18781   2.988   2.216   3.847
 5961SOL    HW118782   3.051   2.187   3.920
 5961SOL    HW218783   2.909   2.261   3.888
 5962SOL     OW18784   4.500   4.764   0.639
 5962SOL    HW118785   4.537   4.708   0.713
 5962SOL    HW218786   4.545   4.853   0.638
 5963SOL     OW18787   1.897   3.576   0.745
 5963SOL    HW118788   1.800   3.556   0.757
 5963SOL    HW218789   1.935   3.517   0.673
 5964SOL     OW18790   1.844   0.015   3.328
 5964SOL    HW118791   1.875   6.971   3.260
 5964SOL    HW218792   1.849   0.107   3.289
 5965SOL     OW18793   2.450   0.232   0.947
 5965SOL    HW118794   2.451   0.164   1.020
 5965SOL    HW218795   2.438   0.185   0.859
 5966SOL     OW18796   2.792   2.005   5.258
 5966SOL    HW118797   2.758   2.077   5.318
 5966SOL    HW218798   2.834   2.046   5.177
 5967SOL     OW18799   4.965   2.231   5.129
 5967SOL    HW118800   4.939   2.171   5.053
 5967SOL    HW218801   4.909   2.210   5.209
 5968SOL     OW18802   5.852   1.969   2.737
 5968SOL    HW118803   5.816   1.921   2.817
 5968SOL    HW218804   5.927   1.915   2.698
 5969SOL     OW18805   4.526   0.030   0.943
 5969SOL    HW118806   4.487   0.100   0.884
 5969SOL    HW218807   4.541   0.068   1.034
 5970SOL     OW18808   6.666   2.972   0.531
 5970SOL    HW118809   6.566   2.966   0.527
 5970SOL    HW218810   6.692   3.034   0.605
 5971SOL     OW18811   7.001   5.453   3.905
 5971SOL    HW118812   0.052   5.386   3.896
 5971SOL    HW218813   6.961   5.471   3.815
 5972SOL     OW18814   6.213   5.283   0.769
 5972SOL    HW118815   6.199   5.367   0.820
 5972SOL    HW218816   6.124   5.244   0.742
 5973SOL     OW18817   2.657   0.747   2.410
 5973SOL    HW118818   2.637   0.807   2.333
 5973SOL    HW218819   2.755   0.747   2.428
 5974SOL     OW18820   5.677   1.796   4.666
 5974SOL    HW118821   5.665   1.721   4.601
 5974SOL    HW218822   5.588   1.831   4.693
 5975SOL     OW18823   4.295   5.569   1.529
 5975SOL    HW118824   4.365   5.498   1.523
 5975SOL    HW218825   4.277   5.606   1.438
 5976SOL     OW18826   1.593   3.964   5.657
 5976SOL    HW118827   1.560   3.899   5.725
 5976SOL    HW218828   1.635   4.043   5.703
 5977SOL     OW18829   6.907   5.102   0.836
 5977SOL    HW118830   6.893   5.003   0.837
 5977SOL    HW218831   6.821   5.148   0.859
 5978SOL     OW18832   2.662   3.586   6.845
 5978SOL    HW118833   2.697   3.495   6.823
 5978SOL    HW218834   2.617   3.585   6.934
 5979SOL     OW18835   6.408   0.117   1.265
 5979SOL    HW118836   6.341   0.114   1.191
 5979SOL    HW218837   6.444   0.025   1.283
 5980SOL     OW18838   2.891   2.190   1.082
 5980SOL    HW118839   2.980   2.188   1.038
 5980SOL    HW218840   2.819   2.175   1.014
 5981SOL     OW18841   2.923   2.168   1.343
 5981SOL    HW118842   2.938   2.192   1.247
 5981SOL    HW218843   2.896   2.250   1.394
 5982SOL     OW18844   5.499   3.002   2.065
 5982SOL    HW118845   5.437   2.984   1.988
 5982SOL    HW218846   5.573   2.935   2.064
 5983SOL     OW18847   0.049   0.987   3.803
 5983SOL    HW118848   0.025   0.913   3.865
 5983SOL    HW218849   0.130   0.963   3.751
 5984SOL     OW18850   6.112   6.074   3.072
 5984SOL    HW118851   6.080   6.062   3.166
 5984SOL    HW218852   6.058   6.017   3.011
 5985SOL     OW18853   0.080   3.729   2.669
 5985SOL    HW118854   0.024   3.651   2.640
 5985SOL    HW218855   0.176   3.712   2.646
 5986SOL     OW18856   3.956   3.726   3.793
 5986SOL    HW118857   3.875   3.756   3.742
 5986SOL    HW218858   3.981   3.795   3.861
 5987SOL     OW18859   6.937   5.804   5.098
 5987SOL    HW118860   6.948   5.797   4.999
 5987SOL    HW218861   7.019   5.769   5.143
 5988SOL     OW18862   0.745   3.092   6.710
 5988SOL    HW118863   0.765   3.036   6.791
 5988SOL    HW218864   0.755   3.189   6.732
 5989SOL     OW18865   1.215   6.519   5.270
 5989SOL    HW118866   1.198   6.591   5.203
 5989SOL    HW218867   1.184   6.431   5.233
 5990SOL     OW18868   2.730   4.341   1.714
 5990SOL    HW118869   2.645   4.393   1.707
 5990SOL    HW218870   2.797   4.392   1.768
 5991SOL     OW18871   5.409   0.929   1.137
 5991SOL    HW118872   5.324   0.981   1.134
 5991SOL    HW218873   5.436   0.904   1.044
 5992SOL     OW18874   3.370   5.256   2.853
 5992SOL    HW118875   3.293   5.316   2.828
 5992SOL    HW218876   3.455   5.294   2.817
 5993SOL     OW18877   5.662   2.291   0.802
 5993SOL    HW118878   5.717   2.217   0.762
 5993SOL    HW218879   5.709   2.327   0.882
 5994SOL     OW18880   6.743   3.706   6.981
 5994SOL    HW118881   6.645   3.713   6.998
 5994SOL    HW218882   6.763   3.622   6.931
 5995SOL     OW18883   5.167   3.383   1.339
 5995SOL    HW118884   5.188   3.477   1.313
 5995SOL    HW218885   5.119   3.383   1.427
 5996SOL     OW18886   2.271   6.539   1.119
 5996SOL    HW118887   2.265   6.466   1.051
 5996SOL    HW218888   2.367   6.566   1.130
 5997SOL     OW18889   6.064   0.355   3.905
 5997SOL    HW118890   6.008   0.436   3.885
 5997SOL    HW218891   6.149   0.384   3.949
 5998SOL     OW18892   0.057   6.135   6.849
 5998SOL    HW118893   0.126   6.174   6.788
 5998SOL    HW218894   0.102   6.077   6.917
 5999SOL     OW18895   4.995   3.620   1.710
 5999SOL    HW118896   4.957   3.579   1.793
 5999SOL    HW218897   4.920   3.656   1.654
 6000SOL     OW18898   1.282   4.395   0.796
 6000SOL    HW118899   1.266   4.360   0.889
 6000SOL    HW218900   1.374   4.371   0.767
 6001SOL     OW18901   5.896   5.381   5.826
 6001SOL    HW118902   5.873   5.478   5.836
 6001SOL    HW218903   5.986   5.364   5.866
 6002SOL     OW18904   5.151   4.723   5.446
 6002SOL    HW118905   5.113   4.797   5.501
 6002SOL    HW218906   5.149   4.749   5.349
 6003SOL     OW18907   2.332   2.360   5.012
 6003SOL    HW118908   2.393   2.282   5.021
 6003SOL    HW218909   2.382   2.437   4.972
 6004SOL     OW18910   5.228   3.417   5.454
 6004SOL    HW118911   5.197   3.506   5.487
 6004SOL    HW218912   5.285   3.373   5.523
 6005SOL     OW18913   4.150   4.103   0.273
 6005SOL    HW118914   4.115   4.125   0.182
 6005SOL    HW218915   4.096   4.152   0.342
 6006SOL     OW18916   3.360   6.023   6.657
 6006SOL    HW118917   3.429   6.056   6.593
 6006SOL    HW218918   3.402   6.009   6.747
 6007SOL     OW18919   2.273   6.394   4.850
 6007SOL    HW118920   2.354   6.419   4.904
 6007SOL    HW218921   2.249   6.298   4.869
 6008SOL     OW18922   2.161   3.946   6.652
 6008SOL    HW118923   2.175   3.943   6.553
 6008SOL    HW218924   2.065   3.963   6.672
 6009SOL     OW18925   4.238   5.190   2.628
 6009SOL    HW118926   4.306   5.240   2.575
 6009SOL    HW218927   4.282   5.112   2.674
 6010SOL     OW18928   0.253   4.875   4.875
 6010SOL    HW118929   0.194   4.956   4.876
 6010SOL    HW218930   0.336   4.894   4.823
 6011SOL     OW18931   5.365   1.589   3.337
 6011SOL    HW118932   5.371   1.590   3.238
 6011SOL    HW218933   5.415   1.667   3.375
 6012SOL     OW18934   6.665   0.589   5.591
 6012SOL    HW118935   6.690   0.675   5.636
 6012SOL    HW218936   6.734   0.519   5.613
 6013SOL     OW18937   5.846   1.565   2.189
 6013SOL    HW118938   5.944   1.561   2.174
 6013SOL    HW218939   5.818   1.661   2.201
 6014SOL     OW18940   3.183   3.282   4.230
 6014SOL    HW118941   3.231   3.303   4.315
 6014SOL    HW218942   3.087   3.308   4.237
 6015SOL     OW18943   5.969   6.975   4.337
 6015SOL    HW118944   6.011   6.915   4.405
 6015SOL    HW218945   5.932   6.920   4.262
 6016SOL     OW18946   4.058   2.153   4.403
 6016SOL    HW118947   3.963   2.148   4.435
 6016SOL    HW218948   4.060   2.141   4.304
 6017SOL     OW18949   1.419   1.763   5.690
 6017SOL    HW118950   1.412   1.750   5.591
 6017SOL    HW218951   1.465   1.850   5.708
 6018SOL     OW18952   2.562   1.156   3.715
 6018SOL    HW118953   2.641   1.198   3.760
 6018SOL    HW218954   2.527   1.081   3.770
 6019SOL     OW18955   6.658   4.747   6.675
 6019SOL    HW118956   6.576   4.799   6.697
 6019SOL    HW218957   6.700   4.712   6.759
 6020SOL     OW18958   0.915   5.087   5.899
 6020SOL    HW118959   0.895   5.037   5.815
 6020SOL    HW218960   1.000   5.139   5.887
 6021SOL     OW18961   5.843   6.923   3.290
 6021SOL    HW118962   5.789   6.840   3.285
 6021SOL    HW218963   5.782   7.003   3.290
 6022SOL     OW18964   6.053   3.024   1.829
 6022SOL    HW118965   6.030   2.953   1.761
 6022SOL    HW218966   5.971   3.075   1.852
 6023SOL     OW18967   4.837   6.441   2.096
 6023SOL    HW118968   4.815   6.494   2.014
 6023SOL    HW218969   4.838   6.502   2.176
 6024SOL     OW18970   0.565   6.525   6.515
 6024SOL    HW118971   0.625   6.447   6.531
 6024SOL    HW218972   0.568   6.586   6.594
 6025SOL     OW18973   2.558   0.369   5.107
 6025SOL    HW118974   2.482   0.422   5.069
 6025SOL    HW218975   2.592   0.412   5.190
 6026SOL     OW18976   6.146   5.867   3.492
 6026SOL    HW118977   6.072   5.806   3.463
 6026SOL    HW218978   6.187   5.832   3.576
 6027SOL     OW18979   6.043   5.387   6.339
 6027SOL    HW118980   5.987   5.469   6.335
 6027SOL    HW218981   6.004   5.322   6.404
 6028SOL     OW18982   5.991   6.019   6.364
 6028SOL    HW118983   6.025   5.925   6.365
 6028SOL    HW218984   5.893   6.019   6.381
 6029SOL     OW18985   3.582   1.512   2.682
 6029SOL    HW118986   3.648   1.437   2.674
 6029SOL    HW218987   3.569   1.535   2.779
 6030SOL     OW18988   6.305   3.402   4.548
 6030SOL    HW118989   6.238   3.440   4.483
 6030SOL    HW218990   6.396   3.405   4.507
 6031SOL     OW18991   0.027   6.532   5.305
 6031SOL    HW118992   0.120   6.499   5.321
 6031SOL    HW218993   6.985   6.475   5.356
 6032SOL     OW18994   3.208   6.626   3.182
 6032SOL    HW118995   3.239   6.604   3.089
 6032SOL    HW218996   3.117   6.667   3.177
 6033SOL     OW18997   0.502   1.612   2.601
 6033SOL    HW118998   0.599   1.608   2.580
 6033SOL    HW218999   0.490   1.607   2.701
 6034SOL     OW19000   0.187   6.916   0.359
 6034SOL    HW119001   0.203   6.889   0.264
 6034SOL    HW219002   0.157   6.837   0.412
 6035SOL     OW19003   2.556   0.268   2.372
 6035SOL    HW119004   2.583   0.316   2.289
 6035SOL    HW219005   2.552   0.170   2.354
 6036SOL     OW19006   6.148   3.490   0.795
 6036SOL    HW119007   6.165   3.578   0.840
 6036SOL    HW219008   6.235   3.445   0.776
 6037SOL     OW19009   4.655   1.150   6.376
 6037SOL    HW119010   4.642   1.238   6.330
 6037SOL    HW219011   4.646   1.162   6.474
 6038SOL     OW19012   1.216   1.235   6.086
 6038SOL    HW119013   1.256   1.309   6.140
 6038SOL    HW219014   1.129   1.266   6.047
 6039SOL     OW19015   4.133   3.295   3.601
 6039SOL    HW119016   4.082   3.209   3.607
 6039SOL    HW219017   4.107   3.355   3.678
 6040SOL     OW19018   0.546   1.971   0.480
 6040SOL    HW119019   0.495   1.951   0.396
 6040SOL    HW219020   0.615   1.900   0.495
 6041SOL     OW19021   0.939   3.577   5.269
 6041SOL    HW119022   1.034   3.551   5.255
 6041SOL    HW219023   0.930   3.676   5.262
 6042SOL     OW19024   2.902   6.083   3.596
 6042SOL    HW119025   2.928   6.144   3.671
 6042SOL    HW219026   2.974   6.083   3.527
 6043SOL     OW19027   2.546   0.122   2.647
 6043SOL    HW119028   2.503   0.096   2.561
 6043SOL    HW219029   2.485   0.182   2.699
 6044SOL     OW19030   0.521   3.365   0.429
 6044SOL    HW119031   0.530   3.382   0.527
 6044SOL    HW219032   0.433   3.322   0.410
 6045SOL     OW19033   5.853   1.099   3.665
 6045SOL    HW119034   5.796   1.174   3.631
 6045SOL    HW219035   5.915   1.133   3.735
 6046SOL     OW19036   3.411   3.309   2.881
 6046SOL    HW119037   3.373   3.229   2.834
 6046SOL    HW219038   3.351   3.335   2.956
 6047SOL     OW19039   6.865   1.708   0.339
 6047SOL    HW119040   6.947   1.765   0.335
 6047SOL    HW219041   6.831   1.704   0.433
 6048SOL     OW19042   5.850   5.934   3.137
 6048SOL    HW119043   5.809   6.004   3.079
 6048SOL    HW219044   5.845   5.845   3.091
 6049SOL     OW19045   4.437   5.206   6.811
 6049SOL    HW119046   4.516   5.242   6.861
 6049SOL    HW219047   4.373   5.280   6.793
 6050SOL     OW19048   2.678   5.259   2.573
 6050SOL    HW119049   2.694   5.353   2.603
 6050SOL    HW219050   2.758   5.226   2.523
 6051SOL     OW19051   0.578   1.314   3.189
 6051SOL    HW119052   0.662   1.314   3.134
 6051SOL    HW219053   0.508   1.260   3.144
 6052SOL     OW19054   5.225   5.379   0.235
 6052SOL    HW119055   5.258   5.431   0.314
 6052SOL    HW219056   5.127   5.397   0.222
 6053SOL     OW19057   4.516   2.461   6.460
 6053SOL    HW119058   4.550   2.547   6.498
 6053SOL    HW219059   4.472   2.479   6.371
 6054SOL     OW19060   4.231   3.691   0.928
 6054SOL    HW119061   4.274   3.755   0.991
 6054SOL    HW219062   4.170   3.630   0.978
 6055SOL     OW19063   2.787   3.387   1.528
 6055SOL    HW119064   2.791   3.407   1.626
 6055SOL    HW219065   2.693   3.365   1.502
 6056SOL     OW19066   5.283   6.021   3.336
 6056SOL    HW119067   5.344   6.010   3.415
 6056SOL    HW219068   5.201   6.070   3.365
 6057SOL     OW19069   5.389   0.615   3.950
 6057SOL    HW119070   5.441   0.611   3.865
 6057SOL    HW219071   5.310   0.554   3.944
 6058SOL     OW19072   0.014   2.576   5.864
 6058SOL    HW119073   6.997   2.564   5.955
 6058SOL    HW219074   0.113   2.588   5.872
 6059SOL     OW19075   4.628   2.649   6.859
 6059SOL    HW119076   4.658   2.687   6.771
 6059SOL    HW219077   4.698   2.667   6.928
 6060SOL     OW19078   2.425   2.420   0.213
 6060SOL    HW119079   2.399   2.438   0.118
 6060SOL    HW219080   2.359   2.358   0.255
 6061SOL     OW19081   3.667   4.074   6.994
 6061SOL    HW119082   3.667   4.011   0.049
 6061SOL    HW219083   3.603   4.041   6.925
 6062SOL     OW19084   2.108   1.852   5.876
 6062SOL    HW119085   2.102   1.949   5.852
 6062SOL    HW219086   2.195   1.834   5.921
 6063SOL     OW19087   4.388   4.398   0.094
 6063SOL    HW119088   4.313   4.450   0.053
 6063SOL    HW219089   4.475   4.444   0.073
 6064SOL     OW19090   6.135   6.031   0.834
 6064SOL    HW119091   6.137   6.131   0.827
 6064SOL    HW219092   6.053   6.002   0.883
 6065SOL     OW19093   2.133   6.212   1.235
 6065SOL    HW119094   2.233   6.217   1.235
 6065SOL    HW219095   2.099   6.228   1.328
 6066SOL     OW19096   5.666   5.608   2.583
 6066SOL    HW119097   5.761   5.583   2.564
 6066SOL    HW219098   5.622   5.533   2.631
 6067SOL     OW19099   0.007   6.547   5.968
 6067SOL    HW119100   0.098   6.534   6.007
 6067SOL    HW219101   6.975   6.603   6.029
 6068SOL     OW19102   5.187   2.340   4.175
 6068SOL    HW119103   5.219   2.247   4.190
 6068SOL    HW219104   5.098   2.352   4.221
 6069SOL     OW19105   6.935   4.675   6.162
 6069SOL    HW119106   6.877   4.625   6.227
 6069SOL    HW219107   6.903   4.769   6.155
 6070SOL     OW19108   2.315   1.746   0.781
 6070SOL    HW119109   2.411   1.718   0.771
 6070SOL    HW219110   2.266   1.678   0.836
 6071SOL     OW19111   5.353   1.151   5.819
 6071SOL    HW119112   5.453   1.144   5.817
 6071SOL    HW219113   5.317   1.138   5.727
 6072SOL     OW19114   6.790   3.437   6.920
 6072SOL    HW119115   6.795   3.375   6.998
 6072SOL    HW219116   6.879   3.442   6.875
 6073SOL     OW19117   5.075   3.883   0.445
 6073SOL    HW119118   5.085   3.791   0.410
 6073SOL    HW219119   5.010   3.934   0.388
 6074SOL     OW19120   0.963   6.779   2.081
 6074SOL    HW119121   0.924   6.854   2.029
 6074SOL    HW219122   1.039   6.813   2.137
 6075SOL     OW19123   5.918   0.720   7.011
 6075SOL    HW119124   5.932   0.810   0.028
 6075SOL    HW219125   5.984   0.655   0.025
 6076SOL     OW19126   0.523   5.755   2.884
 6076SOL    HW119127   0.618   5.724   2.880
 6076SOL    HW219128   0.508   5.826   2.816
 6077SOL     OW19129   5.168   5.850   2.732
 6077SOL    HW119130   5.199   5.944   2.717
 6077SOL    HW219131   5.181   5.797   2.648
 6078SOL     OW19132   5.001   4.208   0.391
 6078SOL    HW119133   4.974   4.289   0.340
 6078SOL    HW219134   5.095   4.220   0.424
 6079SOL     OW19135   3.403   1.496   6.849
 6079SOL    HW119136   3.353   1.416   6.814
 6079SOL    HW219137   3.339   1.558   6.894
 6080SOL     OW19138   6.538   3.648   5.857
 6080SOL    HW119139   6.567   3.653   5.762
 6080SOL    HW219140   6.446   3.611   5.862
 6081SOL     OW19141   1.585   3.525   3.790
 6081SOL    HW119142   1.682   3.551   3.793
 6081SOL    HW219143   1.531   3.603   3.760
 6082SOL     OW19144   5.241   1.239   1.651
 6082SOL    HW119145   5.291   1.220   1.566
 6082SOL    HW219146   5.200   1.330   1.646
 6083SOL     OW19147   5.025   7.019   6.603
 6083SOL    HW119148   5.102   6.961   6.630
 6083SOL    HW219149   5.046   0.091   6.626
 6084SOL     OW19150   6.508   5.409   3.071
 6084SOL    HW119151   6.584   5.375   3.016
 6084SOL    HW219152   6.465   5.486   3.025
 6085SOL     OW19153   0.700   6.601   0.270
 6085SOL    HW119154   0.795   6.570   0.260
 6085SOL    HW219155   0.639   6.536   0.226
 6086SOL     OW19156   3.198   3.679   0.126
 6086SOL    HW119157   3.201   3.718   0.218
 6086SOL    HW219158   3.282   3.700   0.077
 6087SOL     OW19159   4.479   0.140   0.378
 6087SOL    HW119160   4.536   0.145   0.296
 6087SOL    HW219161   4.533   0.168   0.458
 6088SOL     OW19162   4.635   5.177   2.982
 6088SOL    HW119163   4.667   5.180   3.077
 6088SOL    HW219164   4.652   5.086   2.945
 6089SOL     OW19165   6.369   3.766   3.358
 6089SOL    HW119166   6.398   3.684   3.407
 6089SOL    HW219167   6.369   3.749   3.260
 6090SOL     OW19168   3.503   5.503   4.257
 6090SOL    HW119169   3.460   5.591   4.236
 6090SOL    HW219170   3.601   5.516   4.272
 6091SOL     OW19171   0.592   1.352   1.423
 6091SOL    HW119172   0.691   1.353   1.409
 6091SOL    HW219173   0.547   1.324   1.338
 6092SOL     OW19174   2.610   7.009   1.349
 6092SOL    HW119175   2.629   6.920   1.308
 6092SOL    HW219176   2.693   0.041   1.348
 6093SOL     OW19177   2.423   2.465   2.164
 6093SOL    HW119178   2.359   2.541   2.167
 6093SOL    HW219179   2.471   2.465   2.076
 6094SOL     OW19180   0.708   6.483   5.650
 6094SOL    HW119181   0.629   6.452   5.596
 6094SOL    HW219182   0.786   6.497   5.589
 6095SOL     OW19183   5.226   4.677   1.763
 6095SOL    HW119184   5.170   4.617   1.706
 6095SOL    HW219185   5.271   4.745   1.705
 6096SOL     OW19186   4.963   5.838   3.185
 6096SOL    HW119187   4.865   5.850   3.200
 6096SOL    HW219188   5.014   5.885   3.256
 6097SOL     OW19189   2.667   4.908   2.273
 6097SOL    HW119190   2.569   4.893   2.282
 6097SOL    HW219191   2.692   4.912   2.177
 6098SOL     OW19192   6.477   0.652   5.088
 6098SOL    HW119193   6.391   0.699   5.105
 6098SOL    HW219194   6.531   0.705   5.022
 6099SOL     OW19195   3.984   0.028   5.692
 6099SOL    HW119196   3.963   0.119   5.728
 6099SOL    HW219197   3.899   7.001   5.676
 6100SOL     OW19198   0.875   5.545   5.382
 6100SOL    HW119199   0.970   5.520   5.401
 6100SOL    HW219200   0.813   5.484   5.431
 6101SOL     OW19201   0.225   3.301   1.741
 6101SOL    HW119202   0.278   3.288   1.657
 6101SOL    HW219203   0.177   3.388   1.737
 6102SOL     OW19204   3.739   6.886   2.791
 6102SOL    HW119205   3.727   6.954   2.864
 6102SOL    HW219206   3.836   6.861   2.785
 6103SOL     OW19207   6.043   1.862   2.594
 6103SOL    HW119208   6.035   1.884   2.497
 6103SOL    HW219209   6.140   1.866   2.621
 6104SOL     OW19210   6.856   1.108   4.915
 6104SOL    HW119211   6.905   1.086   4.831
 6104SOL    HW219212   6.763   1.074   4.910
 6105SOL     OW19213   3.822   4.317   6.259
 6105SOL    HW119214   3.821   4.399   6.316
 6105SOL    HW219215   3.808   4.236   6.316
 6106SOL     OW19216   6.257   4.771   5.304
 6106SOL    HW119217   6.311   4.771   5.388
 6106SOL    HW219218   6.195   4.693   5.305
 6107SOL     OW19219   5.448   5.010   5.649
 6107SOL    HW119220   5.516   4.982   5.581
 6107SOL    HW219221   5.430   4.934   5.711
 6108SOL     OW19222   2.214   1.123   6.496
 6108SOL    HW119223   2.257   1.035   6.476
 6108SOL    HW219224   2.254   1.161   6.579
 6109SOL     OW19225   0.184   6.710   4.010
 6109SOL    HW119226   0.099   6.678   3.968
 6109SOL    HW219227   0.253   6.724   3.939
 6110SOL     OW19228   1.952   1.675   4.375
 6110SOL    HW119229   1.958   1.581   4.409
 6110SOL    HW219230   1.932   1.674   4.277
 6111SOL     OW19231   1.992   3.357   0.605
 6111SOL    HW119232   2.013   3.317   0.515
 6111SOL    HW219233   2.074   3.400   0.642
 6112SOL     OW19234   4.704   6.664   3.732
 6112SOL    HW119235   4.689   6.754   3.692
 6112SOL    HW219236   4.793   6.628   3.704
 6113SOL     OW19237   2.142   5.377   1.045
 6113SOL    HW119238   2.155   5.316   0.966
 6113SOL    HW219239   2.062   5.434   1.029
 6114SOL     OW19240   4.848   2.379   1.255
 6114SOL    HW119241   4.842   2.292   1.206
 6114SOL    HW219242   4.863   2.454   1.190
 6115SOL     OW19243   0.910   0.770   5.705
 6115SOL    HW119244   0.945   0.842   5.764
 6115SOL    HW219245   0.954   0.777   5.615
 6116SOL     OW19246   5.821   3.705   6.958
 6116SOL    HW119247   5.851   3.712   6.863
 6116SOL    HW219248   5.722   3.719   6.963
 6117SOL     OW19249   1.582   1.948   1.270
 6117SOL    HW119250   1.568   1.894   1.353
 6117SOL    HW219251   1.645   1.900   1.209
 6118SOL     OW19252   5.722   1.379   2.372
 6118SOL    HW119253   5.762   1.451   2.317
 6118SOL    HW219254   5.735   1.291   2.326
 6119SOL     OW19255   6.415   1.324   6.766
 6119SOL    HW119256   6.482   1.380   6.816
 6119SOL    HW219257   6.324   1.363   6.779
 6120SOL     OW19258   3.231   0.385   4.265
 6120SOL    HW119259   3.139   0.403   4.228
 6120SOL    HW219260   3.255   0.290   4.249
 6121SOL     OW19261   2.005   1.902   5.067
 6121SOL    HW119262   2.076   1.832   5.065
 6121SOL    HW219263   2.047   1.992   5.053
 6122SOL     OW19264   5.249   4.763   5.089
 6122SOL    HW119265   5.330   4.721   5.129
 6122SOL    HW219266   5.245   4.743   4.991
 6123SOL     OW19267   5.951   1.563   5.672
 6123SOL    HW119268   6.039   1.523   5.695
 6123SOL    HW219269   5.929   1.546   5.576
 6124SOL     OW19270   2.555   6.103   3.956
 6124SOL    HW119271   2.546   6.197   3.923
 6124SOL    HW219272   2.618   6.053   3.897
 6125SOL     OW19273   3.156   1.573   5.946
 6125SOL    HW119274   3.205   1.503   5.998
 6125SOL    HW219275   3.213   1.655   5.941
 6126SOL     OW19276   5.797   3.041   6.120
 6126SOL    HW119277   5.810   3.005   6.028
 6126SOL    HW219278   5.787   3.141   6.116
 6127SOL     OW19279   5.179   2.127   3.046
 6127SOL    HW119280   5.236   2.178   3.110
 6127SOL    HW219281   5.231   2.049   3.011
 6128SOL     OW19282   5.953   5.892   6.706
 6128SOL    HW119283   5.927   5.850   6.793
 6128SOL    HW219284   6.049   5.920   6.709
 6129SOL     OW19285   2.568   5.574   2.332
 6129SOL    HW119286   2.499   5.583   2.404
 6129SOL    HW219287   2.619   5.659   2.323
 6130SOL     OW19288   5.738   3.107   0.456
 6130SOL    HW119289   5.717   3.016   0.492
 6130SOL    HW219290   5.773   3.099   0.363
 6131SOL     OW19291   6.458   2.310   2.670
 6131SOL    HW119292   6.359   2.311   2.663
 6131SOL    HW219293   6.493   2.224   2.634
 6132SOL     OW19294   4.201   0.252   6.313
 6132SOL    HW119295   4.202   0.351   6.329
 6132SOL    HW219296   4.290   0.214   6.340
 6133SOL     OW19297   0.431   1.940   2.901
 6133SOL    HW119298   0.431   1.940   3.001
 6133SOL    HW219299   0.365   1.873   2.868
 6134SOL     OW19300   0.492   6.442   5.456
 6134SOL    HW119301   0.423   6.383   5.414
 6134SOL    HW219302   0.492   6.531   5.409
 6135SOL     OW19303   6.854   6.913   0.408
 6135SOL    HW119304   6.892   6.824   0.384
 6135SOL    HW219305   6.903   6.985   0.359
 6136SOL     OW19306   0.964   2.683   3.120
 6136SOL    HW119307   0.946   2.683   3.022
 6136SOL    HW219308   0.885   2.722   3.168
 6137SOL     OW19309   0.073   4.291   1.160
 6137SOL    HW119310   0.155   4.296   1.103
 6137SOL    HW219311   0.080   4.357   1.235
 6138SOL     OW19312   4.831   0.314   2.167
 6138SOL    HW119313   4.907   0.284   2.110
 6138SOL    HW219314   4.850   0.405   2.205
 6139SOL     OW19315   1.081   0.746   4.874
 6139SOL    HW119316   1.044   0.833   4.841
 6139SOL    HW219317   1.005   0.683   4.892
 6140SOL     OW19318   1.308   0.085   2.989
 6140SOL    HW119319   1.290   0.005   2.933
 6140SOL    HW219320   1.396   0.125   2.963
 6141SOL     OW19321   0.984   1.058   6.216
 6141SOL    HW119322   1.039   1.085   6.295
 6141SOL    HW219323   0.889   1.043   6.245
 6142SOL     OW19324   6.241   0.934   1.471
 6142SOL    HW119325   6.319   0.982   1.431
 6142SOL    HW219326   6.271   0.847   1.510
 6143SOL     OW19327   0.133   3.375   5.143
 6143SOL    HW119328   0.039   3.367   5.178
 6143SOL    HW219329   0.135   3.440   5.067
 6144SOL     OW19330   3.956   5.134   2.602
 6144SOL    HW119331   4.056   5.141   2.602
 6144SOL    HW219332   3.929   5.047   2.561
 6145SOL     OW19333   5.074   3.694   3.855
 6145SOL    HW119334   5.032   3.616   3.809
 6145SOL    HW219335   5.004   3.752   3.894
 6146SOL     OW19336   5.714   0.254   5.357
 6146SOL    HW119337   5.755   0.241   5.267
 6146SOL    HW219338   5.690   0.165   5.396
 6147SOL     OW19339   1.181   2.704   4.950
 6147SOL    HW119340   1.101   2.753   4.985
 6147SOL    HW219341   1.152   2.632   4.887
 6148SOL     OW19342   3.523   5.093   0.102
 6148SOL    HW119343   3.559   5.052   0.186
 6148SOL    HW219344   3.500   5.020   0.037
 6149SOL     OW19345   3.796   1.085   1.451
 6149SOL    HW119346   3.809   1.117   1.545
 6149SOL    HW219347   3.737   1.004   1.451
 6150SOL     OW19348   0.819   4.058   5.072
 6150SOL    HW119349   0.902   4.047   5.126
 6150SOL    HW219350   0.759   4.125   5.116
 6151SOL     OW19351   4.538   4.933   3.241
 6151SOL    HW119352   4.590   4.898   3.164
 6151SOL    HW219353   4.586   5.011   3.281
 6152SOL     OW19354   1.895   4.399   3.905
 6152SOL    HW119355   1.972   4.338   3.923
 6152SOL    HW219356   1.908   4.485   3.954
 6153SOL     OW19357   5.054   5.799   0.860
 6153SOL    HW119358   5.147   5.769   0.880
 6153SOL    HW219359   5.056   5.891   0.820
 6154SOL     OW19360   5.343   3.823   2.312
 6154SOL    HW119361   5.433   3.814   2.268
 6154SOL    HW219362   5.298   3.905   2.277
 6155SOL     OW19363   1.947   1.583   3.504
 6155SOL    HW119364   2.026   1.643   3.519
 6155SOL    HW219365   1.922   1.585   3.407
 6156SOL     OW19366   5.556   4.300   1.629
 6156SOL    HW119367   5.617   4.225   1.652
 6156SOL    HW219368   5.461   4.269   1.634
 6157SOL     OW19369   0.434   2.736   1.704
 6157SOL    HW119370   0.448   2.640   1.730
 6157SOL    HW219371   0.489   2.795   1.764
 6158SOL     OW19372   3.055   2.242   4.717
 6158SOL    HW119373   2.974   2.297   4.696
 6158SOL    HW219374   3.089   2.266   4.808
 6159SOL     OW19375   6.357   2.582   7.022
 6159SOL    HW119376   6.296   2.638   0.055
 6159SOL    HW219377   6.335   2.485   0.012
 6160SOL     OW19378   1.102   0.323   1.368
 6160SOL    HW119379   1.127   0.226   1.365
 6160SOL    HW219380   1.116   0.363   1.278
 6161SOL     OW19381   4.478   3.752   6.818
 6161SOL    HW119382   4.538   3.727   6.894
 6161SOL    HW219383   4.464   3.851   6.818
 6162SOL     OW19384   6.230   5.435   2.143
 6162SOL    HW119385   6.200   5.445   2.048
 6162SOL    HW219386   6.330   5.439   2.147
 6163SOL     OW19387   6.222   6.224   2.595
 6163SOL    HW119388   6.160   6.302   2.599
 6163SOL    HW219389   6.315   6.256   2.580
 6164SOL     OW19390   3.076   3.946   4.854
 6164SOL    HW119391   3.152   4.006   4.877
 6164SOL    HW219392   3.015   3.994   4.790
 6165SOL     OW19393   3.320   1.883   0.642
 6165SOL    HW119394   3.253   1.824   0.688
 6165SOL    HW219395   3.366   1.831   0.570
 6166SOL     OW19396   2.524   1.987   6.399
 6166SOL    HW119397   2.607   2.009   6.349
 6166SOL    HW219398   2.536   1.901   6.448
 6167SOL     OW19399   1.852   3.545   2.654
 6167SOL    HW119400   1.832   3.636   2.619
 6167SOL    HW219401   1.938   3.547   2.706
 6168SOL     OW19402   0.432   3.851   3.703
 6168SOL    HW119403   0.434   3.758   3.668
 6168SOL    HW219404   0.345   3.894   3.680
 6169SOL     OW19405   2.102   0.597   6.426
 6169SOL    HW119406   2.180   0.534   6.427
 6169SOL    HW219407   2.132   0.685   6.391
 6170SOL     OW19408   2.459   3.572   1.024
 6170SOL    HW119409   2.364   3.594   0.999
 6170SOL    HW219410   2.484   3.483   0.986
 6171SOL     OW19411   2.151   3.867   2.092
 6171SOL    HW119412   2.180   3.816   2.173
 6171SOL    HW219413   2.133   3.803   2.017
 6172SOL     OW19414   2.778   5.383   2.291
 6172SOL    HW119415   2.701   5.440   2.320
 6172SOL    HW219416   2.847   5.381   2.363
 6173SOL     OW19417   1.036   5.897   2.515
 6173SOL    HW119418   1.115   5.837   2.524
 6173SOL    HW219419   1.045   5.952   2.432
 6174SOL     OW19420   6.006   4.822   2.249
 6174SOL    HW119421   6.095   4.856   2.218
 6174SOL    HW219422   5.973   4.753   2.184
 6175SOL     OW19423   4.795   0.286   3.093
 6175SOL    HW119424   4.895   0.280   3.087
 6175SOL    HW219425   4.767   0.283   3.189
 6176SOL     OW19426   5.703   3.450   6.529
 6176SOL    HW119427   5.755   3.393   6.593
 6176SOL    HW219428   5.766   3.499   6.469
 6177SOL     OW19429   6.906   2.789   1.250
 6177SOL    HW119430   6.888   2.819   1.156
 6177SOL    HW219431   6.839   2.720   1.276
 6178SOL     OW19432   6.188   3.571   1.985
 6178SOL    HW119433   6.138   3.595   1.902
 6178SOL    HW219434   6.239   3.651   2.018
 6179SOL     OW19435   0.522   2.115   5.506
 6179SOL    HW119436   0.556   2.033   5.460
 6179SOL    HW219437   0.597   2.161   5.553
 6180SOL     OW19438   3.329   6.733   6.396
 6180SOL    HW119439   3.264   6.668   6.435
 6180SOL    HW219440   3.285   6.822   6.384
 6181SOL     OW19441   5.059   5.763   0.251
 6181SOL    HW119442   5.025   5.695   0.317
 6181SOL    HW219443   5.070   5.720   0.161
 6182SOL     OW19444   4.666   6.224   6.777
 6182SOL    HW119445   4.706   6.142   6.816
 6182SOL    HW219446   4.737   6.278   6.732
 6183SOL     OW19447   3.268   0.745   2.996
 6183SOL    HW119448   3.327   0.786   2.926
 6183SOL    HW219449   3.221   0.818   3.046
 6184SOL     OW19450   5.990   0.560   6.292
 6184SOL    HW119451   6.050   0.617   6.348
 6184SOL    HW219452   5.896   0.567   6.325
 6185SOL     OW19453   0.931   3.663   5.979
 6185SOL    HW119454   0.941   3.696   5.885
 6185SOL    HW219455   0.916   3.741   6.040
 6186SOL     OW19456   5.840   0.302   4.873
 6186SOL    HW119457   5.785   0.224   4.903
 6186SOL    HW219458   5.894   0.276   4.793
 6187SOL     OW19459   3.172   5.162   4.290
 6187SOL    HW119460   3.148   5.107   4.369
 6187SOL    HW219461   3.242   5.229   4.316
 6188SOL     OW19462   2.754   0.238   1.529
 6188SOL    HW119463   2.730   0.335   1.528
 6188SOL    HW219464   2.670   0.184   1.539
 6189SOL     OW19465   5.443   4.858   3.746
 6189SOL    HW119466   5.421   4.840   3.651
 6189SOL    HW219467   5.508   4.789   3.779
 6190SOL     OW19468   5.134   2.608   6.085
 6190SOL    HW119469   5.076   2.637   6.008
 6190SOL    HW219470   5.211   2.554   6.050
 6191SOL     OW19471   6.782   2.157   6.637
 6191SOL    HW119472   6.845   2.171   6.561
 6191SOL    HW219473   6.799   2.225   6.708
 6192SOL     OW19474   2.833   2.513   0.516
 6192SOL    HW119475   2.884   2.435   0.479
 6192SOL    HW219476   2.888   2.596   0.505
 6193SOL     OW19477   5.905   0.443   0.872
 6193SOL    HW119478   5.872   0.486   0.787
 6193SOL    HW219479   6.001   0.466   0.885
 6194SOL     OW19480   2.305   0.614   0.661
 6194SOL    HW119481   2.227   0.667   0.693
 6194SOL    HW219482   2.277   0.520   0.644
 6195SOL     OW19483   2.695   6.526   6.089
 6195SOL    HW119484   2.665   6.471   6.010
 6195SOL    HW219485   2.778   6.576   6.065
 6196SOL     OW19486   0.449   1.237   6.419
 6196SOL    HW119487   0.461   1.156   6.476
 6196SOL    HW219488   0.532   1.293   6.423
 6197SOL     OW19489   2.367   2.637   0.003
 6197SOL    HW119490   2.334   2.715   0.056
 6197SOL    HW219491   2.454   2.660   6.984
 6198SOL     OW19492   4.311   4.780   2.294
 6198SOL    HW119493   4.252   4.771   2.214
 6198SOL    HW219494   4.392   4.834   2.269
 6199SOL     OW19495   1.176   0.701   6.339
 6199SOL    HW119496   1.234   0.758   6.282
 6199SOL    HW219497   1.168   0.610   6.298
 6200SOL     OW19498   3.494   0.386   5.849
 6200SOL    HW119499   3.445   0.393   5.936
 6200SOL    HW219500   3.453   0.448   5.782
 6201SOL     OW19501   2.342   4.442   3.948
 6201SOL    HW119502   2.423   4.500   3.935
 6201SOL    HW219503   2.272   4.468   3.881
 6202SOL     OW19504   3.348   2.359   1.386
 6202SOL    HW119505   3.305   2.274   1.414
 6202SOL    HW219506   3.355   2.421   1.465
 6203SOL     OW19507   5.088   2.030   5.600
 6203SOL    HW119508   5.154   1.998   5.668
 6203SOL    HW219509   5.129   2.026   5.509
 6204SOL     OW19510   1.405   6.579   5.769
 6204SOL    HW119511   1.324   6.594   5.713
 6204SOL    HW219512   1.403   6.642   5.847
 6205SOL     OW19513   5.512   5.734   0.405
 6205SOL    HW119514   5.606   5.704   0.395
 6205SOL    HW219515   5.462   5.668   0.461
 6206SOL     OW19516   5.131   6.897   2.934
 6206SOL    HW119517   5.221   6.940   2.924
 6206SOL    HW219518   5.085   6.894   2.846
 6207SOL     OW19519   2.136   3.995   4.340
 6207SOL    HW119520   2.148   3.923   4.271
 6207SOL    HW219521   2.117   3.953   4.429
 6208SOL     OW19522   5.287   6.494   6.647
 6208SOL    HW119523   5.323   6.406   6.679
 6208SOL    HW219524   5.267   6.489   6.549
 6209SOL     OW19525   3.176   5.656   0.849
 6209SOL    HW119526   3.260   5.602   0.851
 6209SOL    HW219527   3.137   5.654   0.757
 6210SOL     OW19528   6.183   4.975   3.237
 6210SOL    HW119529   6.242   4.908   3.283
 6210SOL    HW219530   6.211   4.983   3.142
 6211SOL     OW19531   2.483   0.871   4.815
 6211SOL    HW119532   2.492   0.970   4.805
 6211SOL    HW219533   2.386   0.846   4.816
 6212SOL     OW19534   6.683   6.733   3.841
 6212SOL    HW119535   6.707   6.656   3.901
 6212SOL    HW219536   6.752   6.805   3.850
 6213SOL     OW19537   0.101   6.598   6.302
 6213SOL    HW119538   0.153   6.628   6.221
 6213SOL    HW219539   0.137   6.509   6.332
 6214SOL     OW19540   6.400   5.364   2.479
 6214SOL    HW119541   6.485   5.413   2.460
 6214SOL    HW219542   6.326   5.430   2.494
 6215SOL     OW19543   2.918   4.447   1.308
 6215SOL    HW119544   2.959   4.531   1.342
 6215SOL    HW219545   2.918   4.448   1.208
 6216SOL     OW19546   6.388   1.979   2.887
 6216SOL    HW119547   6.485   1.994   2.869
 6216SOL    HW219548   6.341   2.068   2.894
 6217SOL     OW19549   5.440   3.038   2.333
 6217SOL    HW119550   5.387   2.955   2.350
 6217SOL    HW219551   5.466   3.041   2.236
 6218SOL     OW19552   3.594   4.953   4.442
 6218SOL    HW119553   3.581   4.945   4.343
 6218SOL    HW219554   3.644   5.038   4.462
 6219SOL     OW19555   1.246   1.875   4.214
 6219SOL    HW119556   1.172   1.932   4.250
 6219SOL    HW219557   1.267   1.902   4.120
 6220SOL     OW19558   1.397   4.123   5.349
 6220SOL    HW119559   1.361   4.148   5.440
 6220SOL    HW219560   1.351   4.178   5.279
 6221SOL     OW19561   4.695   4.793   4.726
 6221SOL    HW119562   4.713   4.889   4.744
 6221SOL    HW219563   4.670   4.781   4.629
 6222SOL     OW19564   0.325   1.819   0.865
 6222SOL    HW119565   0.326   1.878   0.946
 6222SOL    HW219566   0.256   1.747   0.878
 6223SOL     OW19567   5.302   3.861   4.825
 6223SOL    HW119568   5.401   3.860   4.810
 6223SOL    HW219569   5.255   3.838   4.740
 6224SOL     OW19570   2.808   0.766   5.031
 6224SOL    HW119571   2.827   0.864   5.035
 6224SOL    HW219572   2.768   0.743   4.943
 6225SOL     OW19573   4.276   2.197   6.757
 6225SOL    HW119574   4.357   2.142   6.780
 6225SOL    HW219575   4.306   2.288   6.729
 6226SOL     OW19576   6.489   6.853   4.423
 6226SOL    HW119577   6.527   6.931   4.373
 6226SOL    HW219578   6.503   6.769   4.370
 6227SOL     OW19579   2.893   4.148   6.942
 6227SOL    HW119580   2.877   4.091   7.022
 6227SOL    HW219581   2.970   4.111   6.889
 6228SOL     OW19582   0.036   0.791   2.616
 6228SOL    HW119583   7.006   0.706   2.625
 6228SOL    HW219584   0.130   0.770   2.590
 6229SOL     OW19585   1.660   2.713   1.978
 6229SOL    HW119586   1.643   2.781   1.906
 6229SOL    HW219587   1.740   2.741   2.031
 6230SOL     OW19588   2.018   2.291   3.517
 6230SOL    HW119589   2.006   2.249   3.427
 6230SOL    HW219590   1.955   2.369   3.526
 6231SOL     OW19591   0.006   5.121   1.514
 6231SOL    HW119592   0.035   5.030   1.544
 6231SOL    HW219593   0.021   5.187   1.588
 6232SOL     OW19594   1.022   1.593   6.621
 6232SOL    HW119595   1.078   1.600   6.704
 6232SOL    HW219596   1.021   1.498   6.589
 6233SOL     OW19597   4.621   2.137   0.158
 6233SOL    HW119598   4.609   2.070   0.232
 6233SOL    HW219599   4.612   2.229   0.195
 6234SOL     OW19600   2.216   2.487   3.538
 6234SOL    HW119601   2.168   2.401   3.521
 6234SOL    HW219602   2.162   2.544   3.600
 6235SOL     OW19603   2.239   6.125   3.352
 6235SOL    HW119604   2.231   6.032   3.386
 6235SOL    HW219605   2.293   6.179   3.416
 6236SOL     OW19606   6.922   3.989   0.275
 6236SOL    HW119607   6.826   3.975   0.249
 6236SOL    HW219608   6.979   3.986   0.193
 6237SOL     OW19609   4.244   6.596   0.282
 6237SOL    HW119610   4.310   6.524   0.304
 6237SOL    HW219611   4.282   6.685   0.307
 6238SOL     OW19612   4.627   3.953   1.309
 6238SOL    HW119613   4.662   3.942   1.216
 6238SOL    HW219614   4.601   4.048   1.324
 6239SOL     OW19615   2.261   1.291   3.743
 6239SOL    HW119616   2.348   1.276   3.790
 6239SOL    HW219617   2.226   1.205   3.708
 6240SOL     OW19618   2.231   3.442   0.698
 6240SOL    HW119619   2.246   3.454   0.797
 6240SOL    HW219620   2.308   3.392   0.658
 6241SOL     OW19621   4.489   6.911   2.074
 6241SOL    HW119622   4.562   6.963   2.119
 6241SOL    HW219623   4.503   6.913   1.975
 6242SOL     OW19624   3.489   2.128   3.731
 6242SOL    HW119625   3.415   2.114   3.665
 6242SOL    HW219626   3.449   2.149   3.821
 6243SOL     OW19627   5.510   5.175   3.315
 6243SOL    HW119628   5.566   5.190   3.397
 6243SOL    HW219629   5.529   5.084   3.278
 6244SOL     OW19630   1.765   2.289   2.231
 6244SOL    HW119631   1.774   2.387   2.246
 6244SOL    HW219632   1.699   2.251   2.296
 6245SOL     OW19633   1.916   3.758   0.320
 6245SOL    HW119634   1.925   3.659   0.321
 6245SOL    HW219635   1.922   3.791   0.226
 6246SOL     OW19636   3.780   1.203   6.365
 6246SOL    HW119637   3.689   1.242   6.376
 6246SOL    HW219638   3.829   1.253   6.293
 6247SOL     OW19639   6.527   6.102   3.032
 6247SOL    HW119640   6.593   6.069   2.965
 6247SOL    HW219641   6.449   6.144   2.984
 6248SOL     OW19642   1.113   4.790   0.967
 6248SOL    HW119643   1.073   4.755   0.883
 6248SOL    HW219644   1.068   4.874   0.994
 6249SOL     OW19645   5.281   4.057   6.574
 6249SOL    HW119646   5.274   3.998   6.655
 6249SOL    HW219647   5.196   4.052   6.522
 6250SOL     OW19648   5.674   5.350   6.297
 6250SOL    HW119649   5.620   5.277   6.255
 6250SOL    HW219650   5.750   5.310   6.349
 6251SOL     OW19651   4.680   1.908   0.996
 6251SOL    HW119652   4.717   1.910   1.089
 6251SOL    HW219653   4.664   1.813   0.969
 6252SOL     OW19654   1.782   6.322   5.120
 6252SOL    HW119655   1.799   6.295   5.025
 6252SOL    HW219656   1.848   6.275   5.179
 6253SOL     OW19657   1.893   3.551   1.048
 6253SOL    HW119658   1.927   3.615   1.118
 6253SOL    HW219659   1.902   3.593   0.958
 6254SOL     OW19660   5.178   0.441   0.448
 6254SOL    HW119661   5.121   0.523   0.441
 6254SOL    HW219662   5.274   0.466   0.439
 6255SOL     OW19663   0.002   1.870   2.122
 6255SOL    HW119664   0.010   1.797   2.054
 6255SOL    HW219665   0.073   1.857   2.192
 6256SOL     OW19666   3.104   4.884   3.233
 6256SOL    HW119667   3.182   4.823   3.246
 6256SOL    HW219668   3.137   4.976   3.213
 6257SOL     OW19669   4.210   2.811   6.890
 6257SOL    HW119670   4.123   2.824   6.842
 6257SOL    HW219671   4.267   2.748   6.838
 6258SOL     OW19672   4.982   2.506   3.051
 6258SOL    HW119673   5.066   2.492   3.000
 6258SOL    HW219674   4.906   2.520   2.988
 6259SOL     OW19675   3.102   2.175   1.828
 6259SOL    HW119676   3.034   2.238   1.866
 6259SOL    HW219677   3.068   2.081   1.833
 6260SOL     OW19678   3.278   3.314   0.331
 6260SOL    HW119679   3.349   3.372   0.292
 6260SOL    HW219680   3.207   3.371   0.372
 6261SOL     OW19681   4.549   0.662   6.877
 6261SOL    HW119682   4.555   0.643   6.779
 6261SOL    HW219683   4.522   0.579   6.926
 6262SOL     OW19684   0.116   5.801   5.575
 6262SOL    HW119685   0.188   5.870   5.562
 6262SOL    HW219686   0.124   5.731   5.503
 6263SOL     OW19687   6.322   0.873   0.694
 6263SOL    HW119688   6.411   0.828   0.693
 6263SOL    HW219689   6.335   0.971   0.681
 6264SOL     OW19690   2.132   1.081   6.892
 6264SOL    HW119691   2.074   1.157   6.864
 6264SOL    HW219692   2.116   1.060   6.989
 6265SOL     OW19693   4.409   3.213   1.329
 6265SOL    HW119694   4.495   3.231   1.376
 6265SOL    HW219695   4.396   3.280   1.256
 6266SOL     OW19696   2.374   6.965   2.090
 6266SOL    HW119697   2.463   6.957   2.044
 6266SOL    HW219698   2.314   0.002   2.037
 6267SOL     OW19699   2.333   6.633   7.010
 6267SOL    HW119700   2.242   6.641   0.025
 6267SOL    HW219701   2.384   6.717   0.004
 6268SOL     OW19702   3.132   4.883   2.659
 6268SOL    HW119703   3.103   4.851   2.569
 6268SOL    HW219704   3.224   4.850   2.678
 6269SOL     OW19705   6.249   4.462   0.671
 6269SOL    HW119706   6.192   4.483   0.592
 6269SOL    HW219707   6.205   4.391   0.726
 6270SOL     OW19708   0.636   1.601   4.381
 6270SOL    HW119709   0.648   1.522   4.441
 6270SOL    HW219710   0.703   1.671   4.403
 6271SOL     OW19711   6.163   1.521   0.860
 6271SOL    HW119712   6.198   1.433   0.830
 6271SOL    HW219713   6.117   1.567   0.784
 6272SOL     OW19714   1.273   2.528   3.499
 6272SOL    HW119715   1.190   2.558   3.452
 6272SOL    HW219716   1.353   2.568   3.454
 6273SOL     OW19717   4.089   0.381   2.008
 6273SOL    HW119718   4.165   0.333   2.051
 6273SOL    HW219719   4.012   0.318   1.996
 6274SOL     OW19720   3.453   6.193   6.324
 6274SOL    HW119721   3.376   6.166   6.266
 6274SOL    HW219722   3.538   6.189   6.271
 6275SOL     OW19723   2.414   0.384   4.252
 6275SOL    HW119724   2.384   0.317   4.319
 6275SOL    HW219725   2.478   0.342   4.188
 6276SOL     OW19726   1.476   5.020   3.935
 6276SOL    HW119727   1.553   4.980   3.984
 6276SOL    HW219728   1.485   5.119   3.933
 6277SOL     OW19729   5.457   3.152   3.477
 6277SOL    HW119730   5.375   3.121   3.526
 6277SOL    HW219731   5.535   3.095   3.504
 6278SOL     OW19732   5.399   0.788   4.162
 6278SOL    HW119733   5.351   0.872   4.137
 6278SOL    HW219734   5.390   0.721   4.088
 6279SOL     OW19735   4.938   1.809   6.877
 6279SOL    HW119736   4.839   1.821   6.866
 6279SOL    HW219737   4.981   1.800   6.787
 6280SOL     OW19738   0.738   4.990   6.112
 6280SOL    HW119739   0.811   4.926   6.134
 6280SOL    HW219740   0.771   5.058   6.046
 6281SOL     OW19741   2.924   6.610   5.025
 6281SOL    HW119742   2.854   6.550   4.986
 6281SOL    HW219743   2.949   6.679   4.957
 6282SOL     OW19744   1.666   6.864   3.481
 6282SOL    HW119745   1.715   6.950   3.474
 6282SOL    HW219746   1.574   6.875   3.441
 6283SOL     OW19747   0.203   2.814   4.970
 6283SOL    HW119748   0.135   2.745   4.943
 6283SOL    HW219749   0.182   2.900   4.923
 6284SOL     OW19750   2.254   4.389   6.451
 6284SOL    HW119751   2.167   4.417   6.409
 6284SOL    HW219752   2.291   4.466   6.504
 6285SOL     OW19753   1.822   4.764   2.907
 6285SOL    HW119754   1.730   4.748   2.873
 6285SOL    HW219755   1.882   4.789   2.831
 6286SOL     OW19756   5.733   0.002   4.491
 6286SOL    HW119757   5.831   7.020   4.470
 6286SOL    HW219758   5.682   6.972   4.424
 6287SOL     OW19759   4.443   4.575   2.013
 6287SOL    HW119760   4.361   4.575   1.956
 6287SOL    HW219761   4.460   4.482   2.047
 6288SOL     OW19762   5.130   3.682   1.337
 6288SOL    HW119763   5.104   3.771   1.374
 6288SOL    HW219764   5.216   3.652   1.379
 6289SOL     OW19765   1.209   0.834   2.624
 6289SOL    HW119766   1.184   0.751   2.573
 6289SOL    HW219767   1.274   0.888   2.571
 6290SOL     OW19768   5.986   3.172   3.355
 6290SOL    HW119769   5.929   3.099   3.318
 6290SOL    HW219770   6.081   3.144   3.358
 6291SOL     OW19771   4.111   3.563   3.156
 6291SOL    HW119772   4.098   3.553   3.255
 6291SOL    HW219773   4.161   3.484   3.121
 6292SOL     OW19774   0.149   1.643   2.001
 6292SOL    HW119775   0.210   1.580   2.050
 6292SOL    HW219776   0.175   1.646   1.905
 6293SOL     OW19777   5.056   5.557   0.633
 6293SOL    HW119778   5.143   5.509   0.636
 6293SOL    HW219779   5.044   5.612   0.716
 6294SOL     OW19780   3.988   5.476   2.217
 6294SOL    HW119781   4.046   5.434   2.147
 6294SOL    HW219782   3.914   5.414   2.242
 6295SOL     OW19783   6.182   6.078   5.804
 6295SOL    HW119784   6.083   6.091   5.811
 6295SOL    HW219785   6.202   5.982   5.785
 6296SOL     OW19786   6.563   0.975   2.612
 6296SOL    HW119787   6.537   0.897   2.668
 6296SOL    HW219788   6.481   1.014   2.569
 6297SOL     OW19789   5.406   0.652   5.725
 6297SOL    HW119790   5.461   0.680   5.647
 6297SOL    HW219791   5.406   0.552   5.732
 6298SOL     OW19792   0.471   2.045   4.334
 6298SOL    HW119793   0.500   2.118   4.271
 6298SOL    HW219794   0.460   1.960   4.284
 6299SOL     OW19795   6.380   3.274   0.640
 6299SOL    HW119796   6.339   3.341   0.579
 6299SOL    HW219797   6.388   3.186   0.592
 6300SOL     OW19798   5.245   1.292   4.045
 6300SOL    HW119799   5.176   1.358   4.014
 6300SOL    HW219800   5.303   1.266   3.967
 6301SOL     OW19801   3.196   0.264   0.833
 6301SOL    HW119802   3.270   0.330   0.848
 6301SOL    HW219803   3.235   0.172   0.825
 6302SOL     OW19804   0.381   1.142   3.119
 6302SOL    HW119805   0.361   1.111   3.212
 6302SOL    HW219806   0.297   1.145   3.065
 6303SOL     OW19807   2.163   6.122   5.272
 6303SOL    HW119808   2.241   6.183   5.252
 6303SOL    HW219809   2.087   6.176   5.307
 6304SOL     OW19810   3.402   0.983   5.672
 6304SOL    HW119811   3.382   1.006   5.767
 6304SOL    HW219812   3.487   0.930   5.668
 6305SOL     OW19813   5.735   1.138   2.240
 6305SOL    HW119814   5.729   1.133   2.140
 6305SOL    HW219815   5.684   1.062   2.280
 6306SOL     OW19816   5.715   2.586   4.568
 6306SOL    HW119817   5.651   2.571   4.642
 6306SOL    HW219818   5.787   2.648   4.598
 6307SOL     OW19819   2.332   4.214   0.691
 6307SOL    HW119820   2.383   4.237   0.608
 6307SOL    HW219821   2.391   4.166   0.755
 6308SOL     OW19822   3.387   2.099   5.514
 6308SOL    HW119823   3.337   2.073   5.432
 6308SOL    HW219824   3.326   2.096   5.594
 6309SOL     OW19825   5.664   2.248   4.924
 6309SOL    HW119826   5.722   2.242   5.005
 6309SOL    HW219827   5.568   2.240   4.950
 6310SOL     OW19828   1.172   4.667   4.839
 6310SOL    HW119829   1.127   4.645   4.926
 6310SOL    HW219830   1.106   4.660   4.765
 6311SOL     OW19831   6.347   6.402   4.367
 6311SOL    HW119832   6.298   6.370   4.286
 6311SOL    HW219833   6.294   6.381   4.449
 6312SOL     OW19834   4.843   4.447   6.111
 6312SOL    HW119835   4.909   4.501   6.058
 6312SOL    HW219836   4.824   4.493   6.198
 6313SOL     OW19837   2.488   5.130   3.434
 6313SOL    HW119838   2.394   5.161   3.420
 6313SOL    HW219839   2.494   5.084   3.523
 6314SOL     OW19840   2.786   6.895   3.768
 6314SOL    HW119841   2.739   6.813   3.736
 6314SOL    HW219842   2.872   6.869   3.812
 6315SOL     OW19843   2.395   3.376   0.289
 6315SOL    HW119844   2.478   3.432   0.289
 6315SOL    HW219845   2.416   3.284   0.320
 6316SOL     OW19846   4.759   1.542   6.091
 6316SOL    HW119847   4.763   1.555   5.992
 6316SOL    HW219848   4.730   1.627   6.135
 6317SOL     OW19849   6.142   5.727   4.085
 6317SOL    HW119850   6.112   5.798   4.149
 6317SOL    HW219851   6.241   5.718   4.089
 6318SOL     OW19852   2.158   1.808   4.750
 6318SOL    HW119853   2.197   1.885   4.799
 6318SOL    HW219854   2.230   1.754   4.708
 6319SOL     OW19855   0.339   1.611   2.848
 6319SOL    HW119856   0.384   1.618   2.937
 6319SOL    HW219857   0.315   1.516   2.831
 6320SOL     OW19858   6.972   2.125   3.206
 6320SOL    HW119859   6.909   2.048   3.221
 6320SOL    HW219860   0.043   2.092   3.210
 6321SOL     OW19861   2.520   3.584   6.378
 6321SOL    HW119862   2.450   3.536   6.325
 6321SOL    HW219863   2.499   3.681   6.382
 6322SOL     OW19864   1.298   0.984   0.178
 6322SOL    HW119865   1.212   1.023   0.209
 6322SOL    HW219866   1.314   0.897   0.225
 6323SOL     OW19867   3.958   1.302   1.085
 6323SOL    HW119868   3.900   1.253   1.149
 6323SOL    HW219869   3.902   1.346   1.015
 6324SOL     OW19870   4.382   1.933   6.857
 6324SOL    HW119871   4.283   1.923   6.849
 6324SOL    HW219872   4.405   1.977   6.944
 6325SOL     OW19873   1.247   2.490   2.375
 6325SOL    HW119874   1.264   2.565   2.439
 6325SOL    HW219875   1.321   2.485   2.308
 6326SOL     OW19876   5.065   6.221   1.263
 6326SOL    HW119877   5.028   6.205   1.355
 6326SOL    HW219878   5.156   6.180   1.257
 6327SOL     OW19879   3.592   5.418   5.851
 6327SOL    HW119880   3.628   5.450   5.763
 6327SOL    HW219881   3.579   5.497   5.911
 6328SOL     OW19882   3.205   3.985   6.909
 6328SOL    HW119883   3.192   4.077   6.873
 6328SOL    HW219884   3.235   3.991   7.005
 6329SOL     OW19885   1.432   1.656   2.720
 6329SOL    HW119886   1.395   1.691   2.634
 6329SOL    HW219887   1.361   1.658   2.790
 6330SOL     OW19888   3.428   0.863   0.108
 6330SOL    HW119889   3.425   0.793   0.036
 6330SOL    HW219890   3.522   0.877   0.137
 6331SOL     OW19891   5.598   2.538   2.714
 6331SOL    HW119892   5.587   2.448   2.755
 6331SOL    HW219893   5.649   2.530   2.629
 6332SOL     OW19894   4.911   6.281   2.317
 6332SOL    HW119895   4.981   6.332   2.366
 6332SOL    HW219896   4.892   6.326   2.230
 6333SOL     OW19897   1.986   5.373   2.753
 6333SOL    HW119898   2.051   5.297   2.747
 6333SOL    HW219899   2.018   5.439   2.821
 6334SOL     OW19900   2.777   1.774   2.569
 6334SOL    HW119901   2.707   1.706   2.549
 6334SOL    HW219902   2.734   1.862   2.586
 6335SOL     OW19903   0.056   1.574   6.893
 6335SOL    HW119904   0.046   1.582   6.992
 6335SOL    HW219905   0.151   1.551   6.870
 6336SOL     OW19906   0.467   3.032   5.306
 6336SOL    HW119907   0.531   3.086   5.251
 6336SOL    HW219908   0.374   3.048   5.274
 6337SOL     OW19909   6.992   4.440   5.399
 6337SOL    HW119910   6.907   4.450   5.346
 6337SOL    HW219911   0.006   4.348   5.385
 6338SOL     OW19912   3.588   0.952   4.048
 6338SOL    HW119913   3.558   0.934   4.141
 6338SOL    HW219914   3.626   0.869   4.008
 6339SOL     OW19915   0.012   2.985   5.115
 6339SOL    HW119916   0.070   2.906   5.094
 6339SOL    HW219917   7.012   3.033   5.031
 6340SOL     OW19918   2.613   5.523   4.245
 6340SOL    HW119919   2.585   5.439   4.290
 6340SOL    HW219920   2.538   5.589   4.247
 6341SOL     OW19921   6.497   5.110   2.636
 6341SOL    HW119922   6.412   5.152   2.668
 6341SOL    HW219923   6.488   5.085   2.540
 6342SOL     OW19924   1.606   3.507   1.049
 6342SOL    HW119925   1.698   3.514   1.086
 6342SOL    HW219926   1.539   3.528   1.120
 6343SOL     OW19927   4.038   0.747   0.351
 6343SOL    HW119928   4.086   0.828   0.317
 6343SOL    HW219929   3.954   0.776   0.398
 6344SOL     OW19930   0.146   4.879   4.404
 6344SOL    HW119931   0.102   4.857   4.491
 6344SOL    HW219932   0.154   4.797   4.348
 6345SOL     OW19933   2.646   2.313   2.238
 6345SOL    HW119934   2.598   2.400   2.227
 6345SOL    HW219935   2.722   2.308   2.173
 6346SOL     OW19936   0.559   5.523   4.026
 6346SOL    HW119937   0.517   5.537   3.937
 6346SOL    HW219938   0.536   5.599   4.086
 6347SOL     OW19939   3.020   6.929   1.314
 6347SOL    HW119940   3.038   6.893   1.222
 6347SOL    HW219941   3.090   6.895   1.377
 6348SOL     OW19942   1.029   2.188   5.208
 6348SOL    HW119943   1.050   2.091   5.192
 6348SOL    HW219944   1.089   2.223   5.280
 6349SOL     OW19945   2.296   1.019   0.172
 6349SOL    HW119946   2.361   0.955   0.131
 6349SOL    HW219947   2.204   0.980   0.167
 6350SOL     OW19948   1.026   6.012   2.773
 6350SOL    HW119949   1.007   5.965   2.687
 6350SOL    HW219950   0.940   6.036   2.818
 6351SOL     OW19951   6.920   1.454   3.181
 6351SOL    HW119952   7.014   1.464   3.147
 6351SOL    HW219953   6.908   1.510   3.263
 6352SOL     OW19954   6.932   6.326   2.347
 6352SOL    HW119955   6.927   6.270   2.264
 6352SOL    HW219956   6.944   6.267   2.426
 6353SOL     OW19957   0.181   6.560   1.724
 6353SOL    HW119958   0.253   6.611   1.676
 6353SOL    HW219959   0.205   6.553   1.821
 6354SOL     OW19960   0.468   6.811   4.128
 6354SOL    HW119961   0.380   6.822   4.080
 6354SOL    HW219962   0.463   6.731   4.187
 6355SOL     OW19963   0.993   2.479   2.053
 6355SOL    HW119964   1.022   2.386   2.073
 6355SOL    HW219965   1.021   2.504   1.960
 6356SOL     OW19966   3.043   2.585   0.945
 6356SOL    HW119967   2.969   2.566   1.009
 6356SOL    HW219968   3.120   2.626   0.995
 6357SOL     OW19969   4.636   2.063   0.749
 6357SOL    HW119970   4.659   2.012   0.832
 6357SOL    HW219971   4.638   2.002   0.670
 6358SOL     OW19972   0.792   3.063   3.859
 6358SOL    HW119973   0.732   3.032   3.933
 6358SOL    HW219974   0.816   2.985   3.801
 6359SOL     OW19975   6.985   0.869   6.917
 6359SOL    HW119976   7.008   0.908   6.827
 6359SOL    HW219977   6.885   0.864   6.926
 6360SOL     OW19978   3.173   5.656   3.744
 6360SOL    HW119979   3.092   5.633   3.689
 6360SOL    HW219980   3.187   5.754   3.743
 6361SOL     OW19981   3.618   6.211   5.962
 6361SOL    HW119982   3.644   6.189   6.056
 6361SOL    HW219983   3.684   6.276   5.923
 6362SOL     OW19984   6.479   5.529   6.148
 6362SOL    HW119985   6.513   5.439   6.120
 6362SOL    HW219986   6.555   5.594   6.146
 6363SOL     OW19987   0.940   5.817   4.269
 6363SOL    HW119988   0.952   5.743   4.202
 6363SOL    HW219989   0.871   5.881   4.236
 6364SOL     OW19990   2.058   2.703   6.182
 6364SOL    HW119991   2.100   2.612   6.183
 6364SOL    HW219992   1.959   2.694   6.197
 6365SOL     OW19993   4.948   5.315   2.875
 6365SOL    HW119994   4.903   5.400   2.851
 6365SOL    HW219995   4.895   5.267   2.945
 6366SOL     OW19996   6.922   4.118   5.476
 6366SOL    HW119997   6.996   4.104   5.542
 6366SOL    HW219998   6.950   4.083   5.386
 6367SOL     OW19999   5.971   5.745   2.406
 6367SOL    HW120000   5.944   5.684   2.481
 6367SOL    HW220001   5.901   5.743   2.335
 6368SOL     OW20002   3.498   0.396   3.205
 6368SOL    HW120003   3.426   0.466   3.210
 6368SOL    HW220004   3.457   0.305   3.202
 6369SOL     OW20005   2.229   5.035   5.608
 6369SOL    HW120006   2.296   5.004   5.675
 6369SOL    HW220007   2.274   5.097   5.543
 6370SOL     OW20008   5.806   2.470   2.239
 6370SOL    HW120009   5.792   2.417   2.156
 6370SOL    HW220010   5.827   2.565   2.215
 6371SOL     OW20011   4.721   2.029   3.391
 6371SOL    HW120012   4.780   2.006   3.469
 6371SOL    HW220013   4.646   2.087   3.422
 6372SOL     OW20014   3.167   6.050   2.280
 6372SOL    HW120015   3.118   5.995   2.213
 6372SOL    HW220016   3.111   6.129   2.306
 6373SOL     OW20017   3.628   4.686   0.152
 6373SOL    HW120018   3.564   4.614   0.179
 6373SOL    HW220019   3.656   4.737   0.233
 6374SOL     OW20020   2.949   3.506   2.504
 6374SOL    HW120021   2.948   3.433   2.436
 6374SOL    HW220022   3.039   3.509   2.549
 6375SOL     OW20023   1.464   6.167   2.711
 6375SOL    HW120024   1.403   6.088   2.709
 6375SOL    HW220025   1.418   6.246   2.670
 6376SOL     OW20026   0.623   2.562   5.455
 6376SOL    HW120027   0.606   2.566   5.357
 6376SOL    HW220028   0.697   2.498   5.474
 6377SOL     OW20029   0.796   1.819   4.392
 6377SOL    HW120030   0.895   1.810   4.404
 6377SOL    HW220031   0.774   1.811   4.295
 6378SOL     OW20032   4.727   4.727   3.597
 6378SOL    HW120033   4.653   4.718   3.663
 6378SOL    HW220034   4.784   4.806   3.621
 6379SOL     OW20035   2.280   5.055   2.336
 6379SOL    HW120036   2.318   4.964   2.324
 6379SOL    HW220037   2.350   5.124   2.317
 6380SOL     OW20038   0.738   0.857   5.928
 6380SOL    HW120039   0.687   0.793   5.870
 6380SOL    HW220040   0.831   0.824   5.940
 6381SOL     OW20041   2.977   3.256   1.794
 6381SOL    HW120042   2.932   3.302   1.870
 6381SOL    HW220043   3.029   3.323   1.741
 6382SOL     OW20044   1.471   4.370   5.044
 6382SOL    HW120045   1.562   4.358   5.084
 6382SOL    HW220046   1.416   4.429   5.103
 6383SOL     OW20047   4.226   1.471   3.954
 6383SOL    HW120048   4.313   1.510   3.981
 6383SOL    HW220049   4.225   1.456   3.855
 6384SOL     OW20050   6.604   4.442   2.478
 6384SOL    HW120051   6.522   4.500   2.474
 6384SOL    HW220052   6.676   4.490   2.528
 6385SOL     OW20053   0.354   6.340   4.601
 6385SOL    HW120054   0.430   6.312   4.660
 6385SOL    HW220055   0.321   6.430   4.629
 6386SOL     OW20056   2.942   5.810   1.812
 6386SOL    HW120057   2.942   5.909   1.796
 6386SOL    HW220058   2.875   5.788   1.883
 6387SOL     OW20059   6.888   1.979   5.463
 6387SOL    HW120060   6.881   1.882   5.487
 6387SOL    HW220061   6.903   1.989   5.365
 6388SOL     OW20062   2.196   4.781   3.010
 6388SOL    HW120063   2.265   4.823   2.952
 6388SOL    HW220064   2.147   4.710   2.959
 6389SOL     OW20065   0.791   4.747   1.802
 6389SOL    HW120066   0.766   4.844   1.808
 6389SOL    HW220067   0.823   4.727   1.709
 6390SOL     OW20068   0.238   3.644   4.338
 6390SOL    HW120069   0.269   3.558   4.378
 6390SOL    HW220070   0.212   3.629   4.242
 6391SOL     OW20071   3.389   0.877   6.728
 6391SOL    HW120072   3.341   0.903   6.645
 6391SOL    HW220073   3.406   0.958   6.784
 6392SOL     OW20074   1.272   6.351   4.234
 6392SOL    HW120075   1.260   6.252   4.240
 6392SOL    HW220076   1.221   6.395   4.308
 6393SOL     OW20077   5.145   1.076   0.872
 6393SOL    HW120078   5.212   1.094   0.800
 6393SOL    HW220079   5.147   1.152   0.938
 6394SOL     OW20080   3.338   4.934   1.914
 6394SOL    HW120081   3.329   4.838   1.886
 6394SOL    HW220082   3.247   4.973   1.928
 6395SOL     OW20083   6.067   1.643   0.613
 6395SOL    HW120084   5.981   1.682   0.646
 6395SOL    HW220085   6.078   1.664   0.516
 6396SOL     OW20086   5.919   3.623   5.543
 6396SOL    HW120087   5.935   3.720   5.524
 6396SOL    HW220088   5.993   3.587   5.599
 6397SOL     OW20089   6.966   0.597   6.762
 6397SOL    HW120090   0.007   0.661   6.804
 6397SOL    HW220091   6.924   0.639   6.681
 6398SOL     OW20092   4.384   0.672   1.421
 6398SOL    HW120093   4.285   0.668   1.435
 6398SOL    HW220094   4.429   0.709   1.502
 6399SOL     OW20095   2.752   5.866   6.654
 6399SOL    HW120096   2.734   5.942   6.592
 6399SOL    HW220097   2.797   5.792   6.603
 6400SOL     OW20098   2.903   5.215   4.037
 6400SOL    HW120099   2.952   5.301   4.049
 6400SOL    HW220100   2.892   5.170   4.126
 6401SOL     OW20101   1.401   4.411   4.772
 6401SOL    HW120102   1.423   4.430   4.868
 6401SOL    HW220103   1.304   4.390   4.763
 6402SOL     OW20104   1.906   2.483   2.939
 6402SOL    HW120105   1.977   2.465   2.871
 6402SOL    HW220106   1.948   2.508   3.026
 6403SOL     OW20107   0.640   5.992   1.520
 6403SOL    HW120108   0.573   6.056   1.483
 6403SOL    HW220109   0.698   6.039   1.586
 6404SOL     OW20110   5.030   0.911   3.269
 6404SOL    HW120111   5.055   0.939   3.362
 6404SOL    HW220112   4.935   0.879   3.269
 6405SOL     OW20113   2.785   1.100   1.593
 6405SOL    HW120114   2.812   1.191   1.624
 6405SOL    HW220115   2.867   1.044   1.581
 6406SOL     OW20116   2.853   2.261   3.408
 6406SOL    HW120117   2.773   2.296   3.456
 6406SOL    HW220118   2.839   2.270   3.309
 6407SOL     OW20119   4.625   5.349   6.113
 6407SOL    HW120120   4.675   5.436   6.124
 6407SOL    HW220121   4.611   5.307   6.202
 6408SOL     OW20122   6.193   2.107   0.483
 6408SOL    HW120123   6.260   2.150   0.423
 6408SOL    HW220124   6.180   2.164   0.564
 6409SOL     OW20125   1.333   4.444   1.954
 6409SOL    HW120126   1.422   4.407   1.979
 6409SOL    HW220127   1.338   4.544   1.951
 6410SOL     OW20128   1.450   1.284   1.855
 6410SOL    HW120129   1.512   1.229   1.799
 6410SOL    HW220130   1.461   1.260   1.951
 6411SOL     OW20131   2.004   0.890   3.542
 6411SOL    HW120132   1.938   0.934   3.481
 6411SOL    HW220133   2.055   0.961   3.591
 6412SOL     OW20134   6.829   2.073   4.672
 6412SOL    HW120135   6.785   2.058   4.584
 6412SOL    HW220136   6.870   2.165   4.673
 6413SOL     OW20137   0.360   4.757   0.638
 6413SOL    HW120138   0.423   4.769   0.561
 6413SOL    HW220139   0.270   4.729   0.604
 6414SOL     OW20140   6.331   6.879   2.616
 6414SOL    HW120141   6.306   6.782   2.624
 6414SOL    HW220142   6.430   6.889   2.623
 6415SOL     OW20143   1.467   1.704   2.297
 6415SOL    HW120144   1.448   1.715   2.394
 6415SOL    HW220145   1.501   1.791   2.260
 6416SOL     OW20146   2.042   6.407   6.105
 6416SOL    HW120147   2.092   6.424   6.020
 6416SOL    HW220148   1.970   6.340   6.089
 6417SOL     OW20149   0.118   6.646   3.076
 6417SOL    HW120150   0.191   6.587   3.112
 6417SOL    HW220151   0.073   6.599   3.000
 6418SOL     OW20152   6.625   5.953   2.450
 6418SOL    HW120153   6.580   5.966   2.361
 6418SOL    HW220154   6.563   5.982   2.523
 6419SOL     OW20155   2.467   3.583   1.314
 6419SOL    HW120156   2.485   3.588   1.216
 6419SOL    HW220157   2.538   3.633   1.364
 6420SOL     OW20158   0.515   3.398   6.919
 6420SOL    HW120159   0.441   3.372   6.857
 6420SOL    HW220160   0.593   3.337   6.905
 6421SOL     OW20161   6.066   2.300   0.953
 6421SOL    HW120162   6.081   2.376   0.890
 6421SOL    HW220163   6.071   2.333   1.047
 6422SOL     OW20164   6.317   2.002   3.471
 6422SOL    HW120165   6.298   2.000   3.373
 6422SOL    HW220166   6.240   1.962   3.521
 6423SOL     OW20167   4.769   3.985   1.073
 6423SOL    HW120168   4.859   3.944   1.090
 6423SOL    HW220169   4.781   4.081   1.046
 6424SOL     OW20170   6.402   4.569   5.099
 6424SOL    HW120171   6.372   4.536   5.189
 6424SOL    HW220172   6.498   4.597   5.104
 6425SOL     OW20173   0.817   5.134   1.140
 6425SOL    HW120174   0.747   5.166   1.076
 6425SOL    HW220175   0.854   5.212   1.190
 6426SOL     OW20176   6.860   2.664   3.685
 6426SOL    HW120177   6.905   2.599   3.745
 6426SOL    HW220178   6.870   2.636   3.590
 6427SOL     OW20179   1.233   3.101   5.918
 6427SOL    HW120180   1.175   3.033   5.963
 6427SOL    HW220181   1.176   3.171   5.875
 6428SOL     OW20182   0.017   3.329   4.011
 6428SOL    HW120183   6.968   3.353   3.946
 6428SOL    HW220184   7.014   3.247   4.062
 6429SOL     OW20185   0.680   1.401   4.613
 6429SOL    HW120186   0.647   1.319   4.658
 6429SOL    HW220187   0.764   1.433   4.657
 6430SOL     OW20188   6.205   3.630   6.880
 6430SOL    HW120189   6.178   3.684   6.959
 6430SOL    HW220190   6.225   3.536   6.908
 6431SOL     OW20191   5.418   0.881   3.484
 6431SOL    HW120192   5.378   0.971   3.470
 6431SOL    HW220193   5.518   0.888   3.480
 6432SOL     OW20194   5.859   3.467   0.450
 6432SOL    HW120195   5.814   3.435   0.366
 6432SOL    HW220196   5.793   3.518   0.505
 6433SOL     OW20197   2.676   3.384   1.810
 6433SOL    HW120198   2.654   3.478   1.836
 6433SOL    HW220199   2.721   3.337   1.886
 6434SOL     OW20200   2.142   5.463   0.292
 6434SOL    HW120201   2.234   5.432   0.266
 6434SOL    HW220202   2.108   5.526   0.223
 6435SOL     OW20203   4.649   4.077   0.315
 6435SOL    HW120204   4.655   4.013   0.391
 6435SOL    HW220205   4.658   4.171   0.349
 6436SOL     OW20206   1.538   2.627   2.601
 6436SOL    HW120207   1.546   2.666   2.509
 6436SOL    HW220208   1.589   2.541   2.604
 6437SOL     OW20209   0.627   0.746   6.662
 6437SOL    HW120210   0.676   0.754   6.749
 6437SOL    HW220211   0.539   0.700   6.677
 6438SOL     OW20212   0.818   3.939   3.994
 6438SOL    HW120213   0.907   3.895   3.977
 6438SOL    HW220214   0.763   3.936   3.911
 6439SOL     OW20215   0.099   6.399   1.492
 6439SOL    HW120216   0.129   6.479   1.440
 6439SOL    HW220217   0.088   6.425   1.588
 6440SOL     OW20218   0.501   0.873   1.989
 6440SOL    HW120219   0.407   0.905   1.977
 6440SOL    HW220220   0.560   0.916   1.920
 6441SOL     OW20221   4.181   1.588   3.160
 6441SOL    HW120222   4.102   1.589   3.222
 6441SOL    HW220223   4.223   1.679   3.159
 6442SOL     OW20224   3.809   0.132   3.260
 6442SOL    HW120225   3.781   0.129   3.356
 6442SOL    HW220226   3.900   0.092   3.251
 6443SOL     OW20227   2.404   0.859   7.002
 6443SOL    HW120228   2.350   0.776   7.012
 6443SOL    HW220229   2.429   0.872   6.906
 6444SOL     OW20230   0.621   0.709   3.636
 6444SOL    HW120231   0.675   0.792   3.648
 6444SOL    HW220232   0.672   0.643   3.580
 6445SOL     OW20233   3.468   3.717   5.476
 6445SOL    HW120234   3.552   3.672   5.445
 6445SOL    HW220235   3.455   3.701   5.574
 6446SOL     OW20236   7.001   1.875   1.024
 6446SOL    HW120237   6.919   1.829   0.989
 6446SOL    HW220238   0.004   1.948   0.961
 6447SOL     OW20239   1.537   6.898   2.902
 6447SOL    HW120240   1.444   6.866   2.882
 6447SOL    HW220241   1.537   6.998   2.911
 6448SOL     OW20242   6.624   2.189   2.141
 6448SOL    HW120243   6.608   2.218   2.046
 6448SOL    HW220244   6.628   2.270   2.200
 6449SOL     OW20245   3.411   2.617   1.303
 6449SOL    HW120246   3.402   2.524   1.340
 6449SOL    HW220247   3.461   2.674   1.368
 6450SOL     OW20248   6.734   3.135   6.344
 6450SOL    HW120249   6.680   3.214   6.316
 6450SOL    HW220250   6.674   3.067   6.387
 6451SOL     OW20251   2.230   6.634   4.072
 6451SOL    HW120252   2.274   6.673   3.991
 6451SOL    HW220253   2.202   6.707   4.134
 6452SOL     OW20254   3.874   6.213   3.483
 6452SOL    HW120255   3.932   6.272   3.426
 6452SOL    HW220256   3.821   6.269   3.546
 6453SOL     OW20257   2.442   4.188   6.512
 6453SOL    HW120258   2.375   4.261   6.500
 6453SOL    HW220259   2.399   4.100   6.491
 6454SOL     OW20260   3.317   1.237   4.703
 6454SOL    HW120261   3.315   1.336   4.687
 6454SOL    HW220262   3.398   1.214   4.757
 6455SOL     OW20263   5.981   2.737   5.782
 6455SOL    HW120264   5.966   2.827   5.823
 6455SOL    HW220265   6.061   2.741   5.723
 6456SOL     OW20266   6.939   0.688   4.827
 6456SOL    HW120267   0.007   0.690   4.869
 6456SOL    HW220268   6.896   0.778   4.838
 6457SOL     OW20269   6.395   2.820   2.770
 6457SOL    HW120270   6.379   2.754   2.696
 6457SOL    HW220271   6.393   2.913   2.733
 6458SOL     OW20272   1.258   6.476   3.297
 6458SOL    HW120273   1.299   6.478   3.389
 6458SOL    HW220274   1.329   6.491   3.229
 6459SOL     OW20275   5.493   4.994   0.809
 6459SOL    HW120276   5.575   4.955   0.768
 6459SOL    HW220277   5.423   4.923   0.819
 6460SOL     OW20278   2.731   4.571   0.723
 6460SOL    HW120279   2.703   4.475   0.720
 6460SOL    HW220280   2.776   4.590   0.810
 6461SOL     OW20281   3.442   5.618   5.086
 6461SOL    HW120282   3.539   5.629   5.061
 6461SOL    HW220283   3.419   5.687   5.155
 6462SOL     OW20284   2.165   3.150   3.528
 6462SOL    HW120285   2.191   3.141   3.432
 6462SOL    HW220286   2.205   3.075   3.580
 6463SOL     OW20287   1.154   4.446   5.588
 6463SOL    HW120288   1.118   4.483   5.502
 6463SOL    HW220289   1.078   4.423   5.648
 6464SOL     OW20290   1.092   5.370   2.511
 6464SOL    HW120291   1.036   5.309   2.456
 6464SOL    HW220292   1.172   5.320   2.546
 6465SOL     OW20293   6.335   1.158   3.048
 6465SOL    HW120294   6.294   1.149   3.139
 6465SOL    HW220295   6.431   1.132   3.053
 6466SOL     OW20296   0.497   3.224   5.539
 6466SOL    HW120297   0.402   3.250   5.525
 6466SOL    HW220298   0.529   3.169   5.463
 6467SOL     OW20299   2.651   0.970   5.975
 6467SOL    HW120300   2.603   0.958   5.888
 6467SOL    HW220301   2.628   0.894   6.036
 6468SOL     OW20302   4.842   4.253   1.062
 6468SOL    HW120303   4.915   4.275   0.998
 6468SOL    HW220304   4.759   4.301   1.036
 6469SOL     OW20305   6.444   0.984   6.144
 6469SOL    HW120306   6.436   1.065   6.202
 6469SOL    HW220307   6.361   0.973   6.090
 6470SOL     OW20308   6.361   6.001   5.021
 6470SOL    HW120309   6.351   6.009   5.120
 6470SOL    HW220310   6.295   5.934   4.986
 6471SOL     OW20311   5.235   5.668   5.720
 6471SOL    HW120312   5.256   5.619   5.804
 6471SOL    HW220313   5.208   5.762   5.742
 6472SOL     OW20314   1.304   5.801   1.237
 6472SOL    HW120315   1.316   5.777   1.333
 6472SOL    HW220316   1.359   5.882   1.216
 6473SOL     OW20317   2.518   1.055   5.296
 6473SOL    HW120318   2.481   1.088   5.209
 6473SOL    HW220319   2.513   1.128   5.364
 6474SOL     OW20320   2.654   3.579   5.579
 6474SOL    HW120321   2.598   3.569   5.497
 6474SOL    HW220322   2.623   3.659   5.631
 6475SOL     OW20323   4.620   5.959   4.185
 6475SOL    HW120324   4.704   6.013   4.185
 6475SOL    HW220325   4.571   5.973   4.099
 6476SOL     OW20326   5.041   4.919   2.615
 6476SOL    HW120327   5.135   4.886   2.603
 6476SOL    HW220328   4.987   4.848   2.662
 6477SOL     OW20329   6.738   6.622   0.064
 6477SOL    HW120330   6.837   6.627   0.052
 6477SOL    HW220331   6.694   6.611   6.998
 6478SOL     OW20332   5.188   6.489   0.949
 6478SOL    HW120333   5.137   6.448   0.874
 6478SOL    HW220334   5.132   6.490   1.031
 6479SOL     OW20335   4.254   6.126   2.708
 6479SOL    HW120336   4.188   6.051   2.706
 6479SOL    HW220337   4.271   6.152   2.803
 6480SOL     OW20338   2.502   1.249   0.725
 6480SOL    HW120339   2.549   1.207   0.647
 6480SOL    HW220340   2.549   1.222   0.810
 6481SOL     OW20341   4.862   0.482   1.425
 6481SOL    HW120342   4.900   0.552   1.485
 6481SOL    HW220343   4.762   0.488   1.425
 6482SOL     OW20344   0.377   0.628   6.728
 6482SOL    HW120345   0.314   0.631   6.805
 6482SOL    HW220346   0.451   0.563   6.747
 6483SOL     OW20347   2.107   5.437   2.059
 6483SOL    HW120348   2.156   5.410   2.143
 6483SOL    HW220349   2.078   5.532   2.067
 6484SOL     OW20350   5.534   6.191   3.239
 6484SOL    HW120351   5.440   6.190   3.207
 6484SOL    HW220352   5.590   6.129   3.184
 6485SOL     OW20353   0.931   3.004   3.116
 6485SOL    HW120354   0.868   3.079   3.093
 6485SOL    HW220355   0.882   2.934   3.167
 6486SOL     OW20356   1.755   3.453   3.163
 6486SOL    HW120357   1.710   3.429   3.077
 6486SOL    HW220358   1.810   3.375   3.194
 6487SOL     OW20359   5.799   5.415   3.035
 6487SOL    HW120360   5.720   5.461   2.995
 6487SOL    HW220361   5.768   5.345   3.099
 6488SOL     OW20362   3.208   5.066   5.632
 6488SOL    HW120363   3.226   5.138   5.699
 6488SOL    HW220364   3.215   5.104   5.540
 6489SOL     OW20365   2.452   1.932   5.425
 6489SOL    HW120366   2.463   1.956   5.521
 6489SOL    HW220367   2.402   2.005   5.378
 6490SOL     OW20368   4.567   1.494   0.556
 6490SOL    HW120369   4.493   1.451   0.504
 6490SOL    HW220370   4.644   1.430   0.563
 6491SOL     OW20371   4.208   1.152   6.293
 6491SOL    HW120372   4.283   1.150   6.359
 6491SOL    HW220373   4.192   1.246   6.263
 6492SOL     OW20374   5.770   5.950   6.513
 6492SOL    HW120375   5.743   5.855   6.497
 6492SOL    HW220376   5.852   5.952   6.571
 6493SOL     OW20377   0.924   6.186   5.445
 6493SOL    HW120378   0.939   6.171   5.543
 6493SOL    HW220379   0.911   6.098   5.400
 6494SOL     OW20380   1.245   0.318   3.384
 6494SOL    HW120381   1.247   0.357   3.476
 6494SOL    HW220382   1.324   0.257   3.371
 6495SOL     OW20383   5.396   5.255   2.537
 6495SOL    HW120384   5.327   5.261   2.610
 6495SOL    HW220385   5.356   5.209   2.458
 6496SOL     OW20386   0.838   6.942   2.829
 6496SOL    HW120387   0.926   6.989   2.837
 6496SOL    HW220388   0.854   6.843   2.822
 6497SOL     OW20389   0.511   5.630   0.008
 6497SOL    HW120390   0.449   5.625   0.087
 6497SOL    HW220391   0.461   5.661   6.951
 6498SOL     OW20392   1.654   4.473   3.991
 6498SOL    HW120393   1.579   4.445   4.050
 6498SOL    HW220394   1.732   4.412   4.005
 6499SOL     OW20395   5.699   1.224   4.244
 6499SOL    HW120396   5.733   1.216   4.150
 6499SOL    HW220397   5.668   1.134   4.275
 6500SOL     OW20398   5.433   4.785   3.468
 6500SOL    HW120399   5.385   4.726   3.403
 6500SOL    HW220400   5.529   4.792   3.442
 6501SOL     OW20401   0.175   3.444   0.743
 6501SOL    HW120402   0.161   3.356   0.697
 6501SOL    HW220403   0.272   3.461   0.755
 6502SOL     OW20404   1.380   4.707   2.019
 6502SOL    HW120405   1.379   4.663   2.109
 6502SOL    HW220406   1.436   4.790   2.024
 6503SOL     OW20407   4.424   0.212   4.226
 6503SOL    HW120408   4.487   0.175   4.295
 6503SOL    HW220409   4.338   0.238   4.269
 6504SOL     OW20410   2.037   0.898   0.355
 6504SOL    HW120411   1.966   0.828   0.347
 6504SOL    HW220412   2.011   0.965   0.424
 6505SOL     OW20413   5.231   5.402   0.926
 6505SOL    HW120414   5.266   5.392   1.019
 6505SOL    HW220415   5.131   5.394   0.927
 6506SOL     OW20416   1.659   1.627   0.589
 6506SOL    HW120417   1.577   1.572   0.572
 6506SOL    HW220418   1.665   1.700   0.522
 6507SOL     OW20419   3.151   0.752   1.989
 6507SOL    HW120420   3.069   0.775   2.041
 6507SOL    HW220421   3.191   0.666   2.023
 6508SOL     OW20422   2.688   1.356   1.997
 6508SOL    HW120423   2.738   1.408   2.066
 6508SOL    HW220424   2.607   1.408   1.968
 6509SOL     OW20425   0.728   2.641   4.026
 6509SOL    HW120426   0.824   2.671   4.026
 6509SOL    HW220427   0.718   2.562   3.965
 6510SOL     OW20428   5.526   5.312   6.513
 6510SOL    HW120429   5.569   5.340   6.427
 6510SOL    HW220430   5.525   5.389   6.576
 6511SOL     OW20431   6.010   5.909   5.554
 6511SOL    HW120432   6.010   5.900   5.455
 6511SOL    HW220433   5.927   5.867   5.592
 6512SOL     OW20434   5.250   6.413   3.568
 6512SOL    HW120435   5.346   6.404   3.593
 6512SOL    HW220436   5.198   6.338   3.609
 6513SOL     OW20437   2.399   7.014   2.945
 6513SOL    HW120438   2.464   6.949   2.906
 6513SOL    HW220439   2.316   7.015   2.890
 6514SOL     OW20440   3.360   6.912   3.619
 6514SOL    HW120441   3.328   6.946   3.531
 6514SOL    HW220442   3.293   6.848   3.657
 6515SOL     OW20443   0.772   0.999   4.137
 6515SOL    HW120444   0.733   1.075   4.189
 6515SOL    HW220445   0.728   0.914   4.165
 6516SOL     OW20446   1.612   1.579   5.818
 6516SOL    HW120447   1.606   1.650   5.747
 6516SOL    HW220448   1.521   1.561   5.855
 6517SOL     OW20449   1.504   2.197   0.137
 6517SOL    HW120450   1.490   2.148   0.051
 6517SOL    HW220451   1.437   2.164   0.205
 6518SOL     OW20452   5.869   6.299   0.657
 6518SOL    HW120453   5.903   6.245   0.580
 6518SOL    HW220454   5.902   6.393   0.647
 6519SOL     OW20455   1.727   1.869   3.470
 6519SOL    HW120456   1.768   1.892   3.382
 6519SOL    HW220457   1.723   1.769   3.480
 6520SOL     OW20458   6.007   5.266   1.589
 6520SOL    HW120459   5.970   5.287   1.498
 6520SOL    HW220460   6.006   5.167   1.604
 6521SOL     OW20461   1.425   2.050   4.959
 6521SOL    HW120462   1.390   2.027   5.050
 6521SOL    HW220463   1.503   2.112   4.967
 6522SOL     OW20464   2.853   5.780   4.656
 6522SOL    HW120465   2.765   5.800   4.700
 6522SOL    HW220466   2.849   5.689   4.614
 6523SOL     OW20467   2.002   2.154   6.822
 6523SOL    HW120468   2.059   2.158   6.904
 6523SOL    HW220469   2.040   2.087   6.758
 6524SOL     OW20470   3.534   3.890   4.432
 6524SOL    HW120471   3.568   3.953   4.502
 6524SOL    HW220472   3.549   3.796   4.463
 6525SOL     OW20473   0.530   2.614   4.468
 6525SOL    HW120474   0.620   2.659   4.463
 6525SOL    HW220475   0.529   2.534   4.409
 6526SOL     OW20476   1.598   5.473   4.286
 6526SOL    HW120477   1.651   5.448   4.366
 6526SOL    HW220478   1.643   5.439   4.204
 6527SOL     OW20479   2.460   0.973   3.904
 6527SOL    HW120480   2.496   0.914   3.975
 6527SOL    HW220481   2.363   0.990   3.920
 6528SOL     OW20482   6.850   6.938   3.040
 6528SOL    HW120483   6.875   6.941   3.137
 6528SOL    HW220484   6.933   6.947   2.985
 6529SOL     OW20485   6.505   2.466   1.596
 6529SOL    HW120486   6.448   2.545   1.619
 6529SOL    HW220487   6.598   2.498   1.575
 6530SOL     OW20488   0.252   1.862   0.458
 6530SOL    HW120489   0.166   1.886   0.413
 6530SOL    HW220490   0.274   1.932   0.526
 6531SOL     OW20491   4.944   2.925   4.633
 6531SOL    HW120492   5.005   2.962   4.563
 6531SOL    HW220493   4.994   2.917   4.720
 6532SOL     OW20494   1.231   2.358   6.856
 6532SOL    HW120495   1.216   2.369   6.758
 6532SOL    HW220496   1.176   2.281   6.889
 6533SOL     OW20497   4.618   0.993   1.099
 6533SOL    HW120498   4.585   0.900   1.086
 6533SOL    HW220499   4.633   1.011   1.196
 6534SOL     OW20500   1.676   3.161   0.039
 6534SOL    HW120501   1.716   3.071   0.055
 6534SOL    HW220502   1.633   3.163   6.972
 6535SOL     OW20503   2.274   3.410   5.496
 6535SOL    HW120504   2.208   3.485   5.498
 6535SOL    HW220505   2.235   3.332   5.448
 6536SOL     OW20506   6.987   2.640   6.565
 6536SOL    HW120507   6.906   2.660   6.621
 6536SOL    HW220508   6.994   2.707   6.492
 6537SOL     OW20509   0.995   0.359   0.175
 6537SOL    HW120510   0.921   0.418   0.208
 6537SOL    HW220511   0.992   0.272   0.225
 6538SOL     OW20512   1.623   3.088   6.314
 6538SOL    HW120513   1.603   3.081   6.412
 6538SOL    HW220514   1.708   3.040   6.294
 6539SOL     OW20515   2.488   1.508   6.197
 6539SOL    HW120516   2.512   1.438   6.129
 6539SOL    HW220517   2.469   1.463   6.284
 6540SOL     OW20518   3.165   2.126   4.043
 6540SOL    HW120519   3.137   2.195   4.110
 6540SOL    HW220520   3.129   2.036   4.071
 6541SOL     OW20521   2.830   2.564   5.378
 6541SOL    HW120522   2.906   2.501   5.390
 6541SOL    HW220523   2.857   2.656   5.407
 6542SOL     OW20524   6.391   4.670   3.570
 6542SOL    HW120525   6.292   4.668   3.555
 6542SOL    HW220526   6.434   4.595   3.520
 6543SOL     OW20527   0.637   5.223   6.590
 6543SOL    HW120528   0.622   5.175   6.503
 6543SOL    HW220529   0.552   5.222   6.644
 6544SOL     OW20530   6.715   6.348   2.830
 6544SOL    HW120531   6.745   6.350   2.925
 6544SOL    HW220532   6.617   6.366   2.826
 6545SOL     OW20533   5.353   2.835   6.081
 6545SOL    HW120534   5.331   2.818   5.985
 6545SOL    HW220535   5.373   2.748   6.126
 6546SOL     OW20536   3.529   5.008   5.811
 6546SOL    HW120537   3.470   5.088   5.822
 6546SOL    HW220538   3.581   5.016   5.726
 6547SOL     OW20539   5.190   1.046   0.139
 6547SOL    HW120540   5.135   1.059   0.055
 6547SOL    HW220541   5.197   0.948   0.158
 6548SOL     OW20542   6.076   4.506   5.469
 6548SOL    HW120543   6.052   4.409   5.474
 6548SOL    HW220544   6.007   4.555   5.416
 6549SOL     OW20545   2.759   1.107   2.284
 6549SOL    HW120546   2.794   1.141   2.196
 6549SOL    HW220547   2.835   1.089   2.346
 6550SOL     OW20548   0.594   5.250   3.523
 6550SOL    HW120549   0.526   5.202   3.578
 6550SOL    HW220550   0.686   5.227   3.555
 6551SOL     OW20551   2.735   4.907   2.013
 6551SOL    HW120552   2.756   4.972   1.940
 6551SOL    HW220553   2.785   4.821   1.997
 6552SOL     OW20554   4.688   5.123   6.622
 6552SOL    HW120555   4.706   5.166   6.533
 6552SOL    HW220556   4.593   5.138   6.648
 6553SOL     OW20557   6.784   3.296   2.785
 6553SOL    HW120558   6.780   3.256   2.877
 6553SOL    HW220559   6.809   3.224   2.719
 6554SOL     OW20560   0.034   3.785   4.925
 6554SOL    HW120561   0.005   3.731   5.004
 6554SOL    HW220562   0.134   3.780   4.917
 6555SOL     OW20563   0.840   1.191   1.922
 6555SOL    HW120564   0.779   1.219   1.996
 6555SOL    HW220565   0.933   1.220   1.943
 6556SOL     OW20566   3.343   0.517   3.950
 6556SOL    HW120567   3.384   0.535   4.039
 6556SOL    HW220568   3.348   0.600   3.894
 6557SOL     OW20569   5.839   6.640   0.924
 6557SOL    HW120570   5.905   6.572   0.958
 6557SOL    HW220571   5.800   6.608   0.838
 6558SOL     OW20572   0.030   6.032   6.243
 6558SOL    HW120573   0.012   6.130   6.255
 6558SOL    HW220574   0.056   5.992   6.331
 6559SOL     OW20575   3.524   2.776   1.055
 6559SOL    HW120576   3.519   2.747   0.959
 6559SOL    HW220577   3.453   2.729   1.107
 6560SOL     OW20578   3.587   1.779   0.757
 6560SOL    HW120579   3.530   1.731   0.824
 6560SOL    HW220580   3.597   1.875   0.784
 6561SOL     OW20581   3.700   3.959   3.991
 6561SOL    HW120582   3.798   3.972   3.975
 6561SOL    HW220583   3.674   4.008   4.075
 6562SOL     OW20584   6.251   3.806   5.493
 6562SOL    HW120585   6.252   3.755   5.407
 6562SOL    HW220586   6.216   3.747   5.566
 6563SOL     OW20587   1.084   5.130   2.797
 6563SOL    HW120588   1.100   5.053   2.858
 6563SOL    HW220589   1.168   5.183   2.787
 6564SOL     OW20590   1.156   6.229   3.136
 6564SOL    HW120591   1.092   6.173   3.188
 6564SOL    HW220592   1.216   6.278   3.198
 6565SOL     OW20593   6.621   3.602   4.936
 6565SOL    HW120594   6.696   3.653   4.893
 6565SOL    HW220595   6.635   3.504   4.924
 6566SOL     OW20596   3.489   6.832   0.714
 6566SOL    HW120597   3.495   6.851   0.812
 6566SOL    HW220598   3.473   6.918   0.664
 6567SOL     OW20599   6.246   3.040   1.292
 6567SOL    HW120600   6.237   3.110   1.362
 6567SOL    HW220601   6.259   3.083   1.202
 6568SOL     OW20602   4.020   3.791   1.204
 6568SOL    HW120603   4.085   3.732   1.157
 6568SOL    HW220604   4.058   3.821   1.292
 6569SOL     OW20605   0.780   4.645   6.672
 6569SOL    HW120606   0.709   4.575   6.686
 6569SOL    HW220607   0.738   4.735   6.676
 6570SOL     OW20608   6.023   3.371   1.696
 6570SOL    HW120609   5.986   3.353   1.605
 6570SOL    HW220610   6.052   3.467   1.701
 6571SOL     OW20611   2.704   6.301   3.530
 6571SOL    HW120612   2.701   6.205   3.559
 6571SOL    HW220613   2.683   6.360   3.608
 6572SOL     OW20614   1.253   4.356   6.508
 6572SOL    HW120615   1.263   4.275   6.565
 6572SOL    HW220616   1.225   4.434   6.565
 6573SOL     OW20617   1.566   1.941   2.185
 6573SOL    HW120618   1.625   1.983   2.255
 6573SOL    HW220619   1.495   2.006   2.159
 6574SOL     OW20620   1.643   4.729   3.910
 6574SOL    HW120621   1.657   4.640   3.951
 6574SOL    HW220622   1.703   4.796   3.954
 6575SOL     OW20623   1.983   0.750   2.404
 6575SOL    HW120624   1.963   0.698   2.488
 6575SOL    HW220625   2.034   0.832   2.428
 6576SOL     OW20626   1.267   6.680   4.247
 6576SOL    HW120627   1.181   6.642   4.212
 6576SOL    HW220628   1.329   6.695   4.170
 6577SOL     OW20629   6.788   2.825   5.027
 6577SOL    HW120630   6.739   2.790   4.948
 6577SOL    HW220631   6.840   2.907   5.001
 6578SOL     OW20632   6.834   5.341   3.410
 6578SOL    HW120633   6.848   5.333   3.509
 6578SOL    HW220634   6.751   5.393   3.393
 6579SOL     OW20635   0.970   3.883   2.943
 6579SOL    HW120636   0.996   3.941   2.865
 6579SOL    HW220637   0.955   3.940   3.023
 6580SOL     OW20638   5.742   2.461   1.398
 6580SOL    HW120639   5.808   2.386   1.397
 6580SOL    HW220640   5.663   2.436   1.342
 6581SOL     OW20641   2.376   2.541   5.547
 6581SOL    HW120642   2.286   2.581   5.531
 6581SOL    HW220643   2.446   2.598   5.506
 6582SOL     OW20644   0.047   0.602   2.037
 6582SOL    HW120645   7.022   0.628   1.953
 6582SOL    HW220646   7.012   0.542   2.092
 6583SOL     OW20647   5.437   2.250   5.493
 6583SOL    HW120648   5.534   2.241   5.470
 6583SOL    HW220649   5.382   2.207   5.422
 6584SOL     OW20650   5.672   2.334   6.972
 6584SOL    HW120651   5.695   2.359   6.878
 6584SOL    HW220652   5.573   2.337   6.985
 6585SOL     OW20653   2.299   0.870   1.123
 6585SOL    HW120654   2.264   0.940   1.060
 6585SOL    HW220655   2.370   0.910   1.181
 6586SOL     OW20656   6.904   1.325   6.796
 6586SOL    HW120657   6.925   1.290   6.887
 6586SOL    HW220658   6.968   1.398   6.773
 6587SOL     OW20659   1.824   6.774   2.739
 6587SOL    HW120660   1.837   6.843   2.668
 6587SOL    HW220661   1.732   6.783   2.777
 6588SOL     OW20662   2.126   2.781   6.745
 6588SOL    HW120663   2.225   2.772   6.748
 6588SOL    HW220664   2.084   2.691   6.740
 6589SOL     OW20665   5.191   1.539   5.806
 6589SOL    HW120666   5.140   1.539   5.720
 6589SOL    HW220667   5.285   1.509   5.789
 6590SOL     OW20668   6.365   1.107   5.765
 6590SOL    HW120669   6.458   1.143   5.766
 6590SOL    HW220670   6.366   1.010   5.789
 6591SOL     OW20671   5.273   0.917   2.547
 6591SOL    HW120672   5.317   0.921   2.636
 6591SOL    HW220673   5.299   0.831   2.501
 6592SOL     OW20674   5.416   5.913   4.643
 6592SOL    HW120675   5.398   5.867   4.556
 6592SOL    HW220676   5.502   5.964   4.637
 6593SOL     OW20677   4.642   0.861   2.415
 6593SOL    HW120678   4.694   0.929   2.364
 6593SOL    HW220679   4.704   0.794   2.456
 6594SOL     OW20680   5.579   1.128   6.607
 6594SOL    HW120681   5.602   1.033   6.585
 6594SOL    HW220682   5.551   1.175   6.524
 6595SOL     OW20683   1.529   3.809   0.072
 6595SOL    HW120684   1.474   3.804   0.156
 6595SOL    HW220685   1.626   3.799   0.095
 6596SOL     OW20686   3.351   6.402   5.491
 6596SOL    HW120687   3.433   6.421   5.545
 6596SOL    HW220688   3.338   6.303   5.484
 6597SOL     OW20689   6.773   4.247   6.615
 6597SOL    HW120690   6.821   4.205   6.692
 6597SOL    HW220691   6.839   4.271   6.544
 6598SOL     OW20692   2.318   5.566   4.864
 6598SOL    HW120693   2.267   5.651   4.850
 6598SOL    HW220694   2.294   5.501   4.792
 6599SOL     OW20695   4.584   3.522   5.529
 6599SOL    HW120696   4.538   3.462   5.594
 6599SOL    HW220697   4.681   3.498   5.524
 6600SOL     OW20698   4.608   5.525   4.092
 6600SOL    HW120699   4.530   5.554   4.036
 6600SOL    HW220700   4.603   5.427   4.108
 6601SOL     OW20701   0.670   0.063   1.311
 6601SOL    HW120702   0.585   0.012   1.322
 6601SOL    HW220703   0.652   0.161   1.324
 6602SOL     OW20704   6.408   1.112   1.936
 6602SOL    HW120705   6.388   1.191   1.878
 6602SOL    HW220706   6.389   1.135   2.032
 6603SOL     OW20707   2.582   2.034   2.275
 6603SOL    HW120708   2.500   1.986   2.243
 6603SOL    HW220709   2.589   2.122   2.228
 6604SOL     OW20710   4.087   5.807   3.373
 6604SOL    HW120711   4.157   5.863   3.329
 6604SOL    HW220712   4.121   5.713   3.382
 6605SOL     OW20713   5.836   6.579   0.148
 6605SOL    HW120714   5.749   6.577   0.196
 6605SOL    HW220715   5.820   6.582   0.050
 6606SOL     OW20716   6.114   1.598   3.010
 6606SOL    HW120717   6.116   1.688   2.966
 6606SOL    HW220718   6.203   1.553   2.998
 6607SOL     OW20719   0.842   1.965   3.139
 6607SOL    HW120720   0.794   1.973   3.051
 6607SOL    HW220721   0.864   1.870   3.157
 6608SOL     OW20722   5.655   4.892   5.107
 6608SOL    HW120723   5.708   4.807   5.100
 6608SOL    HW220724   5.636   4.927   5.016
 6609SOL     OW20725   5.718   1.218   6.984
 6609SOL    HW120726   5.784   1.233   6.910
 6609SOL    HW220727   5.643   1.162   6.950
 6610SOL     OW20728   3.118   0.858   0.227
 6610SOL    HW120729   3.097   0.761   0.208
 6610SOL    HW220730   3.208   0.865   0.271
 6611SOL     OW20731   5.298   3.067   3.173
 6611SOL    HW120732   5.241   2.985   3.163
 6611SOL    HW220733   5.394   3.043   3.158
 6612SOL     OW20734   0.918   5.943   6.457
 6612SOL    HW120735   0.942   5.862   6.403
 6612SOL    HW220736   1.001   5.986   6.492
 6613SOL     OW20737   4.983   4.779   1.295
 6613SOL    HW120738   4.888   4.778   1.264
 6613SOL    HW220739   4.991   4.835   1.377
 6614SOL     OW20740   5.060   5.343   5.826
 6614SOL    HW120741   5.066   5.330   5.727
 6614SOL    HW220742   4.964   5.356   5.853
 6615SOL     OW20743   0.649   4.520   5.264
 6615SOL    HW120744   0.629   4.549   5.171
 6615SOL    HW220745   0.661   4.600   5.323
 6616SOL     OW20746   4.936   0.967   4.462
 6616SOL    HW120747   4.996   0.941   4.539
 6616SOL    HW220748   4.963   1.057   4.428
 6617SOL     OW20749   4.544   7.018   5.140
 6617SOL    HW120750   4.452   7.003   5.177
 6617SOL    HW220751   4.607   0.018   5.214
 6618SOL     OW20752   0.532   5.129   1.220
 6618SOL    HW120753   0.605   5.060   1.222
 6618SOL    HW220754   0.495   5.136   1.127
 6619SOL     OW20755   6.838   6.386   1.333
 6619SOL    HW120756   6.925   6.371   1.381
 6619SOL    HW220757   6.841   6.340   1.244
 6620SOL     OW20758   4.118   3.146   5.737
 6620SOL    HW120759   4.065   3.197   5.670
 6620SOL    HW220760   4.070   3.060   5.759
 6621SOL     OW20761   2.461   3.758   0.342
 6621SOL    HW120762   2.421   3.782   0.254
 6621SOL    HW220763   2.400   3.696   0.391
 6622SOL     OW20764   6.438   6.684   0.681
 6622SOL    HW120765   6.362   6.661   0.741
 6622SOL    HW220766   6.504   6.608   0.679
 6623SOL     OW20767   3.544   3.749   2.553
 6623SOL    HW120768   3.507   3.824   2.499
 6623SOL    HW220769   3.601   3.691   2.495
 6624SOL     OW20770   4.545   5.189   3.870
 6624SOL    HW120771   4.481   5.265   3.874
 6624SOL    HW220772   4.592   5.181   3.958
 6625SOL     OW20773   5.675   0.243   6.982
 6625SOL    HW120774   5.616   0.225   0.038
 6625SOL    HW220775   5.694   0.341   6.975
 6626SOL     OW20776   3.022   5.270   3.353
 6626SOL    HW120777   3.009   5.365   3.325
 6626SOL    HW220778   2.949   5.214   3.315
 6627SOL     OW20779   1.994   5.985   1.828
 6627SOL    HW120780   1.955   6.065   1.873
 6627SOL    HW220781   1.933   5.956   1.754
 6628SOL     OW20782   3.690   6.009   3.527
 6628SOL    HW120783   3.755   6.082   3.507
 6628SOL    HW220784   3.651   5.975   3.441
 6629SOL     OW20785   3.245   3.691   0.378
 6629SOL    HW120786   3.201   3.746   0.448
 6629SOL    HW220787   3.333   3.732   0.354
 6630SOL     OW20788   3.030   1.951   6.080
 6630SOL    HW120789   3.097   1.888   6.042
 6630SOL    HW220790   3.046   1.962   6.178
 6631SOL     OW20791   4.534   0.628   1.988
 6631SOL    HW120792   4.589   0.693   2.042
 6631SOL    HW220793   4.458   0.677   1.946
 6632SOL     OW20794   6.722   2.644   2.501
 6632SOL    HW120795   6.785   2.713   2.535
 6632SOL    HW220796   6.734   2.559   2.553
 6633SOL     OW20797   0.370   0.338   1.552
 6633SOL    HW120798   0.306   0.262   1.562
 6633SOL    HW220799   0.440   0.332   1.623
 6634SOL     OW20800   6.985   2.726   5.660
 6634SOL    HW120801   6.991   2.823   5.685
 6634SOL    HW220802   7.018   2.670   5.736
 6635SOL     OW20803   4.496   4.419   2.969
 6635SOL    HW120804   4.529   4.326   2.956
 6635SOL    HW220805   4.497   4.467   2.882
 6636SOL     OW20806   1.726   3.014   3.740
 6636SOL    HW120807   1.792   3.004   3.814
 6636SOL    HW220808   1.681   3.103   3.747
 6637SOL     OW20809   6.395   1.587   1.547
 6637SOL    HW120810   6.483   1.551   1.578
 6637SOL    HW220811   6.324   1.517   1.559
 6638SOL     OW20812   2.561   6.215   6.097
 6638SOL    HW120813   2.540   6.118   6.105
 6638SOL    HW220814   2.595   6.234   6.004
 6639SOL     OW20815   5.059   5.919   6.326
 6639SOL    HW120816   5.041   5.991   6.393
 6639SOL    HW220817   4.978   5.861   6.318
 6640SOL     OW20818   5.916   2.970   3.916
 6640SOL    HW120819   5.952   2.877   3.909
 6640SOL    HW220820   5.948   3.013   4.000
 6641SOL     OW20821   2.101   4.696   6.758
 6641SOL    HW120822   2.022   4.654   6.803
 6641SOL    HW220823   2.101   4.673   6.661
 6642SOL     OW20824   6.229   6.658   0.400
 6642SOL    HW120825   6.143   6.694   0.363
 6642SOL    HW220826   6.270   6.726   0.460
 6643SOL     OW20827   4.045   5.699   0.237
 6643SOL    HW120828   3.987   5.729   0.161
 6643SOL    HW220829   4.040   5.767   0.311
 6644SOL     OW20830   2.375   4.545   1.994
 6644SOL    HW120831   2.318   4.619   1.961
 6644SOL    HW220832   2.429   4.576   2.072
 6645SOL     OW20833   6.705   4.704   4.991
 6645SOL    HW120834   6.732   4.731   4.899
 6645SOL    HW220835   6.746   4.767   5.058
 6646SOL     OW20836   1.401   6.123   3.861
 6646SOL    HW120837   1.311   6.081   3.844
 6646SOL    HW220838   1.388   6.209   3.911
 6647SOL     OW20839   4.194   2.002   2.412
 6647SOL    HW120840   4.171   2.098   2.395
 6647SOL    HW220841   4.161   1.946   2.336
 6648SOL     OW20842   4.522   5.608   1.726
 6648SOL    HW120843   4.588   5.554   1.778
 6648SOL    HW220844   4.513   5.698   1.768
 6649SOL     OW20845   4.257   2.060   6.480
 6649SOL    HW120846   4.289   2.083   6.572
 6649SOL    HW220847   4.311   1.985   6.444
 6650SOL     OW20848   2.924   1.959   3.489
 6650SOL    HW120849   2.949   2.054   3.510
 6650SOL    HW220850   2.839   1.959   3.435
 6651SOL     OW20851   1.613   2.459   0.140
 6651SOL    HW120852   1.582   2.364   0.141
 6651SOL    HW220853   1.690   2.468   0.076
 6652SOL     OW20854   1.013   5.843   3.519
 6652SOL    HW120855   0.952   5.765   3.502
 6652SOL    HW220856   1.091   5.813   3.575
 6653SOL     OW20857   3.264   3.521   3.920
 6653SOL    HW120858   3.251   3.480   4.010
 6653SOL    HW220859   3.236   3.456   3.849
 6654SOL     OW20860   2.018   3.664   1.907
 6654SOL    HW120861   1.924   3.648   1.937
 6654SOL    HW220862   2.079   3.600   1.953
 6655SOL     OW20863   2.134   0.065   0.704
 6655SOL    HW120864   2.089   0.096   0.788
 6655SOL    HW220865   2.086   7.010   0.666
 6656SOL     OW20866   6.623   2.289   1.294
 6656SOL    HW120867   6.537   2.337   1.313
 6656SOL    HW220868   6.700   2.350   1.310
 6657SOL     OW20869   2.836   4.893   6.045
 6657SOL    HW120870   2.810   4.810   5.995
 6657SOL    HW220871   2.923   4.927   6.010
 6658SOL     OW20872   5.367   0.382   5.733
 6658SOL    HW120873   5.321   0.382   5.644
 6658SOL    HW220874   5.406   0.292   5.750
 6659SOL     OW20875   1.519   3.089   6.560
 6659SOL    HW120876   1.460   3.162   6.526
 6659SOL    HW220877   1.483   3.055   6.647
 6660SOL     OW20878   0.514   0.200   2.492
 6660SOL    HW120879   0.548   0.216   2.585
 6660SOL    HW220880   0.545   0.111   2.460
 6661SOL     OW20881   0.112   5.678   3.463
 6661SOL    HW120882   0.178   5.734   3.412
 6661SOL    HW220883   0.162   5.610   3.517
 6662SOL     OW20884   0.990   3.667   5.701
 6662SOL    HW120885   1.074   3.704   5.661
 6662SOL    HW220886   0.942   3.611   5.634
 6663SOL     OW20887   0.327   5.070   2.168
 6663SOL    HW120888   0.364   5.154   2.129
 6663SOL    HW220889   0.401   5.005   2.183
 6664SOL     OW20890   0.638   1.832   3.658
 6664SOL    HW120891   0.552   1.883   3.652
 6664SOL    HW220892   0.691   1.845   3.575
 6665SOL     OW20893   2.919   6.284   2.630
 6665SOL    HW120894   2.894   6.248   2.720
 6665SOL    HW220895   2.836   6.301   2.577
 6666SOL     OW20896   6.220   0.416   0.370
 6666SOL    HW120897   6.255   0.376   0.286
 6666SOL    HW220898   6.275   0.497   0.393
 6667SOL     OW20899   6.624   4.808   4.412
 6667SOL    HW120900   6.720   4.821   4.387
 6667SOL    HW220901   6.575   4.767   4.335
 6668SOL     OW20902   0.033   6.557   1.173
 6668SOL    HW120903   0.116   6.612   1.182
 6668SOL    HW220904   6.977   6.613   1.197
 6669SOL     OW20905   1.488   5.462   2.944
 6669SOL    HW120906   1.555   5.414   2.886
 6669SOL    HW220907   1.494   5.560   2.927
 6670SOL     OW20908   3.145   4.740   0.797
 6670SOL    HW120909   3.071   4.727   0.863
 6670SOL    HW220910   3.217   4.796   0.837
 6671SOL     OW20911   0.568   2.837   5.520
 6671SOL    HW120912   0.586   2.741   5.540
 6671SOL    HW220913   0.519   2.843   5.433
 6672SOL     OW20914   0.655   0.771   5.560
 6672SOL    HW120915   0.660   0.861   5.518
 6672SOL    HW220916   0.745   0.745   5.596
 6673SOL     OW20917   5.161   5.419   1.545
 6673SOL    HW120918   5.213   5.487   1.597
 6673SOL    HW220919   5.206   5.331   1.550
 6674SOL     OW20920   0.688   6.988   4.752
 6674SOL    HW120921   0.747   0.036   4.792
 6674SOL    HW220922   0.657   7.018   4.662
 6675SOL     OW20923   0.288   5.847   0.342
 6675SOL    HW120924   0.261   5.764   0.292
 6675SOL    HW220925   0.368   5.887   0.298
 6676SOL     OW20926   1.199   2.291   0.273
 6676SOL    HW120927   1.239   2.383   0.268
 6676SOL    HW220928   1.126   2.282   0.205
 6677SOL     OW20929   6.442   3.909   6.790
 6677SOL    HW120930   6.455   3.814   6.760
 6677SOL    HW220931   6.531   3.950   6.809
 6678SOL     OW20932   0.991   2.918   4.359
 6678SOL    HW120933   1.070   2.858   4.377
 6678SOL    HW220934   0.980   2.983   4.433
 6679SOL     OW20935   1.721   1.314   4.173
 6679SOL    HW120936   1.691   1.320   4.268
 6679SOL    HW220937   1.723   1.218   4.145
 6680SOL     OW20938   2.075   6.829   6.182
 6680SOL    HW120939   2.172   6.854   6.189
 6680SOL    HW220940   2.068   6.730   6.166
 6681SOL     OW20941   5.831   5.396   0.297
 6681SOL    HW120942   5.840   5.379   0.199
 6681SOL    HW220943   5.883   5.327   0.348
 6682SOL     OW20944   0.410   5.486   2.642
 6682SOL    HW120945   0.431   5.581   2.620
 6682SOL    HW220946   0.391   5.435   2.558
 6683SOL     OW20947   5.367   1.816   4.159
 6683SOL    HW120948   5.331   1.786   4.070
 6683SOL    HW220949   5.449   1.871   4.144
 6684SOL     OW20950   2.197   0.654   2.179
 6684SOL    HW120951   2.198   0.556   2.195
 6684SOL    HW220952   2.148   0.700   2.253
 6685SOL     OW20953   5.194   3.726   6.371
 6685SOL    HW120954   5.143   3.670   6.437
 6685SOL    HW220955   5.183   3.688   6.279
 6686SOL     OW20956   5.468   3.884   3.886
 6686SOL    HW120957   5.426   3.809   3.937
 6686SOL    HW220958   5.533   3.932   3.944
 6687SOL     OW20959   1.088   1.404   6.871
 6687SOL    HW120960   1.145   1.323   6.886
 6687SOL    HW220961   1.147   1.484   6.859
 6688SOL     OW20962   0.611   4.892   3.040
 6688SOL    HW120963   0.685   4.959   3.047
 6688SOL    HW220964   0.598   4.867   2.944
 6689SOL     OW20965   4.232   4.784   0.655
 6689SOL    HW120966   4.330   4.769   0.661
 6689SOL    HW220967   4.212   4.882   0.660
 6690SOL     OW20968   1.042   1.823   0.500
 6690SOL    HW120969   1.087   1.785   0.581
 6690SOL    HW220970   1.037   1.923   0.509
 6691SOL     OW20971   1.531   5.197   0.863
 6691SOL    HW120972   1.569   5.129   0.801
 6691SOL    HW220973   1.605   5.240   0.915
 6692SOL     OW20974   3.371   4.250   5.987
 6692SOL    HW120975   3.426   4.330   6.013
 6692SOL    HW220976   3.365   4.187   6.065
 6693SOL     OW20977   4.174   3.615   4.885
 6693SOL    HW120978   4.241   3.659   4.944
 6693SOL    HW220979   4.085   3.611   4.931
 6694SOL     OW20980   2.987   5.974   0.110
 6694SOL    HW120981   2.939   5.950   0.194
 6694SOL    HW220982   2.926   6.024   0.049
 6695SOL     OW20983   1.576   1.677   6.574
 6695SOL    HW120984   1.504   1.671   6.505
 6695SOL    HW220985   1.539   1.650   6.663
 6696SOL     OW20986   2.120   3.239   1.990
 6696SOL    HW120987   2.175   3.318   1.964
 6696SOL    HW220988   2.070   3.259   2.074
 6697SOL     OW20989   5.283   2.056   3.560
 6697SOL    HW120990   5.369   2.046   3.511
 6697SOL    HW220991   5.259   2.152   3.567
 6698SOL     OW20992   3.337   4.124   0.602
 6698SOL    HW120993   3.247   4.079   0.605
 6698SOL    HW220994   3.346   4.186   0.680
 6699SOL     OW20995   1.517   3.439   6.575
 6699SOL    HW120996   1.509   3.458   6.673
 6699SOL    HW220997   1.438   3.385   6.545
 6700SOL     OW20998   6.700   6.843   6.265
 6700SOL    HW120999   6.797   6.854   6.243
 6700SOL    HW221000   6.689   6.767   6.329
 6701SOL     OW21001   0.579   2.574   0.963
 6701SOL    HW121002   0.512   2.555   1.034
 6701SOL    HW221003   0.635   2.653   0.989
 6702SOL     OW21004   1.673   3.165   1.048
 6702SOL    HW121005   1.698   3.256   1.079
 6702SOL    HW221006   1.754   3.119   1.010
 6703SOL     OW21007   0.321   2.232   6.894
 6703SOL    HW121008   0.370   2.319   6.894
 6703SOL    HW221009   0.355   2.174   6.968
 6704SOL     OW21010   5.087   1.895   3.416
 6704SOL    HW121011   5.172   1.926   3.458
 6704SOL    HW221012   5.030   1.974   3.394
 6705SOL     OW21013   6.434   1.042   0.477
 6705SOL    HW121014   6.392   1.106   0.413
 6705SOL    HW221015   6.477   0.968   0.427
 6706SOL     OW21016   1.001   5.407   6.736
 6706SOL    HW121017   0.990   5.506   6.722
 6706SOL    HW221018   0.920   5.370   6.781
 6707SOL     OW21019   1.086   5.544   2.277
 6707SOL    HW121020   1.057   5.497   2.193
 6707SOL    HW221021   1.095   5.477   2.351
 6708SOL     OW21022   2.245   6.227   1.488
 6708SOL    HW121023   2.249   6.135   1.451
 6708SOL    HW221024   2.309   6.235   1.565
 6709SOL     OW21025   5.392   1.483   3.063
 6709SOL    HW121026   5.404   1.514   2.968
 6709SOL    HW221027   5.457   1.410   3.082
 6710SOL     OW21028   1.945   1.946   0.630
 6710SOL    HW121029   1.892   1.960   0.714
 6710SOL    HW221030   1.884   1.914   0.557
 6711SOL     OW21031   4.424   3.605   0.335
 6711SOL    HW121032   4.429   3.576   0.430
 6711SOL    HW221033   4.363   3.545   0.284
 6712SOL     OW21034   3.381   5.899   1.239
 6712SOL    HW121035   3.284   5.918   1.224
 6712SOL    HW221036   3.431   5.914   1.153
 6713SOL     OW21037   1.617   1.426   2.726
 6713SOL    HW121038   1.539   1.489   2.737
 6713SOL    HW221039   1.622   1.396   2.630
 6714SOL     OW21040   6.726   0.533   3.882
 6714SOL    HW121041   6.725   0.440   3.918
 6714SOL    HW221042   6.727   0.598   3.958
 6715SOL     OW21043   0.383   2.008   0.689
 6715SOL    HW121044   0.356   1.919   0.727
 6715SOL    HW221045   0.454   1.994   0.620
 6716SOL     OW21046   2.993   5.515   0.367
 6716SOL    HW121047   3.039   5.523   0.279
 6716SOL    HW221048   2.895   5.530   0.355
 6717SOL     OW21049   4.010   1.879   6.500
 6717SOL    HW121050   4.087   1.909   6.445
 6717SOL    HW221051   3.965   1.959   6.541
 6718SOL     OW21052   3.427   6.630   0.013
 6718SOL    HW121053   3.476   6.698   6.982
 6718SOL    HW221054   3.397   6.671   0.099
 6719SOL     OW21055   0.500   0.379   5.611
 6719SOL    HW121056   0.551   0.340   5.689
 6719SOL    HW221057   0.492   0.478   5.622
 6720SOL     OW21058   1.886   4.606   1.540
 6720SOL    HW121059   1.800   4.652   1.562
 6720SOL    HW221060   1.962   4.660   1.575
 6721SOL     OW21061   6.505   6.236   3.265
 6721SOL    HW121062   6.505   6.180   3.182
 6721SOL    HW221063   6.412   6.268   3.283
 6722SOL     OW21064   5.237   4.622   0.004
 6722SOL    HW121065   5.278   4.558   6.962
 6722SOL    HW221066   5.309   4.665   0.058
 6723SOL     OW21067   4.483   0.491   2.778
 6723SOL    HW121068   4.419   0.525   2.847
 6723SOL    HW221069   4.442   0.414   2.729
 6724SOL     OW21070   3.347   4.777   5.625
 6724SOL    HW121071   3.282   4.852   5.641
 6724SOL    HW221072   3.325   4.732   5.539
 6725SOL     OW21073   0.083   5.015   1.860
 6725SOL    HW121074   0.148   4.967   1.919
 6725SOL    HW221075   0.087   4.977   1.768
 6726SOL     OW21076   2.355   2.727   2.087
 6726SOL    HW121077   2.346   2.729   1.988
 6726SOL    HW221078   2.299   2.798   2.128
 6727SOL     OW21079   3.475   3.836   0.348
 6727SOL    HW121080   3.458   3.934   0.364
 6727SOL    HW221081   3.567   3.813   0.380
 6728SOL     OW21082   4.516   1.496   4.485
 6728SOL    HW121083   4.506   1.396   4.484
 6728SOL    HW221084   4.507   1.531   4.392
 6729SOL     OW21085   5.696   6.110   2.971
 6729SOL    HW121086   5.717   6.063   2.885
 6729SOL    HW221087   5.758   6.188   2.982
 6730SOL     OW21088   1.313   0.471   2.387
 6730SOL    HW121089   1.231   0.415   2.380
 6730SOL    HW221090   1.290   0.566   2.366
 6731SOL     OW21091   2.276   4.326   1.886
 6731SOL    HW121092   2.285   4.412   1.937
 6731SOL    HW221093   2.284   4.249   1.949
 6732SOL     OW21094   1.886   4.750   1.074
 6732SOL    HW121095   1.932   4.836   1.053
 6732SOL    HW221096   1.934   4.674   1.030
 6733SOL     OW21097   5.959   6.233   4.735
 6733SOL    HW121098   5.861   6.217   4.751
 6733SOL    HW221099   6.008   6.147   4.743
 6734SOL     OW21100   2.823   3.549   5.294
 6734SOL    HW121101   2.749   3.491   5.329
 6734SOL    HW221102   2.814   3.641   5.334
 6735SOL     OW21103   0.075   5.554   6.338
 6735SOL    HW121104   0.155   5.527   6.392
 6735SOL    HW221105   0.047   5.478   6.280
 6736SOL     OW21106   2.107   3.950   2.721
 6736SOL    HW121107   2.162   4.033   2.718
 6736SOL    HW221108   2.083   3.923   2.628
 6737SOL     OW21109   1.971   0.108   1.190
 6737SOL    HW121110   1.940   0.016   1.216
 6737SOL    HW221111   2.029   0.144   1.263
 6738SOL     OW21112   4.158   1.130   1.713
 6738SOL    HW121113   4.136   1.033   1.720
 6738SOL    HW221114   4.254   1.141   1.687
 6739SOL     OW21115   4.626   0.502   4.459
 6739SOL    HW121116   4.625   0.577   4.394
 6739SOL    HW221117   4.584   0.421   4.418
 6740SOL     OW21118   6.045   3.378   5.476
 6740SOL    HW121119   5.946   3.394   5.484
 6740SOL    HW221120   6.087   3.386   5.566
 6741SOL     OW21121   0.111   6.846   5.827
 6741SOL    HW121122   0.141   6.807   5.740
 6741SOL    HW221123   0.011   6.838   5.834
 6742SOL     OW21124   6.073   5.984   4.799
 6742SOL    HW121125   6.134   5.910   4.772
 6742SOL    HW221126   6.079   5.999   4.897
 6743SOL     OW21127   5.279   2.423   0.931
 6743SOL    HW121128   5.299   2.506   0.983
 6743SOL    HW221129   5.187   2.430   0.892
 6744SOL     OW21130   4.984   5.437   4.929
 6744SOL    HW121131   5.080   5.464   4.938
 6744SOL    HW221132   4.958   5.380   5.007
 6745SOL     OW21133   0.796   3.469   2.940
 6745SOL    HW121134   0.883   3.444   2.898
 6745SOL    HW221135   0.722   3.417   2.896
 6746SOL     OW21136   0.071   0.889   1.039
 6746SOL    HW121137   0.109   0.802   1.008
 6746SOL    HW221138   0.129   0.927   1.111
 6747SOL     OW21139   4.929   6.525   6.935
 6747SOL    HW121140   4.914   6.463   6.858
 6747SOL    HW221141   5.024   6.557   6.935
 6748SOL     OW21142   0.381   6.708   1.653
 6748SOL    HW121143   0.395   6.806   1.643
 6748SOL    HW221144   0.461   6.667   1.698
 6749SOL     OW21145   3.467   5.653   1.014
 6749SOL    HW121146   3.409   5.641   1.095
 6749SOL    HW221147   3.490   5.749   1.003
 6750SOL     OW21148   2.350   2.973   5.436
 6750SOL    HW121149   2.418   2.969   5.509
 6750SOL    HW221150   2.397   2.971   5.347
 6751SOL     OW21151   3.267   1.839   5.949
 6751SOL    HW121152   3.340   1.857   5.884
 6751SOL    HW221153   3.304   1.840   6.042
 6752SOL     OW21154   6.101   2.284   0.674
 6752SOL    HW121155   6.107   2.377   0.638
 6752SOL    HW221156   6.012   2.269   0.717
 6753SOL     OW21157   5.845   1.365   6.350
 6753SOL    HW121158   5.852   1.443   6.288
 6753SOL    HW221159   5.937   1.337   6.377
 6754SOL     OW21160   4.942   1.306   6.970
 6754SOL    HW121161   5.020   1.343   6.921
 6754SOL    HW221162   4.859   1.318   6.915
 6755SOL     OW21163   5.119   1.934   3.772
 6755SOL    HW121164   5.066   2.013   3.804
 6755SOL    HW221165   5.197   1.965   3.718
 6756SOL     OW21166   5.004   4.274   3.403
 6756SOL    HW121167   5.036   4.203   3.341
 6756SOL    HW221168   5.041   4.259   3.494
 6757SOL     OW21169   6.071   5.011   1.646
 6757SOL    HW121170   6.010   4.953   1.591
 6757SOL    HW221171   6.165   4.998   1.616
 6758SOL     OW21172   5.906   1.494   3.418
 6758SOL    HW121173   5.973   1.565   3.396
 6758SOL    HW221174   5.876   1.449   3.334
 6759SOL     OW21175   1.033   4.775   3.483
 6759SOL    HW121176   0.962   4.766   3.553
 6759SOL    HW221177   1.048   4.686   3.440
 6760SOL     OW21178   0.506   4.162   5.587
 6760SOL    HW121179   0.554   4.242   5.551
 6760SOL    HW221180   0.569   4.085   5.596
 6761SOL     OW21181   6.179   3.363   6.172
 6761SOL    HW121182   6.181   3.462   6.158
 6761SOL    HW221183   6.255   3.320   6.124
 6762SOL     OW21184   6.690   4.193   3.264
 6762SOL    HW121185   6.680   4.120   3.331
 6762SOL    HW221186   6.602   4.209   3.218
 6763SOL     OW21187   6.683   6.558   5.288
 6763SOL    HW121188   6.648   6.543   5.195
 6763SOL    HW221189   6.753   6.629   5.286
 6764SOL     OW21190   1.666   3.146   6.789
 6764SOL    HW121191   1.677   3.062   6.735
 6764SOL    HW221192   1.674   3.226   6.730
 6765SOL     OW21193   5.078   5.058   2.870
 6765SOL    HW121194   5.082   5.156   2.850
 6765SOL    HW221195   5.170   5.025   2.892
 6766SOL     OW21196   1.821   1.881   5.562
 6766SOL    HW121197   1.863   1.813   5.623
 6766SOL    HW221198   1.782   1.835   5.483
 6767SOL     OW21199   0.533   2.539   6.018
 6767SOL    HW121200   0.513   2.629   6.057
 6767SOL    HW221201   0.508   2.468   6.084
 6768SOL     OW21202   6.452   1.450   5.816
 6768SOL    HW121203   6.422   1.463   5.911
 6768SOL    HW221204   6.541   1.403   5.816
 6769SOL     OW21205   1.118   2.622   6.800
 6769SOL    HW121206   1.170   2.563   6.861
 6769SOL    HW221207   1.180   2.661   6.731
 6770SOL     OW21208   6.598   1.427   4.852
 6770SOL    HW121209   6.540   1.454   4.775
 6770SOL    HW221210   6.630   1.510   4.899
 6771SOL     OW21211   5.454   1.370   2.238
 6771SOL    HW121212   5.468   1.458   2.191
 6771SOL    HW221213   5.524   1.360   2.309
 6772SOL     OW21214   1.289   0.579   1.855
 6772SOL    HW121215   1.260   0.674   1.852
 6772SOL    HW221216   1.371   0.570   1.912
 6773SOL     OW21217   1.584   0.417   2.319
 6773SOL    HW121218   1.575   0.429   2.220
 6773SOL    HW221219   1.500   0.378   2.356
 6774SOL     OW21220   3.452   1.461   5.829
 6774SOL    HW121221   3.392   1.451   5.749
 6774SOL    HW221222   3.531   1.400   5.819
 6775SOL     OW21223   1.222   2.912   4.766
 6775SOL    HW121224   1.165   2.837   4.733
 6775SOL    HW221225   1.305   2.876   4.808
 6776SOL     OW21226   2.945   3.636   3.718
 6776SOL    HW121227   2.858   3.588   3.732
 6776SOL    HW221228   3.006   3.616   3.794
 6777SOL     OW21229   0.331   6.771   6.120
 6777SOL    HW121230   0.356   6.785   6.024
 6777SOL    HW221231   0.336   6.858   6.169
 6778SOL     OW21232   6.867   6.068   2.523
 6778SOL    HW121233   6.792   6.014   2.484
 6778SOL    HW221234   6.947   6.009   2.537
 6779SOL     OW21235   4.551   4.844   6.921
 6779SOL    HW121236   4.506   4.804   7.001
 6779SOL    HW221237   4.568   4.941   6.937
 6780SOL     OW21238   4.366   0.221   2.997
 6780SOL    HW121239   4.420   0.152   3.044
 6780SOL    HW221240   4.393   0.312   3.030
 6781SOL     OW21241   6.799   3.272   3.064
 6781SOL    HW121242   6.887   3.255   3.110
 6781SOL    HW221243   6.782   3.370   3.061
 6782SOL     OW21244   0.440   1.413   3.820
 6782SOL    HW121245   0.434   1.479   3.745
 6782SOL    HW221246   0.364   1.427   3.883
 6783SOL     OW21247   0.500   6.333   6.151
 6783SOL    HW121248   0.570   6.397   6.120
 6783SOL    HW221249   0.516   6.311   6.248
 6784SOL     OW21250   1.597   4.455   0.793
 6784SOL    HW121251   1.665   4.447   0.720
 6784SOL    HW221252   1.589   4.551   0.820
 6785SOL     OW21253   5.404   4.878   2.188
 6785SOL    HW121254   5.477   4.893   2.255
 6785SOL    HW221255   5.386   4.780   2.180
 6786SOL     OW21256   6.289   1.700   5.419
 6786SOL    HW121257   6.217   1.758   5.456
 6786SOL    HW221258   6.339   1.658   5.495
 6787SOL     OW21259   3.203   1.564   0.961
 6787SOL    HW121260   3.220   1.544   1.057
 6787SOL    HW221261   3.107   1.548   0.940
 6788SOL     OW21262   0.914   4.388   1.685
 6788SOL    HW121263   0.967   4.468   1.660
 6788SOL    HW221264   0.851   4.364   1.611
 6789SOL     OW21265   5.828   3.949   2.676
 6789SOL    HW121266   5.819   4.047   2.659
 6789SOL    HW221267   5.742   3.903   2.652
 6790SOL     OW21268   0.936   5.885   0.845
 6790SOL    HW121269   0.888   5.930   0.920
 6790SOL    HW221270   0.982   5.954   0.789
 6791SOL     OW21271   2.628   6.353   3.870
 6791SOL    HW121272   2.725   6.326   3.868
 6791SOL    HW221273   2.620   6.449   3.843
 6792SOL     OW21274   3.581   6.122   6.555
 6792SOL    HW121275   3.580   6.199   6.619
 6792SOL    HW221276   3.544   6.151   6.467
 6793SOL     OW21277   3.018   3.990   6.653
 6793SOL    HW121278   3.039   4.079   6.693
 6793SOL    HW221279   3.103   3.942   6.631
 6794SOL     OW21280   5.314   2.796   4.375
 6794SOL    HW121281   5.273   2.827   4.289
 6794SOL    HW221282   5.410   2.772   4.358
 6795SOL     OW21283   0.846   0.551   1.627
 6795SOL    HW121284   0.819   0.478   1.689
 6795SOL    HW221285   0.832   0.640   1.671
 6796SOL     OW21286   6.635   2.735   2.236
 6796SOL    HW121287   6.717   2.712   2.183
 6796SOL    HW221288   6.650   2.711   2.332
 6797SOL     OW21289   2.006   3.270   1.416
 6797SOL    HW121290   2.043   3.349   1.367
 6797SOL    HW221291   1.978   3.200   1.350
 6798SOL     OW21292   4.648   0.841   2.127
 6798SOL    HW121293   4.730   0.850   2.184
 6798SOL    HW221294   4.599   0.929   2.125
 6799SOL     OW21295   5.723   6.645   2.751
 6799SOL    HW121296   5.807   6.682   2.713
 6799SOL    HW221297   5.695   6.700   2.830
 6800SOL     OW21298   6.947   3.050   2.305
 6800SOL    HW121299   6.911   2.977   2.246
 6800SOL    HW221300   6.942   3.137   2.257
 6801SOL     OW21301   1.690   4.861   5.214
 6801SOL    HW121302   1.766   4.800   5.233
 6801SOL    HW221303   1.641   4.830   5.132
 6802SOL     OW21304   2.590   4.681   1.864
 6802SOL    HW121305   2.533   4.599   1.868
 6802SOL    HW221306   2.646   4.686   1.947
 6803SOL     OW21307   5.489   5.507   6.697
 6803SOL    HW121308   5.399   5.494   6.740
 6803SOL    HW221309   5.561   5.486   6.762
 6804SOL     OW21310   3.077   5.345   1.925
 6804SOL    HW121311   3.172   5.311   1.923
 6804SOL    HW221312   3.075   5.439   1.893
 6805SOL     OW21313   0.593   4.666   3.686
 6805SOL    HW121314   0.606   4.594   3.618
 6805SOL    HW221315   0.555   4.626   3.770
 6806SOL     OW21316   6.046   3.600   2.856
 6806SOL    HW121317   6.028   3.502   2.862
 6806SOL    HW221318   6.011   3.635   2.769
 6807SOL     OW21319   2.910   3.766   2.422
 6807SOL    HW121320   2.931   3.684   2.475
 6807SOL    HW221321   2.812   3.785   2.428
 6808SOL     OW21322   3.332   6.933   3.100
 6808SOL    HW121323   3.341   6.843   3.058
 6808SOL    HW221324   3.259   6.984   3.053
 6809SOL     OW21325   5.714   2.524   0.985
 6809SOL    HW121326   5.738   2.435   1.022
 6809SOL    HW221327   5.714   2.592   1.059
 6810SOL     OW21328   2.664   0.185   4.315
 6810SOL    HW121329   2.610   0.192   4.231
 6810SOL    HW221330   2.625   0.115   4.374
 6811SOL     OW21331   6.594   1.296   0.923
 6811SOL    HW121332   6.633   1.373   0.873
 6811SOL    HW221333   6.529   1.331   0.991
 6812SOL     OW21334   3.282   4.669   5.370
 6812SOL    HW121335   3.223   4.725   5.312
 6812SOL    HW221336   3.231   4.589   5.403
 6813SOL     OW21337   0.389   3.985   2.027
 6813SOL    HW121338   0.417   3.952   2.117
 6813SOL    HW221339   0.382   3.907   1.964
 6814SOL     OW21340   4.857   1.541   1.885
 6814SOL    HW121341   4.946   1.517   1.923
 6814SOL    HW221342   4.803   1.590   1.953
 6815SOL     OW21343   0.504   6.202   6.897
 6815SOL    HW121344   0.530   6.131   6.831
 6815SOL    HW221345   0.586   6.252   6.925
 6816SOL     OW21346   6.652   0.222   3.935
 6816SOL    HW121347   6.709   0.230   4.017
 6816SOL    HW221348   6.561   0.188   3.960
 6817SOL     OW21349   5.227   1.074   1.863
 6817SOL    HW121350   5.217   1.137   1.786
 6817SOL    HW221351   5.261   1.123   1.943
 6818SOL     OW21352   0.416   0.427   5.350
 6818SOL    HW121353   0.461   0.394   5.433
 6818SOL    HW221354   0.368   0.352   5.306
 6819SOL     OW21355   5.399   4.022   1.397
 6819SOL    HW121356   5.382   3.950   1.464
 6819SOL    HW221357   5.312   4.068   1.375
 6820SOL     OW21358   2.638   4.107   1.408
 6820SOL    HW121359   2.646   4.085   1.506
 6820SOL    HW221360   2.621   4.205   1.397
 6821SOL     OW21361   3.168   3.091   6.046
 6821SOL    HW121362   3.079   3.046   6.048
 6821SOL    HW221363   3.186   3.125   5.954
 6822SOL     OW21364   6.087   4.003   5.432
 6822SOL    HW121365   6.007   3.947   5.412
 6822SOL    HW221366   6.166   3.944   5.446
 6823SOL     OW21367   6.882   3.124   5.526
 6823SOL    HW121368   6.814   3.079   5.584
 6823SOL    HW221369   6.848   3.131   5.432
 6824SOL     OW21370   1.039   0.828   4.185
 6824SOL    HW121371   0.952   0.846   4.139
 6824SOL    HW221372   1.023   0.805   4.281
 6825SOL     OW21373   4.152   4.259   1.414
 6825SOL    HW121374   4.127   4.320   1.489
 6825SOL    HW221375   4.129   4.302   1.327
 6826SOL     OW21376   5.318   0.678   3.632
 6826SOL    HW121377   5.381   0.601   3.635
 6826SOL    HW221378   5.358   0.753   3.579
 6827SOL     OW21379   4.850   5.931   5.653
 6827SOL    HW121380   4.801   5.845   5.663
 6827SOL    HW221381   4.806   5.986   5.582
 6828SOL     OW21382   2.748   2.331   2.520
 6828SOL    HW121383   2.837   2.287   2.531
 6828SOL    HW221384   2.728   2.342   2.423
 6829SOL     OW21385   5.588   6.204   4.429
 6829SOL    HW121386   5.630   6.138   4.490
 6829SOL    HW221387   5.521   6.259   4.480
 6830SOL     OW21388   3.932   6.099   2.372
 6830SOL    HW121389   3.995   6.022   2.374
 6830SOL    HW221390   3.886   6.103   2.284
 6831SOL     OW21391   1.382   0.989   6.777
 6831SOL    HW121392   1.387   0.936   6.861
 6831SOL    HW221393   1.370   0.927   6.699
 6832SOL     OW21394   2.734   3.041   0.116
 6832SOL    HW121395   2.658   2.980   0.137
 6832SOL    HW221396   2.804   2.991   0.065
 6833SOL     OW21397   4.857   4.826   0.041
 6833SOL    HW121398   4.833   4.915   0.003
 6833SOL    HW221399   4.835   4.754   6.997
 6834SOL     OW21400   5.825   5.619   5.275
 6834SOL    HW121401   5.854   5.530   5.240
 6834SOL    HW221402   5.906   5.677   5.287
 6835SOL     OW21403   3.626   0.355   2.949
 6835SOL    HW121404   3.564   0.368   3.027
 6835SOL    HW221405   3.720   0.363   2.980
 6836SOL     OW21406   0.690   4.501   6.928
 6836SOL    HW121407   0.677   4.443   7.009
 6836SOL    HW221408   0.685   4.444   6.846
 6837SOL     OW21409   6.429   1.236   1.521
 6837SOL    HW121410   6.343   1.280   1.546
 6837SOL    HW221411   6.503   1.275   1.577
 6838SOL     OW21412   3.161   3.892   5.763
 6838SOL    HW121413   3.160   3.843   5.676
 6838SOL    HW221414   3.067   3.916   5.788
 6839SOL     OW21415   5.729   2.650   5.692
 6839SOL    HW121416   5.813   2.693   5.727
 6839SOL    HW221417   5.651   2.682   5.746
 6840SOL     OW21418   3.346   6.363   4.399
 6840SOL    HW121419   3.253   6.393   4.378
 6840SOL    HW221420   3.370   6.286   4.339
 6841SOL     OW21421   4.515   6.923   0.570
 6841SOL    HW121422   4.598   6.972   0.597
 6841SOL    HW221423   4.438   6.957   0.624
 6842SOL     OW21424   0.653   3.445   3.182
 6842SOL    HW121425   0.557   3.466   3.165
 6842SOL    HW221426   0.703   3.448   3.095
 6843SOL     OW21427   4.789   2.795   2.205
 6843SOL    HW121428   4.772   2.883   2.160
 6843SOL    HW221429   4.780   2.806   2.304
 6844SOL     OW21430   3.564   6.991   4.775
 6844SOL    HW121431   3.625   7.022   4.701
 6844SOL    HW221432   3.569   6.892   4.783
 6845SOL     OW21433   4.057   4.316   0.420
 6845SOL    HW121434   4.098   4.407   0.425
 6845SOL    HW221435   3.990   4.305   0.493
 6846SOL     OW21436   4.061   3.576   3.438
 6846SOL    HW121437   4.033   3.672   3.446
 6846SOL    HW221438   4.142   3.560   3.495
 6847SOL     OW21439   6.075   3.030   2.452
 6847SOL    HW121440   6.000   3.000   2.512
 6847SOL    HW221441   6.145   2.958   2.448
 6848SOL     OW21442   0.542   5.970   4.782
 6848SOL    HW121443   0.483   5.904   4.827
 6848SOL    HW221444   0.624   5.924   4.748
 6849SOL     OW21445   3.342   0.235   5.187
 6849SOL    HW121446   3.379   0.258   5.277
 6849SOL    HW221447   3.290   0.312   5.152
 6850SOL     OW21448   6.123   3.946   1.746
 6850SOL    HW121449   6.094   4.007   1.821
 6850SOL    HW221450   6.100   3.988   1.659
 6851SOL     OW21451   1.385   5.702   5.856
 6851SOL    HW121452   1.393   5.746   5.946
 6851SOL    HW221453   1.467   5.648   5.838
 6852SOL     OW21454   6.500   5.379   2.192
 6852SOL    HW121455   6.563   5.404   2.118
 6852SOL    HW221456   6.493   5.280   2.197
 6853SOL     OW21457   6.246   4.483   4.681
 6853SOL    HW121458   6.248   4.429   4.765
 6853SOL    HW221459   6.257   4.580   4.703
 6854SOL     OW21460   6.448   1.739   6.640
 6854SOL    HW121461   6.467   1.680   6.718
 6854SOL    HW221462   6.528   1.794   6.620
 6855SOL     OW21463   3.086   6.490   2.579
 6855SOL    HW121464   3.037   6.404   2.599
 6855SOL    HW221465   3.045   6.532   2.497
 6856SOL     OW21466   0.480   5.322   5.648
 6856SOL    HW121467   0.438   5.231   5.644
 6856SOL    HW221468   0.457   5.366   5.735
 6857SOL     OW21469   4.563   1.375   6.746
 6857SOL    HW121470   4.549   1.472   6.726
 6857SOL    HW221471   4.477   1.326   6.734
 6858SOL     OW21472   3.671   3.237   6.759
 6858SOL    HW121473   3.728   3.318   6.760
 6858SOL    HW221474   3.598   3.246   6.828
 6859SOL     OW21475   3.426   0.750   0.598
 6859SOL    HW121476   3.383   0.803   0.671
 6859SOL    HW221477   3.382   0.772   0.511
 6860SOL     OW21478   4.499   3.784   0.115
 6860SOL    HW121479   4.458   3.747   0.198
 6860SOL    HW221480   4.486   3.883   0.112
 6861SOL     OW21481   5.652   3.873   1.193
 6861SOL    HW121482   5.679   3.871   1.290
 6861SOL    HW221483   5.676   3.786   1.151
 6862SOL     OW21484   2.747   5.821   3.867
 6862SOL    HW121485   2.651   5.839   3.842
 6862SOL    HW221486   2.788   5.761   3.798
 6863SOL     OW21487   1.295   2.918   3.447
 6863SOL    HW121488   1.282   3.015   3.463
 6863SOL    HW221489   1.377   2.887   3.495
 6864SOL     OW21490   3.918   5.500   6.405
 6864SOL    HW121491   3.988   5.563   6.439
 6864SOL    HW221492   3.896   5.432   6.476
 6865SOL     OW21493   0.116   3.815   4.495
 6865SOL    HW121494   0.161   3.748   4.436
 6865SOL    HW221495   0.061   3.877   4.440
 6866SOL     OW21496   0.929   3.363   2.376
 6866SOL    HW121497   1.017   3.390   2.416
 6866SOL    HW221498   0.918   3.264   2.382
 6867SOL     OW21499   2.302   5.121   2.957
 6867SOL    HW121500   2.369   5.050   2.935
 6867SOL    HW221501   2.290   5.181   2.877
 6868SOL     OW21502   1.983   5.522   4.870
 6868SOL    HW121503   1.938   5.548   4.785
 6868SOL    HW221504   2.058   5.585   4.889
 6869SOL     OW21505   6.931   3.315   4.844
 6869SOL    HW121506   6.870   3.315   4.923
 6869SOL    HW221507   6.911   3.394   4.787
 6870SOL     OW21508   5.897   3.381   2.903
 6870SOL    HW121509   5.917   3.307   2.967
 6870SOL    HW221510   5.889   3.343   2.811
 6871SOL     OW21511   5.048   6.052   1.939
 6871SOL    HW121512   5.052   6.152   1.938
 6871SOL    HW221513   4.955   6.023   1.964
 6872SOL     OW21514   3.544   3.574   0.514
 6872SOL    HW121515   3.456   3.546   0.476
 6872SOL    HW221516   3.615   3.567   0.443
 6873SOL     OW21517   5.559   4.456   4.996
 6873SOL    HW121518   5.540   4.440   4.899
 6873SOL    HW221519   5.521   4.381   5.050
 6874SOL     OW21520   1.316   2.101   5.797
 6874SOL    HW121521   1.316   2.154   5.881
 6874SOL    HW221522   1.407   2.061   5.782
 6875SOL     OW21523   4.090   1.407   4.190
 6875SOL    HW121524   4.014   1.342   4.183
 6875SOL    HW221525   4.140   1.409   4.104
 6876SOL     OW21526   3.836   5.930   4.441
 6876SOL    HW121527   3.893   5.978   4.375
 6876SOL    HW221528   3.894   5.874   4.500
 6877SOL     OW21529   1.822   3.683   5.926
 6877SOL    HW121530   1.788   3.594   5.957
 6877SOL    HW221531   1.755   3.754   5.947
 6878SOL     OW21532   1.287   2.211   4.073
 6878SOL    HW121533   1.319   2.200   4.167
 6878SOL    HW221534   1.200   2.260   4.073
 6879SOL     OW21535   0.343   1.174   5.405
 6879SOL    HW121536   0.431   1.131   5.386
 6879SOL    HW221537   0.340   1.205   5.500
 6880SOL     OW21538   1.969   3.643   4.414
 6880SOL    HW121539   2.006   3.736   4.415
 6880SOL    HW221540   2.004   3.593   4.334
 6881SOL     OW21541   5.852   5.908   1.425
 6881SOL    HW121542   5.766   5.872   1.389
 6881SOL    HW221543   5.836   5.944   1.518
 6882SOL     OW21544   2.408   6.382   5.472
 6882SOL    HW121545   2.426   6.475   5.440
 6882SOL    HW221546   2.358   6.332   5.402
 6883SOL     OW21547   3.223   6.101   1.795
 6883SOL    HW121548   3.244   6.194   1.763
 6883SOL    HW221549   3.225   6.038   1.717
 6884SOL     OW21550   2.245   5.019   2.600
 6884SOL    HW121551   2.292   5.018   2.511
 6884SOL    HW221552   2.147   5.033   2.586
 6885SOL     OW21553   4.066   5.399   4.696
 6885SOL    HW121554   4.138   5.462   4.724
 6885SOL    HW221555   4.097   5.305   4.709
 6886SOL     OW21556   5.205   1.519   2.210
 6886SOL    HW121557   5.294   1.475   2.201
 6886SOL    HW221558   5.151   1.471   2.278
 6887SOL     OW21559   5.272   0.656   5.345
 6887SOL    HW121560   5.226   0.666   5.434
 6887SOL    HW221561   5.271   0.560   5.317
 6888SOL     OW21562   6.344   6.982   4.636
 6888SOL    HW121563   6.374   6.958   4.544
 6888SOL    HW221564   6.388   0.044   4.664
 6889SOL     OW21565   1.629   4.896   5.889
 6889SOL    HW121566   1.677   4.923   5.805
 6889SOL    HW221567   1.550   4.839   5.865
 6890SOL     OW21568   1.942   0.084   0.893
 6890SOL    HW121569   1.862   0.137   0.867
 6890SOL    HW221570   1.959   0.097   0.991
 6891SOL     OW21571   3.276   5.450   5.254
 6891SOL    HW121572   3.321   5.497   5.178
 6891SOL    HW221573   3.292   5.500   5.339
 6892SOL     OW21574   3.253   1.497   4.644
 6892SOL    HW121575   3.302   1.571   4.690
 6892SOL    HW221576   3.159   1.493   4.678
 6893SOL     OW21577   5.698   0.823   1.668
 6893SOL    HW121578   5.606   0.849   1.699
 6893SOL    HW221579   5.705   0.839   1.570
 6894SOL     OW21580   6.154   4.893   6.861
 6894SOL    HW121581   6.075   4.840   6.830
 6894SOL    HW221582   6.217   4.908   6.784
 6895SOL     OW21583   4.238   5.591   6.566
 6895SOL    HW121584   4.212   5.685   6.590
 6895SOL    HW221585   4.320   5.593   6.509
 6896SOL     OW21586   4.548   0.770   2.773
 6896SOL    HW121587   4.547   0.671   2.755
 6896SOL    HW221588   4.460   0.809   2.748
 6897SOL     OW21589   3.757   0.952   0.856
 6897SOL    HW121590   3.765   0.853   0.858
 6897SOL    HW221591   3.741   0.987   0.948
 6898SOL     OW21592   3.780   1.340   2.660
 6898SOL    HW121593   3.747   1.351   2.566
 6898SOL    HW221594   3.849   1.268   2.663
 6899SOL     OW21595   5.745   6.259   6.488
 6899SOL    HW121596   5.682   6.191   6.526
 6899SOL    HW221597   5.730   6.267   6.390
 6900SOL     OW21598   4.458   1.838   6.417
 6900SOL    HW121599   4.489   1.747   6.389
 6900SOL    HW221600   4.505   1.865   6.501
 6901SOL     OW21601   1.380   0.948   0.586
 6901SOL    HW121602   1.367   0.884   0.511
 6901SOL    HW221603   1.323   1.029   0.570
 6902SOL     OW21604   6.395   5.745   2.024
 6902SOL    HW121605   6.322   5.788   2.076
 6902SOL    HW221606   6.476   5.803   2.026
 6903SOL     OW21607   4.438   4.385   0.569
 6903SOL    HW121608   4.534   4.360   0.563
 6903SOL    HW221609   4.393   4.367   0.481
 6904SOL     OW21610   0.850   1.340   3.055
 6904SOL    HW121611   0.929   1.312   3.110
 6904SOL    HW221612   0.852   1.293   2.967
 6905SOL     OW21613   3.861   5.743   1.461
 6905SOL    HW121614   3.936   5.747   1.395
 6905SOL    HW221615   3.869   5.819   1.526
 6906SOL     OW21616   6.211   6.275   3.272
 6906SOL    HW121617   6.189   6.327   3.354
 6906SOL    HW221618   6.140   6.208   3.255
 6907SOL     OW21619   3.576   0.810   1.192
 6907SOL    HW121620   3.576   0.846   1.286
 6907SOL    HW221621   3.516   0.730   1.188
 6908SOL     OW21622   6.066   0.007   6.774
 6908SOL    HW121623   6.075   6.974   6.691
 6908SOL    HW221624   5.988   0.068   6.764
 6909SOL     OW21625   2.926   2.557   6.732
 6909SOL    HW121626   2.954   2.476   6.782
 6909SOL    HW221627   3.003   2.621   6.725
 6910SOL     OW21628   5.711   0.602   1.394
 6910SOL    HW121629   5.680   0.697   1.390
 6910SOL    HW221630   5.688   0.563   1.484
 6911SOL     OW21631   4.123   0.420   5.148
 6911SOL    HW121632   4.220   0.433   5.171
 6911SOL    HW221633   4.114   0.409   5.049
 6912SOL     OW21634   4.098   4.424   1.669
 6912SOL    HW121635   4.187   4.381   1.688
 6912SOL    HW221636   4.025   4.359   1.691
 6913SOL     OW21637   4.512   5.757   5.531
 6913SOL    HW121638   4.604   5.729   5.557
 6913SOL    HW221639   4.445   5.708   5.588
 6914SOL     OW21640   6.007   5.320   0.088
 6914SOL    HW121641   6.075   5.315   0.162
 6914SOL    HW221642   6.044   5.375   0.013
 6915SOL     OW21643   0.993   5.693   1.045
 6915SOL    HW121644   1.088   5.665   1.031
 6915SOL    HW221645   0.968   5.762   0.977
 6916SOL     OW21646   6.139   0.548   5.591
 6916SOL    HW121647   6.228   0.540   5.546
 6916SOL    HW221648   6.078   0.602   5.534
 6917SOL     OW21649   4.423   0.195   0.079
 6917SOL    HW121650   4.334   0.179   0.037
 6917SOL    HW221651   4.490   0.131   0.042
 6918SOL     OW21652   2.381   2.767   3.785
 6918SOL    HW121653   2.343   2.686   3.830
 6918SOL    HW221654   2.380   2.844   3.849
 6919SOL     OW21655   0.838   6.757   3.666
 6919SOL    HW121656   0.791   6.845   3.671
 6919SOL    HW221657   0.835   6.712   3.755
 6920SOL     OW21658   5.146   5.977   4.736
 6920SOL    HW121659   5.242   5.947   4.733
 6920SOL    HW221660   5.136   6.061   4.683
 6921SOL     OW21661   1.096   6.071   3.861
 6921SOL    HW121662   1.056   6.060   3.770
 6921SOL    HW221663   1.041   6.135   3.914
 6922SOL     OW21664   1.926   6.592   0.633
 6922SOL    HW121665   1.927   6.615   0.730
 6922SOL    HW221666   1.997   6.524   0.614
 6923SOL     OW21667   4.828   6.093   4.206
 6923SOL    HW121668   4.903   6.076   4.269
 6923SOL    HW221669   4.858   6.156   4.134
 6924SOL     OW21670   6.863   6.090   1.487
 6924SOL    HW121671   6.826   6.118   1.398
 6924SOL    HW221672   6.815   6.008   1.518
 6925SOL     OW21673   5.794   5.769   2.860
 6925SOL    HW121674   5.788   5.834   2.783
 6925SOL    HW221675   5.763   5.679   2.829
 6926SOL     OW21676   2.981   4.205   5.589
 6926SOL    HW121677   2.888   4.196   5.553
 6926SOL    HW221678   2.982   4.179   5.686
 6927SOL     OW21679   3.957   3.145   0.740
 6927SOL    HW121680   3.971   3.127   0.837
 6927SOL    HW221681   4.013   3.083   0.685
 6928SOL     OW21682   6.703   0.639   6.196
 6928SOL    HW121683   6.640   0.708   6.232
 6928SOL    HW221684   6.766   0.611   6.268
 6929SOL     OW21685   3.028   4.654   1.476
 6929SOL    HW121686   3.045   4.582   1.543
 6929SOL    HW221687   3.060   4.742   1.513
 6930SOL     OW21688   0.910   0.737   2.971
 6930SOL    HW121689   0.995   0.774   2.935
 6930SOL    HW221690   0.840   0.738   2.899
 6931SOL     OW21691   2.087   0.012   0.293
 6931SOL    HW121692   1.999   0.058   0.308
 6931SOL    HW221693   2.160   0.067   0.333
 6932SOL     OW21694   2.871   2.389   0.135
 6932SOL    HW121695   2.950   2.375   0.196
 6932SOL    HW221696   2.787   2.384   0.189
 6933SOL     OW21697   2.528   6.041   5.755
 6933SOL    HW121698   2.440   6.084   5.771
 6933SOL    HW221699   2.532   5.953   5.803
 6934SOL     OW21700   5.590   4.747   6.023
 6934SOL    HW121701   5.669   4.720   5.969
 6934SOL    HW221702   5.615   4.747   6.120
 6935SOL     OW21703   4.543   5.964   3.598
 6935SOL    HW121704   4.596   5.940   3.679
 6935SOL    HW221705   4.496   5.882   3.563
 6936SOL     OW21706   0.889   4.847   0.468
 6936SOL    HW121707   0.830   4.824   0.545
 6936SOL    HW221708   0.849   4.924   0.418
 6937SOL     OW21709   4.588   6.449   5.664
 6937SOL    HW121710   4.537   6.363   5.663
 6937SOL    HW221711   4.684   6.431   5.642
 6938SOL     OW21712   5.608   2.488   5.183
 6938SOL    HW121713   5.639   2.563   5.243
 6938SOL    HW221714   5.577   2.526   5.096
 6939SOL     OW21715   6.854   4.700   2.023
 6939SOL    HW121716   6.790   4.629   1.993
 6939SOL    HW221717   6.883   4.682   2.116
 6940SOL     OW21718   4.271   0.577   4.520
 6940SOL    HW121719   4.196   0.625   4.564
 6940SOL    HW221720   4.355   0.590   4.573
 6941SOL     OW21721   4.077   3.345   4.364
 6941SOL    HW121722   4.110   3.298   4.446
 6941SOL    HW221723   4.127   3.312   4.284
 6942SOL     OW21724   6.668   1.405   6.916
 6942SOL    HW121725   6.762   1.439   6.906
 6942SOL    HW221726   6.652   1.381   7.012
 6943SOL     OW21727   6.527   6.099   0.263
 6943SOL    HW121728   6.553   6.173   0.201
 6943SOL    HW221729   6.464   6.134   0.332
 6944SOL     OW21730   1.605   6.155   6.273
 6944SOL    HW121731   1.632   6.242   6.232
 6944SOL    HW221732   1.524   6.170   6.331
 6945SOL     OW21733   4.354   1.896   5.577
 6945SOL    HW121734   4.420   1.853   5.514
 6945SOL    HW221735   4.401   1.921   5.661
 6946SOL     OW21736   6.039   3.568   3.678
 6946SOL    HW121737   6.106   3.495   3.666
 6946SOL    HW221738   6.017   3.577   3.775
 6947SOL     OW21739   3.376   6.977   1.829
 6947SOL    HW121740   3.439   7.001   1.902
 6947SOL    HW221741   3.353   6.880   1.836
 6948SOL     OW21742   3.859   2.231   5.183
 6948SOL    HW121743   3.891   2.157   5.124
 6948SOL    HW221744   3.938   2.282   5.218
 6949SOL     OW21745   4.823   1.194   2.391
 6949SOL    HW121746   4.789   1.171   2.482
 6949SOL    HW221747   4.754   1.247   2.341
 6950SOL     OW21748   2.674   2.083   3.737
 6950SOL    HW121749   2.600   2.146   3.757
 6950SOL    HW221750   2.755   2.134   3.706
 6951SOL     OW21751   4.547   5.016   5.326
 6951SOL    HW121752   4.448   5.007   5.317
 6951SOL    HW221753   4.583   4.939   5.379
 6952SOL     OW21754   7.000   4.835   5.329
 6952SOL    HW121755   0.070   4.872   5.323
 6952SOL    HW221756   6.988   4.788   5.416
 6953SOL     OW21757   5.367   2.666   5.296
 6953SOL    HW121758   5.431   2.627   5.362
 6953SOL    HW221759   5.273   2.645   5.323
 6954SOL     OW21760   0.708   4.671   2.212
 6954SOL    HW121761   0.691   4.578   2.181
 6954SOL    HW221762   0.752   4.670   2.302
 6955SOL     OW21763   6.714   6.841   2.493
 6955SOL    HW121764   6.682   6.771   2.557
 6955SOL    HW221765   6.754   6.797   2.413
 6956SOL     OW21766   2.755   4.393   1.077
 6956SOL    HW121767   2.676   4.448   1.051
 6956SOL    HW221768   2.725   4.302   1.105
 6957SOL     OW21769   0.937   3.635   0.107
 6957SOL    HW121770   0.928   3.536   0.099
 6957SOL    HW221771   0.980   3.672   0.024
 6958SOL     OW21772   2.134   3.488   6.607
 6958SOL    HW121773   2.132   3.397   6.650
 6958SOL    HW221774   2.216   3.537   6.637
 6959SOL     OW21775   3.650   1.395   3.710
 6959SOL    HW121776   3.656   1.325   3.782
 6959SOL    HW221777   3.610   1.356   3.628
 6960SOL     OW21778   0.897   4.720   0.026
 6960SOL    HW121779   0.859   4.809   0.001
 6960SOL    HW221780   0.822   4.657   0.048
 6961SOL     OW21781   6.695   1.466   2.999
 6961SOL    HW121782   6.722   1.439   2.907
 6961SOL    HW221783   6.763   1.434   3.065
 6962SOL     OW21784   3.637   3.215   0.741
 6962SOL    HW121785   3.649   3.311   0.763
 6962SOL    HW221786   3.683   3.159   0.810
 6963SOL     OW21787   6.174   6.057   2.362
 6963SOL    HW121788   6.125   6.034   2.278
 6963SOL    HW221789   6.136   6.141   2.400
 6964SOL     OW21790   3.720   5.911   5.319
 6964SOL    HW121791   3.741   5.992   5.264
 6964SOL    HW221792   3.790   5.841   5.303
 6965SOL     OW21793   6.096   1.786   5.825
 6965SOL    HW121794   6.047   1.700   5.831
 6965SOL    HW221795   6.157   1.785   5.746
 6966SOL     OW21796   5.188   2.868   4.126
 6966SOL    HW121797   5.107   2.906   4.170
 6966SOL    HW221798   5.164   2.786   4.074
 6967SOL     OW21799   2.358   2.114   5.993
 6967SOL    HW121800   2.454   2.102   5.966
 6967SOL    HW221801   2.308   2.155   5.917
 6968SOL     OW21802   4.080   0.126   3.489
 6968SOL    HW121803   4.094   0.101   3.393
 6968SOL    HW221804   4.031   0.214   3.494
 6969SOL     OW21805   2.949   2.413   1.459
 6969SOL    HW121806   3.026   2.431   1.397
 6969SOL    HW221807   2.944   2.486   1.527
 6970SOL     OW21808   4.287   4.260   0.745
 6970SOL    HW121809   4.355   4.206   0.796
 6970SOL    HW221810   4.334   4.329   0.690
 6971SOL     OW21811   6.031   1.085   2.099
 6971SOL    HW121812   5.940   1.082   2.139
 6971SOL    HW221813   6.025   1.109   2.002
 6972SOL     OW21814   5.719   5.041   4.849
 6972SOL    HW121815   5.624   5.066   4.831
 6972SOL    HW221816   5.735   4.947   4.817
 6973SOL     OW21817   1.644   3.899   3.168
 6973SOL    HW121818   1.651   3.997   3.187
 6973SOL    HW221819   1.708   3.849   3.226
 6974SOL     OW21820   3.509   3.985   4.903
 6974SOL    HW121821   3.576   3.979   4.976
 6974SOL    HW221822   3.431   4.041   4.933
 6975SOL     OW21823   2.835   0.668   5.734
 6975SOL    HW121824   2.896   0.624   5.668
 6975SOL    HW221825   2.886   0.734   5.789
 6976SOL     OW21826   1.204   6.447   0.626
 6976SOL    HW121827   1.264   6.384   0.676
 6976SOL    HW221828   1.181   6.525   0.684
 6977SOL     OW21829   4.705   2.665   2.690
 6977SOL    HW121830   4.626   2.606   2.678
 6977SOL    HW221831   4.715   2.688   2.787
 6978SOL     OW21832   4.833   1.302   3.109
 6978SOL    HW121833   4.911   1.299   3.046
 6978SOL    HW221834   4.825   1.394   3.148
 6979SOL     OW21835   0.390   4.820   3.749
 6979SOL    HW121836   0.472   4.770   3.721
 6979SOL    HW221837   0.313   4.792   3.692
 6980SOL     OW21838   4.534   1.230   4.478
 6980SOL    HW121839   4.437   1.210   4.465
 6980SOL    HW221840   4.579   1.151   4.520
 6981SOL     OW21841   3.320   4.031   0.115
 6981SOL    HW121842   3.259   3.991   0.184
 6981SOL    HW221843   3.390   4.087   0.161
 6982SOL     OW21844   0.848   0.059   4.405
 6982SOL    HW121845   0.818   7.010   4.467
 6982SOL    HW221846   0.802   0.145   4.429
 6983SOL     OW21847   6.721   0.547   3.146
 6983SOL    HW121848   6.813   0.530   3.181
 6983SOL    HW221849   6.718   0.525   3.048
 6984SOL     OW21850   2.336   0.941   5.493
 6984SOL    HW121851   2.263   0.874   5.479
 6984SOL    HW221852   2.403   0.933   5.419
 6985SOL     OW21853   5.354   6.907   3.572
 6985SOL    HW121854   5.413   6.984   3.596
 6985SOL    HW221855   5.271   6.941   3.528
 6986SOL     OW21856   1.787   6.903   5.167
 6986SOL    HW121857   1.760   6.849   5.247
 6986SOL    HW221858   1.723   6.980   5.157
 6987SOL     OW21859   6.509   3.422   6.511
 6987SOL    HW121860   6.571   3.446   6.585
 6987SOL    HW221861   6.420   3.396   6.550
 6988SOL     OW21862   5.484   1.429   5.719
 6988SOL    HW121863   5.455   1.402   5.810
 6988SOL    HW221864   5.455   1.360   5.653
 6989SOL     OW21865   1.859   3.452   3.669
 6989SOL    HW121866   1.841   3.363   3.629
 6989SOL    HW221867   1.957   3.463   3.686
 6990SOL     OW21868   3.964   3.371   0.615
 6990SOL    HW121869   3.944   3.305   0.687
 6990SOL    HW221870   4.005   3.324   0.536
 6991SOL     OW21871   4.403   4.477   5.441
 6991SOL    HW121872   4.462   4.403   5.474
 6991SOL    HW221873   4.326   4.489   5.504
 6992SOL     OW21874   6.169   6.852   4.831
 6992SOL    HW121875   6.229   6.894   4.763
 6992SOL    HW221876   6.193   6.755   4.842
 6993SOL     OW21877   0.268   6.101   3.618
 6993SOL    HW121878   0.288   6.099   3.519
 6993SOL    HW221879   0.170   6.107   3.632
 6994SOL     OW21880   1.281   3.127   0.270
 6994SOL    HW121881   1.294   3.040   0.222
 6994SOL    HW221882   1.189   3.161   0.252
 6995SOL     OW21883   1.115   5.031   3.862
 6995SOL    HW121884   1.116   5.057   3.766
 6995SOL    HW221885   1.198   4.978   3.883
 6996SOL     OW21886   2.152   6.723   6.544
 6996SOL    HW121887   2.103   6.680   6.468
 6996SOL    HW221888   2.170   6.655   6.615
 6997SOL     OW21889   4.974   6.508   4.532
 6997SOL    HW121890   4.941   6.547   4.618
 6997SOL    HW221891   4.896   6.480   4.476
 6998SOL     OW21892   2.359   2.128   2.690
 6998SOL    HW121893   2.272   2.096   2.653
 6998SOL    HW221894   2.434   2.072   2.655
 6999SOL     OW21895   5.134   2.228   6.985
 6999SOL    HW121896   5.048   2.188   7.014
 6999SOL    HW221897   5.170   2.179   6.906
 7000SOL     OW21898   6.619   0.273   1.187
 7000SOL    HW121899   6.540   0.216   1.212
 7000SOL    HW221900   6.632   0.344   1.256
 7001SOL     OW21901   2.358   1.572   5.512
 7001SOL    HW121902   2.456   1.587   5.507
 7001SOL    HW221903   2.334   1.535   5.602
 7002SOL     OW21904   2.161   4.652   2.205
 7002SOL    HW121905   2.081   4.678   2.260
 7002SOL    HW221906   2.138   4.571   2.151
 7003SOL     OW21907   1.732   6.400   5.960
 7003SOL    HW121908   1.801   6.329   5.973
 7003SOL    HW221909   1.679   6.381   5.878
 7004SOL     OW21910   1.553   4.024   6.919
 7004SOL    HW121911   1.600   4.091   6.977
 7004SOL    HW221912   1.521   3.947   6.975
 7005SOL     OW21913   5.948   6.709   5.943
 7005SOL    HW121914   6.003   6.635   5.982
 7005SOL    HW221915   5.979   6.728   5.850
 7006SOL     OW21916   4.600   4.970   4.237
 7006SOL    HW121917   4.675   4.913   4.270
 7006SOL    HW221918   4.528   4.912   4.198
 7007SOL     OW21919   4.682   5.134   2.574
 7007SOL    HW121920   4.778   5.154   2.595
 7007SOL    HW221921   4.668   5.035   2.576
 7008SOL     OW21922   1.404   4.647   4.551
 7008SOL    HW121923   1.397   4.655   4.651
 7008SOL    HW221924   1.451   4.561   4.528
 7009SOL     OW21925   0.583   4.464   2.609
 7009SOL    HW121926   0.545   4.547   2.568
 7009SOL    HW221927   0.527   4.436   2.686
 7010SOL     OW21928   4.395   4.711   6.720
 7010SOL    HW121929   4.436   4.770   6.790
 7010SOL    HW221930   4.464   4.647   6.686
 7011SOL     OW21931   1.341   1.267   5.454
 7011SOL    HW121932   1.282   1.340   5.420
 7011SOL    HW221933   1.311   1.180   5.414
 7012SOL     OW21934   1.551   1.572   1.639
 7012SOL    HW121935   1.568   1.666   1.611
 7012SOL    HW221936   1.488   1.571   1.717
 7013SOL     OW21937   0.038   1.522   1.514
 7013SOL    HW121938   0.009   1.427   1.525
 7013SOL    HW221939   6.982   1.578   1.490
 7014SOL     OW21940   2.100   4.999   0.486
 7014SOL    HW121941   2.121   4.922   0.426
 7014SOL    HW221942   2.001   5.004   0.499
 7015SOL     OW21943   5.293   1.941   2.856
 7015SOL    HW121944   5.234   1.927   2.776
 7015SOL    HW221945   5.388   1.952   2.826
 7016SOL     OW21946   3.899   4.252   1.703
 7016SOL    HW121947   3.887   4.159   1.737
 7016SOL    HW221948   3.839   4.267   1.625
 7017SOL     OW21949   4.675   2.174   4.669
 7017SOL    HW121950   4.641   2.109   4.737
 7017SOL    HW221951   4.680   2.265   4.709
 7018SOL     OW21952   0.211   3.726   3.362
 7018SOL    HW121953   0.208   3.677   3.275
 7018SOL    HW221954   0.188   3.822   3.347
 7019SOL     OW21955   1.645   5.686   1.081
 7019SOL    HW121956   1.635   5.592   1.113
 7019SOL    HW221957   1.670   5.745   1.158
 7020SOL     OW21958   0.273   6.179   6.079
 7020SOL    HW121959   0.359   6.224   6.104
 7020SOL    HW221960   0.290   6.083   6.057
 7021SOL     OW21961   3.825   6.818   5.717
 7021SOL    HW121962   3.845   6.726   5.751
 7021SOL    HW221963   3.735   6.847   5.749
 7022SOL     OW21964   4.432   5.241   6.459
 7022SOL    HW121965   4.410   5.312   6.393
 7022SOL    HW221966   4.396   5.266   6.549
 7023SOL     OW21967   5.932   3.682   2.630
 7023SOL    HW121968   5.879   3.641   2.556
 7023SOL    HW221969   5.917   3.781   2.631
 7024SOL     OW21970   0.001   6.298   1.133
 7024SOL    HW121971   0.096   6.270   1.150
 7024SOL    HW221972   7.015   6.396   1.154
 7025SOL     OW21973   2.275   0.226   6.982
 7025SOL    HW121974   2.211   0.152   6.964
 7025SOL    HW221975   2.285   0.238   0.058
 7026SOL     OW21976   3.561   1.372   1.066
 7026SOL    HW121977   3.615   1.339   0.989
 7026SOL    HW221978   3.610   1.357   1.152
 7027SOL     OW21979   4.646   6.350   4.177
 7027SOL    HW121980   4.600   6.302   4.103
 7027SOL    HW221981   4.744   6.331   4.174
 7028SOL     OW21982   3.084   0.033   4.369
 7028SOL    HW121983   3.051   0.020   4.462
 7028SOL    HW221984   3.016   0.086   4.317
 7029SOL     OW21985   4.133   1.205   4.968
 7029SOL    HW121986   4.033   1.209   4.974
 7029SOL    HW221987   4.161   1.196   4.872
 7030SOL     OW21988   2.117   3.395   3.638
 7030SOL    HW121989   2.141   3.311   3.588
 7030SOL    HW221990   2.157   3.474   3.592
 7031SOL     OW21991   1.274   0.655   4.485
 7031SOL    HW121992   1.289   0.634   4.582
 7031SOL    HW221993   1.353   0.624   4.432
 7032SOL     OW21994   5.974   2.083   3.729
 7032SOL    HW121995   5.901   2.115   3.669
 7032SOL    HW221996   6.027   2.012   3.682
 7033SOL     OW21997   0.107   0.117   4.489
 7033SOL    HW121998   0.122   0.156   4.580
 7033SOL    HW221999   0.061   0.028   4.497
 7034SOL     OW22000   0.173   5.458   2.795
 7034SOL    HW122001   0.195   5.451   2.893
 7034SOL    HW222002   0.257   5.448   2.742
 7035SOL     OW22003   6.651   5.048   2.332
 7035SOL    HW122004   6.743   5.084   2.344
 7035SOL    HW222005   6.619   5.068   2.239
 7036SOL     OW22006   6.608   4.672   0.814
 7036SOL    HW122007   6.611   4.589   0.759
 7036SOL    HW222008   6.513   4.701   0.826
 7037SOL     OW22009   0.979   0.637   6.515
 7037SOL    HW122010   1.061   0.636   6.459
 7037SOL    HW222011   0.913   0.703   6.477
 7038SOL     OW22012   2.136   3.173   4.033
 7038SOL    HW122013   2.146   3.178   4.132
 7038SOL    HW222014   2.205   3.111   3.995
 7039SOL     OW22015   3.601   2.552   6.145
 7039SOL    HW122016   3.618   2.590   6.236
 7039SOL    HW222017   3.537   2.612   6.096
 7040SOL     OW22018   5.209   2.724   6.988
 7040SOL    HW122019   5.298   2.677   6.989
 7040SOL    HW222020   5.211   2.798   6.920
 7041SOL     OW22021   2.591   1.449   3.332
 7041SOL    HW122022   2.561   1.354   3.321
 7041SOL    HW222023   2.513   1.510   3.316
 7042SOL     OW22024   1.497   0.462   6.143
 7042SOL    HW122025   1.547   0.493   6.225
 7042SOL    HW222026   1.562   0.420   6.079
 7043SOL     OW22027   1.283   2.694   2.574
 7043SOL    HW122028   1.378   2.667   2.592
 7043SOL    HW222029   1.270   2.790   2.598
 7044SOL     OW22030   5.376   6.182   1.565
 7044SOL    HW122031   5.305   6.133   1.615
 7044SOL    HW222032   5.464   6.135   1.575
 7045SOL     OW22033   6.578   4.951   0.559
 7045SOL    HW122034   6.591   4.865   0.509
 7045SOL    HW222035   6.552   4.931   0.653
 7046SOL     OW22036   2.566   1.451   3.887
 7046SOL    HW122037   2.615   1.432   3.802
 7046SOL    HW222038   2.632   1.475   3.958
 7047SOL     OW22039   1.264   1.129   2.965
 7047SOL    HW122040   1.233   1.217   2.931
 7047SOL    HW222041   1.301   1.139   3.058
 7048SOL     OW22042   0.104   5.519   0.602
 7048SOL    HW122043   0.088   5.422   0.589
 7048SOL    HW222044   0.041   5.554   0.673
 7049SOL     OW22045   1.958   0.723   6.905
 7049SOL    HW122046   1.973   0.779   6.824
 7049SOL    HW222047   1.860   0.716   6.923
 7050SOL     OW22048   4.059   3.815   4.540
 7050SOL    HW122049   4.083   3.729   4.587
 7050SOL    HW222050   4.132   3.882   4.554
 7051SOL     OW22051   6.693   6.485   3.115
 7051SOL    HW122052   6.710   6.544   3.193
 7051SOL    HW222053   6.747   6.401   3.124
 7052SOL     OW22054   0.094   0.804   4.267
 7052SOL    HW122055   0.005   0.824   4.307
 7052SOL    HW222056   0.152   0.885   4.274
 7053SOL     OW22057   6.647   4.314   5.799
 7053SOL    HW122058   6.610   4.222   5.785
 7053SOL    HW222059   6.721   4.330   5.733
 7054SOL     OW22060   6.510   1.344   1.248
 7054SOL    HW122061   6.480   1.308   1.337
 7054SOL    HW222062   6.576   1.417   1.263
 7055SOL     OW22063   4.200   1.279   4.394
 7055SOL    HW122064   4.169   1.357   4.338
 7055SOL    HW222065   4.201   1.197   4.337
 7056SOL     OW22066   4.122   5.194   3.663
 7056SOL    HW122067   4.065   5.271   3.633
 7056SOL    HW222068   4.119   5.122   3.593
 7057SOL     OW22069   7.017   6.173   3.228
 7057SOL    HW122070   0.070   6.151   3.167
 7057SOL    HW222071   7.008   6.101   3.297
 7058SOL     OW22072   0.373   4.227   5.108
 7058SOL    HW122073   0.327   4.176   5.035
 7058SOL    HW222074   0.346   4.324   5.103
 7059SOL     OW22075   1.851   0.384   2.405
 7059SOL    HW122076   1.902   0.357   2.323
 7059SOL    HW222077   1.757   0.406   2.379
 7060SOL     OW22078   2.787   6.884   0.906
 7060SOL    HW122079   2.718   6.830   0.954
 7060SOL    HW222080   2.743   6.961   0.859
 7061SOL     OW22081   0.004   1.072   3.386
 7061SOL    HW122082   0.090   1.078   3.436
 7061SOL    HW222083   7.009   0.977   3.360
 7062SOL     OW22084   6.982   1.359   5.693
 7062SOL    HW122085   0.009   1.382   5.776
 7062SOL    HW222086   7.022   1.406   5.615
 7063SOL     OW22087   2.121   6.843   2.098
 7063SOL    HW122088   2.213   6.851   2.137
 7063SOL    HW222089   2.129   6.820   2.001
 7064SOL     OW22090   4.239   2.268   0.911
 7064SOL    HW122091   4.330   2.245   0.877
 7064SOL    HW222092   4.208   2.353   0.868
 7065SOL     OW22093   3.952   3.523   2.566
 7065SOL    HW122094   3.931   3.607   2.615
 7065SOL    HW222095   4.003   3.545   2.483
 7066SOL     OW22096   2.828   5.812   1.473
 7066SOL    HW122097   2.847   5.894   1.527
 7066SOL    HW222098   2.734   5.816   1.438
 7067SOL     OW22099   0.492   4.135   4.403
 7067SOL    HW122100   0.396   4.126   4.430
 7067SOL    HW222101   0.499   4.125   4.304
 7068SOL     OW22102   1.079   0.419   2.910
 7068SOL    HW122103   1.071   0.394   2.813
 7068SOL    HW222104   1.143   0.495   2.919
 7069SOL     OW22105   1.337   4.572   5.172
 7069SOL    HW122106   1.350   4.633   5.251
 7069SOL    HW222107   1.243   4.581   5.139
 7070SOL     OW22108   5.250   5.543   4.113
 7070SOL    HW122109   5.277   5.610   4.043
 7070SOL    HW222110   5.151   5.531   4.110
 7071SOL     OW22111   1.481   0.264   4.974
 7071SOL    HW122112   1.524   0.257   4.884
 7071SOL    HW222113   1.381   0.261   4.964
 7072SOL     OW22114   6.933   6.872   6.934
 7072SOL    HW122115   6.955   6.822   6.851
 7072SOL    HW222116   6.835   6.891   6.938
 7073SOL     OW22117   1.832   1.609   6.490
 7073SOL    HW122118   1.837   1.593   6.391
 7073SOL    HW222119   1.768   1.683   6.508
 7074SOL     OW22120   3.011   1.151   0.197
 7074SOL    HW122121   3.056   1.188   0.278
 7074SOL    HW222122   3.011   1.051   0.201
 7075SOL     OW22123   1.085   5.568   2.720
 7075SOL    HW122124   1.087   5.480   2.672
 7075SOL    HW222125   1.153   5.629   2.681
 7076SOL     OW22126   3.607   1.567   6.324
 7076SOL    HW122127   3.561   1.572   6.413
 7076SOL    HW222128   3.625   1.471   6.301
 7077SOL     OW22129   2.153   4.991   6.223
 7077SOL    HW122130   2.114   5.025   6.309
 7077SOL    HW222131   2.252   4.982   6.234
 7078SOL     OW22132   6.380   0.886   2.933
 7078SOL    HW122133   6.463   0.920   2.976
 7078SOL    HW222134   6.319   0.963   2.912
 7079SOL     OW22135   5.095   5.893   5.808
 7079SOL    HW122136   5.125   5.986   5.830
 7079SOL    HW222137   5.013   5.897   5.751
 7080SOL     OW22138   5.718   6.919   4.081
 7080SOL    HW122139   5.666   6.947   4.000
 7080SOL    HW222140   5.796   6.863   4.053
 7081SOL     OW22141   4.262   1.071   5.460
 7081SOL    HW122142   4.276   1.147   5.523
 7081SOL    HW222143   4.350   1.034   5.433
 7082SOL     OW22144   5.029   1.351   6.270
 7082SOL    HW122145   4.994   1.353   6.176
 7082SOL    HW222146   5.118   1.307   6.272
 7083SOL     OW22147   3.296   0.153   6.094
 7083SOL    HW122148   3.271   0.106   6.010
 7083SOL    HW222149   3.369   0.218   6.075
 7084SOL     OW22150   6.564   6.333   0.153
 7084SOL    HW122151   6.526   6.420   0.121
 7084SOL    HW222152   6.650   6.350   0.201
 7085SOL     OW22153   3.451   1.559   0.886
 7085SOL    HW122154   3.353   1.577   0.901
 7085SOL    HW222155   3.483   1.489   0.949
 7086SOL     OW22156   0.434   1.211   6.145
 7086SOL    HW122157   0.456   1.175   6.236
 7086SOL    HW222158   0.385   1.141   6.092
 7087SOL     OW22159   2.410   2.631   4.685
 7087SOL    HW122160   2.421   2.662   4.590
 7087SOL    HW222161   2.357   2.699   4.736
 7088SOL     OW22162   0.652   1.819   5.635
 7088SOL    HW122163   0.612   1.897   5.683
 7088SOL    HW222164   0.668   1.842   5.540
 7089SOL     OW22165   2.674   1.403   1.460
 7089SOL    HW122166   2.724   1.400   1.546
 7089SOL    HW222167   2.739   1.395   1.384
 7090SOL     OW22168   2.551   2.466   4.812
 7090SOL    HW122169   2.561   2.500   4.906
 7090SOL    HW222170   2.502   2.534   4.758
 7091SOL     OW22171   6.750   6.504   0.830
 7091SOL    HW122172   6.783   6.431   0.890
 7091SOL    HW222173   6.699   6.463   0.753
 7092SOL     OW22174   2.927   2.886   0.017
 7092SOL    HW122175   3.023   2.857   0.019
 7092SOL    HW222176   2.868   2.805   0.016
 7093SOL     OW22177   4.379   3.102   5.839
 7093SOL    HW122178   4.399   3.035   5.768
 7093SOL    HW222179   4.283   3.131   5.831
 7094SOL     OW22180   6.547   0.817   6.333
 7094SOL    HW122181   6.599   0.881   6.390
 7094SOL    HW222182   6.497   0.868   6.263
 7095SOL     OW22183   0.693   4.354   6.691
 7095SOL    HW122184   0.773   4.301   6.665
 7095SOL    HW222185   0.615   4.293   6.703
 7096SOL     OW22186   4.999   0.567   2.714
 7096SOL    HW122187   5.051   0.587   2.797
 7096SOL    HW222188   4.920   0.511   2.737
 7097SOL     OW22189   1.731   0.754   1.741
 7097SOL    HW122190   1.643   0.773   1.783
 7097SOL    HW222191   1.747   0.817   1.665
 7098SOL     OW22192   1.466   0.138   5.871
 7098SOL    HW122193   1.543   0.075   5.861
 7098SOL    HW222194   1.434   0.166   5.781
 7099SOL     OW22195   0.422   1.438   5.987
 7099SOL    HW122196   0.519   1.454   6.004
 7099SOL    HW222197   0.391   1.360   6.042
 7100SOL     OW22198   5.494   2.132   1.290
 7100SOL    HW122199   5.484   2.103   1.195
 7100SOL    HW222200   5.507   2.231   1.294
 7101SOL     OW22201   1.440   0.995   4.079
 7101SOL    HW122202   1.352   1.012   4.034
 7101SOL    HW222203   1.502   0.948   4.016
 7102SOL     OW22204   5.383   3.275   1.032
 7102SOL    HW122205   5.447   3.293   1.107
 7102SOL    HW222206   5.290   3.274   1.067
 7103SOL     OW22207   2.553   6.639   6.448
 7103SOL    HW122208   2.649   6.637   6.475
 7103SOL    HW222209   2.546   6.654   6.350
 7104SOL     OW22210   0.518   2.227   1.367
 7104SOL    HW122211   0.563   2.316   1.376
 7104SOL    HW222212   0.564   2.161   1.426
 7105SOL     OW22213   2.323   4.228   5.281
 7105SOL    HW122214   2.252   4.295   5.258
 7105SOL    HW222215   2.306   4.143   5.231
 7106SOL     OW22216   3.308   2.471   5.351
 7106SOL    HW122217   3.304   2.569   5.334
 7106SOL    HW222218   3.258   2.423   5.278
 7107SOL     OW22219   2.230   0.625   6.745
 7107SOL    HW122220   2.240   0.665   6.654
 7107SOL    HW222221   2.185   0.691   6.806
 7108SOL     OW22222   4.485   6.320   1.908
 7108SOL    HW122223   4.570   6.283   1.869
 7108SOL    HW222224   4.485   6.305   2.007
 7109SOL     OW22225   3.511   6.427   6.465
 7109SOL    HW122226   3.457   6.453   6.545
 7109SOL    HW222227   3.466   6.351   6.418
 7110SOL     OW22228   3.330   5.042   3.029
 7110SOL    HW122229   3.312   5.071   3.123
 7110SOL    HW222230   3.337   5.122   2.970
 7111SOL     OW22231   1.314   2.513   3.853
 7111SOL    HW122232   1.303   2.436   3.790
 7111SOL    HW222233   1.266   2.493   3.939
 7112SOL     OW22234   1.415   6.066   2.287
 7112SOL    HW122235   1.430   6.147   2.344
 7112SOL    HW222236   1.382   6.094   2.197
 7113SOL     OW22237   3.863   4.087   4.937
 7113SOL    HW122238   3.945   4.144   4.931
 7113SOL    HW222239   3.838   4.055   4.846
 7114SOL     OW22240   4.253   6.945   0.740
 7114SOL    HW122241   4.257   7.015   0.811
 7114SOL    HW222242   4.172   6.960   0.683
 7115SOL     OW22243   4.593   1.467   1.788
 7115SOL    HW122244   4.687   1.495   1.805
 7115SOL    HW222245   4.551   1.528   1.722
 7116SOL     OW22246   6.471   3.775   2.844
 7116SOL    HW122247   6.514   3.837   2.778
 7116SOL    HW222248   6.374   3.767   2.823
 7117SOL     OW22249   6.686   7.002   2.000
 7117SOL    HW122250   6.639   6.921   1.965
 7117SOL    HW222251   6.719   6.984   2.093
 7118SOL     OW22252   6.257   2.747   2.454
 7118SOL    HW122253   6.285   2.756   2.359
 7118SOL    HW222254   6.311   2.675   2.498
 7119SOL     OW22255   0.612   2.219   2.445
 7119SOL    HW122256   0.581   2.124   2.447
 7119SOL    HW222257   0.690   2.230   2.507
 7120SOL     OW22258   4.911   6.484   3.249
 7120SOL    HW122259   4.915   6.452   3.154
 7120SOL    HW222260   4.897   6.583   3.250
 7121SOL     OW22261   3.344   6.711   1.849
 7121SOL    HW122262   3.426   6.656   1.866
 7121SOL    HW222263   3.270   6.680   1.908
 7122SOL     OW22264   6.495   6.704   6.893
 7122SOL    HW122265   6.507   6.772   6.965
 7122SOL    HW222266   6.405   6.662   6.902
 7123SOL     OW22267   2.209   5.227   0.566
 7123SOL    HW122268   2.165   5.147   0.525
 7123SOL    HW222269   2.188   5.308   0.512
 7124SOL     OW22270   0.468   5.578   1.329
 7124SOL    HW122271   0.568   5.575   1.325
 7124SOL    HW222272   0.440   5.643   1.400
 7125SOL     OW22273   0.149   6.185   2.631
 7125SOL    HW122274   0.055   6.215   2.649
 7125SOL    HW222275   0.161   6.169   2.533
 7126SOL     OW22276   1.623   4.964   0.716
 7126SOL    HW122277   1.655   4.922   0.801
 7126SOL    HW222278   1.526   4.941   0.701
 7127SOL     OW22279   2.983   0.077   4.644
 7127SOL    HW122280   2.923   0.141   4.692
 7127SOL    HW222281   2.941   7.009   4.646
 7128SOL     OW22282   3.404   4.334   1.529
 7128SOL    HW122283   3.473   4.354   1.599
 7128SOL    HW222284   3.429   4.380   1.444
 7129SOL     OW22285   2.557   1.628   1.668
 7129SOL    HW122286   2.501   1.565   1.722
 7129SOL    HW222287   2.532   1.622   1.572
 7130SOL     OW22288   2.738   6.714   2.190
 7130SOL    HW122289   2.682   6.631   2.196
 7130SOL    HW222290   2.686   6.793   2.223
 7131SOL     OW22291   2.842   1.412   3.761
 7131SOL    HW122292   2.859   1.458   3.674
 7131SOL    HW222293   2.883   1.321   3.759
 7132SOL     OW22294   3.511   3.936   3.107
 7132SOL    HW122295   3.431   3.971   3.058
 7132SOL    HW222296   3.589   3.997   3.091
 7133SOL     OW22297   5.760   4.709   2.098
 7133SOL    HW122298   5.710   4.781   2.050
 7133SOL    HW222299   5.742   4.716   2.196
 7134SOL     OW22300   5.565   4.536   3.051
 7134SOL    HW122301   5.609   4.624   3.033
 7134SOL    HW222302   5.582   4.510   3.146
 7135SOL     OW22303   1.081   2.317   5.684
 7135SOL    HW122304   1.112   2.371   5.762
 7135SOL    HW222305   1.045   2.230   5.716
 7136SOL     OW22306   2.556   1.748   6.612
 7136SOL    HW122307   2.472   1.694   6.609
 7136SOL    HW222308   2.635   1.688   6.598
 7137SOL     OW22309   3.989   1.551   5.033
 7137SOL    HW122310   3.987   1.642   5.074
 7137SOL    HW222311   3.901   1.532   4.991
 7138SOL     OW22312   2.086   3.903   6.381
 7138SOL    HW122313   2.029   3.833   6.424
 7138SOL    HW222314   2.115   3.873   6.291
 7139SOL     OW22315   3.212   1.926   7.017
 7139SOL    HW122316   3.241   1.947   0.088
 7139SOL    HW222317   3.179   1.832   7.013
 7140SOL     OW22318   6.516   3.707   5.310
 7140SOL    HW122319   6.509   3.771   5.387
 7140SOL    HW222320   6.550   3.756   5.230
 7141SOL     OW22321   1.747   6.763   1.717
 7141SOL    HW122322   1.739   6.789   1.621
 7141SOL    HW222323   1.750   6.845   1.773
 7142SOL     OW22324   3.906   6.585   3.863
 7142SOL    HW122325   3.942   6.597   3.956
 7142SOL    HW222326   3.953   6.648   3.801
 7143SOL     OW22327   1.909   2.334   3.968
 7143SOL    HW122328   1.881   2.260   4.029
 7143SOL    HW222329   1.994   2.310   3.922
 7144SOL     OW22330   1.042   3.180   3.630
 7144SOL    HW122331   1.090   3.159   3.716
 7144SOL    HW222332   1.109   3.205   3.560
 7145SOL     OW22333   4.296   6.815   6.396
 7145SOL    HW122334   4.338   6.871   6.325
 7145SOL    HW222335   4.366   6.788   6.463
 7146SOL     OW22336   2.798   5.103   1.803
 7146SOL    HW122337   2.762   5.195   1.790
 7146SOL    HW222338   2.889   5.095   1.761
 7147SOL     OW22339   0.774   1.162   3.689
 7147SOL    HW122340   0.746   1.198   3.778
 7147SOL    HW222341   0.799   1.065   3.698
 7148SOL     OW22342   0.394   1.367   0.376
 7148SOL    HW122343   0.396   1.457   0.419
 7148SOL    HW222344   0.429   1.299   0.440
 7149SOL     OW22345   6.977   0.834   4.029
 7149SOL    HW122346   6.954   0.924   4.065
 7149SOL    HW222347   6.996   0.771   4.104
 7150SOL     OW22348   5.977   4.146   6.831
 7150SOL    HW122349   6.074   4.158   6.810
 7150SOL    HW222350   5.968   4.096   6.918
 7151SOL     OW22351   1.734   6.277   1.378
 7151SOL    HW122352   1.826   6.314   1.392
 7151SOL    HW222353   1.725   6.190   1.425
 7152SOL     OW22354   1.343   2.742   3.700
 7152SOL    HW122355   1.321   2.644   3.698
 7152SOL    HW222356   1.439   2.755   3.675
 7153SOL     OW22357   3.298   1.811   3.068
 7153SOL    HW122358   3.215   1.843   3.022
 7153SOL    HW222359   3.367   1.883   3.066
 7154SOL     OW22360   4.394   6.095   4.512
 7154SOL    HW122361   4.362   6.177   4.464
 7154SOL    HW222362   4.493   6.087   4.501
 7155SOL     OW22363   2.080   0.565   3.033
 7155SOL    HW122364   2.069   0.545   2.935
 7155SOL    HW222365   2.050   0.659   3.051
 7156SOL     OW22366   1.245   5.659   4.876
 7156SOL    HW122367   1.238   5.756   4.856
 7156SOL    HW222368   1.159   5.627   4.916
 7157SOL     OW22369   5.165   4.195   1.337
 7157SOL    HW122370   5.111   4.232   1.413
 7157SOL    HW222371   5.171   4.263   1.264
 7158SOL     OW22372   4.945   0.137   4.377
 7158SOL    HW122373   4.998   0.063   4.419
 7158SOL    HW222374   4.997   0.176   4.301
 7159SOL     OW22375   1.249   5.514   0.172
 7159SOL    HW122376   1.150   5.516   0.160
 7159SOL    HW222377   1.274   5.574   0.249
 7160SOL     OW22378   6.645   1.230   2.012
 7160SOL    HW122379   6.568   1.200   1.955
 7160SOL    HW222380   6.656   1.329   2.004
 7161SOL     OW22381   3.562   3.942   3.779
 7161SOL    HW122382   3.603   3.964   3.868
 7161SOL    HW222383   3.479   3.889   3.794
 7162SOL     OW22384   3.030   4.846   3.585
 7162SOL    HW122385   3.119   4.840   3.539
 7162SOL    HW222386   2.961   4.877   3.520
 7163SOL     OW22387   2.550   6.443   3.017
 7163SOL    HW122388   2.549   6.345   2.999
 7163SOL    HW222389   2.565   6.492   2.931
 7164SOL     OW22390   2.666   1.490   4.157
 7164SOL    HW122391   2.763   1.513   4.156
 7164SOL    HW222392   2.612   1.575   4.152
 7165SOL     OW22393   5.123   6.666   2.256
 7165SOL    HW122394   5.155   6.727   2.328
 7165SOL    HW222395   5.027   6.643   2.272
 7166SOL     OW22396   5.268   5.643   1.991
 7166SOL    HW122397   5.316   5.657   2.078
 7166SOL    HW222398   5.245   5.546   1.981
 7167SOL     OW22399   5.011   3.015   5.539
 7167SOL    HW122400   5.031   3.082   5.468
 7167SOL    HW222401   5.028   3.055   5.629
 7168SOL     OW22402   0.961   2.077   4.622
 7168SOL    HW122403   0.862   2.068   4.626
 7168SOL    HW222404   0.986   2.140   4.548
 7169SOL     OW22405   1.758   2.538   6.565
 7169SOL    HW122406   1.776   2.500   6.656
 7169SOL    HW222407   1.775   2.468   6.496
 7170SOL     OW22408   5.973   4.738   3.937
 7170SOL    HW122409   6.012   4.647   3.927
 7170SOL    HW222410   6.025   4.803   3.881
 7171SOL     OW22411   4.582   2.515   6.140
 7171SOL    HW122412   4.563   2.612   6.155
 7171SOL    HW222413   4.546   2.487   6.051
 7172SOL     OW22414   0.822   0.314   1.090
 7172SOL    HW122415   0.740   0.257   1.096
 7172SOL    HW222416   0.902   0.259   1.115
 7173SOL     OW22417   6.052   6.185   5.465
 7173SOL    HW122418   6.142   6.196   5.505
 7173SOL    HW222419   6.027   6.088   5.462
 7174SOL     OW22420   0.732   5.460   6.513
 7174SOL    HW122421   0.725   5.526   6.587
 7174SOL    HW222422   0.720   5.367   6.548
 7175SOL     OW22423   6.216   2.753   5.630
 7175SOL    HW122424   6.268   2.771   5.547
 7175SOL    HW222425   6.253   2.806   5.706
 7176SOL     OW22426   0.035   3.453   1.553
 7176SOL    HW122427   6.989   3.393   1.595
 7176SOL    HW222428   0.057   3.419   1.462
 7177SOL     OW22429   0.782   5.471   2.448
 7177SOL    HW122430   0.738   5.480   2.538
 7177SOL    HW222431   0.846   5.546   2.434
 7178SOL     OW22432   0.206   1.858   6.293
 7178SOL    HW122433   0.184   1.938   6.236
 7178SOL    HW222434   0.248   1.788   6.235
 7179SOL     OW22435   2.098   4.540   6.128
 7179SOL    HW122436   2.175   4.562   6.068
 7179SOL    HW222437   2.035   4.618   6.133
 7180SOL     OW22438   0.646   6.861   3.075
 7180SOL    HW122439   0.609   6.916   3.000
 7180SOL    HW222440   0.735   6.898   3.103
 7181SOL     OW22441   6.013   6.408   2.333
 7181SOL    HW122442   6.056   6.428   2.245
 7181SOL    HW222443   5.935   6.470   2.347
 7182SOL     OW22444   3.584   3.384   5.886
 7182SOL    HW122445   3.643   3.330   5.825
 7182SOL    HW222446   3.533   3.322   5.945
 7183SOL     OW22447   1.528   4.351   3.325
 7183SOL    HW122448   1.602   4.349   3.393
 7183SOL    HW222449   1.497   4.445   3.313
 7184SOL     OW22450   2.395   5.553   2.786
 7184SOL    HW122451   2.364   5.504   2.868
 7184SOL    HW222452   2.465   5.620   2.811
 7185SOL     OW22453   4.697   3.067   6.880
 7185SOL    HW122454   4.789   3.078   6.842
 7185SOL    HW222455   4.694   2.984   6.936
 7186SOL     OW22456   0.244   0.161   4.022
 7186SOL    HW122457   0.326   0.188   3.972
 7186SOL    HW222458   0.269   0.138   4.116
 7187SOL     OW22459   1.964   5.322   1.550
 7187SOL    HW122460   1.943   5.225   1.549
 7187SOL    HW222461   2.018   5.344   1.632
 7188SOL     OW22462   5.121   0.447   1.611
 7188SOL    HW122463   5.118   0.363   1.557
 7188SOL    HW222464   5.060   0.439   1.690
 7189SOL     OW22465   0.074   0.350   5.116
 7189SOL    HW122466   0.016   0.269   5.105
 7189SOL    HW222467   0.170   0.321   5.120
 7190SOL     OW22468   4.877   4.876   3.139
 7190SOL    HW122469   4.875   4.797   3.201
 7190SOL    HW222470   4.964   4.924   3.149
 7191SOL     OW22471   0.593   3.377   1.682
 7191SOL    HW122472   0.619   3.380   1.779
 7191SOL    HW222473   0.669   3.338   1.629
 7192SOL     OW22474   3.820   5.342   6.587
 7192SOL    HW122475   3.722   5.325   6.601
 7192SOL    HW222476   3.869   5.321   6.672
 7193SOL     OW22477   5.301   1.743   3.914
 7193SOL    HW122478   5.201   1.744   3.912
 7193SOL    HW222479   5.336   1.789   3.832
 7194SOL     OW22480   3.408   1.187   1.449
 7194SOL    HW122481   3.463   1.218   1.372
 7194SOL    HW222482   3.387   1.265   1.508
 7195SOL     OW22483   0.222   5.628   1.895
 7195SOL    HW122484   0.183   5.643   1.804
 7195SOL    HW222485   0.176   5.687   1.961
 7196SOL     OW22486   3.612   2.627   1.747
 7196SOL    HW122487   3.641   2.542   1.792
 7196SOL    HW222488   3.523   2.612   1.703
 7197SOL     OW22489   1.034   2.043   4.280
 7197SOL    HW122490   1.078   2.124   4.320
 7197SOL    HW222491   0.953   2.071   4.230
 7198SOL     OW22492   0.303   6.415   6.590
 7198SOL    HW122493   0.252   6.347   6.537
 7198SOL    HW222494   0.388   6.437   6.542
 7199SOL     OW22495   5.569   6.832   2.913
 7199SOL    HW122496   5.563   6.915   2.969
 7199SOL    HW222497   5.511   6.761   2.953
 7200SOL     OW22498   1.825   2.117   2.028
 7200SOL    HW122499   1.787   2.200   2.068
 7200SOL    HW222500   1.751   2.057   1.996
 7201SOL     OW22501   2.038   4.971   3.331
 7201SOL    HW122502   2.101   4.909   3.283
 7201SOL    HW222503   2.016   5.049   3.273
 7202SOL     OW22504   3.475   0.085   5.548
 7202SOL    HW122505   3.418   0.118   5.623
 7202SOL    HW222506   3.537   0.159   5.519
 7203SOL     OW22507   5.816   0.167   6.758
 7203SOL    HW122508   5.860   0.247   6.716
 7203SOL    HW222509   5.747   0.197   6.823
 7204SOL     OW22510   5.842   1.741   3.100
 7204SOL    HW122511   5.832   1.653   3.146
 7204SOL    HW222512   5.893   1.804   3.158
 7205SOL     OW22513   1.666   4.784   1.522
 7205SOL    HW122514   1.639   4.880   1.523
 7205SOL    HW222515   1.624   4.736   1.599
 7206SOL     OW22516   5.464   1.714   1.366
 7206SOL    HW122517   5.476   1.624   1.409
 7206SOL    HW222518   5.400   1.706   1.290
 7207SOL     OW22519   4.086   6.647   2.275
 7207SOL    HW122520   4.073   6.598   2.189
 7207SOL    HW222521   4.151   6.722   2.261
 7208SOL     OW22522   3.231   6.967   5.186
 7208SOL    HW122523   3.163   0.009   5.220
 7208SOL    HW222524   3.184   6.888   5.145
 7209SOL     OW22525   3.402   3.087   4.512
 7209SOL    HW122526   3.351   3.024   4.454
 7209SOL    HW222527   3.454   3.035   4.580
 7210SOL     OW22528   4.882   0.459   3.968
 7210SOL    HW122529   4.882   0.363   3.997
 7210SOL    HW222530   4.939   0.513   4.031
 7211SOL     OW22531   1.376   5.279   2.453
 7211SOL    HW122532   1.450   5.335   2.416
 7211SOL    HW222533   1.386   5.275   2.553
 7212SOL     OW22534   4.824   7.021   3.568
 7212SOL    HW122535   4.770   0.076   3.596
 7212SOL    HW222536   4.901   7.008   3.630
 7213SOL     OW22537   5.312   6.914   5.229
 7213SOL    HW122538   5.292   6.826   5.273
 7213SOL    HW222539   5.330   6.899   5.131
 7214SOL     OW22540   0.374   5.017   5.767
 7214SOL    HW122541   0.421   5.007   5.679
 7214SOL    HW222542   0.409   4.949   5.832
 7215SOL     OW22543   0.657   3.193   2.558
 7215SOL    HW122544   0.597   3.115   2.578
 7215SOL    HW222545   0.629   3.235   2.472
 7216SOL     OW22546   2.406   1.443   1.822
 7216SOL    HW122547   2.318   1.480   1.853
 7216SOL    HW222548   2.400   1.344   1.816
 7217SOL     OW22549   1.134   2.884   2.057
 7217SOL    HW122550   1.211   2.888   2.122
 7217SOL    HW222551   1.095   2.792   2.057
 7218SOL     OW22552   6.668   2.519   5.966
 7218SOL    HW122553   6.756   2.504   6.012
 7218SOL    HW222554   6.683   2.565   5.879
 7219SOL     OW22555   3.226   0.582   1.289
 7219SOL    HW122556   3.229   0.487   1.256
 7219SOL    HW222557   3.223   0.644   1.211
 7220SOL     OW22558   0.283   0.971   3.364
 7220SOL    HW122559   0.232   0.939   3.284
 7220SOL    HW222560   0.314   0.892   3.417
 7221SOL     OW22561   6.178   4.850   5.656
 7221SOL    HW122562   6.188   4.910   5.736
 7221SOL    HW222563   6.087   4.862   5.617
 7222SOL     OW22564   5.785   6.621   3.240
 7222SOL    HW122565   5.845   6.640   3.163
 7222SOL    HW222566   5.716   6.554   3.213
 7223SOL     OW22567   4.287   0.745   5.037
 7223SOL    HW122568   4.243   0.695   5.111
 7223SOL    HW222569   4.386   0.733   5.043
 7224SOL     OW22570   5.355   1.371   4.656
 7224SOL    HW122571   5.453   1.354   4.666
 7224SOL    HW222572   5.308   1.351   4.743
 7225SOL     OW22573   2.394   0.719   1.372
 7225SOL    HW122574   2.306   0.753   1.338
 7225SOL    HW222575   2.468   0.765   1.324
 7226SOL     OW22576   5.827   6.885   6.331
 7226SOL    HW122577   5.881   6.908   6.250
 7226SOL    HW222578   5.810   6.786   6.333
 7227SOL     OW22579   7.007   2.058   6.243
 7227SOL    HW122580   6.948   2.113   6.302
 7227SOL    HW222581   7.007   1.963   6.275
 7228SOL     OW22582   2.382   0.614   3.034
 7228SOL    HW122583   2.423   0.666   2.959
 7228SOL    HW222584   2.286   0.596   3.013
 7229SOL     OW22585   6.772   0.319   3.495
 7229SOL    HW122586   6.868   0.318   3.521
 7229SOL    HW222587   6.736   0.412   3.503
 7230SOL     OW22588   6.297   5.326   1.434
 7230SOL    HW122589   6.228   5.298   1.501
 7230SOL    HW222590   6.264   5.307   1.342
 7231SOL     OW22591   5.851   1.028   6.638
 7231SOL    HW122592   5.911   0.998   6.564
 7231SOL    HW222593   5.841   1.127   6.634
 7232SOL     OW22594   3.584   3.729   0.948
 7232SOL    HW122595   3.547   3.725   0.855
 7232SOL    HW222596   3.683   3.740   0.944
 7233SOL     OW22597   0.357   2.252   5.673
 7233SOL    HW122598   0.407   2.199   5.603
 7233SOL    HW222599   0.404   2.243   5.761
 7234SOL     OW22600   4.910   1.610   3.083
 7234SOL    HW122601   4.852   1.679   3.127
 7234SOL    HW222602   5.006   1.637   3.092
 7235SOL     OW22603   6.201   3.111   4.612
 7235SOL    HW122604   6.104   3.087   4.611
 7235SOL    HW222605   6.212   3.206   4.584
 7236SOL     OW22606   2.370   1.592   3.352
 7236SOL    HW122607   2.320   1.678   3.354
 7236SOL    HW222608   2.309   1.517   3.375
 7237SOL     OW22609   5.894   5.061   5.173
 7237SOL    HW122610   5.807   5.023   5.142
 7237SOL    HW222611   5.877   5.140   5.231
 7238SOL     OW22612   1.521   0.867   1.568
 7238SOL    HW122613   1.478   0.887   1.480
 7238SOL    HW222614   1.463   0.805   1.621
 7239SOL     OW22615   4.416   1.280   1.918
 7239SOL    HW122616   4.440   1.186   1.893
 7239SOL    HW222617   4.461   1.344   1.855
 7240SOL     OW22618   3.184   3.162   1.537
 7240SOL    HW122619   3.181   3.086   1.603
 7240SOL    HW222620   3.250   3.141   1.465
 7241SOL     OW22621   5.191   6.880   4.645
 7241SOL    HW122622   5.130   6.830   4.706
 7241SOL    HW222623   5.285   6.872   4.678
 7242SOL     OW22624   5.773   4.788   0.863
 7242SOL    HW122625   5.794   4.698   0.900
 7242SOL    HW222626   5.733   4.779   0.772
 7243SOL     OW22627   0.726   5.760   0.293
 7243SOL    HW122628   0.647   5.713   0.333
 7243SOL    HW222629   0.810   5.716   0.324
 7244SOL     OW22630   5.837   1.820   0.816
 7244SOL    HW122631   5.920   1.855   0.860
 7244SOL    HW222632   5.797   1.748   0.874
 7245SOL     OW22633   6.288   1.880   4.501
 7245SOL    HW122634   6.330   1.872   4.592
 7245SOL    HW222635   6.216   1.950   4.504
 7246SOL     OW22636   1.433   5.431   5.325
 7246SOL    HW122637   1.474   5.365   5.262
 7246SOL    HW222638   1.501   5.460   5.392
 7247SOL     OW22639   3.717   5.696   3.818
 7247SOL    HW122640   3.776   5.722   3.742
 7247SOL    HW222641   3.634   5.752   3.817
 7248SOL     OW22642   3.118   0.800   4.346
 7248SOL    HW122643   3.108   0.877   4.409
 7248SOL    HW222644   3.179   0.827   4.271
 7249SOL     OW22645   5.063   3.746   5.915
 7249SOL    HW122646   4.987   3.776   5.858
 7249SOL    HW222647   5.106   3.825   5.958
 7250SOL     OW22648   2.839   3.505   0.129
 7250SOL    HW122649   2.812   3.437   0.061
 7250SOL    HW222650   2.862   3.591   0.084
 7251SOL     OW22651   5.772   1.321   5.096
 7251SOL    HW122652   5.757   1.394   5.029
 7251SOL    HW222653   5.713   1.336   5.176
 7252SOL     OW22654   4.262   3.697   5.176
 7252SOL    HW122655   4.357   3.707   5.206
 7252SOL    HW222656   4.212   3.639   5.240
 7253SOL     OW22657   5.128   4.772   1.073
 7253SOL    HW122658   5.221   4.804   1.092
 7253SOL    HW222659   5.073   4.775   1.157
 7254SOL     OW22660   5.547   6.382   5.159
 7254SOL    HW122661   5.547   6.287   5.192
 7254SOL    HW222662   5.636   6.423   5.177
 7255SOL     OW22663   4.087   3.370   2.812
 7255SOL    HW122664   4.132   3.318   2.739
 7255SOL    HW222665   4.043   3.451   2.774
 7256SOL     OW22666   3.562   4.882   3.600
 7256SOL    HW122667   3.561   4.785   3.577
 7256SOL    HW222668   3.577   4.893   3.698
 7257SOL     OW22669   6.468   4.295   3.132
 7257SOL    HW122670   6.387   4.238   3.127
 7257SOL    HW222671   6.478   4.346   3.047
 7258SOL     OW22672   2.484   0.090   5.754
 7258SOL    HW122673   2.446   0.171   5.710
 7258SOL    HW222674   2.578   0.108   5.783
 7259SOL     OW22675   2.819   4.866   6.549
 7259SOL    HW122676   2.848   4.829   6.461
 7259SOL    HW222677   2.891   4.925   6.586
 7260SOL     OW22678   4.396   1.756   2.523
 7260SOL    HW122679   4.463   1.827   2.500
 7260SOL    HW222680   4.308   1.779   2.483
 7261SOL     OW22681   1.406   4.909   1.275
 7261SOL    HW122682   1.473   4.960   1.329
 7261SOL    HW222683   1.372   4.966   1.201
 7262SOL     OW22684   6.086   0.672   5.185
 7262SOL    HW122685   6.046   0.678   5.277
 7262SOL    HW222686   6.165   0.734   5.179
 7263SOL     OW22687   5.292   6.350   1.787
 7263SOL    HW122688   5.358   6.422   1.808
 7263SOL    HW222689   5.334   6.285   1.723
 7264SOL     OW22690   1.586   6.631   4.373
 7264SOL    HW122691   1.551   6.677   4.291
 7264SOL    HW222692   1.538   6.665   4.454
 7265SOL     OW22693   4.447   3.493   6.353
 7265SOL    HW122694   4.392   3.419   6.391
 7265SOL    HW222695   4.414   3.515   6.261
 7266SOL     OW22696   3.589   1.811   2.030
 7266SOL    HW122697   3.524   1.744   1.995
 7266SOL    HW222698   3.541   1.895   2.054
 7267SOL     OW22699   6.192   3.388   4.811
 7267SOL    HW122700   6.097   3.359   4.808
 7267SOL    HW222701   6.224   3.407   4.718
 7268SOL     OW22702   3.675   0.665   0.533
 7268SOL    HW122703   3.581   0.681   0.565
 7268SOL    HW222704   3.671   0.626   0.441
 7269SOL     OW22705   1.201   0.281   1.984
 7269SOL    HW122706   1.138   0.350   2.019
 7269SOL    HW222707   1.263   0.253   2.057
 7270SOL     OW22708   3.430   1.434   2.318
 7270SOL    HW122709   3.444   1.507   2.384
 7270SOL    HW222710   3.411   1.473   2.228
 7271SOL     OW22711   6.108   5.329   3.873
 7271SOL    HW122712   6.067   5.249   3.830
 7271SOL    HW222713   6.096   5.408   3.813
 7272SOL     OW22714   6.641   2.214   0.982
 7272SOL    HW122715   6.590   2.181   0.903
 7272SOL    HW222716   6.586   2.279   1.034
 7273SOL     OW22717   5.412   5.771   5.536
 7273SOL    HW122718   5.346   5.730   5.599
 7273SOL    HW222719   5.492   5.711   5.526
 7274SOL     OW22720   5.896   4.657   4.387
 7274SOL    HW122721   5.939   4.739   4.423
 7274SOL    HW222722   5.805   4.679   4.352
 7275SOL     OW22723   5.503   6.600   1.246
 7275SOL    HW122724   5.430   6.657   1.283
 7275SOL    HW222725   5.571   6.657   1.200
 7276SOL     OW22726   2.728   2.337   3.940
 7276SOL    HW122727   2.723   2.396   4.021
 7276SOL    HW222728   2.646   2.350   3.885
 7277SOL     OW22729   6.077   1.425   3.979
 7277SOL    HW122730   6.074   1.390   4.072
 7277SOL    HW222731   5.988   1.465   3.956
 7278SOL     OW22732   2.765   2.056   4.010
 7278SOL    HW122733   2.766   2.155   4.003
 7278SOL    HW222734   2.769   2.016   3.918
 7279SOL     OW22735   4.094   3.523   1.110
 7279SOL    HW122736   4.084   3.483   1.201
 7279SOL    HW222737   4.021   3.489   1.051
 7280SOL     OW22738   6.505   2.084   5.446
 7280SOL    HW122739   6.575   2.147   5.478
 7280SOL    HW222740   6.512   1.998   5.497
 7281SOL     OW22741   3.684   6.443   2.185
 7281SOL    HW122742   3.707   6.398   2.271
 7281SOL    HW222743   3.762   6.495   2.152
 7282SOL     OW22744   0.322   3.585   1.523
 7282SOL    HW122745   0.260   3.550   1.593
 7282SOL    HW222746   0.289   3.674   1.490
 7283SOL     OW22747   3.746   6.313   2.774
 7283SOL    HW122748   3.805   6.240   2.740
 7283SOL    HW222749   3.801   6.383   2.820
 7284SOL     OW22750   0.615   1.293   2.706
 7284SOL    HW122751   0.601   1.264   2.801
 7284SOL    HW222752   0.529   1.286   2.656
 7285SOL     OW22753   5.236   2.866   2.329
 7285SOL    HW122754   5.212   2.772   2.305
 7285SOL    HW222755   5.170   2.902   2.396
 7286SOL     OW22756   6.057   1.197   3.836
 7286SOL    HW122757   6.072   1.283   3.885
 7286SOL    HW222758   6.131   1.183   3.770
 7287SOL     OW22759   3.127   1.052   3.992
 7287SOL    HW122760   3.194   1.033   4.063
 7287SOL    HW222761   3.041   1.005   4.014
 7288SOL     OW22762   3.323   1.541   2.098
 7288SOL    HW122763   3.283   1.609   2.159
 7288SOL    HW222764   3.348   1.584   2.011
 7289SOL     OW22765   6.130   2.768   1.962
 7289SOL    HW122766   6.175   2.689   2.004
 7289SOL    HW222767   6.123   2.753   1.863
 7290SOL     OW22768   3.920   1.840   4.720
 7290SOL    HW122769   3.957   1.932   4.732
 7290SOL    HW222770   3.959   1.798   4.638
 7291SOL     OW22771   1.593   1.085   0.691
 7291SOL    HW122772   1.631   1.043   0.773
 7291SOL    HW222773   1.524   1.025   0.651
 7292SOL     OW22774   3.229   0.837   2.582
 7292SOL    HW122775   3.296   0.777   2.626
 7292SOL    HW222776   3.214   0.806   2.488
 7293SOL     OW22777   6.106   1.128   4.152
 7293SOL    HW122778   6.149   1.092   4.235
 7293SOL    HW222779   6.037   1.064   4.119
 7294SOL     OW22780   3.993   0.175   2.908
 7294SOL    HW122781   4.083   0.208   2.881
 7294SOL    HW222782   3.989   0.076   2.895
 7295SOL     OW22783   5.354   3.611   1.439
 7295SOL    HW122784   5.445   3.652   1.442
 7295SOL    HW222785   5.312   3.616   1.529
 7296SOL     OW22786   3.582   6.284   1.964
 7296SOL    HW122787   3.639   6.209   1.932
 7296SOL    HW222788   3.628   6.332   2.038
 7297SOL     OW22789   3.456   0.062   0.241
 7297SOL    HW122790   3.475   0.111   0.156
 7297SOL    HW222791   3.529   0.078   0.306
 7298SOL     OW22792   4.224   5.194   1.453
 7298SOL    HW122793   4.162   5.116   1.451
 7298SOL    HW222794   4.230   5.229   1.547
 7299SOL     OW22795   0.163   3.739   6.232
 7299SOL    HW122796   0.237   3.682   6.197
 7299SOL    HW222797   0.164   3.827   6.184
 7300SOL     OW22798   0.705   4.396   2.142
 7300SOL    HW122799   0.678   4.416   2.047
 7300SOL    HW222800   0.802   4.374   2.145
 7301SOL     OW22801   4.281   2.077   0.082
 7301SOL    HW122802   4.324   2.120   0.161
 7301SOL    HW222803   4.199   2.129   0.057
 7302SOL     OW22804   5.632   1.871   6.470
 7302SOL    HW122805   5.539   1.870   6.433
 7302SOL    HW222806   5.629   1.850   6.568
 7303SOL     OW22807   2.961   1.932   1.773
 7303SOL    HW122808   2.897   1.863   1.740
 7303SOL    HW222809   2.919   1.986   1.846
 7304SOL     OW22810   2.191   6.471   0.647
 7304SOL    HW122811   2.278   6.516   0.624
 7304SOL    HW222812   2.197   6.374   0.625
 7305SOL     OW22813   5.956   0.383   6.080
 7305SOL    HW122814   5.890   0.421   6.016
 7305SOL    HW222815   5.973   0.450   6.153
 7306SOL     OW22816   1.169   3.327   1.379
 7306SOL    HW122817   1.188   3.229   1.374
 7306SOL    HW222818   1.136   3.349   1.471
 7307SOL     OW22819   3.125   0.306   1.960
 7307SOL    HW122820   3.177   0.390   1.975
 7307SOL    HW222821   3.123   0.285   1.862
 7308SOL     OW22822   3.697   1.256   3.233
 7308SOL    HW122823   3.722   1.294   3.144
 7308SOL    HW222824   3.777   1.210   3.273
 7309SOL     OW22825   2.227   5.749   3.755
 7309SOL    HW122826   2.165   5.792   3.690
 7309SOL    HW222827   2.176   5.723   3.837
 7310SOL     OW22828   2.570   2.724   6.853
 7310SOL    HW122829   2.513   2.685   6.781
 7310SOL    HW222830   2.633   2.792   6.814
 7311SOL     OW22831   0.253   6.515   6.069
 7311SOL    HW122832   0.314   6.594   6.066
 7311SOL    HW222833   0.304   6.435   6.103
 7312SOL     OW22834   6.123   1.948   4.802
 7312SOL    HW122835   6.060   1.944   4.725
 7312SOL    HW222836   6.196   1.881   4.788
 7313SOL     OW22837   3.213   0.715   2.347
 7313SOL    HW122838   3.211   0.615   2.346
 7313SOL    HW222839   3.304   0.746   2.320
 7314SOL     OW22840   1.827   5.056   5.365
 7314SOL    HW122841   1.832   5.006   5.451
 7314SOL    HW222842   1.805   4.992   5.291
 7315SOL     OW22843   3.398   4.923   2.785
 7315SOL    HW122844   3.486   4.877   2.778
 7315SOL    HW222845   3.371   4.931   2.881
 7316SOL     OW22846   3.640   1.221   1.288
 7316SOL    HW122847   3.696   1.159   1.343
 7316SOL    HW222848   3.646   1.314   1.325
 7317SOL     OW22849   4.975   2.027   0.772
 7317SOL    HW122850   4.896   2.078   0.739
 7317SOL    HW222851   4.946   1.935   0.799
 7318SOL     OW22852   4.913   6.909   1.302
 7318SOL    HW122853   4.881   6.842   1.235
 7318SOL    HW222854   5.010   6.929   1.286
 7319SOL     OW22855   5.114   6.196   6.741
 7319SOL    HW122856   5.139   6.247   6.823
 7319SOL    HW222857   5.116   6.098   6.760
 7320SOL     OW22858   0.591   2.824   7.019
 7320SOL    HW122859   0.538   2.745   0.025
 7320SOL    HW222860   0.563   2.905   0.048
 7321SOL     OW22861   2.236   2.256   5.801
 7321SOL    HW122862   2.186   2.333   5.842
 7321SOL    HW222863   2.177   2.210   5.735
 7322SOL     OW22864   1.215   2.340   3.668
 7322SOL    HW122865   1.224   2.244   3.640
 7322SOL    HW222866   1.226   2.399   3.588
 7323SOL     OW22867   1.378   1.852   0.680
 7323SOL    HW122868   1.386   1.767   0.628
 7323SOL    HW222869   1.287   1.858   0.720
 7324SOL     OW22870   5.054   3.713   4.386
 7324SOL    HW122871   4.970   3.766   4.393
 7324SOL    HW222872   5.032   3.616   4.373
 7325SOL     OW22873   3.951   1.678   6.225
 7325SOL    HW122874   4.018   1.753   6.215
 7325SOL    HW222875   3.869   1.713   6.270
 7326SOL     OW22876   3.956   6.790   0.414
 7326SOL    HW122877   4.018   6.713   0.426
 7326SOL    HW222878   3.862   6.760   0.431
 7327SOL     OW22879   1.796   4.526   3.672
 7327SOL    HW122880   1.824   4.491   3.761
 7327SOL    HW222881   1.709   4.575   3.681
 7328SOL     OW22882   4.768   5.333   5.831
 7328SOL    HW122883   4.685   5.348   5.777
 7328SOL    HW222884   4.745   5.278   5.912
 7329SOL     OW22885   2.512   3.289   0.889
 7329SOL    HW122886   2.600   3.245   0.904
 7329SOL    HW222887   2.496   3.298   0.790
 7330SOL     OW22888   2.731   3.043   0.873
 7330SOL    HW122889   2.747   3.103   0.952
 7330SOL    HW222890   2.808   2.981   0.862
 7331SOL     OW22891   4.936   2.322   2.465
 7331SOL    HW122892   4.931   2.224   2.448
 7331SOL    HW222893   4.914   2.371   2.381
 7332SOL     OW22894   2.782   6.712   5.408
 7332SOL    HW122895   2.835   6.745   5.330
 7332SOL    HW222896   2.688   6.746   5.402
 7333SOL     OW22897   6.214   1.110   1.235
 7333SOL    HW122898   6.177   1.034   1.288
 7333SOL    HW222899   6.174   1.196   1.268
 7334SOL     OW22900   1.714   4.368   5.166
 7334SOL    HW122901   1.713   4.273   5.198
 7334SOL    HW222902   1.777   4.376   5.089
 7335SOL     OW22903   1.161   3.753   2.723
 7335SOL    HW122904   1.160   3.852   2.736
 7335SOL    HW222905   1.139   3.732   2.627
 7336SOL     OW22906   2.202   6.768   0.843
 7336SOL    HW122907   2.252   6.686   0.815
 7336SOL    HW222908   2.204   6.834   0.768
 7337SOL     OW22909   3.217   1.480   3.931
 7337SOL    HW122910   3.258   1.566   3.900
 7337SOL    HW222911   3.139   1.500   3.990
 7338SOL     OW22912   5.013   3.921   1.432
 7338SOL    HW122913   5.032   4.011   1.469
 7338SOL    HW222914   4.999   3.928   1.333
 7339SOL     OW22915   0.279   6.585   4.965
 7339SOL    HW122916   0.372   6.583   4.927
 7339SOL    HW222917   0.254   6.493   4.995
 7340SOL     OW22918   2.711   5.762   0.026
 7340SOL    HW122919   2.683   5.737   6.956
 7340SOL    HW222920   2.660   5.843   0.055
 7341SOL     OW22921   6.280   5.553   3.736
 7341SOL    HW122922   6.317   5.553   3.643
 7341SOL    HW222923   6.340   5.501   3.796
 7342SOL     OW22924   1.105   5.504   0.609
 7342SOL    HW122925   1.176   5.562   0.648
 7342SOL    HW222926   1.148   5.436   0.548
 7343SOL     OW22927   6.602   2.367   2.989
 7343SOL    HW122928   6.533   2.357   2.917
 7343SOL    HW222929   6.572   2.319   3.071
 7344SOL     OW22930   2.401   0.914   6.455
 7344SOL    HW122931   2.476   0.938   6.393
 7344SOL    HW222932   2.435   0.853   6.526
 7345SOL     OW22933   2.413   6.447   6.600
 7345SOL    HW122934   2.433   6.510   6.525
 7345SOL    HW222935   2.353   6.491   6.666
 7346SOL     OW22936   3.952   4.838   2.564
 7346SOL    HW122937   3.863   4.866   2.527
 7346SOL    HW222938   4.021   4.843   2.492
 7347SOL     OW22939   6.629   3.048   3.099
 7347SOL    HW122940   6.716   3.097   3.098
 7347SOL    HW222941   6.565   3.092   3.037
 7348SOL     OW22942   6.783   1.375   5.969
 7348SOL    HW122943   6.863   1.325   6.001
 7348SOL    HW222944   6.734   1.413   6.048
 7349SOL     OW22945   3.968   1.669   1.662
 7349SOL    HW122946   3.937   1.647   1.569
 7349SOL    HW222947   4.067   1.679   1.662
 7350SOL     OW22948   2.710   0.910   2.902
 7350SOL    HW122949   2.765   0.988   2.934
 7350SOL    HW222950   2.634   0.944   2.846
 7351SOL     OW22951   4.290   4.435   0.982
 7351SOL    HW122952   4.268   4.529   1.008
 7351SOL    HW222953   4.242   4.413   0.897
 7352SOL     OW22954   6.599   0.814   3.194
 7352SOL    HW122955   6.645   0.731   3.161
 7352SOL    HW222956   6.595   0.813   3.294
 7353SOL     OW22957   5.657   1.304   5.354
 7353SOL    HW122958   5.566   1.319   5.393
 7353SOL    HW222959   5.679   1.207   5.357
 7354SOL     OW22960   6.033   4.796   4.775
 7354SOL    HW122961   6.033   4.837   4.684
 7354SOL    HW222962   6.029   4.868   4.844
 7355SOL     OW22963   0.211   5.567   1.226
 7355SOL    HW122964   0.138   5.542   1.289
 7355SOL    HW222965   0.299   5.560   1.272
 7356SOL     OW22966   0.250   2.508   5.977
 7356SOL    HW122967   0.222   2.416   5.948
 7356SOL    HW222968   0.347   2.521   5.956
 7357SOL     OW22969   0.765   1.667   6.712
 7357SOL    HW122970   0.854   1.641   6.676
 7357SOL    HW222971   0.748   1.617   6.797
 7358SOL     OW22972   3.441   1.009   3.707
 7358SOL    HW122973   3.462   1.030   3.612
 7358SOL    HW222974   3.442   1.093   3.761
 7359SOL     OW22975   3.377   2.933   3.406
 7359SOL    HW122976   3.419   3.019   3.377
 7359SOL    HW222977   3.449   2.864   3.418
 7360SOL     OW22978   0.436   4.022   6.567
 7360SOL    HW122979   0.500   3.946   6.559
 7360SOL    HW222980   0.349   3.997   6.523
 7361SOL     OW22981   4.566   6.709   1.452
 7361SOL    HW122982   4.555   6.739   1.357
 7361SOL    HW222983   4.498   6.638   1.472
 7362SOL     OW22984   2.068   6.330   6.379
 7362SOL    HW122985   2.012   6.404   6.417
 7362SOL    HW222986   2.091   6.351   6.284
 7363SOL     OW22987   4.954   3.131   6.785
 7363SOL    HW122988   5.023   3.142   6.857
 7363SOL    HW222989   4.988   3.069   6.715
 7364SOL     OW22990   4.734   0.296   1.185
 7364SOL    HW122991   4.719   0.371   1.250
 7364SOL    HW222992   4.709   0.209   1.228
 7365SOL     OW22993   4.594   0.213   1.553
 7365SOL    HW122994   4.621   0.169   1.467
 7365SOL    HW222995   4.657   0.186   1.626
 7366SOL     OW22996   1.191   6.610   0.154
 7366SOL    HW122997   1.251   6.553   0.210
 7366SOL    HW222998   1.243   6.688   0.118
 7367SOL     OW22999   4.828   2.778   7.016
 7367SOL    HW123000   4.833   2.836   0.074
 7367SOL    HW223001   4.882   2.695   0.008
 7368SOL     OW23002   3.221   3.043   4.079
 7368SOL    HW123003   3.162   3.048   3.999
 7368SOL    HW223004   3.202   3.121   4.139
 7369SOL     OW23005   5.215   1.008   6.005
 7369SOL    HW123006   5.256   1.082   5.951
 7369SOL    HW223007   5.227   0.922   5.956
 7370SOL     OW23008   1.069   5.959   1.212
 7370SOL    HW123009   1.148   5.897   1.211
 7370SOL    HW223010   0.987   5.909   1.186
 7371SOL     OW23011   1.984   4.846   4.405
 7371SOL    HW123012   2.033   4.897   4.335
 7371SOL    HW223013   1.918   4.906   4.450
 7372SOL     OW23014   3.027   0.150   5.222
 7372SOL    HW123015   3.042   0.243   5.188
 7372SOL    HW223016   2.950   0.109   5.173
 7373SOL     OW23017   3.766   0.149   0.983
 7373SOL    HW123018   3.667   0.163   0.980
 7373SOL    HW223019   3.796   0.147   1.079
 7374SOL     OW23020   2.254   3.274   6.732
 7374SOL    HW123021   2.174   3.245   6.786
 7374SOL    HW223022   2.297   3.353   6.776
 7375SOL     OW23023   2.831   6.234   3.168
 7375SOL    HW123024   2.735   6.210   3.179
 7375SOL    HW223025   2.849   6.322   3.211
 7376SOL     OW23026   3.185   4.114   6.376
 7376SOL    HW123027   3.094   4.077   6.361
 7376SOL    HW223028   3.233   4.058   6.444
 7377SOL     OW23029   6.106   5.983   1.494
 7377SOL    HW123030   6.014   5.960   1.464
 7377SOL    HW223031   6.105   6.071   1.540
 7378SOL     OW23032   0.358   2.543   5.580
 7378SOL    HW123033   0.340   2.472   5.648
 7378SOL    HW223034   0.454   2.540   5.553
 7379SOL     OW23035   4.151   0.730   0.742
 7379SOL    HW123036   4.219   0.691   0.804
 7379SOL    HW223037   4.176   0.824   0.719
 7380SOL     OW23038   6.829   2.879   5.906
 7380SOL    HW123039   6.890   2.936   5.851
 7380SOL    HW223040   6.872   2.860   5.995
 7381SOL     OW23041   4.697   2.412   0.563
 7381SOL    HW123042   4.639   2.393   0.642
 7381SOL    HW223043   4.699   2.511   0.546
 7382SOL     OW23044   0.734   5.720   3.905
 7382SOL    HW123045   0.659   5.698   3.967
 7382SOL    HW223046   0.707   5.700   3.811
 7383SOL     OW23047   1.282   4.808   2.816
 7383SOL    HW123048   1.218   4.832   2.889
 7383SOL    HW223049   1.233   4.759   2.744
 7384SOL     OW23050   6.328   2.027   1.109
 7384SOL    HW123051   6.343   2.088   1.030
 7384SOL    HW223052   6.417   1.999   1.146
 7385SOL     OW23053   4.916   0.638   1.975
 7385SOL    HW123054   4.976   0.717   1.962
 7385SOL    HW223055   4.955   0.558   1.929
 7386SOL     OW23056   0.120   2.415   6.323
 7386SOL    HW123057   0.203   2.464   6.348
 7386SOL    HW223058   0.142   2.347   6.252
 7387SOL     OW23059   5.693   6.326   3.921
 7387SOL    HW123060   5.646   6.326   4.010
 7387SOL    HW223061   5.737   6.414   3.906
 7388SOL     OW23062   5.373   4.272   5.183
 7388SOL    HW123063   5.343   4.338   5.252
 7388SOL    HW223064   5.296   4.248   5.124
 7389SOL     OW23065   0.503   3.656   4.705
 7389SOL    HW123066   0.518   3.601   4.623
 7389SOL    HW223067   0.546   3.612   4.783
 7390SOL     OW23068   3.458   0.363   6.142
 7390SOL    HW123069   3.545   0.345   6.188
 7390SOL    HW223070   3.398   0.414   6.204
 7391SOL     OW23071   0.071   4.967   0.163
 7391SOL    HW123072   0.160   4.927   0.185
 7391SOL    HW223073   0.054   5.047   0.221
 7392SOL     OW23074   2.150   4.632   2.486
 7392SOL    HW123075   2.197   4.593   2.407
 7392SOL    HW223076   2.217   4.675   2.547
 7393SOL     OW23077   0.970   4.100   0.243
 7393SOL    HW123078   0.995   4.196   0.232
 7393SOL    HW223079   0.883   4.083   0.196
 7394SOL     OW23080   2.528   2.664   5.913
 7394SOL    HW123081   2.564   2.730   5.847
 7394SOL    HW223082   2.529   2.572   5.873
 7395SOL     OW23083   2.137   7.010   6.968
 7395SOL    HW123084   2.159   6.923   7.013
 7395SOL    HW223085   2.120   6.993   6.871
 7396SOL     OW23086   6.609   0.078   1.763
 7396SOL    HW123087   6.629   0.065   1.860
 7396SOL    HW223088   6.615   0.175   1.740
 7397SOL     OW23089   6.480   4.228   4.538
 7397SOL    HW123090   6.426   4.181   4.608
 7397SOL    HW223091   6.441   4.318   4.521
 7398SOL     OW23092   4.851   6.705   2.853
 7398SOL    HW123093   4.791   6.649   2.910
 7398SOL    HW223094   4.870   6.657   2.767
 7399SOL     OW23095   5.429   4.374   4.740
 7399SOL    HW123096   5.339   4.375   4.783
 7399SOL    HW223097   5.443   4.287   4.692
 7400SOL     OW23098   2.908   3.843   0.507
 7400SOL    HW123099   2.818   3.874   0.478
 7400SOL    HW223100   2.931   3.758   0.459
 7401SOL     OW23101   5.945   2.281   5.307
 7401SOL    HW123102   6.043   2.263   5.303
 7401SOL    HW223103   5.922   2.354   5.242
 7402SOL     OW23104   2.734   6.186   4.401
 7402SOL    HW123105   2.661   6.134   4.356
 7402SOL    HW223106   2.819   6.177   4.349
 7403SOL     OW23107   2.833   2.533   1.183
 7403SOL    HW123108   2.913   2.485   1.218
 7403SOL    HW223109   2.750   2.484   1.209
 7404SOL     OW23110   0.812   1.954   2.634
 7404SOL    HW123111   0.856   2.042   2.615
 7404SOL    HW223112   0.876   1.895   2.684
 7405SOL     OW23113   3.994   4.814   6.201
 7405SOL    HW123114   3.899   4.804   6.230
 7405SOL    HW223115   4.048   4.740   6.241
 7406SOL     OW23116   0.210   6.577   2.046
 7406SOL    HW123117   0.303   6.615   2.042
 7406SOL    HW223118   0.203   6.517   2.126
 7407SOL     OW23119   2.683   0.499   5.913
 7407SOL    HW123120   2.740   0.424   5.947
 7407SOL    HW223121   2.734   0.552   5.846
 7408SOL     OW23122   0.780   3.730   5.022
 7408SOL    HW123123   0.776   3.822   4.983
 7408SOL    HW223124   0.863   3.684   4.990
 7409SOL     OW23125   2.480   6.795   5.212
 7409SOL    HW123126   2.503   6.758   5.122
 7409SOL    HW223127   2.479   6.895   5.208
 7410SOL     OW23128   4.710   5.243   6.387
 7410SOL    HW123129   4.699   5.342   6.386
 7410SOL    HW223130   4.775   5.216   6.316
 7411SOL     OW23131   5.159   4.889   6.071
 7411SOL    HW123132   5.136   4.962   6.006
 7411SOL    HW223133   5.147   4.923   6.165
 7412SOL     OW23134   1.456   1.092   6.436
 7412SOL    HW123135   1.497   1.182   6.448
 7412SOL    HW223136   1.417   1.061   6.523
 7413SOL     OW23137   6.523   3.894   4.089
 7413SOL    HW123138   6.565   3.903   4.179
 7413SOL    HW223139   6.516   3.984   4.046
 7414SOL     OW23140   0.674   4.888   1.389
 7414SOL    HW123141   0.728   4.808   1.412
 7414SOL    HW223142   0.589   4.860   1.344
 7415SOL     OW23143   3.234   1.771   3.441
 7415SOL    HW123144   3.182   1.734   3.364
 7415SOL    HW223145   3.197   1.735   3.527
 7416SOL     OW23146   6.438   6.893   3.045
 7416SOL    HW123147   6.495   6.939   2.978
 7416SOL    HW223148   6.415   6.956   3.119
 7417SOL     OW23149   0.951   5.476   0.835
 7417SOL    HW123150   1.005   5.457   0.753
 7417SOL    HW223151   0.869   5.527   0.810
 7418SOL     OW23152   0.966   3.561   0.433
 7418SOL    HW123153   0.980   3.503   0.352
 7418SOL    HW223154   0.952   3.655   0.405
 7419SOL     OW23155   5.856   1.800   5.480
 7419SOL    HW123156   5.777   1.859   5.498
 7419SOL    HW223157   5.830   1.704   5.494
 7420SOL     OW23158   6.782   5.721   2.397
 7420SOL    HW123159   6.725   5.802   2.411
 7420SOL    HW223160   6.870   5.735   2.441
 7421SOL     OW23161   4.454   2.091   1.068
 7421SOL    HW123162   4.404   2.137   0.995
 7421SOL    HW223163   4.535   2.046   1.030
 7422SOL     OW23164   0.717   1.567   0.475
 7422SOL    HW123165   0.711   1.512   0.559
 7422SOL    HW223166   0.676   1.656   0.491
 7423SOL     OW23167   2.428   4.455   0.145
 7423SOL    HW123168   2.401   4.516   0.071
 7423SOL    HW223169   2.358   4.384   0.157
 7424SOL     OW23170   5.166   0.324   4.746
 7424SOL    HW123171   5.192   0.282   4.833
 7424SOL    HW223172   5.190   0.263   4.670
 7425SOL     OW23173   4.057   0.427   4.864
 7425SOL    HW123174   4.104   0.352   4.817
 7425SOL    HW223175   4.041   0.502   4.800
 7426SOL     OW23176   0.078   1.886   6.994
 7426SOL    HW123177   0.109   1.861   6.902
 7426SOL    HW223178   0.064   1.985   6.998
 7427SOL     OW23179   5.121   5.773   4.971
 7427SOL    HW123180   5.072   5.760   4.885
 7427SOL    HW223181   5.216   5.796   4.952
 7428SOL     OW23182   3.953   1.233   5.750
 7428SOL    HW123183   3.935   1.235   5.652
 7428SOL    HW223184   3.949   1.327   5.786
 7429SOL     OW23185   6.374   6.586   3.985
 7429SOL    HW123186   6.428   6.670   3.991
 7429SOL    HW223187   6.299   6.590   4.051
 7430SOL     OW23188   0.490   4.163   4.716
 7430SOL    HW123189   0.521   4.125   4.629
 7430SOL    HW223190   0.564   4.157   4.783
 7431SOL     OW23191   0.535   4.332   2.369
 7431SOL    HW123192   0.613   4.313   2.309
 7431SOL    HW223193   0.562   4.400   2.437
 7432SOL     OW23194   1.508   6.759   5.019
 7432SOL    HW123195   1.590   6.709   5.047
 7432SOL    HW223196   1.447   6.698   4.968
 7433SOL     OW23197   0.177   6.219   0.890
 7433SOL    HW123198   0.209   6.166   0.968
 7433SOL    HW223199   0.108   6.166   0.840
 7434SOL     OW23200   3.878   0.197   0.078
 7434SOL    HW123201   3.824   0.201   0.162
 7434SOL    HW223202   3.971   0.166   0.099
 7435SOL     OW23203   1.587   6.210   0.002
 7435SOL    HW123204   1.652   6.167   0.066
 7435SOL    HW223205   1.539   6.138   6.975
 7436SOL     OW23206   4.137   3.340   0.125
 7436SOL    HW123207   4.178   3.268   0.068
 7436SOL    HW223208   4.043   3.357   0.094
 7437SOL     OW23209   0.021   6.520   5.694
 7437SOL    HW123210   6.958   6.490   5.653
 7437SOL    HW223211   0.002   6.567   5.780
 7438SOL     OW23212   5.804   3.898   1.659
 7438SOL    HW123213   5.733   3.872   1.726
 7438SOL    HW223214   5.841   3.815   1.617
 7439SOL     OW23215   1.011   6.392   3.390
 7439SOL    HW123216   1.084   6.456   3.368
 7439SOL    HW223217   1.044   6.326   3.458
 7440SOL     OW23218   0.661   1.694   3.876
 7440SOL    HW123219   0.575   1.681   3.925
 7440SOL    HW223220   0.645   1.750   3.795
 7441SOL     OW23221   6.335   0.067   3.533
 7441SOL    HW123222   6.358   0.164   3.531
 7441SOL    HW223223   6.348   0.027   3.442
 7442SOL     OW23224   1.802   0.497   5.739
 7442SOL    HW123225   1.770   0.577   5.689
 7442SOL    HW223226   1.874   0.525   5.803
 7443SOL     OW23227   6.967   1.807   1.732
 7443SOL    HW123228   0.039   1.832   1.751
 7443SOL    HW223229   6.917   1.888   1.703
 7444SOL     OW23230   0.264   2.432   4.863
 7444SOL    HW123231   0.181   2.485   4.878
 7444SOL    HW223232   0.263   2.351   4.921
 7445SOL     OW23233   5.850   3.183   1.855
 7445SOL    HW123234   5.785   3.203   1.928
 7445SOL    HW223235   5.892   3.268   1.823
 7446SOL     OW23236   6.262   3.203   2.852
 7446SOL    HW123237   6.238   3.247   2.766
 7446SOL    HW223238   6.351   3.236   2.883
 7447SOL     OW23239   6.945   3.884   6.259
 7447SOL    HW123240   6.892   3.969   6.257
 7447SOL    HW223241   6.963   3.853   6.166
 7448SOL     OW23242   0.687   6.770   6.359
 7448SOL    HW123243   0.721   6.855   6.399
 7448SOL    HW223244   0.588   6.764   6.374
 7449SOL     OW23245   4.378   0.142   1.329
 7449SOL    HW123246   4.393   0.146   1.427
 7449SOL    HW223247   4.369   0.235   1.292
 7450SOL     OW23248   3.861   0.651   2.144
 7450SOL    HW123249   3.920   0.574   2.121
 7450SOL    HW223250   3.776   0.646   2.090
 7451SOL     OW23251   1.444   0.506   2.616
 7451SOL    HW123252   1.437   0.590   2.670
 7451SOL    HW223253   1.366   0.499   2.555
 7452SOL     OW23254   1.717   6.597   3.310
 7452SOL    HW123255   1.716   6.682   3.363
 7452SOL    HW223256   1.671   6.611   3.223
 7453SOL     OW23257   5.902   4.839   5.574
 7453SOL    HW123258   5.861   4.931   5.572
 7453SOL    HW223259   5.830   4.771   5.589
 7454SOL     OW23260   0.598   3.594   6.748
 7454SOL    HW123261   0.615   3.521   6.683
 7454SOL    HW223262   0.588   3.555   6.840
 7455SOL     OW23263   5.045   0.867   1.015
 7455SOL    HW123264   5.079   0.946   0.965
 7455SOL    HW223265   4.973   0.823   0.962
 7456SOL     OW23266   0.827   3.519   5.544
 7456SOL    HW123267   0.888   3.538   5.468
 7456SOL    HW223268   0.736   3.497   5.509
 7457SOL     OW23269   6.476   0.012   5.770
 7457SOL    HW123270   6.377   0.018   5.784
 7457SOL    HW223271   6.494   6.983   5.687
 7458SOL     OW23272   2.260   0.322   1.190
 7458SOL    HW123273   2.237   0.417   1.171
 7458SOL    HW223274   2.211   0.291   1.272
 7459SOL     OW23275   4.519   6.911   4.401
 7459SOL    HW123276   4.472   6.932   4.486
 7459SOL    HW223277   4.594   6.847   4.419
 7460SOL     OW23278   1.063   5.722   6.930
 7460SOL    HW123279   0.969   5.757   6.931
 7460SOL    HW223280   1.113   5.764   6.854
 7461SOL     OW23281   4.170   1.040   4.232
 7461SOL    HW123282   4.086   1.029   4.178
 7461SOL    HW223283   4.249   1.040   4.170
 7462SOL     OW23284   1.894   0.786   3.004
 7462SOL    HW123285   1.880   0.781   3.103
 7462SOL    HW223286   1.939   0.872   2.981
 7463SOL     OW23287   3.695   3.799   2.250
 7463SOL    HW123288   3.713   3.859   2.328
 7463SOL    HW223289   3.773   3.739   2.234
 7464SOL     OW23290   4.909   6.953   0.435
 7464SOL    HW123291   4.966   7.016   0.381
 7464SOL    HW223292   4.820   6.943   0.390
 7465SOL     OW23293   3.828   0.465   2.469
 7465SOL    HW123294   3.773   0.461   2.553
 7465SOL    HW223295   3.828   0.559   2.434
 7466SOL     OW23296   6.593   0.106   6.930
 7466SOL    HW123297   6.495   0.086   6.931
 7466SOL    HW223298   6.632   0.084   7.020
 7467SOL     OW23299   4.888   1.774   0.813
 7467SOL    HW123300   4.827   1.741   0.741
 7467SOL    HW223301   4.892   1.707   0.887
 7468SOL     OW23302   6.260   3.881   4.382
 7468SOL    HW123303   6.267   3.816   4.306
 7468SOL    HW223304   6.334   3.865   4.446
 7469SOL     OW23305   5.905   0.838   2.317
 7469SOL    HW123306   5.998   0.857   2.286
 7469SOL    HW223307   5.840   0.855   2.243
 7470SOL     OW23308   0.098   3.391   2.696
 7470SOL    HW123309   0.001   3.415   2.703
 7470SOL    HW223310   0.107   3.291   2.700
 7471SOL     OW23311   6.275   4.919   5.940
 7471SOL    HW123312   6.219   4.985   5.992
 7471SOL    HW223313   6.237   4.827   5.953
 7472SOL     OW23314   4.168   5.107   3.026
 7472SOL    HW123315   4.201   5.019   3.060
 7472SOL    HW223316   4.099   5.092   2.956
 7473SOL     OW23317   0.593   3.226   5.158
 7473SOL    HW123318   0.686   3.241   5.190
 7473SOL    HW223319   0.595   3.168   5.076
 7474SOL     OW23320   3.331   1.607   2.889
 7474SOL    HW123321   3.336   1.673   2.964
 7474SOL    HW223322   3.297   1.652   2.807
 7475SOL     OW23323   4.386   1.158   6.507
 7475SOL    HW123324   4.460   1.091   6.506
 7475SOL    HW223325   4.361   1.179   6.602
 7476SOL     OW23326   2.608   0.050   4.737
 7476SOL    HW123327   2.676   0.123   4.746
 7476SOL    HW223328   2.576   0.024   4.828
 7477SOL     OW23329   4.894   3.849   3.960
 7477SOL    HW123330   4.881   3.917   3.888
 7477SOL    HW223331   4.834   3.870   4.037
 7478SOL     OW23332   1.617   4.648   1.767
 7478SOL    HW123333   1.538   4.683   1.816
 7478SOL    HW223334   1.597   4.555   1.735
 7479SOL     OW23335   4.392   0.538   5.385
 7479SOL    HW123336   4.422   0.503   5.297
 7479SOL    HW223337   4.305   0.496   5.410
 7480SOL     OW23338   6.669   5.463   0.832
 7480SOL    HW123339   6.625   5.476   0.921
 7480SOL    HW223340   6.692   5.366   0.820
 7481SOL     OW23341   6.259   6.410   0.541
 7481SOL    HW123342   6.309   6.329   0.511
 7481SOL    HW223343   6.261   6.479   0.469
 7482SOL     OW23344   5.362   6.658   3.940
 7482SOL    HW123345   5.369   6.676   3.842
 7482SOL    HW223346   5.385   6.741   3.991
 7483SOL     OW23347   3.142   0.505   5.966
 7483SOL    HW123348   3.231   0.549   5.955
 7483SOL    HW223349   3.100   0.491   5.876
 7484SOL     OW23350   3.600   0.273   2.114
 7484SOL    HW123351   3.670   0.342   2.098
 7484SOL    HW223352   3.578   0.270   2.212
 7485SOL     OW23353   1.146   0.278   5.136
 7485SOL    HW123354   1.163   0.272   5.037
 7485SOL    HW223355   1.099   0.364   5.157
 7486SOL     OW23356   0.985   1.943   5.064
 7486SOL    HW123357   0.933   1.876   5.116
 7486SOL    HW223358   0.982   1.919   4.967
 7487SOL     OW23359   3.595   5.352   3.107
 7487SOL    HW123360   3.633   5.406   3.182
 7487SOL    HW223361   3.496   5.366   3.102
 7488SOL     OW23362   3.866   0.968   5.496
 7488SOL    HW123363   3.919   0.891   5.532
 7488SOL    HW223364   3.907   1.001   5.412
 7489SOL     OW23365   6.800   3.882   3.380
 7489SOL    HW123366   6.900   3.884   3.372
 7489SOL    HW223367   6.766   3.791   3.355
 7490SOL     OW23368   5.718   0.935   3.473
 7490SOL    HW123369   5.755   0.976   3.556
 7490SOL    HW223370   5.744   0.990   3.394
 7491SOL     OW23371   0.150   7.002   0.047
 7491SOL    HW123372   0.077   6.985   7.005
 7491SOL    HW223373   0.208   6.921   0.055
 7492SOL     OW23374   2.165   2.315   3.789
 7492SOL    HW123375   2.140   2.301   3.693
 7492SOL    HW223376   2.241   2.254   3.812
 7493SOL     OW23377   5.272   5.041   6.795
 7493SOL    HW123378   5.255   4.993   6.881
 7493SOL    HW223379   5.369   5.032   6.770
 7494SOL     OW23380   5.035   1.974   1.431
 7494SOL    HW123381   5.114   1.985   1.371
 7494SOL    HW223382   4.985   2.060   1.437
 7495SOL     OW23383   0.853   1.669   2.205
 7495SOL    HW123384   0.784   1.740   2.191
 7495SOL    HW223385   0.932   1.708   2.252
 7496SOL     OW23386   0.395   5.474   5.837
 7496SOL    HW123387   0.333   5.483   5.916
 7496SOL    HW223388   0.418   5.565   5.802
 7497SOL     OW23389   2.002   5.030   2.269
 7497SOL    HW123390   2.089   4.988   2.296
 7497SOL    HW223391   1.927   4.968   2.291
 7498SOL     OW23392   5.655   2.185   4.524
 7498SOL    HW123393   5.658   2.092   4.488
 7498SOL    HW223394   5.574   2.232   4.489
 7499SOL     OW23395   3.982   4.930   4.026
 7499SOL    HW123396   3.909   4.920   4.093
 7499SOL    HW223397   3.995   5.027   4.007
 7500SOL     OW23398   4.765   4.223   1.840
 7500SOL    HW123399   4.849   4.258   1.881
 7500SOL    HW223400   4.686   4.275   1.874
 7501SOL     OW23401   0.318   4.820   4.013
 7501SOL    HW123402   0.347   4.837   3.918
 7501SOL    HW223403   0.398   4.815   4.072
 7502SOL     OW23404   1.649   2.223   4.209
 7502SOL    HW123405   1.637   2.258   4.302
 7502SOL    HW223406   1.678   2.127   4.214
 7503SOL     OW23407   2.429   2.731   6.625
 7503SOL    HW123408   2.497   2.785   6.575
 7503SOL    HW223409   2.416   2.643   6.579
 7504SOL     OW23410   3.807   5.200   3.621
 7504SOL    HW123411   3.851   5.110   3.622
 7504SOL    HW223412   3.777   5.222   3.528
 7505SOL     OW23413   1.556   1.359   4.401
 7505SOL    HW123414   1.501   1.320   4.475
 7505SOL    HW223415   1.546   1.458   4.401
 7506SOL     OW23416   3.525   1.463   3.268
 7506SOL    HW123417   3.440   1.454   3.216
 7506SOL    HW223418   3.589   1.392   3.240
 7507SOL     OW23419   1.778   6.319   5.635
 7507SOL    HW123420   1.690   6.314   5.682
 7507SOL    HW223421   1.770   6.279   5.544
 7508SOL     OW23422   4.984   5.545   4.100
 7508SOL    HW123423   4.966   5.638   4.070
 7508SOL    HW223424   4.927   5.523   4.179
 7509SOL     OW23425   4.130   3.656   6.455
 7509SOL    HW123426   4.121   3.751   6.424
 7509SOL    HW223427   4.169   3.600   6.382
 7510SOL     OW23428   3.602   4.081   4.595
 7510SOL    HW123429   3.534   4.108   4.662
 7510SOL    HW223430   3.687   4.056   4.642
 7511SOL     OW23431   0.897   0.406   2.033
 7511SOL    HW123432   0.931   0.498   2.012
 7511SOL    HW223433   0.860   0.365   1.950
 7512SOL     OW23434   2.029   2.891   1.779
 7512SOL    HW123435   2.080   2.805   1.786
 7512SOL    HW223436   2.016   2.929   1.870
 7513SOL     OW23437   1.480   3.351   6.264
 7513SOL    HW123438   1.503   3.265   6.311
 7513SOL    HW223439   1.404   3.396   6.311
 7514SOL     OW23440   3.132   5.617   3.270
 7514SOL    HW123441   3.220   5.665   3.278
 7514SOL    HW223442   3.145   5.532   3.219
 7515SOL     OW23443   0.214   5.028   2.884
 7515SOL    HW123444   0.270   5.071   2.814
 7515SOL    HW223445   0.272   4.991   2.956
 7516SOL     OW23446   1.333   1.828   2.008
 7516SOL    HW123447   1.377   1.739   2.008
 7516SOL    HW223448   1.234   1.817   2.016
 7517SOL     OW23449   0.705   4.814   0.670
 7517SOL    HW123450   0.645   4.790   0.594
 7517SOL    HW223451   0.655   4.805   0.756
 7518SOL     OW23452   5.149   4.824   3.616
 7518SOL    HW123453   5.169   4.742   3.562
 7518SOL    HW223454   5.054   4.852   3.600
 7519SOL     OW23455   1.391   0.191   4.207
 7519SOL    HW123456   1.320   0.225   4.270
 7519SOL    HW223457   1.452   0.130   4.256
 7520SOL     OW23458   2.704   0.133   3.843
 7520SOL    HW123459   2.706   0.036   3.822
 7520SOL    HW223460   2.662   0.183   3.768
 7521SOL     OW23461   4.184   3.400   5.496
 7521SOL    HW123462   4.157   3.481   5.444
 7521SOL    HW223463   4.197   3.425   5.592
 7522SOL     OW23464   1.667   0.090   2.336
 7522SOL    HW123465   1.761   0.086   2.302
 7522SOL    HW223466   1.653   0.177   2.384
 7523SOL     OW23467   6.347   6.776   6.416
 7523SOL    HW123468   6.340   6.829   6.500
 7523SOL    HW223469   6.328   6.835   6.337
 7524SOL     OW23470   6.167   1.066   4.466
 7524SOL    HW123471   6.109   1.147   4.478
 7524SOL    HW223472   6.149   1.001   4.540
 7525SOL     OW23473   0.898   6.574   0.750
 7525SOL    HW123474   0.829   6.513   0.789
 7525SOL    HW223475   0.862   6.616   0.666
 7526SOL     OW23476   3.567   3.315   4.793
 7526SOL    HW123477   3.602   3.277   4.708
 7526SOL    HW223478   3.483   3.366   4.775
 7527SOL     OW23479   4.661   5.661   2.119
 7527SOL    HW123480   4.570   5.696   2.096
 7527SOL    HW223481   4.656   5.561   2.127
 7528SOL     OW23482   5.856   3.564   6.350
 7528SOL    HW123483   5.875   3.660   6.328
 7528SOL    HW223484   5.943   3.514   6.359
 7529SOL     OW23485   2.776   0.273   4.734
 7529SOL    HW123486   2.718   0.322   4.669
 7529SOL    HW223487   2.805   0.336   4.806
 7530SOL     OW23488   6.872   2.921   3.402
 7530SOL    HW123489   6.776   2.933   3.426
 7530SOL    HW223490   6.897   2.825   3.412
 7531SOL     OW23491   2.874   1.469   4.545
 7531SOL    HW123492   2.814   1.543   4.515
 7531SOL    HW223493   2.938   1.446   4.471
 7532SOL     OW23494   5.017   4.914   2.348
 7532SOL    HW123495   4.931   4.876   2.315
 7532SOL    HW223496   5.023   4.905   2.447
 7533SOL     OW23497   3.699   0.496   4.675
 7533SOL    HW123498   3.757   0.420   4.706
 7533SOL    HW223499   3.612   0.494   4.724
 7534SOL     OW23500   5.588   6.326   4.171
 7534SOL    HW123501   5.568   6.268   4.250
 7534SOL    HW223502   5.598   6.421   4.200
 7535SOL     OW23503   3.405   4.536   0.993
 7535SOL    HW123504   3.320   4.523   0.942
 7535SOL    HW223505   3.415   4.632   1.017
 7536SOL     OW23506   3.710   6.044   4.914
 7536SOL    HW123507   3.625   6.005   4.878
 7536SOL    HW223508   3.785   5.979   4.900
 7537SOL     OW23509   2.306   4.622   5.407
 7537SOL    HW123510   2.374   4.641   5.476
 7537SOL    HW223511   2.320   4.682   5.328
 7538SOL     OW23512   3.074   3.303   3.728
 7538SOL    HW123513   3.021   3.341   3.803
 7538SOL    HW223514   3.089   3.205   3.743
 7539SOL     OW23515   1.558   2.285   4.475
 7539SOL    HW123516   1.505   2.362   4.442
 7539SOL    HW223517   1.522   2.254   4.563
 7540SOL     OW23518   2.062   0.877   6.717
 7540SOL    HW123519   1.986   0.899   6.656
 7540SOL    HW223520   2.078   0.953   6.779
 7541SOL     OW23521   6.915   2.366   5.714
 7541SOL    HW123522   6.964   2.440   5.760
 7541SOL    HW223523   6.905   2.389   5.617
 7542SOL     OW23524   1.940   0.241   5.822
 7542SOL    HW123525   1.880   0.176   5.868
 7542SOL    HW223526   1.906   0.334   5.836
 7543SOL     OW23527   3.457   2.524   0.180
 7543SOL    HW123528   3.357   2.519   0.181
 7543SOL    HW223529   3.491   2.544   0.272
 7544SOL     OW23530   1.026   2.319   2.376
 7544SOL    HW123531   1.103   2.382   2.366
 7544SOL    HW223532   0.941   2.372   2.381
 7545SOL     OW23533   4.647   0.550   3.548
 7545SOL    HW123534   4.620   0.601   3.631
 7545SOL    HW223535   4.590   0.469   3.539
 7546SOL     OW23536   5.144   6.967   5.840
 7546SOL    HW123537   5.197   7.001   5.917
 7546SOL    HW223538   5.198   6.975   5.756
 7547SOL     OW23539   2.723   0.074   0.195
 7547SOL    HW123540   2.717   0.152   0.257
 7547SOL    HW223541   2.678   0.097   0.109
 7548SOL     OW23542   1.123   3.648   1.544
 7548SOL    HW123543   1.052   3.708   1.580
 7548SOL    HW223544   1.165   3.690   1.463
 7549SOL     OW23545   5.981   2.014   2.380
 7549SOL    HW123546   5.980   2.085   2.450
 7549SOL    HW223547   5.997   2.056   2.291
 7550SOL     OW23548   1.216   5.093   1.434
 7550SOL    HW123549   1.290   5.044   1.388
 7550SOL    HW223550   1.155   5.133   1.366
 7551SOL     OW23551   4.959   4.387   6.925
 7551SOL    HW123552   4.930   4.298   6.962
 7551SOL    HW223553   4.906   4.460   6.968
 7552SOL     OW23554   3.420   5.576   3.828
 7552SOL    HW123555   3.485   5.651   3.840
 7552SOL    HW223556   3.334   5.611   3.792
 7553SOL     OW23557   4.118   3.996   5.877
 7553SOL    HW123558   4.124   3.978   5.779
 7553SOL    HW223559   4.033   4.045   5.897
 7554SOL     OW23560   6.995   1.626   0.694
 7554SOL    HW123561   0.018   1.620   0.783
 7554SOL    HW223562   6.986   1.535   0.655
 7555SOL     OW23563   1.357   6.151   5.841
 7555SOL    HW123564   1.420   6.081   5.807
 7555SOL    HW223565   1.307   6.190   5.764
 7556SOL     OW23566   6.537   3.706   3.884
 7556SOL    HW123567   6.518   3.781   3.947
 7556SOL    HW223568   6.632   3.712   3.853
 7557SOL     OW23569   3.793   3.623   0.625
 7557SOL    HW123570   3.701   3.607   0.659
 7557SOL    HW223571   3.832   3.536   0.593
 7558SOL     OW23572   1.673   2.328   3.027
 7558SOL    HW123573   1.643   2.413   2.984
 7558SOL    HW223574   1.772   2.319   3.020
 7559SOL     OW23575   1.392   4.789   0.403
 7559SOL    HW123576   1.407   4.757   0.496
 7559SOL    HW223577   1.308   4.844   0.400
 7560SOL     OW23578   4.472   0.154   5.425
 7560SOL    HW123579   4.412   0.126   5.351
 7560SOL    HW223580   4.527   0.075   5.455
 7561SOL     OW23581   6.817   3.552   0.221
 7561SOL    HW123582   6.774   3.579   0.307
 7561SOL    HW223583   6.809   3.626   0.155
 7562SOL     OW23584   4.661   6.416   5.308
 7562SOL    HW123585   4.708   6.339   5.266
 7562SOL    HW223586   4.607   6.385   5.386
 7563SOL     OW23587   2.725   1.387   2.942
 7563SOL    HW123588   2.729   1.450   3.019
 7563SOL    HW223589   2.686   1.432   2.862
 7564SOL     OW23590   5.050   6.079   4.365
 7564SOL    HW123591   5.134   6.034   4.335
 7564SOL    HW223592   5.072   6.152   4.429
 7565SOL     OW23593   5.108   5.205   6.683
 7565SOL    HW123594   5.023   5.156   6.667
 7565SOL    HW223595   5.179   5.140   6.710
 7566SOL     OW23596   1.441   6.034   4.818
 7566SOL    HW123597   1.509   6.019   4.747
 7566SOL    HW223598   1.351   6.008   4.785
 7567SOL     OW23599   2.604   2.734   0.209
 7567SOL    HW123600   2.506   2.724   0.194
 7567SOL    HW223601   2.653   2.693   0.132
 7568SOL     OW23602   4.396   4.539   2.744
 7568SOL    HW123603   4.418   4.573   2.652
 7568SOL    HW223604   4.298   4.550   2.760
 7569SOL     OW23605   3.896   0.163   1.249
 7569SOL    HW123606   3.976   0.221   1.266
 7569SOL    HW223607   3.855   0.136   1.336
 7570SOL     OW23608   6.006   5.533   4.898
 7570SOL    HW123609   5.926   5.592   4.897
 7570SOL    HW223610   5.990   5.455   4.958
 7571SOL     OW23611   5.682   4.052   1.438
 7571SOL    HW123612   5.696   3.984   1.510
 7571SOL    HW223613   5.586   4.053   1.412
 7572SOL     OW23614   0.787   1.195   3.413
 7572SOL    HW123615   0.776   1.160   3.506
 7572SOL    HW223616   0.826   1.287   3.416
 7573SOL     OW23617   2.856   5.555   5.455
 7573SOL    HW123618   2.893   5.599   5.537
 7573SOL    HW223619   2.926   5.498   5.413
 7574SOL     OW23620   4.960   6.092   2.517
 7574SOL    HW123621   4.875   6.071   2.566
 7574SOL    HW223622   4.944   6.170   2.455
 7575SOL     OW23623   4.752   2.738   4.655
 7575SOL    HW123624   4.826   2.805   4.655
 7575SOL    HW223625   4.722   2.721   4.749
 7576SOL     OW23626   6.516   3.675   1.572
 7576SOL    HW123627   6.603   3.686   1.621
 7576SOL    HW223628   6.446   3.732   1.616
 7577SOL     OW23629   4.491   0.636   4.654
 7577SOL    HW123630   4.514   0.674   4.744
 7577SOL    HW223631   4.565   0.577   4.623
 7578SOL     OW23632   2.877   5.509   4.570
 7578SOL    HW123633   2.876   5.465   4.480
 7578SOL    HW223634   2.971   5.535   4.593
 7579SOL     OW23635   4.494   2.557   3.546
 7579SOL    HW123636   4.473   2.527   3.639
 7579SOL    HW223637   4.554   2.637   3.550
 7580SOL     OW23638   2.108   3.659   2.284
 7580SOL    HW123639   2.040   3.591   2.313
 7580SOL    HW223640   2.163   3.621   2.210
 7581SOL     OW23641   5.578   1.106   1.263
 7581SOL    HW123642   5.659   1.138   1.214
 7581SOL    HW223643   5.517   1.059   1.200
 7582SOL     OW23644   3.225   1.971   1.144
 7582SOL    HW123645   3.231   2.056   1.092
 7582SOL    HW223646   3.314   1.925   1.144
 7583SOL     OW23647   6.732   3.835   2.735
 7583SOL    HW123648   6.714   3.772   2.811
 7583SOL    HW223649   6.825   3.872   2.744
 7584SOL     OW23650   1.727   1.766   1.112
 7584SOL    HW123651   1.689   1.675   1.127
 7584SOL    HW223652   1.817   1.773   1.156
 7585SOL     OW23653   1.782   5.227   6.441
 7585SOL    HW123654   1.688   5.233   6.475
 7585SOL    HW223655   1.835   5.304   6.477
 7586SOL     OW23656   2.134   0.999   2.361
 7586SOL    HW123657   2.198   1.035   2.430
 7586SOL    HW223658   2.110   1.072   2.297
 7587SOL     OW23659   1.824   0.794   6.022
 7587SOL    HW123660   1.731   0.817   5.991
 7587SOL    HW223661   1.889   0.819   5.951
 7588SOL     OW23662   1.536   4.159   1.870
 7588SOL    HW123663   1.581   4.084   1.920
 7588SOL    HW223664   1.526   4.238   1.931
 7589SOL     OW23665   5.403   6.216   6.853
 7589SOL    HW123666   5.319   6.223   6.907
 7589SOL    HW223667   5.483   6.221   6.914
 7590SOL     OW23668   1.666   0.380   6.665
 7590SOL    HW123669   1.577   0.346   6.638
 7590SOL    HW223670   1.725   0.303   6.690
 7591SOL     OW23671   6.324   5.665   6.949
 7591SOL    HW123672   6.320   5.571   6.917
 7591SOL    HW223673   6.338   5.726   6.871
 7592SOL     OW23674   4.865   5.547   6.082
 7592SOL    HW123675   4.860   5.463   6.028
 7592SOL    HW223676   4.933   5.535   6.155
 7593SOL     OW23677   6.148   3.842   0.473
 7593SOL    HW123678   6.069   3.881   0.425
 7593SOL    HW223679   6.120   3.759   0.520
 7594SOL     OW23680   0.726   6.592   3.452
 7594SOL    HW123681   0.760   6.518   3.394
 7594SOL    HW223682   0.791   6.609   3.526
 7595SOL     OW23683   6.580   2.349   6.944
 7595SOL    HW123684   6.597   2.348   0.020
 7595SOL    HW223685   6.667   2.355   6.895
 7596SOL     OW23686   4.935   4.460   2.034
 7596SOL    HW123687   4.988   4.376   2.041
 7596SOL    HW223688   4.847   4.448   2.081
 7597SOL     OW23689   2.839   6.057   1.607
 7597SOL    HW123690   2.823   6.092   1.699
 7597SOL    HW223691   2.884   6.128   1.552
 7598SOL     OW23692   6.805   1.200   2.565
 7598SOL    HW123693   6.852   1.249   2.492
 7598SOL    HW223694   6.720   1.161   2.529
 7599SOL     OW23695   6.371   2.783   2.223
 7599SOL    HW123696   6.342   2.858   2.164
 7599SOL    HW223697   6.471   2.784   2.232
 7600SOL     OW23698   1.953   1.533   2.164
 7600SOL    HW123699   1.868   1.516   2.115
 7600SOL    HW223700   1.964   1.631   2.181
 7601SOL     OW23701   1.814   0.555   5.008
 7601SOL    HW123702   1.765   0.523   4.927
 7601SOL    HW223703   1.822   0.480   5.074
 7602SOL     OW23704   2.014   3.316   4.997
 7602SOL    HW123705   1.968   3.368   5.070
 7602SOL    HW223706   2.074   3.248   5.038
 7603SOL     OW23707   0.386   1.436   1.817
 7603SOL    HW123708   0.463   1.456   1.878
 7603SOL    HW223709   0.344   1.522   1.789
 7604SOL     OW23710   4.857   5.825   6.799
 7604SOL    HW123711   4.899   5.761   6.735
 7604SOL    HW223712   4.923   5.896   6.824
 7605SOL     OW23713   5.466   3.603   6.131
 7605SOL    HW123714   5.418   3.516   6.119
 7605SOL    HW223715   5.419   3.674   6.080
 7606SOL     OW23716   5.808   2.044   3.353
 7606SOL    HW123717   5.751   2.033   3.272
 7606SOL    HW223718   5.802   1.961   3.409
 7607SOL     OW23719   5.074   0.145   6.089
 7607SOL    HW123720   4.989   0.145   6.035
 7607SOL    HW223721   5.140   0.208   6.047
 7608SOL     OW23722   3.881   3.114   3.946
 7608SOL    HW123723   3.828   3.198   3.936
 7608SOL    HW223724   3.821   3.041   3.979
 7609SOL     OW23725   1.869   2.684   4.266
 7609SOL    HW123726   1.802   2.644   4.204
 7609SOL    HW223727   1.823   2.720   4.347
 7610SOL     OW23728   5.441   1.106   2.173
 7610SOL    HW123729   5.397   1.192   2.199
 7610SOL    HW223730   5.492   1.119   2.088
 7611SOL     OW23731   1.966   1.791   1.539
 7611SOL    HW123732   1.969   1.867   1.604
 7611SOL    HW223733   2.044   1.731   1.553
 7612SOL     OW23734   4.197   1.651   2.739
 7612SOL    HW123735   4.252   1.692   2.812
 7612SOL    HW223736   4.237   1.673   2.651
 7613SOL     OW23737   5.370   0.760   3.092
 7613SOL    HW123738   5.310   0.838   3.079
 7613SOL    HW223739   5.465   0.789   3.083
 7614SOL     OW23740   4.031   1.324   0.441
 7614SOL    HW123741   3.933   1.338   0.453
 7614SOL    HW223742   4.055   1.231   0.468
 7615SOL     OW23743   3.944   4.479   5.825
 7615SOL    HW123744   3.960   4.419   5.903
 7615SOL    HW223745   3.975   4.571   5.846
 7616SOL     OW23746   6.894   4.841   3.478
 7616SOL    HW123747   6.849   4.814   3.393
 7616SOL    HW223748   6.922   4.760   3.529
 7617SOL     OW23749   3.557   6.172   2.504
 7617SOL    HW123750   3.615   6.245   2.469
 7617SOL    HW223751   3.613   6.105   2.553
 7618SOL     OW23752   1.866   2.267   0.777
 7618SOL    HW123753   1.889   2.363   0.767
 7618SOL    HW223754   1.779   2.249   0.732
 7619SOL     OW23755   5.621   3.556   5.765
 7619SOL    HW123756   5.687   3.488   5.731
 7619SOL    HW223757   5.657   3.597   5.848
 7620SOL     OW23758   2.828   6.407   1.516
 7620SOL    HW123759   2.887   6.417   1.596
 7620SOL    HW223760   2.732   6.416   1.544
 7621SOL     OW23761   2.340   1.962   1.289
 7621SOL    HW123762   2.305   2.038   1.233
 7621SOL    HW223763   2.329   1.985   1.385
 7622SOL     OW23764   5.618   1.627   1.002
 7622SOL    HW123765   5.634   1.694   1.074
 7622SOL    HW223766   5.554   1.665   0.935
 7623SOL     OW23767   5.571   0.205   5.093
 7623SOL    HW123768   5.602   0.297   5.066
 7623SOL    HW223769   5.647   0.141   5.081
 7624SOL     OW23770   6.550   0.911   4.509
 7624SOL    HW123771   6.628   0.850   4.524
 7624SOL    HW223772   6.575   0.983   4.445
 7625SOL     OW23773   3.916   6.394   0.855
 7625SOL    HW123774   3.859   6.348   0.786
 7625SOL    HW223775   3.857   6.434   0.925
 7626SOL     OW23776   2.518   4.607   4.633
 7626SOL    HW123777   2.551   4.609   4.728
 7626SOL    HW223778   2.581   4.660   4.576
 7627SOL     OW23779   6.872   1.457   0.185
 7627SOL    HW123780   6.933   1.535   0.199
 7627SOL    HW223781   6.792   1.466   0.245
 7628SOL     OW23782   4.343   1.814   0.803
 7628SOL    HW123783   4.379   1.729   0.842
 7628SOL    HW223784   4.376   1.824   0.709
 7629SOL     OW23785   6.131   5.313   3.533
 7629SOL    HW123786   6.142   5.330   3.435
 7629SOL    HW223787   6.035   5.325   3.558
 7630SOL     OW23788   6.682   1.509   1.999
 7630SOL    HW123789   6.764   1.548   1.958
 7630SOL    HW223790   6.674   1.540   2.094
 7631SOL     OW23791   1.534   1.575   3.832
 7631SOL    HW123792   1.624   1.602   3.798
 7631SOL    HW223793   1.543   1.541   3.925
 7632SOL     OW23794   4.306   1.010   6.029
 7632SOL    HW123795   4.270   1.028   6.121
 7632SOL    HW223796   4.397   0.969   6.037
 7633SOL     OW23797   5.253   5.306   6.450
 7633SOL    HW123798   5.196   5.312   6.532
 7633SOL    HW223799   5.347   5.283   6.476
 7634SOL     OW23800   0.701   2.484   1.968
 7634SOL    HW123801   0.798   2.459   1.969
 7634SOL    HW223802   0.663   2.475   2.060
 7635SOL     OW23803   2.774   5.139   6.192
 7635SOL    HW123804   2.870   5.169   6.201
 7635SOL    HW223805   2.766   5.075   6.116
 7636SOL     OW23806   2.409   0.456   3.912
 7636SOL    HW123807   2.364   0.504   3.987
 7636SOL    HW223808   2.344   0.393   3.869
 7637SOL     OW23809   2.148   6.175   4.119
 7637SOL    HW123810   2.217   6.237   4.083
 7637SOL    HW223811   2.072   6.228   4.157
 7638SOL     OW23812   4.050   4.027   1.541
 7638SOL    HW123813   4.110   4.010   1.619
 7638SOL    HW223814   4.096   4.085   1.474
 7639SOL     OW23815   6.959   2.320   4.724
 7639SOL    HW123816   0.018   2.266   4.744
 7639SOL    HW223817   6.924   2.360   4.808
 7640SOL     OW23818   2.376   3.255   5.677
 7640SOL    HW123819   2.440   3.305   5.736
 7640SOL    HW223820   2.337   3.318   5.609
 7641SOL     OW23821   6.407   2.685   3.314
 7641SOL    HW123822   6.345   2.704   3.238
 7641SOL    HW223823   6.360   2.703   3.400
 7642SOL     OW23824   2.026   0.850   2.681
 7642SOL    HW123825   1.982   0.798   2.754
 7642SOL    HW223826   2.125   0.838   2.685
 7643SOL     OW23827   5.803   2.985   3.305
 7643SOL    HW123828   5.853   2.900   3.292
 7643SOL    HW223829   5.734   2.996   3.233
 7644SOL     OW23830   6.438   4.032   3.388
 7644SOL    HW123831   6.427   3.933   3.398
 7644SOL    HW223832   6.348   4.075   3.378
 7645SOL     OW23833   4.048   2.991   0.243
 7645SOL    HW123834   4.085   2.906   0.280
 7645SOL    HW223835   4.007   2.974   0.154
 7646SOL     OW23836   0.685   1.020   1.811
 7646SOL    HW123837   0.753   1.074   1.861
 7646SOL    HW223838   0.627   1.080   1.757
 7647SOL     OW23839   2.577   5.027   1.046
 7647SOL    HW123840   2.582   5.118   1.087
 7647SOL    HW223841   2.586   5.034   0.947
 7648SOL     OW23842   3.662   0.530   4.030
 7648SOL    HW123843   3.682   0.575   4.117
 7648SOL    HW223844   3.657   0.431   4.044
 7649SOL     OW23845   2.817   1.367   1.734
 7649SOL    HW123846   2.741   1.373   1.798
 7649SOL    HW223847   2.897   1.413   1.772
 7650SOL     OW23848   6.163   4.315   1.116
 7650SOL    HW123849   6.151   4.216   1.123
 7650SOL    HW223850   6.080   4.355   1.078
 7651SOL     OW23851   4.287   2.415   6.599
 7651SOL    HW123852   4.370   2.422   6.544
 7651SOL    HW223853   4.212   2.382   6.542
 7652SOL     OW23854   1.665   3.446   2.853
 7652SOL    HW123855   1.733   3.487   2.793
 7652SOL    HW223856   1.626   3.364   2.810
 7653SOL     OW23857   4.097   1.963   1.371
 7653SOL    HW123858   4.138   1.872   1.364
 7653SOL    HW223859   4.095   1.991   1.467
 7654SOL     OW23860   4.895   3.608   4.139
 7654SOL    HW123861   4.929   3.671   4.069
 7654SOL    HW223862   4.836   3.658   4.203
 7655SOL     OW23863   4.430   6.084   5.428
 7655SOL    HW123864   4.398   5.993   5.452
 7655SOL    HW223865   4.397   6.109   5.337
 7656SOL     OW23866   1.385   6.728   3.993
 7656SOL    HW123867   1.422   6.691   3.908
 7656SOL    HW223868   1.431   6.814   4.015
 7657SOL     OW23869   4.482   1.968   4.088
 7657SOL    HW123870   4.385   1.958   4.107
 7657SOL    HW223871   4.531   1.990   4.173
 7658SOL     OW23872   4.163   0.219   6.722
 7658SOL    HW123873   4.248   0.178   6.690
 7658SOL    HW223874   4.093   0.210   6.651
 7659SOL     OW23875   5.364   6.519   0.362
 7659SOL    HW123876   5.294   6.462   0.320
 7659SOL    HW223877   5.365   6.504   0.461
 7660SOL     OW23878   6.042   4.900   4.497
 7660SOL    HW123879   6.043   4.916   4.398
 7660SOL    HW223880   6.037   4.988   4.544
 7661SOL     OW23881   6.026   3.114   4.129
 7661SOL    HW123882   6.077   3.181   4.075
 7661SOL    HW223883   5.975   3.162   4.201
 7662SOL     OW23884   6.593   5.761   2.723
 7662SOL    HW123885   6.636   5.671   2.713
 7662SOL    HW223886   6.663   5.829   2.744
 7663SOL     OW23887   6.639   5.905   6.793
 7663SOL    HW123888   6.596   5.959   6.865
 7663SOL    HW223889   6.734   5.934   6.781
 7664SOL     OW23890   2.525   5.578   5.013
 7664SOL    HW123891   2.457   5.575   4.940
 7664SOL    HW223892   2.485   5.543   5.097
 7665SOL     OW23893   2.375   5.639   4.193
 7665SOL    HW123894   2.395   5.699   4.116
 7665SOL    HW223895   2.279   5.650   4.220
 7666SOL     OW23896   2.210   1.074   0.975
 7666SOL    HW123897   2.124   1.027   0.996
 7666SOL    HW223898   2.231   1.062   0.878
 7667SOL     OW23899   4.817   5.789   6.372
 7667SOL    HW123900   4.818   5.848   6.453
 7667SOL    HW223901   4.740   5.815   6.314
 7668SOL     OW23902   2.820   3.842   1.641
 7668SOL    HW123903   2.759   3.921   1.639
 7668SOL    HW223904   2.915   3.873   1.655
 7669SOL     OW23905   4.495   6.485   5.076
 7669SOL    HW123906   4.550   6.453   5.152
 7669SOL    HW223907   4.421   6.420   5.058
 7670SOL     OW23908   1.489   5.747   0.869
 7670SOL    HW123909   1.548   5.732   0.948
 7670SOL    HW223910   1.537   5.720   0.786
 7671SOL     OW23911   5.378   2.764   5.041
 7671SOL    HW123912   5.406   2.685   4.986
 7671SOL    HW223913   5.378   2.738   5.138
 7672SOL     OW23914   6.241   0.283   2.141
 7672SOL    HW123915   6.221   0.348   2.068
 7672SOL    HW223916   6.339   0.268   2.147
 7673SOL     OW23917   0.445   4.371   0.038
 7673SOL    HW123918   0.539   4.343   0.057
 7673SOL    HW223919   0.420   4.446   0.100
 7674SOL     OW23920   6.178   1.225   5.293
 7674SOL    HW123921   6.242   1.182   5.357
 7674SOL    HW223922   6.156   1.317   5.325
 7675SOL     OW23923   4.904   6.960   3.071
 7675SOL    HW123924   4.870   0.001   3.002
 7675SOL    HW223925   4.998   6.934   3.049
 7676SOL     OW23926   1.312   0.292   1.740
 7676SOL    HW123927   1.285   0.369   1.681
 7676SOL    HW223928   1.270   0.302   1.830
 7677SOL     OW23929   1.734   2.071   2.670
 7677SOL    HW123930   1.698   2.001   2.732
 7677SOL    HW223931   1.830   2.089   2.692
 7678SOL     OW23932   5.224   6.719   6.116
 7678SOL    HW123933   5.127   6.742   6.111
 7678SOL    HW223934   5.245   6.650   6.047
 7679SOL     OW23935   1.379   4.869   4.847
 7679SOL    HW123936   1.467   4.838   4.881
 7679SOL    HW223937   1.315   4.792   4.846
 7680SOL     OW23938   4.699   1.171   6.647
 7680SOL    HW123939   4.666   1.262   6.672
 7680SOL    HW223940   4.798   1.174   6.633
 7681SOL     OW23941   2.617   2.056   5.944
 7681SOL    HW123942   2.691   2.105   5.990
 7681SOL    HW223943   2.624   1.958   5.964
 7682SOL     OW23944   2.419   0.088   1.192
 7682SOL    HW123945   2.358   0.159   1.228
 7682SOL    HW223946   2.488   0.066   1.261
 7683SOL     OW23947   6.087   2.163   2.809
 7683SOL    HW123948   6.005   2.144   2.862
 7683SOL    HW223949   6.121   2.079   2.768
 7684SOL     OW23950   4.307   2.294   6.167
 7684SOL    HW123951   4.371   2.355   6.121
 7684SOL    HW223952   4.295   2.211   6.112
 7685SOL     OW23953   4.318   3.680   0.676
 7685SOL    HW123954   4.415   3.698   0.661
 7685SOL    HW223955   4.299   3.681   0.774
 7686SOL     OW23956   3.370   0.740   3.789
 7686SOL    HW123957   3.302   0.747   3.717
 7686SOL    HW223958   3.402   0.832   3.814
 7687SOL     OW23959   4.480   4.883   6.011
 7687SOL    HW123960   4.459   4.932   6.096
 7687SOL    HW223961   4.395   4.858   5.965
 7688SOL     OW23962   6.513   7.020   3.297
 7688SOL    HW123963   6.557   0.087   3.299
 7688SOL    HW223964   6.559   6.959   3.361
 7689SOL     OW23965   3.604   6.731   4.841
 7689SOL    HW123966   3.664   6.671   4.789
 7689SOL    HW223967   3.634   6.733   4.937
 7690SOL     OW23968   0.832   5.041   3.058
 7690SOL    HW123969   0.824   5.098   3.140
 7690SOL    HW223970   0.917   4.988   3.062
 7691SOL     OW23971   5.650   3.764   5.619
 7691SOL    HW123972   5.558   3.766   5.579
 7691SOL    HW223973   5.659   3.685   5.679
 7692SOL     OW23974   1.606   6.418   1.896
 7692SOL    HW123975   1.628   6.404   1.993
 7692SOL    HW223976   1.643   6.343   1.842
 7693SOL     OW23977   5.375   1.143   0.726
 7693SOL    HW123978   5.460   1.186   0.753
 7693SOL    HW223979   5.382   1.111   0.631
 7694SOL     OW23980   6.356   4.481   4.431
 7694SOL    HW123981   6.347   4.526   4.520
 7694SOL    HW223982   6.317   4.539   4.359
 7695SOL     OW23983   4.014   0.151   6.506
 7695SOL    HW123984   3.947   0.224   6.496
 7695SOL    HW223985   4.090   0.166   6.442
 7696SOL     OW23986   1.176   4.153   5.811
 7696SOL    HW123987   1.125   4.194   5.886
 7696SOL    HW223988   1.184   4.054   5.826
 7697SOL     OW23989   4.109   1.909   1.911
 7697SOL    HW123990   4.103   1.823   1.962
 7697SOL    HW223991   4.025   1.961   1.924
 7698SOL     OW23992   0.128   3.278   5.807
 7698SOL    HW123993   0.143   3.272   5.708
 7698SOL    HW223994   0.196   3.340   5.847
 7699SOL     OW23995   2.445   4.503   0.417
 7699SOL    HW123996   2.453   4.509   0.318
 7699SOL    HW223997   2.473   4.412   0.447
 7700SOL     OW23998   5.259   6.749   4.998
 7700SOL    HW123999   5.181   6.710   4.948
 7700SOL    HW224000   5.319   6.796   4.933
 7701SOL     OW24001   6.089   2.482   5.470
 7701SOL    HW124002   6.136   2.455   5.386
 7701SOL    HW224003   6.050   2.573   5.459
 7702SOL     OW24004   2.272   6.152   5.813
 7702SOL    HW124005   2.187   6.151   5.865
 7702SOL    HW224006   2.252   6.139   5.716
 7703SOL     OW24007   0.737   2.113   5.766
 7703SOL    HW124008   0.736   2.207   5.802
 7703SOL    HW224009   0.827   2.073   5.780
 7704SOL     OW24010   2.646   4.307   0.697
 7704SOL    HW124011   2.699   4.230   0.734
 7704SOL    HW224012   2.564   4.321   0.752
 7705SOL     OW24013   3.572   4.361   5.283
 7705SOL    HW124014   3.507   4.331   5.354
 7705SOL    HW224015   3.568   4.460   5.274
 7706SOL     OW24016   6.435   0.443   5.254
 7706SOL    HW124017   6.344   0.437   5.211
 7706SOL    HW224018   6.489   0.512   5.205
 7707SOL     OW24019   0.058   5.307   6.211
 7707SOL    HW124020   0.078   5.262   6.298
 7707SOL    HW224021   0.114   5.266   6.139
 7708SOL     OW24022   4.888   0.802   4.235
 7708SOL    HW124023   4.928   0.863   4.303
 7708SOL    HW224024   4.789   0.800   4.247
 7709SOL     OW24025   3.665   2.197   1.634
 7709SOL    HW124026   3.656   2.263   1.708
 7709SOL    HW224027   3.732   2.231   1.567
 7710SOL     OW24028   2.940   2.391   5.895
 7710SOL    HW124029   2.861   2.357   5.845
 7710SOL    HW224030   2.975   2.473   5.850
 7711SOL     OW24031   5.196   6.722   5.387
 7711SOL    HW124032   5.187   6.690   5.481
 7711SOL    HW224033   5.175   6.647   5.324
 7712SOL     OW24034   5.051   5.211   0.495
 7712SOL    HW124035   4.951   5.213   0.500
 7712SOL    HW224036   5.079   5.145   0.425
 7713SOL     OW24037   1.004   5.171   6.133
 7713SOL    HW124038   0.942   5.112   6.080
 7713SOL    HW224039   0.997   5.146   6.230
 7714SOL     OW24040   5.794   4.025   4.288
 7714SOL    HW124041   5.742   4.100   4.329
 7714SOL    HW224042   5.768   3.938   4.330
 7715SOL     OW24043   4.332   2.218   1.604
 7715SOL    HW124044   4.250   2.160   1.595
 7715SOL    HW224045   4.380   2.221   1.516
 7716SOL     OW24046   4.487   2.500   3.801
 7716SOL    HW124047   4.506   2.570   3.870
 7716SOL    HW224048   4.566   2.439   3.794
 7717SOL     OW24049   2.793   0.099   6.584
 7717SOL    HW124050   2.880   0.050   6.584
 7717SOL    HW224051   2.718   0.034   6.599
 7718SOL     OW24052   2.913   6.291   3.919
 7718SOL    HW124053   2.889   6.232   3.996
 7718SOL    HW224054   3.006   6.270   3.889
 7719SOL     OW24055   5.916   2.963   5.581
 7719SOL    HW124056   5.854   3.024   5.532
 7719SOL    HW224057   5.945   2.889   5.520
 7720SOL     OW24058   5.613   6.052   1.579
 7720SOL    HW124059   5.606   5.980   1.510
 7720SOL    HW224060   5.675   6.023   1.652
 7721SOL     OW24061   1.089   4.921   2.983
 7721SOL    HW124062   1.018   4.861   3.020
 7721SOL    HW224063   1.131   4.973   3.058
 7722SOL     OW24064   0.669   6.432   3.963
 7722SOL    HW124065   0.602   6.461   3.895
 7722SOL    HW224066   0.675   6.332   3.965
 7723SOL     OW24067   6.614   2.462   0.685
 7723SOL    HW124068   6.607   2.503   0.776
 7723SOL    HW224069   6.575   2.370   0.687
 7724SOL     OW24070   1.868   5.500   0.667
 7724SOL    HW124071   1.845   5.415   0.620
 7724SOL    HW224072   1.954   5.535   0.632
 7725SOL     OW24073   5.355   3.865   4.523
 7725SOL    HW124074   5.342   3.858   4.425
 7725SOL    HW224075   5.322   3.954   4.556
 7726SOL     OW24076   5.682   4.275   3.626
 7726SOL    HW124077   5.603   4.313   3.674
 7726SOL    HW224078   5.661   4.181   3.598
 7727SOL     OW24079   5.638   3.245   2.059
 7727SOL    HW124080   5.565   3.178   2.050
 7727SOL    HW224081   5.701   3.216   2.132
 7728SOL     OW24082   2.254   2.190   2.234
 7728SOL    HW124083   2.173   2.248   2.238
 7728SOL    HW224084   2.336   2.248   2.231
 7729SOL     OW24085   5.055   2.513   0.524
 7729SOL    HW124086   5.020   2.425   0.492
 7729SOL    HW224087   4.998   2.587   0.489
 7730SOL     OW24088   4.841   6.947   2.323
 7730SOL    HW124089   4.759   7.002   2.338
 7730SOL    HW224090   4.866   6.949   2.226
 7731SOL     OW24091   0.011   1.668   4.742
 7731SOL    HW124092   0.051   1.626   4.823
 7731SOL    HW224093   6.963   1.732   4.769
 7732SOL     OW24094   4.320   4.709   0.967
 7732SOL    HW124095   4.298   4.806   0.958
 7732SOL    HW224096   4.410   4.700   1.010
 7733SOL     OW24097   2.939   6.365   0.820
 7733SOL    HW124098   2.972   6.271   0.809
 7733SOL    HW224099   2.948   6.414   0.733
 7734SOL     OW24100   1.496   2.068   2.943
 7734SOL    HW124101   1.549   2.152   2.937
 7734SOL    HW224102   1.462   2.056   3.036
 7735SOL     OW24103   5.319   4.262   0.826
 7735SOL    HW124104   5.219   4.264   0.816
 7735SOL    HW224105   5.347   4.172   0.861
 7736SOL     OW24106   5.864   4.389   5.984
 7736SOL    HW124107   5.937   4.456   5.969
 7736SOL    HW224108   5.775   4.432   5.968
 7737SOL     OW24109   5.051   2.457   0.791
 7737SOL    HW124110   5.050   2.491   0.697
 7737SOL    HW224111   4.987   2.510   0.847
 7738SOL     OW24112   2.088   4.866   6.979
 7738SOL    HW124113   2.136   4.810   6.912
 7738SOL    HW224114   2.145   4.876   0.037
 7739SOL     OW24115   5.806   3.544   2.429
 7739SOL    HW124116   5.713   3.524   2.398
 7739SOL    HW224117   5.868   3.548   2.350
 7740SOL     OW24118   0.477   6.240   3.816
 7740SOL    HW124119   0.477   6.334   3.781
 7740SOL    HW224120   0.413   6.185   3.762
 7741SOL     OW24121   3.232   5.941   4.108
 7741SOL    HW124122   3.134   5.950   4.097
 7741SOL    HW224123   3.258   5.845   4.098
 7742SOL     OW24124   6.720   1.213   4.113
 7742SOL    HW124125   6.665   1.245   4.035
 7742SOL    HW224126   6.804   1.170   4.080
 7743SOL     OW24127   4.928   2.937   2.823
 7743SOL    HW124128   4.950   3.028   2.857
 7743SOL    HW224129   4.934   2.936   2.723
 7744SOL     OW24130   0.493   6.933   4.938
 7744SOL    HW124131   0.554   6.934   4.859
 7744SOL    HW224132   0.534   6.879   5.012
 7745SOL     OW24133   4.754   3.360   5.294
 7745SOL    HW124134   4.723   3.452   5.271
 7745SOL    HW224135   4.853   3.356   5.291
 7746SOL     OW24136   1.369   0.289   0.006
 7746SOL    HW124137   1.346   0.302   0.102
 7746SOL    HW224138   1.461   0.251   7.021
 7747SOL     OW24139   5.088   5.461   1.280
 7747SOL    HW124140   5.120   5.417   1.364
 7747SOL    HW224141   5.148   5.537   1.257
 7748SOL     OW24142   2.784   3.671   6.439
 7748SOL    HW124143   2.694   3.645   6.404
 7748SOL    HW224144   2.790   3.770   6.446
 7749SOL     OW24145   5.598   4.066   6.141
 7749SOL    HW124146   5.611   3.974   6.175
 7749SOL    HW224147   5.523   4.110   6.191
 7750SOL     OW24148   5.560   5.143   2.965
 7750SOL    HW124149   5.476   5.093   2.941
 7750SOL    HW224150   5.575   5.216   2.898
 7751SOL     OW24151   0.188   2.577   0.952
 7751SOL    HW124152   0.238   2.504   0.905
 7751SOL    HW224153   0.159   2.645   0.885
 7752SOL     OW24154   4.279   1.254   3.513
 7752SOL    HW124155   4.309   1.348   3.525
 7752SOL    HW224156   4.356   1.198   3.481
 7753SOL     OW24157   3.289   1.817   5.012
 7753SOL    HW124158   3.318   1.910   4.987
 7753SOL    HW224159   3.194   1.804   4.984
 7754SOL     OW24160   5.563   5.493   1.682
 7754SOL    HW124161   5.555   5.421   1.750
 7754SOL    HW224162   5.576   5.452   1.591
 7755SOL     OW24163   0.557   5.169   4.612
 7755SOL    HW124164   0.574   5.089   4.555
 7755SOL    HW224165   0.535   5.247   4.554
 7756SOL     OW24166   2.386   4.812   2.224
 7756SOL    HW124167   2.382   4.850   2.131
 7756SOL    HW224168   2.310   4.749   2.237
 7757SOL     OW24169   6.964   4.100   1.568
 7757SOL    HW124170   0.015   4.085   1.633
 7757SOL    HW224171   6.973   4.036   1.492
 7758SOL     OW24172   1.267   2.660   4.441
 7758SOL    HW124173   1.334   2.637   4.512
 7758SOL    HW224174   1.289   2.750   4.404
 7759SOL     OW24175   3.685   1.363   2.382
 7759SOL    HW124176   3.590   1.392   2.375
 7759SOL    HW224177   3.740   1.412   2.314
 7760SOL     OW24178   5.087   3.173   0.361
 7760SOL    HW124179   5.154   3.098   0.358
 7760SOL    HW224180   5.064   3.201   0.268
 7761SOL     OW24181   4.991   4.752   2.873
 7761SOL    HW124182   5.001   4.692   2.953
 7761SOL    HW224183   5.058   4.826   2.877
 7762SOL     OW24184   5.171   1.835   1.638
 7762SOL    HW124185   5.194   1.738   1.636
 7762SOL    HW224186   5.093   1.852   1.577
 7763SOL     OW24187   2.375   0.159   3.868
 7763SOL    HW124188   2.375   0.060   3.854
 7763SOL    HW224189   2.427   0.204   3.795
 7764SOL     OW24190   3.125   4.374   5.920
 7764SOL    HW124191   3.134   4.468   5.887
 7764SOL    HW224192   3.216   4.335   5.935
 7765SOL     OW24193   5.477   4.132   4.618
 7765SOL    HW124194   5.556   4.144   4.558
 7765SOL    HW224195   5.395   4.115   4.563
 7766SOL     OW24196   6.609   2.902   6.410
 7766SOL    HW124197   6.529   2.848   6.438
 7766SOL    HW224198   6.663   2.850   6.344
 7767SOL     OW24199   4.515   0.277   3.702
 7767SOL    HW124200   4.479   0.293   3.794
 7767SOL    HW224201   4.612   0.252   3.708
 7768SOL     OW24202   3.762   5.589   4.350
 7768SOL    HW124203   3.782   5.671   4.296
 7768SOL    HW224204   3.842   5.529   4.351
 7769SOL     OW24205   3.607   3.015   6.632
 7769SOL    HW124206   3.655   3.007   6.545
 7769SOL    HW224207   3.624   3.105   6.672
 7770SOL     OW24208   1.226   3.408   3.712
 7770SOL    HW124209   1.251   3.325   3.761
 7770SOL    HW224210   1.233   3.487   3.772
 7771SOL     OW24211   1.483   3.773   5.818
 7771SOL    HW124212   1.539   3.758   5.899
 7771SOL    HW224213   1.387   3.751   5.838
 7772SOL     OW24214   5.753   6.290   1.821
 7772SOL    HW124215   5.663   6.259   1.790
 7772SOL    HW224216   5.753   6.390   1.827
 7773SOL     OW24217   2.226   6.577   6.754
 7773SOL    HW124218   2.132   6.545   6.764
 7773SOL    HW224219   2.256   6.617   6.841
 7774SOL     OW24220   4.900   1.578   2.512
 7774SOL    HW124221   4.806   1.608   2.495
 7774SOL    HW224222   4.914   1.488   2.473
 7775SOL     OW24223   3.135   1.688   1.758
 7775SOL    HW124224   3.199   1.718   1.687
 7775SOL    HW224225   3.116   1.765   1.820
 7776SOL     OW24226   2.944   0.866   4.074
 7776SOL    HW124227   2.941   0.894   4.170
 7776SOL    HW224228   2.885   0.786   4.061
 7777SOL     OW24229   6.059   5.432   3.051
 7777SOL    HW124230   6.094   5.485   2.974
 7777SOL    HW224231   5.959   5.431   3.048
 7778SOL     OW24232   0.851   4.509   2.699
 7778SOL    HW124233   0.762   4.484   2.663
 7778SOL    HW224234   0.857   4.484   2.796
 7779SOL     OW24235   3.679   6.464   1.560
 7779SOL    HW124236   3.642   6.516   1.636
 7779SOL    HW224237   3.613   6.463   1.485
 7780SOL     OW24238   6.512   5.708   4.388
 7780SOL    HW124239   6.537   5.618   4.354
 7780SOL    HW224240   6.413   5.713   4.401
 7781SOL     OW24241   2.078   3.032   0.793
 7781SOL    HW124242   2.081   3.130   0.773
 7781SOL    HW224243   2.168   3.002   0.827
 7782SOL     OW24244   6.024   3.870   4.811
 7782SOL    HW124245   6.021   3.930   4.732
 7782SOL    HW224246   5.987   3.780   4.786
 7783SOL     OW24247   1.847   6.390   3.990
 7783SOL    HW124248   1.750   6.373   4.006
 7783SOL    HW224249   1.895   6.396   4.078
 7784SOL     OW24250   1.664   1.912   1.926
 7784SOL    HW124251   1.609   1.884   2.004
 7784SOL    HW224252   1.729   1.839   1.903
 7785SOL     OW24253   6.727   5.993   2.890
 7785SOL    HW124254   6.801   5.945   2.936
 7785SOL    HW224255   6.765   6.058   2.824
 7786SOL     OW24256   4.861   0.974   6.397
 7786SOL    HW124257   4.796   1.041   6.362
 7786SOL    HW224258   4.813   0.911   6.458
 7787SOL     OW24259   2.132   2.544   1.440
 7787SOL    HW124260   2.115   2.522   1.344
 7787SOL    HW224261   2.230   2.562   1.453
 7788SOL     OW24262   0.960   4.004   1.932
 7788SOL    HW124263   1.021   4.082   1.945
 7788SOL    HW224264   1.013   3.920   1.930
 7789SOL     OW24265   3.519   1.005   6.308
 7789SOL    HW124266   3.524   0.908   6.332
 7789SOL    HW224267   3.534   1.016   6.209
 7790SOL     OW24268   3.931   5.149   3.887
 7790SOL    HW124269   3.859   5.092   3.847
 7790SOL    HW224270   3.976   5.202   3.814
 7791SOL     OW24271   2.924   5.531   2.111
 7791SOL    HW124272   2.903   5.507   2.016
 7791SOL    HW224273   2.863   5.482   2.172
 7792SOL     OW24274   1.224   1.403   2.551
 7792SOL    HW124275   1.255   1.314   2.520
 7792SOL    HW224276   1.254   1.473   2.487
 7793SOL     OW24277   5.099   1.479   0.910
 7793SOL    HW124278   5.023   1.427   0.871
 7793SOL    HW224279   5.147   1.423   0.977
 7794SOL     OW24280   1.581   0.172   2.941
 7794SOL    HW124281   1.672   0.182   2.900
 7794SOL    HW224282   1.529   0.256   2.927
 7795SOL     OW24283   3.525   4.089   1.307
 7795SOL    HW124284   3.490   4.179   1.334
 7795SOL    HW224285   3.619   4.079   1.341
 7796SOL     OW24286   3.172   1.288   0.713
 7796SOL    HW124287   3.155   1.279   0.811
 7796SOL    HW224288   3.260   1.246   0.691
 7797SOL     OW24289   1.495   5.748   2.885
 7797SOL    HW124290   1.552   5.798   2.950
 7797SOL    HW224291   1.436   5.812   2.836
 7798SOL     OW24292   1.703   3.289   0.488
 7798SOL    HW124293   1.652   3.313   0.405
 7798SOL    HW224294   1.765   3.364   0.512
 7799SOL     OW24295   2.911   6.557   3.934
 7799SOL    HW124296   2.900   6.458   3.942
 7799SOL    HW224297   2.823   6.598   3.909
 7800SOL     OW24298   1.837   0.595   2.582
 7800SOL    HW124299   1.787   0.681   2.568
 7800SOL    HW224300   1.803   0.526   2.518
 7801SOL     OW24301   1.399   2.255   0.978
 7801SOL    HW124302   1.361   2.322   1.042
 7801SOL    HW224303   1.325   2.199   0.941
 7802SOL     OW24304   6.477   4.431   3.934
 7802SOL    HW124305   6.491   4.333   3.944
 7802SOL    HW224306   6.379   4.452   3.942
 7803SOL     OW24307   3.351   2.433   5.610
 7803SOL    HW124308   3.330   2.439   5.512
 7803SOL    HW224309   3.428   2.493   5.631
 7804SOL     OW24310   2.872   1.559   5.485
 7804SOL    HW124311   2.883   1.658   5.492
 7804SOL    HW224312   2.946   1.513   5.534
 7805SOL     OW24313   5.579   3.218   6.440
 7805SOL    HW124314   5.623   3.131   6.463
 7805SOL    HW224315   5.611   3.289   6.503
 7806SOL     OW24316   6.151   1.494   5.348
 7806SOL    HW124317   6.114   1.515   5.257
 7806SOL    HW224318   6.208   1.571   5.379
 7807SOL     OW24319   1.876   5.713   5.313
 7807SOL    HW124320   1.830   5.633   5.276
 7807SOL    HW224321   1.872   5.709   5.413
 7808SOL     OW24322   6.188   3.835   3.921
 7808SOL    HW124323   6.222   3.798   3.835
 7808SOL    HW224324   6.229   3.785   3.998
 7809SOL     OW24325   4.657   6.321   2.387
 7809SOL    HW124326   4.739   6.275   2.352
 7809SOL    HW224327   4.659   6.319   2.487
 7810SOL     OW24328   1.818   6.598   5.627
 7810SOL    HW124329   1.801   6.506   5.663
 7810SOL    HW224330   1.916   6.617   5.629
 7811SOL     OW24331   1.137   6.246   2.836
 7811SOL    HW124332   1.150   6.253   2.935
 7811SOL    HW224333   1.118   6.151   2.811
 7812SOL     OW24334   2.861   1.015   5.389
 7812SOL    HW124335   2.792   1.018   5.317
 7812SOL    HW224336   2.836   1.079   5.462
 7813SOL     OW24337   5.662   0.793   0.809
 7813SOL    HW124338   5.569   0.826   0.828
 7813SOL    HW224339   5.699   0.751   0.892
 7814SOL     OW24340   6.028   2.366   1.823
 7814SOL    HW124341   6.126   2.385   1.819
 7814SOL    HW224342   5.978   2.443   1.783
 7815SOL     OW24343   5.214   5.865   3.659
 7815SOL    HW124344   5.130   5.904   3.622
 7815SOL    HW224345   5.247   5.793   3.597
 7816SOL     OW24346   0.874   1.371   5.467
 7816SOL    HW124347   0.879   1.435   5.543
 7816SOL    HW224348   0.913   1.283   5.495
 7817SOL     OW24349   4.669   1.816   6.931
 7817SOL    HW124350   4.581   1.863   6.924
 7817SOL    HW224351   4.673   1.767   7.018
 7818SOL     OW24352   6.070   0.944   3.172
 7818SOL    HW124353   6.124   0.866   3.141
 7818SOL    HW224354   6.118   0.991   3.247
 7819SOL     OW24355   1.659   3.057   5.041
 7819SOL    HW124356   1.669   2.958   5.049
 7819SOL    HW224357   1.696   3.087   4.953
 7820SOL     OW24358   1.174   1.462   5.321
 7820SOL    HW124359   1.084   1.505   5.334
 7820SOL    HW224360   1.191   1.450   5.223
 7821SOL     OW24361   3.892   5.699   7.016
 7821SOL    HW124362   3.827   5.624   6.998
 7821SOL    HW224363   3.971   5.689   6.956
 7822SOL     OW24364   0.407   1.403   4.525
 7822SOL    HW124365   0.473   1.376   4.455
 7822SOL    HW224366   0.345   1.472   4.488
 7823SOL     OW24367   2.706   3.114   5.841
 7823SOL    HW124368   2.614   3.083   5.864
 7823SOL    HW224369   2.770   3.080   5.910
 7824SOL     OW24370   6.067   3.633   3.253
 7824SOL    HW124371   5.999   3.654   3.182
 7824SOL    HW224372   6.030   3.657   3.342
 7825SOL     OW24373   3.624   3.469   2.741
 7825SOL    HW124374   3.557   3.443   2.672
 7825SOL    HW224375   3.625   3.568   2.751
 7826SOL     OW24376   6.795   0.247   0.719
 7826SOL    HW124377   6.857   0.324   0.738
 7826SOL    HW224378   6.703   0.270   0.751
 7827SOL     OW24379   4.070   3.235   0.381
 7827SOL    HW124380   4.111   3.287   0.306
 7827SOL    HW224381   4.067   3.138   0.358
 7828SOL     OW24382   0.950   6.156   1.413
 7828SOL    HW124383   1.041   6.122   1.389
 7828SOL    HW224384   0.882   6.086   1.393
 7829SOL     OW24385   3.615   3.742   3.320
 7829SOL    HW124386   3.551   3.695   3.381
 7829SOL    HW224387   3.566   3.776   3.240
 7830SOL     OW24388   5.998   4.027   0.124
 7830SOL    HW124389   6.040   4.108   0.165
 7830SOL    HW224390   5.902   4.045   0.104
 7831SOL     OW24391   1.872   2.749   0.384
 7831SOL    HW124392   1.895   2.826   0.443
 7831SOL    HW224393   1.847   2.782   0.293
 7832SOL     OW24394   3.582   2.586   5.642
 7832SOL    HW124395   3.636   2.501   5.642
 7832SOL    HW224396   3.578   2.622   5.549
 7833SOL     OW24397   6.584   6.474   1.406
 7833SOL    HW124398   6.672   6.430   1.389
 7833SOL    HW224399   6.526   6.414   1.461
 7834SOL     OW24400   5.993   0.491   1.433
 7834SOL    HW124401   5.916   0.507   1.371
 7834SOL    HW224402   5.960   0.484   1.527
 7835SOL     OW24403   1.938   1.959   4.115
 7835SOL    HW124404   2.009   2.021   4.149
 7835SOL    HW224405   1.865   1.950   4.183
 7836SOL     OW24406   2.130   0.459   0.413
 7836SOL    HW124407   2.102   0.416   0.499
 7836SOL    HW224408   2.067   0.534   0.392
 7837SOL     OW24409   5.566   6.250   2.478
 7837SOL    HW124410   5.547   6.152   2.472
 7837SOL    HW224411   5.663   6.264   2.495
 7838SOL     OW24412   4.490   6.227   3.951
 7838SOL    HW124413   4.401   6.183   3.941
 7838SOL    HW224414   4.485   6.320   3.915
 7839SOL     OW24415   0.136   4.827   3.624
 7839SOL    HW124416   0.081   4.905   3.654
 7839SOL    HW224417   0.185   4.851   3.540
 7840SOL     OW24418   4.922   3.585   6.301
 7840SOL    HW124419   4.983   3.638   6.243
 7840SOL    HW224420   4.939   3.487   6.287
 7841SOL     OW24421   1.019   1.838   6.514
 7841SOL    HW124422   1.100   1.893   6.534
 7841SOL    HW224423   1.034   1.744   6.544
 7842SOL     OW24424   2.856   6.859   2.524
 7842SOL    HW124425   2.896   6.785   2.469
 7842SOL    HW224426   2.923   6.890   2.592
 7843SOL     OW24427   0.291   2.657   2.037
 7843SOL    HW124428   0.360   2.717   1.998
 7843SOL    HW224429   0.205   2.667   1.987
 7844SOL     OW24430   3.935   1.815   3.559
 7844SOL    HW124431   3.977   1.855   3.640
 7844SOL    HW224432   3.892   1.888   3.505
 7845SOL     OW24433   0.916   1.483   3.762
 7845SOL    HW124434   0.864   1.400   3.784
 7845SOL    HW224435   0.942   1.529   3.847
 7846SOL     OW24436   4.226   6.347   2.311
 7846SOL    HW124437   4.132   6.374   2.286
 7846SOL    HW224438   4.240   6.361   2.409
 7847SOL     OW24439   0.372   6.880   6.858
 7847SOL    HW124440   0.363   6.978   6.841
 7847SOL    HW224441   0.397   6.865   6.954
 7848SOL     OW24442   3.790   4.338   1.432
 7848SOL    HW124443   3.807   4.241   1.412
 7848SOL    HW224444   3.739   4.379   1.356
 7849SOL     OW24445   5.562   4.124   4.903
 7849SOL    HW124446   5.546   4.080   4.814
 7849SOL    HW224447   5.475   4.130   4.953
 7850SOL     OW24448   0.779   2.286   5.077
 7850SOL    HW124449   0.871   2.259   5.106
 7850SOL    HW224450   0.766   2.260   4.982
 7851SOL     OW24451   4.350   6.343   1.047
 7851SOL    HW124452   4.420   6.413   1.060
 7851SOL    HW224453   4.354   6.278   1.123
 7852SOL     OW24454   2.390   6.500   0.444
 7852SOL    HW124455   2.487   6.517   0.426
 7852SOL    HW224456   2.365   6.410   0.409
 7853SOL     OW24457   2.176   2.312   0.319
 7853SOL    HW124458   2.142   2.255   0.394
 7853SOL    HW224459   2.139   2.405   0.328
 7854SOL     OW24460   3.189   4.027   3.224
 7854SOL    HW124461   3.133   3.960   3.175
 7854SOL    HW224462   3.178   4.014   3.323
 7855SOL     OW24463   3.547   6.884   5.160
 7855SOL    HW124464   3.542   6.802   5.218
 7855SOL    HW224465   3.626   6.877   5.099
 7856SOL     OW24466   2.836   3.334   6.815
 7856SOL    HW124467   2.898   3.290   6.879
 7856SOL    HW224468   2.887   3.363   6.734
 7857SOL     OW24469   0.642   3.218   5.764
 7857SOL    HW124470   0.593   3.250   5.682
 7857SOL    HW224471   0.701   3.291   5.799
 7858SOL     OW24472   6.334   3.619   3.103
 7858SOL    HW124473   6.366   3.557   3.031
 7858SOL    HW224474   6.267   3.572   3.160
 7859SOL     OW24475   0.821   6.230   0.599
 7859SOL    HW124476   0.913   6.198   0.619
 7859SOL    HW224477   0.776   6.165   0.537
 7860SOL     OW24478   4.394   6.457   1.470
 7860SOL    HW124479   4.333   6.527   1.507
 7860SOL    HW224480   4.401   6.381   1.535
 7861SOL     OW24481   5.320   3.469   0.632
 7861SOL    HW124482   5.242   3.410   0.655
 7861SOL    HW224483   5.394   3.454   0.697
 7862SOL     OW24484   2.956   4.756   1.797
 7862SOL    HW124485   2.918   4.670   1.832
 7862SOL    HW224486   3.032   4.735   1.735
 7863SOL     OW24487   5.173   5.727   2.487
 7863SOL    HW124488   5.173   5.815   2.439
 7863SOL    HW224489   5.165   5.653   2.421
 7864SOL     OW24490   0.793   6.132   4.540
 7864SOL    HW124491   0.884   6.094   4.526
 7864SOL    HW224492   0.725   6.058   4.534
 7865SOL     OW24493   4.276   0.880   3.218
 7865SOL    HW124494   4.345   0.880   3.146
 7865SOL    HW224495   4.251   0.974   3.240
 7866SOL     OW24496   2.139   2.135   5.019
 7866SOL    HW124497   2.051   2.175   4.992
 7866SOL    HW224498   2.208   2.208   5.025
 7867SOL     OW24499   5.966   4.036   2.002
 7867SOL    HW124500   5.905   3.962   2.030
 7867SOL    HW224501   5.956   4.113   2.064
 7868SOL     OW24502   5.186   7.004   0.816
 7868SOL    HW124503   5.249   0.052   0.848
 7868SOL    HW224504   5.237   6.927   0.780
 7869SOL     OW24505   6.177   1.848   4.144
 7869SOL    HW124506   6.201   1.902   4.063
 7869SOL    HW224507   6.258   1.800   4.178
 7870SOL     OW24508   6.173   6.830   3.009
 7870SOL    HW124509   6.154   6.841   2.912
 7870SOL    HW224510   6.268   6.853   3.028
 7871SOL     OW24511   6.261   2.956   4.180
 7871SOL    HW124512   6.348   2.989   4.144
 7871SOL    HW224513   6.188   3.017   4.151
 7872SOL     OW24514   6.891   4.184   4.720
 7872SOL    HW124515   6.958   4.113   4.745
 7872SOL    HW224516   6.940   4.265   4.687
 7873SOL     OW24517   6.968   5.774   4.805
 7873SOL    HW124518   6.998   5.862   4.770
 7873SOL    HW224519   7.014   5.701   4.755
 7874SOL     OW24520   6.414   0.605   0.477
 7874SOL    HW124521   6.387   0.564   0.564
 7874SOL    HW224522   6.490   0.669   0.492
 7875SOL     OW24523   5.100   3.301   0.599
 7875SOL    HW124524   5.166   3.239   0.641
 7875SOL    HW224525   5.090   3.279   0.502
 7876SOL     OW24526   0.225   1.080   5.155
 7876SOL    HW124527   0.130   1.050   5.154
 7876SOL    HW224528   0.241   1.135   5.237
 7877SOL     OW24529   6.296   2.881   3.067
 7877SOL    HW124530   6.199   2.858   3.066
 7877SOL    HW224531   6.339   2.852   2.982
 7878SOL     OW24532   4.097   3.739   1.488
 7878SOL    HW124533   4.084   3.827   1.535
 7878SOL    HW224534   4.054   3.666   1.542
 7879SOL     OW24535   6.565   0.840   4.890
 7879SOL    HW124536   6.520   0.875   4.808
 7879SOL    HW224537   6.534   0.891   4.970
 7880SOL     OW24538   1.884   6.680   5.939
 7880SOL    HW124539   1.974   6.677   5.896
 7880SOL    HW224540   1.835   6.594   5.920
 7881SOL     OW24541   0.955   5.201   4.286
 7881SOL    HW124542   0.874   5.260   4.284
 7881SOL    HW224543   0.942   5.124   4.224
 7882SOL     OW24544   1.800   4.864   1.803
 7882SOL    HW124545   1.800   4.944   1.743
 7882SOL    HW224546   1.713   4.815   1.794
 7883SOL     OW24547   3.560   2.084   2.675
 7883SOL    HW124548   3.640   2.120   2.627
 7883SOL    HW224549   3.588   2.010   2.735
 7884SOL     OW24550   0.544   3.456   4.509
 7884SOL    HW124551   0.575   3.382   4.569
 7884SOL    HW224552   0.464   3.425   4.458
 7885SOL     OW24553   6.084   5.210   2.213
 7885SOL    HW124554   6.009   5.240   2.272
 7885SOL    HW224555   6.140   5.289   2.188
 7886SOL     OW24556   4.819   3.922   2.511
 7886SOL    HW124557   4.756   3.857   2.553
 7886SOL    HW224558   4.910   3.912   2.552
 7887SOL     OW24559   0.820   3.319   1.528
 7887SOL    HW124560   0.839   3.253   1.456
 7887SOL    HW224561   0.905   3.340   1.577
 7888SOL     OW24562   6.485   0.976   5.128
 7888SOL    HW124563   6.500   1.073   5.107
 7888SOL    HW224564   6.515   0.956   5.221
 7889SOL     OW24565   5.965   5.198   0.698
 7889SOL    HW124566   5.905   5.146   0.637
 7889SOL    HW224567   5.923   5.286   0.720
 7890SOL     OW24568   2.238   2.852   3.566
 7890SOL    HW124569   2.142   2.823   3.563
 7890SOL    HW224570   2.287   2.798   3.634
 7891SOL     OW24571   6.379   1.711   4.286
 7891SOL    HW124572   6.391   1.617   4.318
 7891SOL    HW224573   6.315   1.759   4.346
 7892SOL     OW24574   0.852   1.654   5.393
 7892SOL    HW124575   0.777   1.693   5.339
 7892SOL    HW224576   0.829   1.561   5.420
 7893SOL     OW24577   6.213   6.668   0.814
 7893SOL    HW124578   6.236   6.610   0.892
 7893SOL    HW224579   6.142   6.623   0.759
 7894SOL     OW24580   3.042   0.936   7.011
 7894SOL    HW124581   3.066   0.920   0.084
 7894SOL    HW224582   2.943   0.932   7.000
 7895SOL     OW24583   6.457   6.012   2.646
 7895SOL    HW124584   6.509   5.937   2.688
 7895SOL    HW224585   6.367   6.018   2.689
 7896SOL     OW24586   2.303   1.469   0.310
 7896SOL    HW124587   2.344   1.538   0.250
 7896SOL    HW224588   2.262   1.515   0.390
 7897SOL     OW24589   3.683   2.034   0.803
 7897SOL    HW124590   3.592   2.068   0.779
 7897SOL    HW224591   3.749   2.109   0.796
 7898SOL     OW24592   5.205   6.728   3.265
 7898SOL    HW124593   5.149   6.776   3.333
 7898SOL    HW224594   5.200   6.629   3.283
 7899SOL     OW24595   6.070   4.505   3.804
 7899SOL    HW124596   5.998   4.439   3.824
 7899SOL    HW224597   6.144   4.495   3.871
 7900SOL     OW24598   0.305   3.580   0.256
 7900SOL    HW124599   0.398   3.552   0.229
 7900SOL    HW224600   0.306   3.612   0.350
 7901SOL     OW24601   0.345   2.326   0.199
 7901SOL    HW124602   0.258   2.335   0.249
 7901SOL    HW224603   0.355   2.232   0.168
 7902SOL     OW24604   1.763   6.255   1.738
 7902SOL    HW124605   1.754   6.242   1.639
 7902SOL    HW224606   1.860   6.266   1.761
 7903SOL     OW24607   2.762   2.233   5.427
 7903SOL    HW124608   2.844   2.290   5.438
 7903SOL    HW224609   2.683   2.291   5.409
 7904SOL     OW24610   4.490   2.523   2.622
 7904SOL    HW124611   4.403   2.541   2.669
 7904SOL    HW224612   4.473   2.468   2.541
 7905SOL     OW24613   6.115   2.469   1.186
 7905SOL    HW124614   6.050   2.544   1.194
 7905SOL    HW224615   6.131   2.428   1.276
 7906SOL     OW24616   0.914   5.123   6.413
 7906SOL    HW124617   0.979   5.171   6.472
 7906SOL    HW224618   0.839   5.087   6.467
 7907SOL     OW24619   6.140   6.501   2.116
 7907SOL    HW124620   6.196   6.555   2.180
 7907SOL    HW224621   6.201   6.447   2.057
 7908SOL     OW24622   1.982   6.497   6.671
 7908SOL    HW124623   1.935   6.459   6.750
 7908SOL    HW224624   1.920   6.495   6.592
 7909SOL     OW24625   6.422   3.762   1.258
 7909SOL    HW124626   6.349   3.715   1.306
 7909SOL    HW224627   6.447   3.845   1.308
 7910SOL     OW24628   1.371   4.385   5.783
 7910SOL    HW124629   1.306   4.404   5.709
 7910SOL    HW224630   1.329   4.322   5.848
 7911SOL     OW24631   5.855   4.147   6.079
 7911SOL    HW124632   5.763   4.122   6.109
 7911SOL    HW224633   5.858   4.245   6.057
 7912SOL     OW24634   5.914   5.459   0.776
 7912SOL    HW124635   5.927   5.487   0.681
 7912SOL    HW224636   5.923   5.538   0.836
 7913SOL     OW24637   1.704   4.812   6.668
 7913SOL    HW124638   1.651   4.738   6.627
 7913SOL    HW224639   1.796   4.812   6.629
 7914SOL     OW24640   0.725   6.682   4.725
 7914SOL    HW124641   0.802   6.735   4.757
 7914SOL    HW224642   0.674   6.735   4.657
 7915SOL     OW24643   3.128   4.873   2.312
 7915SOL    HW124644   3.060   4.807   2.281
 7915SOL    HW224645   3.086   4.963   2.321
 7916SOL     OW24646   1.104   0.294   3.833
 7916SOL    HW124647   1.165   0.259   3.904
 7916SOL    HW224648   1.052   0.218   3.794
 7917SOL     OW24649   4.692   1.662   2.084
 7917SOL    HW124650   4.755   1.623   2.151
 7917SOL    HW224651   4.599   1.631   2.103
 7918SOL     OW24652   2.299   2.862   3.237
 7918SOL    HW124653   2.291   2.954   3.275
 7918SOL    HW224654   2.331   2.869   3.142
 7919SOL     OW24655   1.152   6.702   4.706
 7919SOL    HW124656   1.077   6.761   4.739
 7919SOL    HW224657   1.121   6.651   4.626
 7920SOL     OW24658   4.757   0.689   1.161
 7920SOL    HW124659   4.781   0.782   1.188
 7920SOL    HW224660   4.755   0.631   1.242
 7921SOL     OW24661   5.262   2.162   1.026
 7921SOL    HW124662   5.280   2.255   0.994
 7921SOL    HW224663   5.229   2.106   0.950
 7922SOL     OW24664   2.625   0.197   2.095
 7922SOL    HW124665   2.668   0.287   2.080
 7922SOL    HW224666   2.684   0.126   2.058
 7923SOL     OW24667   4.100   1.257   6.913
 7923SOL    HW124668   4.003   1.249   6.893
 7923SOL    HW224669   4.114   1.259   7.012
 7924SOL     OW24670   5.755   5.683   0.376
 7924SOL    HW124671   5.803   5.604   0.412
 7924SOL    HW224672   5.799   5.713   0.291
 7925SOL     OW24673   1.470   5.266   6.544
 7925SOL    HW124674   1.447   5.352   6.590
 7925SOL    HW224675   1.420   5.191   6.587
 7926SOL     OW24676   5.527   5.841   6.358
 7926SOL    HW124677   5.436   5.815   6.389
 7926SOL    HW224678   5.567   5.766   6.305
 7927SOL     OW24679   4.270   6.847   3.237
 7927SOL    HW124680   4.328   6.925   3.261
 7927SOL    HW224681   4.321   6.762   3.253
 7928SOL     OW24682   5.873   2.270   3.505
 7928SOL    HW124683   5.844   2.195   3.447
 7928SOL    HW224684   5.808   2.282   3.580
 7929SOL     OW24685   4.455   4.370   6.054
 7929SOL    HW124686   4.541   4.358   6.004
 7929SOL    HW224687   4.383   4.397   5.990
 7930SOL     OW24688   4.285   6.358   6.418
 7930SOL    HW124689   4.329   6.368   6.328
 7930SOL    HW224690   4.255   6.447   6.450
 7931SOL     OW24691   4.109   1.428   1.332
 7931SOL    HW124692   4.186   1.366   1.316
 7931SOL    HW224693   4.030   1.375   1.364
 7932SOL     OW24694   1.333   3.962   1.763
 7932SOL    HW124695   1.387   4.038   1.800
 7932SOL    HW224696   1.247   3.997   1.725
 7933SOL     OW24697   1.103   1.875   6.961
 7933SOL    HW124698   1.019   1.876   6.907
 7933SOL    HW224699   1.084   1.839   0.029
 7934SOL     OW24700   0.807   5.463   1.108
 7934SOL    HW124701   0.741   5.433   1.040
 7934SOL    HW224702   0.890   5.496   1.063
 7935SOL     OW24703   6.567   2.988   3.363
 7935SOL    HW124704   6.468   2.987   3.353
 7935SOL    HW224705   6.609   3.015   3.277
 7936SOL     OW24706   2.081   5.453   3.559
 7936SOL    HW124707   1.997   5.495   3.523
 7936SOL    HW224708   2.062   5.415   3.650
 7937SOL     OW24709   4.272   0.966   0.680
 7937SOL    HW124710   4.354   0.914   0.701
 7937SOL    HW224711   4.265   1.044   0.743
 7938SOL     OW24712   2.603   6.910   3.369
 7938SOL    HW124713   2.657   6.964   3.434
 7938SOL    HW224714   2.660   6.835   3.334
 7939SOL     OW24715   0.672   0.831   2.836
 7939SOL    HW124716   0.738   0.906   2.844
 7939SOL    HW224717   0.601   0.842   2.905
 7940SOL     OW24718   5.911   1.589   4.363
 7940SOL    HW124719   5.882   1.539   4.445
 7940SOL    HW224720   5.978   1.535   4.313
 7941SOL     OW24721   3.500   6.975   1.040
 7941SOL    HW124722   3.578   6.912   1.041
 7941SOL    HW224723   3.490   7.017   1.130
 7942SOL     OW24724   1.538   4.241   0.920
 7942SOL    HW124725   1.564   4.327   0.875
 7942SOL    HW224726   1.620   4.190   0.944
 7943SOL     OW24727   1.243   6.067   6.071
 7943SOL    HW124728   1.200   6.142   6.122
 7943SOL    HW224729   1.299   6.105   5.998
 7944SOL     OW24730   1.062   2.049   1.306
 7944SOL    HW124731   1.144   2.031   1.252
 7944SOL    HW224732   1.048   2.148   1.314
 7945SOL     OW24733   6.184   3.832   2.966
 7945SOL    HW124734   6.246   3.790   3.033
 7945SOL    HW224735   6.115   3.765   2.938
 7946SOL     OW24736   4.582   1.969   6.662
 7946SOL    HW124737   4.501   1.958   6.719
 7946SOL    HW224738   4.620   2.060   6.677
 7947SOL     OW24739   6.743   3.826   5.838
 7947SOL    HW124740   6.684   3.761   5.886
 7947SOL    HW224741   6.799   3.777   5.771
 7948SOL     OW24742   1.312   5.729   1.530
 7948SOL    HW124743   1.351   5.637   1.533
 7948SOL    HW224744   1.212   5.723   1.532
 7949SOL     OW24745   2.394   5.556   5.947
 7949SOL    HW124746   2.459   5.543   6.022
 7949SOL    HW224747   2.394   5.476   5.887
 7950SOL     OW24748   6.817   4.538   5.710
 7950SOL    HW124749   6.806   4.484   5.626
 7950SOL    HW224750   6.889   4.607   5.696
 7951SOL     OW24751   4.443   6.504   2.758
 7951SOL    HW124752   4.502   6.570   2.712
 7951SOL    HW224753   4.392   6.550   2.831
 7952SOL     OW24754   6.680   3.860   5.136
 7952SOL    HW124755   6.695   3.954   5.165
 7952SOL    HW224756   6.734   3.841   5.054
 7953SOL     OW24757   1.606   0.090   0.270
 7953SOL    HW124758   1.591   0.125   0.177
 7953SOL    HW224759   1.566   7.022   0.277
 7954SOL     OW24760   3.756   3.621   7.022
 7954SOL    HW124761   3.710   3.640   0.086
 7954SOL    HW224762   3.842   3.671   7.018
 7955SOL     OW24763   1.153   0.899   6.535
 7955SOL    HW124764   1.070   0.900   6.591
 7955SOL    HW224765   1.143   0.830   6.462
 7956SOL     OW24766   0.643   6.444   0.617
 7956SOL    HW124767   0.673   6.533   0.586
 7956SOL    HW224768   0.715   6.377   0.603
 7957SOL     OW24769   5.139   1.781   5.937
 7957SOL    HW124770   5.129   1.704   5.875
 7957SOL    HW224771   5.166   1.748   6.028
 7958SOL     OW24772   4.512   2.274   6.958
 7958SOL    HW124773   4.474   2.344   7.018
 7958SOL    HW224774   4.567   2.210   7.011
 7959SOL     OW24775   5.331   2.529   0.264
 7959SOL    HW124776   5.311   2.621   0.298
 7959SOL    HW224777   5.246   2.486   0.235
 7960SOL     OW24778   0.927   1.129   5.613
 7960SOL    HW124779   0.965   1.044   5.575
 7960SOL    HW224780   0.990   1.165   5.682
 7961SOL     OW24781   5.992   0.040   0.364
 7961SOL    HW124782   5.953   0.122   0.324
 7961SOL    HW224783   6.090   0.035   0.342
 7962SOL     OW24784   5.771   0.055   5.039
 7962SOL    HW124785   5.858   0.086   5.078
 7962SOL    HW224786   5.789   0.001   4.957
 7963SOL     OW24787   6.451   6.222   3.549
 7963SOL    HW124788   6.417   6.311   3.520
 7963SOL    HW224789   6.487   6.173   3.469
 7964SOL     OW24790   6.230   3.647   1.427
 7964SOL    HW124791   6.170   3.721   1.457
 7964SOL    HW224792   6.306   3.638   1.490
 7965SOL     OW24793   5.368   1.904   6.441
 7965SOL    HW124794   5.345   1.977   6.505
 7965SOL    HW224795   5.328   1.925   6.352
 7966SOL     OW24796   5.113   3.755   5.299
 7966SOL    HW124797   5.172   3.754   5.219
 7966SOL    HW224798   5.160   3.801   5.374
 7967SOL     OW24799   1.122   5.122   0.239
 7967SOL    HW124800   1.193   5.061   0.271
 7967SOL    HW224801   1.107   5.107   0.141
 7968SOL     OW24802   1.527   2.522   4.216
 7968SOL    HW124803   1.443   2.495   4.262
 7968SOL    HW224804   1.557   2.449   4.155
 7969SOL     OW24805   3.404   4.816   0.048
 7969SOL    HW124806   3.495   4.781   0.068
 7969SOL    HW224807   3.337   4.742   0.059
 7970SOL     OW24808   6.040   2.841   4.460
 7970SOL    HW124809   6.027   2.754   4.412
 7970SOL    HW224810   6.080   2.908   4.397
 7971SOL     OW24811   2.949   1.190   6.882
 7971SOL    HW124812   2.967   1.114   6.944
 7971SOL    HW224813   2.906   1.264   6.933
 7972SOL     OW24814   3.342   3.964   4.064
 7972SOL    HW124815   3.376   3.907   3.989
 7972SOL    HW224816   3.372   3.926   4.151
 7973SOL     OW24817   6.077   4.773   1.956
 7973SOL    HW124818   6.098   4.868   1.980
 7973SOL    HW224819   6.005   4.772   1.887
 7974SOL     OW24820   0.369   3.023   4.794
 7974SOL    HW124821   0.399   2.942   4.745
 7974SOL    HW224822   0.433   3.043   4.868
 7975SOL     OW24823   4.523   0.576   0.471
 7975SOL    HW124824   4.597   0.530   0.423
 7975SOL    HW224825   4.530   0.559   0.569
 7976SOL     OW24826   0.952   0.760   0.422
 7976SOL    HW124827   0.896   0.801   0.494
 7976SOL    HW224828   0.994   0.676   0.456
 7977SOL     OW24829   5.394   5.377   3.116
 7977SOL    HW124830   5.433   5.288   3.139
 7977SOL    HW224831   5.464   5.434   3.074
 7978SOL     OW24832   0.581   4.148   1.636
 7978SOL    HW124833   0.485   4.174   1.647
 7978SOL    HW224834   0.587   4.065   1.582
 7979SOL     OW24835   2.506   2.170   5.096
 7979SOL    HW124836   2.587   2.221   5.068
 7979SOL    HW224837   2.534   2.088   5.145
 7980SOL     OW24838   3.506   5.416   1.452
 7980SOL    HW124839   3.593   5.451   1.417
 7980SOL    HW224840   3.492   5.450   1.545
 7981SOL     OW24841   1.733   3.857   4.134
 7981SOL    HW124842   1.735   3.954   4.108
 7981SOL    HW224843   1.743   3.849   4.234
 7982SOL     OW24844   6.911   1.083   5.838
 7982SOL    HW124845   6.914   0.984   5.856
 7982SOL    HW224846   6.958   1.103   5.753
 7983SOL     OW24847   4.162   0.669   2.028
 7983SOL    HW124848   4.156   0.571   2.012
 7983SOL    HW224849   4.101   0.717   1.965
 7984SOL     OW24850   6.774   2.949   2.781
 7984SOL    HW124851   6.825   2.997   2.709
 7984SOL    HW224852   6.678   2.974   2.776
 7985SOL     OW24853   3.200   2.913   5.441
 7985SOL    HW124854   3.125   2.922   5.376
 7985SOL    HW224855   3.271   2.853   5.403
 7986SOL     OW24856   3.981   0.926   4.035
 7986SOL    HW124857   3.951   1.015   4.000
 7986SOL    HW224858   3.928   0.853   3.992
 7987SOL     OW24859   0.912   3.545   6.684
 7987SOL    HW124860   0.870   3.635   6.680
 7987SOL    HW224861   1.011   3.553   6.672
 7988SOL     OW24862   6.620   0.782   1.315
 7988SOL    HW124863   6.604   0.736   1.228
 7988SOL    HW224864   6.678   0.862   1.300
 7989SOL     OW24865   0.738   4.473   0.737
 7989SOL    HW124866   0.733   4.405   0.664
 7989SOL    HW224867   0.655   4.528   0.738
 7990SOL     OW24868   4.757   5.360   4.794
 7990SOL    HW124869   4.838   5.390   4.845
 7990SOL    HW224870   4.780   5.352   4.697
 7991SOL     OW24871   5.835   1.094   4.719
 7991SOL    HW124872   5.875   1.038   4.793
 7991SOL    HW224873   5.903   1.160   4.687
 7992SOL     OW24874   2.172   6.774   0.184
 7992SOL    HW124875   2.141   6.864   0.216
 7992SOL    HW224876   2.151   6.705   0.253
 7993SOL     OW24877   6.356   6.143   0.477
 7993SOL    HW124878   6.429   6.082   0.509
 7993SOL    HW224879   6.272   6.091   0.463
 7994SOL     OW24880   6.703   0.671   4.220
 7994SOL    HW124881   6.643   0.714   4.152
 7994SOL    HW224882   6.759   0.741   4.264
 7995SOL     OW24883   0.728   5.562   1.345
 7995SOL    HW124884   0.776   5.527   1.264
 7995SOL    HW224885   0.790   5.618   1.399
 7996SOL     OW24886   2.344   0.153   3.248
 7996SOL    HW124887   2.417   0.180   3.184
 7996SOL    HW224888   2.272   0.222   3.247
 7997SOL     OW24889   2.132   1.877   5.583
 7997SOL    HW124890   2.178   1.848   5.499
 7997SOL    HW224891   2.138   1.804   5.652
 7998SOL     OW24892   2.326   1.019   0.729
 7998SOL    HW124893   2.388   1.097   0.722
 7998SOL    HW224894   2.379   0.935   0.741
 7999SOL     OW24895   0.694   0.184   3.720
 7999SOL    HW124896   0.792   0.201   3.721
 7999SOL    HW224897   0.658   0.205   3.629
 8000SOL     OW24898   4.210   5.566   1.283
 8000SOL    HW124899   4.210   5.480   1.232
 8000SOL    HW224900   4.129   5.620   1.258
 8001SOL     OW24901   4.537   4.230   1.349
 8001SOL    HW124902   4.469   4.239   1.422
 8001SOL    HW224903   4.528   4.307   1.286
 8002SOL     OW24904   1.232   0.209   4.888
 8002SOL    HW124905   1.242   0.137   4.819
 8002SOL    HW224906   1.177   0.284   4.849
 8003SOL     OW24907   3.180   5.768   2.644
 8003SOL    HW124908   3.145   5.856   2.613
 8003SOL    HW224909   3.112   5.697   2.626
 8004SOL     OW24910   1.434   3.582   4.166
 8004SOL    HW124911   1.500   3.596   4.239
 8004SOL    HW224912   1.418   3.669   4.119
 8005SOL     OW24913   1.992   0.626   3.447
 8005SOL    HW124914   2.013   0.712   3.493
 8005SOL    HW224915   2.059   0.557   3.473
 8006SOL     OW24916   4.536   5.415   5.724
 8006SOL    HW124917   4.554   5.390   5.628
 8006SOL    HW224918   4.519   5.332   5.776
 8007SOL     OW24919   0.528   0.914   0.898
 8007SOL    HW124920   0.609   0.861   0.923
 8007SOL    HW224921   0.555   1.005   0.867
 8008SOL     OW24922   4.633   5.017   0.640
 8008SOL    HW124923   4.717   5.062   0.669
 8008SOL    HW224924   4.555   5.057   0.687
 8009SOL     OW24925   6.475   1.395   0.549
 8009SOL    HW124926   6.399   1.356   0.496
 8009SOL    HW224927   6.458   1.492   0.563
 8010SOL     OW24928   3.358   0.542   5.706
 8010SOL    HW124929   3.270   0.524   5.662
 8010SOL    HW224930   3.414   0.599   5.645
 8011SOL     OW24931   3.936   1.848   2.491
 8011SOL    HW124932   4.004   1.828   2.421
 8011SOL    HW224933   3.911   1.764   2.539
 8012SOL     OW24934   6.375   1.183   4.245
 8012SOL    HW124935   6.425   1.153   4.326
 8012SOL    HW224936   6.436   1.180   4.165
 8013SOL     OW24937   3.572   0.977   3.147
 8013SOL    HW124938   3.483   1.004   3.111
 8013SOL    HW224939   3.600   1.040   3.219
 8014SOL     OW24940   2.686   2.381   2.793
 8014SOL    HW124941   2.745   2.303   2.815
 8014SOL    HW224942   2.711   2.417   2.703
 8015SOL     OW24943   3.677   0.010   4.263
 8015SOL    HW124944   3.742   6.983   4.206
 8015SOL    HW224945   3.668   0.104   4.229
 8016SOL     OW24946   3.802   2.473   5.345
 8016SOL    HW124947   3.755   2.410   5.283
 8016SOL    HW224948   3.889   2.432   5.373
 8017SOL     OW24949   6.069   5.797   1.211
 8017SOL    HW124950   6.017   5.831   1.290
 8017SOL    HW224951   6.095   5.701   1.228
 8018SOL     OW24952   3.470   3.087   0.447
 8018SOL    HW124953   3.397   3.152   0.425
 8018SOL    HW224954   3.557   3.136   0.457
 8019SOL     OW24955   2.680   3.223   0.439
 8019SOL    HW124956   2.761   3.176   0.404
 8019SOL    HW224957   2.674   3.313   0.398
 8020SOL     OW24958   0.340   0.438   6.279
 8020SOL    HW124959   0.250   0.428   6.238
 8020SOL    HW224960   0.330   0.469   6.374
 8021SOL     OW24961   1.059   3.248   0.460
 8021SOL    HW124962   1.154   3.252   0.491
 8021SOL    HW224963   1.010   3.177   0.512
 8022SOL     OW24964   4.265   6.877   2.248
 8022SOL    HW124965   4.302   6.906   2.336
 8022SOL    HW224966   4.339   6.874   2.180
 8023SOL     OW24967   4.391   5.632   2.109
 8023SOL    HW124968   4.338   5.611   2.028
 8023SOL    HW224969   4.331   5.636   2.189
 8024SOL     OW24970   2.779   0.968   0.016
 8024SOL    HW124971   2.728   1.047   7.005
 8024SOL    HW224972   2.730   0.884   7.015
 8025SOL     OW24973   0.857   6.316   1.983
 8025SOL    HW124974   0.817   6.288   1.896
 8025SOL    HW224975   0.925   6.249   2.012
 8026SOL     OW24976   0.982   6.242   6.522
 8026SOL    HW124977   0.886   6.262   6.504
 8026SOL    HW224978   1.025   6.322   6.566
 8027SOL     OW24979   3.551   0.338   6.684
 8027SOL    HW124980   3.508   0.255   6.648
 8027SOL    HW224981   3.587   0.320   6.775
 8028SOL     OW24982   3.699   5.941   5.880
 8028SOL    HW124983   3.648   6.027   5.873
 8028SOL    HW224984   3.699   5.895   5.791
 8029SOL     OW24985   1.149   0.553   1.529
 8029SOL    HW124986   1.132   0.469   1.478
 8029SOL    HW224987   1.078   0.563   1.599
 8030SOL     OW24988   0.987   4.438   1.021
 8030SOL    HW124989   1.065   4.476   1.070
 8030SOL    HW224990   1.009   4.432   0.923
 8031SOL     OW24991   6.820   0.568   2.307
 8031SOL    HW124992   6.860   0.659   2.321
 8031SOL    HW224993   6.893   0.501   2.297
 8032SOL     OW24994   0.136   2.288   0.344
 8032SOL    HW124995   0.152   2.227   0.422
 8032SOL    HW224996   0.145   2.383   0.374
 8033SOL     OW24997   3.823   4.058   1.401
 8033SOL    HW124998   3.869   4.043   1.314
 8033SOL    HW224999   3.888   4.047   1.476
 8034SOL     OW25000   0.251   0.172   5.607
 8034SOL    HW125001   0.327   0.234   5.589
 8034SOL    HW225002   0.280   0.078   5.593
 8035SOL     OW25003   6.406   0.136   3.980
 8035SOL    HW125004   6.437   0.050   4.021
 8035SOL    HW225005   6.327   0.170   4.030
 8036SOL     OW25006   5.109   2.990   4.438
 8036SOL    HW125007   5.177   3.061   4.419
 8036SOL    HW225008   5.155   2.903   4.455
 8037SOL     OW25009   2.319   0.770   6.086
 8037SOL    HW125010   2.414   0.796   6.106
 8037SOL    HW225011   2.313   0.670   6.078
 8038SOL     OW25012   6.665   5.417   1.989
 8038SOL    HW125013   6.654   5.410   1.890
 8038SOL    HW225014   6.708   5.504   2.012
 8039SOL     OW25015   1.978   2.526   5.104
 8039SOL    HW125016   1.956   2.465   5.180
 8039SOL    HW225017   2.026   2.607   5.139
 8040SOL     OW25018   0.682   6.004   6.306
 8040SOL    HW125019   0.774   5.981   6.337
 8040SOL    HW225020   0.675   5.990   6.207
 8041SOL     OW25021   3.171   1.637   3.216
 8041SOL    HW125022   3.220   1.710   3.168
 8041SOL    HW225023   3.131   1.575   3.148
 8042SOL     OW25024   3.711   4.288   5.999
 8042SOL    HW125025   3.747   4.273   6.091
 8042SOL    HW225026   3.656   4.371   5.998
 8043SOL     OW25027   5.088   5.622   6.969
 8043SOL    HW125028   5.044   5.548   7.019
 8043SOL    HW225029   5.022   5.695   6.951
 8044SOL     OW25030   2.088   2.870   1.270
 8044SOL    HW125031   2.185   2.847   1.284
 8044SOL    HW225032   2.031   2.804   1.319
 8045SOL     OW25033   6.440   3.861   4.568
 8045SOL    HW125034   6.525   3.829   4.526
 8045SOL    HW225035   6.433   3.825   4.661
 8046SOL     OW25036   0.389   4.510   1.252
 8046SOL    HW125037   0.380   4.438   1.183
 8046SOL    HW225038   0.318   4.498   1.322
 8047SOL     OW25039   3.103   6.138   6.592
 8047SOL    HW125040   3.188   6.093   6.621
 8047SOL    HW225041   3.029   6.112   6.654
 8048SOL     OW25042   4.131   2.224   5.590
 8048SOL    HW125043   4.098   2.152   5.528
 8048SOL    HW225044   4.098   2.206   5.682
 8049SOL     OW25045   1.510   1.454   0.189
 8049SOL    HW125046   1.489   1.382   0.123
 8049SOL    HW225047   1.532   1.413   0.277
 8050SOL     OW25048   0.573   4.752   6.400
 8050SOL    HW125049   0.544   4.799   6.484
 8050SOL    HW225050   0.532   4.660   6.398
 8051SOL     OW25051   4.567   6.882   3.543
 8051SOL    HW125052   4.490   6.944   3.555
 8051SOL    HW225053   4.652   6.935   3.541
 8052SOL     OW25054   3.094   1.937   2.464
 8052SOL    HW125055   3.031   2.013   2.485
 8052SOL    HW225056   3.188   1.968   2.476
 8053SOL     OW25057   1.799   2.342   6.771
 8053SOL    HW125058   1.846   2.261   6.807
 8053SOL    HW225059   1.702   2.337   6.793
 8054SOL     OW25060   5.045   3.458   4.937
 8054SOL    HW125061   4.966   3.499   4.981
 8054SOL    HW225062   5.028   3.447   4.839
 8055SOL     OW25063   6.605   0.063   6.653
 8055SOL    HW125064   6.605   0.076   6.752
 8055SOL    HW225065   6.521   0.101   6.614
 8056SOL     OW25066   2.052   1.431   3.831
 8056SOL    HW125067   2.133   1.374   3.817
 8056SOL    HW225068   2.073   1.526   3.807
 8057SOL     OW25069   2.974   2.223   2.293
 8057SOL    HW125070   2.949   2.298   2.232
 8057SOL    HW225071   2.929   2.139   2.262
 8058SOL     OW25072   3.854   6.123   1.943
 8058SOL    HW125073   3.882   6.027   1.943
 8058SOL    HW225074   3.895   6.170   1.864
 8059SOL     OW25075   2.895   2.840   5.780
 8059SOL    HW125076   2.800   2.825   5.754
 8059SOL    HW225077   2.935   2.910   5.720
 8060SOL     OW25078   6.725   0.992   6.121
 8060SOL    HW125079   6.750   1.041   6.205
 8060SOL    HW225080   6.626   0.983   6.116
 8061SOL     OW25081   6.857   0.910   2.084
 8061SOL    HW125082   6.765   0.873   2.099
 8061SOL    HW225083   6.921   0.869   2.148
 8062SOL     OW25084   4.474   4.818   5.604
 8062SOL    HW125085   4.548   4.787   5.545
 8062SOL    HW225086   4.389   4.825   5.551
 8063SOL     OW25087   2.643   4.698   2.954
 8063SOL    HW125088   2.612   4.661   3.042
 8063SOL    HW225089   2.737   4.730   2.962
 8064SOL     OW25090   6.658   1.826   0.562
 8064SOL    HW125091   6.587   1.816   0.631
 8064SOL    HW225092   6.743   1.856   0.606
 8065SOL     OW25093   4.524   6.642   6.879
 8065SOL    HW125094   4.464   6.630   6.800
 8065SOL    HW225095   4.555   6.552   6.911
 8066SOL     OW25096   0.318   7.007   6.285
 8066SOL    HW125097   0.339   6.969   6.375
 8066SOL    HW225098   0.385   0.055   6.262
 8067SOL     OW25099   5.641   0.916   4.203
 8067SOL    HW125100   5.677   0.924   4.296
 8067SOL    HW225101   5.553   0.868   4.205
 8068SOL     OW25102   6.817   3.348   1.652
 8068SOL    HW125103   6.736   3.333   1.707
 8068SOL    HW225104   6.826   3.446   1.632
 8069SOL     OW25105   1.543   3.037   2.585
 8069SOL    HW125106   1.582   3.102   2.520
 8069SOL    HW225107   1.614   2.973   2.616
 8070SOL     OW25108   5.046   3.939   1.112
 8070SOL    HW125109   5.069   3.878   1.037
 8070SOL    HW225110   5.118   4.006   1.125
 8071SOL     OW25111   2.824   0.288   6.045
 8071SOL    HW125112   2.825   0.241   5.957
 8071SOL    HW225113   2.738   0.268   6.092
 8072SOL     OW25114   2.460   2.080   4.842
 8072SOL    HW125115   2.385   2.145   4.844
 8072SOL    HW225116   2.545   2.127   4.866
 8073SOL     OW25117   5.037   0.427   0.069
 8073SOL    HW125118   4.977   0.507   0.070
 8073SOL    HW225119   5.045   0.393   6.999
 8074SOL     OW25120   6.761   0.502   6.983
 8074SOL    HW125121   6.690   0.567   6.957
 8074SOL    HW225122   6.825   0.490   6.907
 8075SOL     OW25123   0.323   7.010   0.709
 8075SOL    HW125124   0.278   6.955   0.638
 8075SOL    HW225125   0.381   6.950   0.765
 8076SOL     OW25126   6.805   6.104   0.576
 8076SOL    HW125127   6.770   6.032   0.515
 8076SOL    HW225128   6.738   6.178   0.581
 8077SOL     OW25129   5.850   4.509   1.001
 8077SOL    HW125130   5.804   4.425   1.030
 8077SOL    HW225131   5.871   4.565   1.081
 8078SOL     OW25132   6.463   0.766   1.555
 8078SOL    HW125133   6.540   0.733   1.609
 8078SOL    HW225134   6.491   0.773   1.459
 8079SOL     OW25135   0.913   0.912   6.668
 8079SOL    HW125136   0.975   0.911   6.746
 8079SOL    HW225137   0.846   0.838   6.679
 8080SOL     OW25138   1.478   3.675   3.330
 8080SOL    HW125139   1.394   3.625   3.351
 8080SOL    HW225140   1.557   3.615   3.343
 8081SOL     OW25141   6.515   6.855   4.889
 8081SOL    HW125142   6.473   6.791   4.954
 8081SOL    HW225143   6.511   6.815   4.797
 8082SOL     OW25144   3.426   2.039   4.024
 8082SOL    HW125145   3.365   2.111   4.057
 8082SOL    HW225146   3.445   1.974   4.098
 8083SOL     OW25147   6.711   2.000   4.434
 8083SOL    HW125148   6.781   2.045   4.378
 8083SOL    HW225149   6.625   1.995   4.383
 8084SOL     OW25150   4.087   1.786   5.591
 8084SOL    HW125151   4.178   1.810   5.625
 8084SOL    HW225152   4.019   1.804   5.662
 8085SOL     OW25153   1.787   6.082   4.356
 8085SOL    HW125154   1.710   6.020   4.340
 8085SOL    HW225155   1.788   6.112   4.451
 8086SOL     OW25156   6.634   1.825   2.590
 8086SOL    HW125157   6.543   1.790   2.612
 8086SOL    HW225158   6.675   1.768   2.518
 8087SOL     OW25159   7.006   0.995   6.491
 8087SOL    HW125160   0.031   1.082   6.492
 8087SOL    HW225161   6.984   0.970   6.397
 8088SOL     OW25162   6.912   0.107   5.129
 8088SOL    HW125163   6.823   0.100   5.174
 8088SOL    HW225164   6.913   0.048   5.048
 8089SOL     OW25165   6.218   1.926   0.034
 8089SOL    HW125166   6.140   1.939   6.995
 8089SOL    HW225167   6.303   1.923   7.005
 8090SOL     OW25168   4.650   2.367   5.111
 8090SOL    HW125169   4.722   2.333   5.171
 8090SOL    HW225170   4.668   2.338   5.017
 8091SOL     OW25171   0.893   4.400   4.553
 8091SOL    HW125172   0.982   4.387   4.510
 8091SOL    HW225173   0.830   4.330   4.521
 8092SOL     OW25174   4.798   0.951   5.478
 8092SOL    HW125175   4.727   0.898   5.525
 8092SOL    HW225176   4.759   1.037   5.445
 8093SOL     OW25177   3.226   6.150   3.080
 8093SOL    HW125178   3.171   6.217   3.130
 8093SOL    HW225179   3.311   6.194   3.048
 8094SOL     OW25180   2.050   3.784   4.167
 8094SOL    HW125181   1.961   3.804   4.127
 8094SOL    HW225182   2.067   3.686   4.166
 8095SOL     OW25183   1.573   4.684   4.998
 8095SOL    HW125184   1.502   4.620   5.028
 8095SOL    HW225185   1.657   4.633   4.976
 8096SOL     OW25186   1.158   4.915   0.478
 8096SOL    HW125187   1.201   4.935   0.566
 8096SOL    HW225188   1.059   4.908   0.489
 8097SOL     OW25189   4.652   6.371   0.233
 8097SOL    HW125190   4.722   6.413   0.290
 8097SOL    HW225191   4.658   6.408   0.140
 8098SOL     OW25192   2.254   5.863   5.220
 8098SOL    HW125193   2.180   5.796   5.214
 8098SOL    HW225194   2.217   5.952   5.247
 8099SOL     OW25195   1.570   4.107   2.362
 8099SOL    HW125196   1.571   4.007   2.367
 8099SOL    HW225197   1.610   4.136   2.275
 8100SOL     OW25198   6.320   0.464   6.437
 8100SOL    HW125199   6.377   0.383   6.420
 8100SOL    HW225200   6.325   0.525   6.357
 8101SOL     OW25201   2.924   5.137   1.190
 8101SOL    HW125202   2.967   5.224   1.168
 8101SOL    HW225203   2.859   5.150   1.265
 8102SOL     OW25204   0.581   4.194   3.836
 8102SOL    HW125205   0.551   4.227   3.747
 8102SOL    HW225206   0.600   4.096   3.832
 8103SOL     OW25207   3.982   0.683   1.190
 8103SOL    HW125208   3.933   0.603   1.156
 8103SOL    HW225209   4.005   0.743   1.112
 8104SOL     OW25210   1.973   5.097   7.010
 8104SOL    HW125211   2.015   5.009   6.986
 8104SOL    HW225212   1.932   5.137   6.928
 8105SOL     OW25213   6.738   6.892   4.117
 8105SOL    HW125214   6.826   6.939   4.112
 8105SOL    HW225215   6.753   6.797   4.147
 8106SOL     OW25216   2.458   6.650   6.178
 8106SOL    HW125217   2.393   6.573   6.178
 8106SOL    HW225218   2.548   6.618   6.150
 8107SOL     OW25219   1.694   6.329   6.800
 8107SOL    HW125220   1.658   6.304   6.890
 8107SOL    HW225221   1.687   6.251   6.738
 8108SOL     OW25222   1.210   1.158   6.910
 8108SOL    HW125223   1.283   1.119   6.854
 8108SOL    HW225224   1.135   1.092   6.919
 8109SOL     OW25225   6.398   3.098   1.729
 8109SOL    HW125226   6.301   3.083   1.711
 8109SOL    HW225227   6.409   3.164   1.803
 8110SOL     OW25228   4.102   4.322   1.146
 8110SOL    HW125229   4.185   4.343   1.094
 8110SOL    HW225230   4.025   4.373   1.107
 8111SOL     OW25231   6.377   1.445   2.632
 8111SOL    HW125232   6.348   1.535   2.598
 8111SOL    HW225233   6.297   1.396   2.668
 8112SOL     OW25234   1.718   5.035   6.837
 8112SOL    HW125235   1.634   5.055   6.887
 8112SOL    HW225236   1.707   4.952   6.782
 8113SOL     OW25237   5.232   4.381   6.231
 8113SOL    HW125238   5.140   4.384   6.269
 8113SOL    HW225239   5.278   4.468   6.247
 8114SOL     OW25240   1.767   3.745   2.946
 8114SOL    HW125241   1.719   3.791   3.020
 8114SOL    HW225242   1.702   3.716   2.876
 8115SOL     OW25243   2.366   1.210   5.823
 8115SOL    HW125244   2.278   1.220   5.776
 8115SOL    HW225245   2.415   1.132   5.786
 8116SOL     OW25246   4.088   3.056   1.582
 8116SOL    HW125247   3.998   3.033   1.543
 8116SOL    HW225248   4.158   3.002   1.536
 8117SOL     OW25249   2.673   6.831   4.088
 8117SOL    HW125250   2.655   6.914   4.036
 8117SOL    HW225251   2.746   6.849   4.154
 8118SOL     OW25252   6.372   2.957   6.849
 8118SOL    HW125253   6.343   2.983   6.942
 8118SOL    HW225254   6.435   2.880   6.855
 8119SOL     OW25255   5.704   6.453   6.894
 8119SOL    HW125256   5.733   6.547   6.878
 8119SOL    HW225257   5.655   6.418   6.814
 8120SOL     OW25258   1.896   6.488   2.376
 8120SOL    HW125259   1.977   6.431   2.359
 8120SOL    HW225260   1.883   6.550   2.298
 8121SOL     OW25261   1.292   2.918   2.270
 8121SOL    HW125262   1.255   3.011   2.268
 8121SOL    HW225263   1.314   2.894   2.364
 8122SOL     OW25264   0.460   4.769   1.223
 8122SOL    HW125265   0.364   4.797   1.217
 8122SOL    HW225266   0.465   4.670   1.226
 8123SOL     OW25267   6.514   1.966   0.342
 8123SOL    HW125268   6.423   1.933   0.318
 8123SOL    HW225269   6.553   1.909   0.415
 8124SOL     OW25270   5.790   5.728   4.887
 8124SOL    HW125271   5.712   5.670   4.862
 8124SOL    HW225272   5.765   5.788   4.962
 8125SOL     OW25273   1.398   5.380   2.098
 8125SOL    HW125274   1.303   5.371   2.068
 8125SOL    HW225275   1.407   5.462   2.156
 8126SOL     OW25276   3.901   5.813   4.895
 8126SOL    HW125277   3.909   5.766   4.807
 8126SOL    HW225278   3.856   5.753   4.961
 8127SOL     OW25279   3.683   1.828   6.278
 8127SOL    HW125280   3.627   1.745   6.288
 8127SOL    HW225281   3.632   1.897   6.226
 8128SOL     OW25282   3.110   2.411   1.219
 8128SOL    HW125283   3.116   2.350   1.140
 8128SOL    HW225284   3.193   2.403   1.274
 8129SOL     OW25285   0.379   2.393   2.456
 8129SOL    HW125286   0.466   2.344   2.459
 8129SOL    HW225287   0.389   2.483   2.499
 8130SOL     OW25288   0.555   6.234   6.421
 8130SOL    HW125289   0.640   6.264   6.465
 8130SOL    HW225290   0.568   6.143   6.381
 8131SOL     OW25291   1.847   2.525   7.012
 8131SOL    HW125292   1.837   2.476   6.925
 8131SOL    HW225293   1.944   2.532   0.013
 8132SOL     OW25294   6.941   1.364   5.024
 8132SOL    HW125295   6.957   1.354   5.122
 8132SOL    HW225296   6.895   1.282   4.990
 8133SOL     OW25297   3.199   4.754   1.261
 8133SOL    HW125298   3.138   4.719   1.331
 8133SOL    HW225299   3.168   4.723   1.171
 8134SOL     OW25300   5.287   2.000   5.791
 8134SOL    HW125301   5.386   2.010   5.801
 8134SOL    HW225302   5.249   1.963   5.876
 8135SOL     OW25303   2.619   6.873   1.938
 8135SOL    HW125304   2.665   6.798   1.986
 8135SOL    HW225305   2.683   6.949   1.925
 8136SOL     OW25306   5.003   4.190   1.967
 8136SOL    HW125307   5.009   4.125   2.042
 8136SOL    HW225308   5.094   4.226   1.946
 8137SOL     OW25309   4.781   1.866   5.828
 8137SOL    HW125310   4.783   1.772   5.795
 8137SOL    HW225311   4.847   1.877   5.902
 8138SOL     OW25312   5.070   1.348   2.394
 8138SOL    HW125313   4.982   1.302   2.406
 8138SOL    HW225314   5.137   1.283   2.360
 8139SOL     OW25315   0.188   1.977   3.232
 8139SOL    HW125316   0.132   1.907   3.188
 8139SOL    HW225317   0.285   1.956   3.221
 8140SOL     OW25318   4.715   2.423   3.215
 8140SOL    HW125319   4.792   2.420   3.278
 8140SOL    HW225320   4.745   2.397   3.123
 8141SOL     OW25321   5.546   4.549   4.157
 8141SOL    HW125322   5.488   4.480   4.198
 8141SOL    HW225323   5.639   4.514   4.148
 8142SOL     OW25324   0.736   6.296   6.621
 8142SOL    HW125325   0.796   6.353   6.677
 8142SOL    HW225326   0.691   6.228   6.679
 8143SOL     OW25327   6.208   3.580   5.638
 8143SOL    HW125328   6.282   3.544   5.581
 8143SOL    HW225329   6.224   3.555   5.734
 8144SOL     OW25330   5.033   0.143   0.201
 8144SOL    HW125331   5.055   0.173   0.294
 8144SOL    HW225332   5.020   0.223   0.142
 8145SOL     OW25333   4.754   6.050   2.996
 8145SOL    HW125334   4.832   5.992   2.971
 8145SOL    HW225335   4.700   6.005   3.066
 8146SOL     OW25336   3.581   1.192   4.493
 8146SOL    HW125337   3.522   1.112   4.477
 8146SOL    HW225338   3.607   1.232   4.405
 8147SOL     OW25339   4.833   0.660   3.081
 8147SOL    HW125340   4.818   0.586   3.016
 8147SOL    HW225341   4.754   0.722   3.080
 8148SOL     OW25342   5.909   4.262   3.413
 8148SOL    HW125343   5.912   4.308   3.325
 8148SOL    HW225344   5.821   4.279   3.457
 8149SOL     OW25345   3.811   5.063   3.138
 8149SOL    HW125346   3.765   5.058   3.049
 8149SOL    HW225347   3.743   5.083   3.209
 8150SOL     OW25348   0.802   5.915   1.321
 8150SOL    HW125349   0.760   5.854   1.254
 8150SOL    HW225350   0.736   5.937   1.393
 8151SOL     OW25351   0.754   1.912   4.862
 8151SOL    HW125352   0.765   2.011   4.853
 8151SOL    HW225353   0.657   1.890   4.867
 8152SOL     OW25354   1.409   0.373   2.895
 8152SOL    HW125355   1.409   0.409   2.801
 8152SOL    HW225356   1.357   0.434   2.954
 8153SOL     OW25357   1.689   6.675   0.078
 8153SOL    HW125358   1.628   6.598   0.095
 8153SOL    HW225359   1.701   6.688   7.003
 8154SOL     OW25360   2.229   6.690   3.315
 8154SOL    HW125361   2.239   6.785   3.344
 8154SOL    HW225362   2.141   6.655   3.346
 8155SOL     OW25363   3.175   3.634   4.380
 8155SOL    HW125364   3.197   3.542   4.348
 8155SOL    HW225365   3.078   3.652   4.363
 8156SOL     OW25366   0.233   0.852   5.766
 8156SOL    HW125367   0.165   0.797   5.815
 8156SOL    HW225368   0.271   0.799   5.691
 8157SOL     OW25369   6.184   2.612   6.662
 8157SOL    HW125370   6.168   2.607   6.761
 8157SOL    HW225371   6.168   2.706   6.631
 8158SOL     OW25372   2.001   5.301   2.300
 8158SOL    HW125373   1.999   5.202   2.286
 8158SOL    HW225374   2.094   5.330   2.322
 8159SOL     OW25375   0.636   5.294   1.719
 8159SOL    HW125376   0.548   5.286   1.764
 8159SOL    HW225377   0.625   5.283   1.620
 8160SOL     OW25378   4.814   1.908   1.985
 8160SOL    HW125379   4.767   1.829   2.026
 8160SOL    HW225380   4.746   1.974   1.953
 8161SOL     OW25381   4.344   1.972   1.793
 8161SOL    HW125382   4.266   1.932   1.841
 8161SOL    HW225383   4.319   2.063   1.759
 8162SOL     OW25384   5.938   0.865   1.818
 8162SOL    HW125385   5.864   0.868   1.750
 8162SOL    HW225386   6.025   0.888   1.774
 8163SOL     OW25387   1.844   3.373   4.803
 8163SOL    HW125388   1.908   3.381   4.880
 8163SOL    HW225389   1.753   3.352   4.838
 8164SOL     OW25390   4.704   2.309   2.671
 8164SOL    HW125391   4.643   2.373   2.624
 8164SOL    HW225392   4.790   2.304   2.621
 8165SOL     OW25393   2.372   5.207   1.585
 8165SOL    HW125394   2.420   5.131   1.628
 8165SOL    HW225395   2.288   5.173   1.543
 8166SOL     OW25396   3.712   6.793   1.044
 8166SOL    HW125397   3.749   6.724   0.983
 8166SOL    HW225398   3.783   6.859   1.068
 8167SOL     OW25399   5.756   3.231   3.997
 8167SOL    HW125400   5.847   3.222   3.956
 8167SOL    HW225401   5.739   3.154   4.059
 8168SOL     OW25402   3.241   1.779   2.219
 8168SOL    HW125403   3.229   1.869   2.176
 8168SOL    HW225404   3.291   1.790   2.305
 8169SOL     OW25405   5.319   3.725   5.101
 8169SOL    HW125406   5.397   3.780   5.130
 8169SOL    HW225407   5.293   3.752   5.008
 8170SOL     OW25408   1.656   4.746   4.511
 8170SOL    HW125409   1.567   4.727   4.553
 8170SOL    HW225410   1.644   4.764   4.414
 8171SOL     OW25411   1.515   1.048   6.174
 8171SOL    HW125412   1.496   1.058   6.272
 8171SOL    HW225413   1.443   0.994   6.131
 8172SOL     OW25414   6.858   6.249   0.942
 8172SOL    HW125415   6.931   6.257   1.010
 8172SOL    HW225416   6.893   6.202   0.861
 8173SOL     OW25417   5.712   2.682   7.022
 8173SOL    HW125418   5.767   2.662   0.080
 8173SOL    HW225419   5.722   2.778   6.998
 8174SOL     OW25420   5.266   6.727   1.942
 8174SOL    HW125421   5.301   6.798   2.004
 8174SOL    HW225422   5.248   6.643   1.994
 8175SOL     OW25423   1.450   2.655   4.649
 8175SOL    HW125424   1.476   2.738   4.698
 8175SOL    HW225425   1.443   2.579   4.714
 8176SOL     OW25426   3.886   5.703   3.215
 8176SOL    HW125427   3.900   5.619   3.161
 8176SOL    HW225428   3.973   5.733   3.252
 8177SOL     OW25429   0.665   6.667   5.403
 8177SOL    HW125430   0.727   6.738   5.370
 8177SOL    HW225431   0.702   6.577   5.381
 8178SOL     OW25432   1.941   6.992   5.996
 8178SOL    HW125433   1.972   6.929   6.067
 8178SOL    HW225434   1.912   0.055   6.037
 8179SOL     OW25435   3.237   0.356   0.102
 8179SOL    HW125436   3.207   0.377   0.009
 8179SOL    HW225437   3.163   0.309   0.151
 8180SOL     OW25438   4.691   4.723   5.992
 8180SOL    HW125439   4.618   4.787   6.018
 8180SOL    HW225440   4.758   4.770   5.936
 8181SOL     OW25441   2.359   1.929   2.174
 8181SOL    HW125442   2.300   1.998   2.217
 8181SOL    HW225443   2.377   1.955   2.079
 8182SOL     OW25444   5.315   2.766   5.834
 8182SOL    HW125445   5.297   2.791   5.739
 8182SOL    HW225446   5.313   2.667   5.843
 8183SOL     OW25447   1.895   2.803   3.833
 8183SOL    HW125448   1.949   2.827   3.914
 8183SOL    HW225449   1.816   2.748   3.861
 8184SOL     OW25450   6.004   6.502   4.656
 8184SOL    HW125451   6.064   6.524   4.733
 8184SOL    HW225452   5.978   6.405   4.661
 8185SOL     OW25453   1.937   2.202   3.063
 8185SOL    HW125454   1.967   2.286   3.108
 8185SOL    HW225455   1.991   2.125   3.097
 8186SOL     OW25456   4.248   4.141   6.640
 8186SOL    HW125457   4.202   4.127   6.552
 8186SOL    HW225458   4.230   4.234   6.673
 8187SOL     OW25459   1.898   1.123   5.738
 8187SOL    HW125460   1.946   1.036   5.741
 8187SOL    HW225461   1.871   1.150   5.831
 8188SOL     OW25462   5.684   3.567   2.830
 8188SOL    HW125463   5.757   3.505   2.858
 8188SOL    HW225464   5.595   3.529   2.856
 8189SOL     OW25465   0.011   5.194   2.967
 8189SOL    HW125466   0.072   5.124   2.931
 8189SOL    HW225467   6.996   5.164   3.055
 8190SOL     OW25468   5.984   3.572   2.209
 8190SOL    HW125469   6.003   3.668   2.230
 8190SOL    HW225470   6.002   3.556   2.111
 8191SOL     OW25471   6.853   4.947   1.904
 8191SOL    HW125472   6.856   4.861   1.955
 8191SOL    HW225473   6.945   4.987   1.899
 8192SOL     OW25474   1.362   3.139   0.542
 8192SOL    HW125475   1.316   3.140   0.454
 8192SOL    HW225476   1.437   3.072   0.540
 8193SOL     OW25477   4.044   0.097   5.410
 8193SOL    HW125478   3.990   0.158   5.352
 8193SOL    HW225479   4.020   0.112   5.506
 8194SOL     OW25480   1.627   7.000   1.810
 8194SOL    HW125481   1.601   0.041   1.738
 8194SOL    HW225482   1.561   7.007   1.885
 8195SOL     OW25483   5.141   1.280   1.311
 8195SOL    HW125484   5.066   1.214   1.309
 8195SOL    HW225485   5.108   1.369   1.279
 8196SOL     OW25486   2.216   0.643   0.005
 8196SOL    HW125487   2.253   0.561   6.984
 8196SOL    HW225488   2.128   0.667   6.987
 8197SOL     OW25489   0.642   0.126   1.059
 8197SOL    HW125490   0.626   0.109   1.156
 8197SOL    HW225491   0.675   0.042   1.015
 8198SOL     OW25492   3.368   0.134   2.699
 8198SOL    HW125493   3.378   0.044   2.658
 8198SOL    HW225494   3.458   0.171   2.721
 8199SOL     OW25495   5.743   5.099   0.571
 8199SOL    HW125496   5.689   5.024   0.607
 8199SOL    HW225497   5.770   5.079   0.477
 8200SOL     OW25498   4.263   3.641   1.842
 8200SOL    HW125499   4.308   3.676   1.924
 8200SOL    HW225500   4.246   3.716   1.779
 8201SOL     OW25501   6.561   0.460   4.831
 8201SOL    HW125502   6.607   0.390   4.886
 8201SOL    HW225503   6.575   0.550   4.874
 8202SOL     OW25504   1.784   3.909   4.389
 8202SOL    HW125505   1.767   4.007   4.398
 8202SOL    HW225506   1.871   3.886   4.432
 8203SOL     OW25507   6.290   4.258   0.067
 8203SOL    HW125508   6.231   4.336   0.047
 8203SOL    HW225509   6.313   4.257   0.164
 8204SOL     OW25510   3.513   0.251   1.005
 8204SOL    HW125511   3.498   0.321   0.935
 8204SOL    HW225512   3.444   0.259   1.076
 8205SOL     OW25513   5.204   5.633   3.130
 8205SOL    HW125514   5.177   5.729   3.122
 8205SOL    HW225515   5.139   5.585   3.190
 8206SOL     OW25516   4.216   1.946   4.118
 8206SOL    HW125517   4.138   2.006   4.100
 8206SOL    HW225518   4.185   1.866   4.170
 8207SOL     OW25519   3.083   5.786   6.770
 8207SOL    HW125520   3.062   5.881   6.749
 8207SOL    HW225521   3.077   5.772   6.869
 8208SOL     OW25522   1.581   5.951   0.279
 8208SOL    HW125523   1.649   6.012   0.238
 8208SOL    HW225524   1.606   5.856   0.260
 8209SOL     OW25525   1.550   5.582   4.826
 8209SOL    HW125526   1.458   5.612   4.850
 8209SOL    HW225527   1.597   5.550   4.909
 8210SOL     OW25528   2.126   1.404   0.097
 8210SOL    HW125529   2.138   1.332   0.166
 8210SOL    HW225530   2.029   1.419   0.081
 8211SOL     OW25531   3.748   3.803   3.610
 8211SOL    HW125532   3.683   3.855   3.666
 8211SOL    HW225533   3.708   3.788   3.519
 8212SOL     OW25534   4.242   5.576   0.123
 8212SOL    HW125535   4.206   5.580   0.029
 8212SOL    HW225536   4.172   5.609   0.187
 8213SOL     OW25537   4.385   4.326   1.596
 8213SOL    HW125538   4.370   4.247   1.657
 8213SOL    HW225539   4.471   4.371   1.620
 8214SOL     OW25540   3.827   5.480   2.974
 8214SOL    HW125541   3.734   5.448   2.991
 8214SOL    HW225542   3.892   5.409   3.002
 8215SOL     OW25543   2.286   6.117   6.209
 8215SOL    HW125544   2.192   6.083   6.206
 8215SOL    HW225545   2.286   6.215   6.228
 8216SOL     OW25546   5.286   5.874   1.314
 8216SOL    HW125547   5.283   5.894   1.412
 8216SOL    HW225548   5.307   5.958   1.264
 8217SOL     OW25549   3.569   6.490   4.053
 8217SOL    HW125550   3.478   6.448   4.043
 8217SOL    HW225551   3.588   6.546   3.972
 8218SOL     OW25552   2.193   6.128   4.922
 8218SOL    HW125553   2.260   6.113   4.994
 8218SOL    HW225554   2.116   6.067   4.934
 8219SOL     OW25555   3.906   3.026   2.808
 8219SOL    HW125556   3.907   3.035   2.908
 8219SOL    HW225557   3.977   3.084   2.769
 8220SOL     OW25558   3.833   4.081   5.876
 8220SOL    HW125559   3.779   3.999   5.893
 8220SOL    HW225560   3.793   4.158   5.925
 8221SOL     OW25561   6.567   3.615   4.310
 8221SOL    HW125562   6.617   3.691   4.352
 8221SOL    HW225563   6.586   3.614   4.212
 8222SOL     OW25564   5.824   3.071   0.210
 8222SOL    HW125565   5.917   3.102   0.190
 8222SOL    HW225566   5.787   3.025   0.129
 8223SOL     OW25567   1.629   5.941   5.493
 8223SOL    HW125568   1.532   5.962   5.490
 8223SOL    HW225569   1.682   6.026   5.479
 8224SOL     OW25570   5.561   1.296   6.380
 8224SOL    HW125571   5.534   1.274   6.287
 8224SOL    HW225572   5.660   1.314   6.383
 8225SOL     OW25573   5.734   3.365   0.239
 8225SOL    HW125574   5.649   3.415   0.254
 8225SOL    HW225575   5.720   3.268   0.261
 8226SOL     OW25576   3.682   0.934   6.574
 8226SOL    HW125577   3.642   0.855   6.620
 8226SOL    HW225578   3.628   0.956   6.492
 8227SOL     OW25579   4.526   2.574   2.993
 8227SOL    HW125580   4.567   2.583   3.084
 8227SOL    HW225581   4.533   2.661   2.944
 8228SOL     OW25582   3.077   0.660   4.965
 8228SOL    HW125583   3.141   0.733   4.941
 8228SOL    HW225584   3.000   0.699   5.016
 8229SOL     OW25585   4.711   4.641   1.014
 8229SOL    HW125586   4.745   4.598   1.098
 8229SOL    HW225587   4.708   4.740   1.026
 8230SOL     OW25588   5.896   1.280   5.904
 8230SOL    HW125589   5.831   1.351   5.879
 8230SOL    HW225590   5.985   1.321   5.923
 8231SOL     OW25591   2.858   1.142   2.037
 8231SOL    HW125592   2.816   1.229   2.012
 8231SOL    HW225593   2.871   1.086   1.956
 8232SOL     OW25594   3.448   6.284   2.999
 8232SOL    HW125595   3.474   6.219   2.927
 8232SOL    HW225596   3.531   6.327   3.036
 8233SOL     OW25597   1.831   1.096   6.657
 8233SOL    HW125598   1.784   1.056   6.578
 8233SOL    HW225599   1.867   1.185   6.632
 8234SOL     OW25600   1.143   2.639   0.266
 8234SOL    HW125601   1.167   2.607   0.174
 8234SOL    HW225602   1.200   2.592   0.333
 8235SOL     OW25603   0.722   0.654   1.384
 8235SOL    HW125604   0.736   0.752   1.377
 8235SOL    HW225605   0.770   0.619   1.465
 8236SOL     OW25606   0.395   6.979   1.146
 8236SOL    HW125607   0.425   6.889   1.116
 8236SOL    HW225608   0.327   7.015   1.082
 8237SOL     OW25609   3.915   4.783   5.241
 8237SOL    HW125610   3.831   4.789   5.294
 8237SOL    HW225611   3.970   4.707   5.274
 8238SOL     OW25612   0.515   5.899   0.182
 8238SOL    HW125613   0.591   5.872   0.242
 8238SOL    HW225614   0.521   5.848   0.097
 8239SOL     OW25615   3.453   1.466   5.529
 8239SOL    HW125616   3.433   1.560   5.503
 8239SOL    HW225617   3.452   1.409   5.447
 8240SOL     OW25618   3.554   3.986   5.202
 8240SOL    HW125619   3.455   3.985   5.216
 8240SOL    HW225620   3.598   4.030   5.280
 8241SOL     OW25621   1.441   3.836   5.151
 8241SOL    HW125622   1.480   3.916   5.106
 8241SOL    HW225623   1.437   3.852   5.250
 8242SOL     OW25624   0.265   2.781   2.292
 8242SOL    HW125625   0.293   2.720   2.218
 8242SOL    HW225626   0.270   2.875   2.261
 8243SOL     OW25627   1.355   6.964   3.771
 8243SOL    HW125628   1.449   6.980   3.741
 8243SOL    HW225629   1.329   0.010   3.839
 8244SOL     OW25630   6.628   0.547   3.611
 8244SOL    HW125631   6.537   0.506   3.612
 8244SOL    HW225632   6.660   0.560   3.705
 8245SOL     OW25633   4.742   2.834   2.476
 8245SOL    HW125634   4.727   2.774   2.555
 8245SOL    HW225635   4.665   2.896   2.466
 8246SOL     OW25636   2.133   4.208   6.696
 8246SOL    HW125637   2.122   4.264   6.614
 8246SOL    HW225638   2.179   4.123   6.672
 8247SOL     OW25639   2.726   4.696   3.398
 8247SOL    HW125640   2.714   4.765   3.470
 8247SOL    HW225641   2.799   4.724   3.336
 8248SOL     OW25642   6.811   5.579   3.027
 8248SOL    HW125643   6.794   5.677   3.034
 8248SOL    HW225644   6.802   5.537   3.117
 8249SOL     OW25645   2.746   1.123   6.695
 8249SOL    HW125646   2.825   1.144   6.753
 8249SOL    HW225647   2.733   1.197   6.629
 8250SOL     OW25648   1.563   2.110   6.898
 8250SOL    HW125649   1.645   2.066   6.861
 8250SOL    HW225650   1.483   2.056   6.875
 8251SOL     OW25651   1.062   1.710   5.770
 8251SOL    HW125652   1.148   1.718   5.822
 8251SOL    HW225653   1.076   1.743   5.677
 8252SOL     OW25654   0.973   2.212   6.808
 8252SOL    HW125655   0.927   2.144   6.752
 8252SOL    HW225656   0.997   2.291   6.751
 8253SOL     OW25657   5.536   4.429   6.413
 8253SOL    HW125658   5.536   4.329   6.412
 8253SOL    HW225659   5.622   4.462   6.454
 8254SOL     OW25660   6.289   5.859   6.747
 8254SOL    HW125661   6.352   5.920   6.795
 8254SOL    HW225662   6.246   5.907   6.671
 8255SOL     OW25663   0.959   0.249   5.460
 8255SOL    HW125664   0.926   0.251   5.366
 8255SOL    HW225665   1.035   0.313   5.470
 8256SOL     OW25666   1.511   5.986   4.104
 8256SOL    HW125667   1.489   6.026   4.015
 8256SOL    HW225668   1.434   5.933   4.138
 8257SOL     OW25669   4.981   3.417   3.584
 8257SOL    HW125670   5.063   3.378   3.624
 8257SOL    HW225671   5.005   3.494   3.525
 8258SOL     OW25672   0.268   2.789   3.516
 8258SOL    HW125673   0.250   2.708   3.572
 8258SOL    HW225674   0.358   2.826   3.539
 8259SOL     OW25675   5.822   2.054   4.108
 8259SOL    HW125676   5.856   2.005   4.188
 8259SOL    HW225677   5.732   2.020   4.082
 8260SOL     OW25678   4.911   2.686   6.511
 8260SOL    HW125679   4.930   2.689   6.609
 8260SOL    HW225680   4.948   2.601   6.473
 8261SOL     OW25681   5.798   1.479   3.157
 8261SOL    HW125682   5.730   1.406   3.158
 8261SOL    HW225683   5.861   1.466   3.080
 8262SOL     OW25684   5.018   3.983   2.158
 8262SOL    HW125685   5.109   3.986   2.118
 8262SOL    HW225686   5.008   3.900   2.213
 8263SOL     OW25687   6.714   2.267   6.263
 8263SOL    HW125688   6.775   2.346   6.259
 8263SOL    HW225689   6.710   2.223   6.174
 8264SOL     OW25690   2.994   0.500   1.479
 8264SOL    HW125691   3.052   0.539   1.407
 8264SOL    HW225692   2.899   0.497   1.447
 8265SOL     OW25693   4.481   5.709   0.484
 8265SOL    HW125694   4.555   5.736   0.546
 8265SOL    HW225695   4.473   5.610   0.484
 8266SOL     OW25696   3.259   1.346   2.961
 8266SOL    HW125697   3.175   1.379   3.005
 8266SOL    HW225698   3.298   1.419   2.905
 8267SOL     OW25699   1.698   2.738   3.386
 8267SOL    HW125700   1.701   2.786   3.299
 8267SOL    HW225701   1.780   2.683   3.397
 8268SOL     OW25702   3.308   4.458   0.507
 8268SOL    HW125703   3.276   4.368   0.475
 8268SOL    HW225704   3.246   4.491   0.578
 8269SOL     OW25705   6.392   2.083   5.186
 8269SOL    HW125706   6.404   2.105   5.283
 8269SOL    HW225707   6.390   1.983   5.175
 8270SOL     OW25708   3.939   4.942   0.212
 8270SOL    HW125709   3.953   4.856   0.162
 8270SOL    HW225710   3.909   5.013   0.149
 8271SOL     OW25711   3.413   6.651   6.138
 8271SOL    HW125712   3.391   6.700   6.222
 8271SOL    HW225713   3.459   6.713   6.074
 8272SOL     OW25714   0.158   0.808   2.186
 8272SOL    HW125715   0.214   0.777   2.263
 8272SOL    HW225716   0.116   0.729   2.142
 8273SOL     OW25717   3.787   0.333   6.532
 8273SOL    HW125718   3.768   0.358   6.437
 8273SOL    HW225719   3.703   0.337   6.585
 8274SOL     OW25720   5.193   6.371   5.287
 8274SOL    HW125721   5.249   6.441   5.243
 8274SOL    HW225722   5.189   6.290   5.228
 8275SOL     OW25723   4.326   1.081   5.120
 8275SOL    HW125724   4.318   0.987   5.086
 8275SOL    HW225725   4.257   1.138   5.077
 8276SOL     OW25726   5.706   2.856   0.549
 8276SOL    HW125727   5.700   2.816   0.641
 8276SOL    HW225728   5.743   2.787   0.486
 8277SOL     OW25729   0.923   6.426   1.465
 8277SOL    HW125730   0.938   6.337   1.421
 8277SOL    HW225731   0.995   6.443   1.531
 8278SOL     OW25732   1.592   0.248   1.094
 8278SOL    HW125733   1.526   0.286   1.157
 8278SOL    HW225734   1.565   0.155   1.069
 8279SOL     OW25735   4.799   5.809   6.016
 8279SOL    HW125736   4.832   5.716   6.036
 8279SOL    HW225737   4.708   5.803   5.975
 8280SOL     OW25738   5.569   4.730   6.668
 8280SOL    HW125739   5.530   4.737   6.760
 8280SOL    HW225740   5.516   4.787   6.605
 8281SOL     OW25741   3.260   5.521   6.312
 8281SOL    HW125742   3.222   5.537   6.221
 8281SOL    HW225743   3.271   5.423   6.327
 8282SOL     OW25744   4.239   2.785   0.854
 8282SOL    HW125745   4.320   2.759   0.801
 8282SOL    HW225746   4.264   2.797   0.950
 8283SOL     OW25747   0.323   0.243   3.080
 8283SOL    HW125748   0.255   0.233   3.008
 8283SOL    HW225749   0.314   0.332   3.123
 8284SOL     OW25750   5.342   1.974   1.930
 8284SOL    HW125751   5.380   1.993   2.021
 8284SOL    HW225752   5.301   1.883   1.930
 8285SOL     OW25753   0.938   4.621   0.335
 8285SOL    HW125754   0.995   4.614   0.416
 8285SOL    HW225755   0.919   4.717   0.315
 8286SOL     OW25756   5.987   2.665   6.919
 8286SOL    HW125757   5.991   2.755   6.962
 8286SOL    HW225758   5.961   2.597   6.987
 8287SOL     OW25759   1.400   0.838   3.085
 8287SOL    HW125760   1.380   0.921   3.136
 8287SOL    HW225761   1.498   0.834   3.065
 8288SOL     OW25762   1.949   0.339   2.166
 8288SOL    HW125763   2.039   0.367   2.199
 8288SOL    HW225764   1.943   0.353   2.067
 8289SOL     OW25765   5.645   6.937   0.102
 8289SOL    HW125766   5.709   6.920   0.177
 8289SOL    HW225767   5.554   6.957   0.139
 8290SOL     OW25768   4.985   2.635   2.066
 8290SOL    HW125769   4.918   2.574   2.023
 8290SOL    HW225770   4.937   2.709   2.113
 8291SOL     OW25771   5.063   6.168   6.459
 8291SOL    HW125772   5.129   6.227   6.411
 8291SOL    HW225773   5.069   6.185   6.557
 8292SOL     OW25774   0.232   3.491   5.436
 8292SOL    HW125775   0.157   3.430   5.462
 8292SOL    HW225776   0.300   3.492   5.509
 8293SOL     OW25777   3.054   4.912   3.854
 8293SOL    HW125778   3.073   4.862   3.770
 8293SOL    HW225779   3.035   5.008   3.832
 8294SOL     OW25780   5.990   3.815   5.950
 8294SOL    HW125781   5.968   3.845   5.857
 8294SOL    HW225782   6.020   3.894   6.005
 8295SOL     OW25783   4.648   5.360   2.754
 8295SOL    HW125784   4.632   5.313   2.841
 8295SOL    HW225785   4.671   5.293   2.684
 8296SOL     OW25786   3.814   0.148   2.390
 8296SOL    HW125787   3.879   0.183   2.457
 8296SOL    HW225788   3.779   0.223   2.334
 8297SOL     OW25789   5.667   4.198   1.972
 8297SOL    HW125790   5.725   4.222   2.049
 8297SOL    HW225791   5.708   4.233   1.887
 8298SOL     OW25792   6.557   6.398   0.632
 8298SOL    HW125793   6.480   6.421   0.574
 8298SOL    HW225794   6.530   6.325   0.696
 8299SOL     OW25795   1.131   3.087   6.381
 8299SOL    HW125796   1.202   3.041   6.328
 8299SOL    HW225797   1.067   3.018   6.418
 8300SOL     OW25798   5.827   5.264   4.675
 8300SOL    HW125799   5.808   5.346   4.729
 8300SOL    HW225800   5.793   5.184   4.724
 8301SOL     OW25801   6.881   5.481   0.204
 8301SOL    HW125802   6.906   5.573   0.175
 8301SOL    HW225803   6.821   5.486   0.284
 8302SOL     OW25804   3.786   6.444   5.842
 8302SOL    HW125805   3.861   6.458   5.777
 8302SOL    HW225806   3.790   6.513   5.914
 8303SOL     OW25807   1.239   4.669   4.352
 8303SOL    HW125808   1.289   4.711   4.276
 8303SOL    HW225809   1.300   4.662   4.431
 8304SOL     OW25810   6.700   2.871   4.241
 8304SOL    HW125811   6.741   2.826   4.162
 8304SOL    HW225812   6.683   2.968   4.220
 8305SOL     OW25813   4.217   6.895   5.725
 8305SOL    HW125814   4.149   6.949   5.676
 8305SOL    HW225815   4.186   6.880   5.819
 8306SOL     OW25816   6.186   0.176   4.125
 8306SOL    HW125817   6.167   0.079   4.108
 8306SOL    HW225818   6.138   0.232   4.057
 8307SOL     OW25819   1.034   4.373   3.861
 8307SOL    HW125820   1.082   4.460   3.855
 8307SOL    HW225821   1.078   4.316   3.930
 8308SOL     OW25822   1.493   5.519   0.441
 8308SOL    HW125823   1.401   5.557   0.440
 8308SOL    HW225824   1.488   5.419   0.449
 8309SOL     OW25825   6.484   4.884   3.108
 8309SOL    HW125826   6.406   4.904   3.049
 8309SOL    HW225827   6.515   4.968   3.152
 8310SOL     OW25828   2.543   6.568   2.580
 8310SOL    HW125829   2.599   6.531   2.654
 8310SOL    HW225830   2.455   6.600   2.617
 8311SOL     OW25831   4.304   6.080   2.191
 8311SOL    HW125832   4.314   6.170   2.233
 8311SOL    HW225833   4.392   6.051   2.153
 8312SOL     OW25834   6.815   1.696   0.917
 8312SOL    HW125835   6.766   1.608   0.919
 8312SOL    HW225836   6.833   1.722   0.823
 8313SOL     OW25837   5.326   3.134   6.523
 8313SOL    HW125838   5.281   3.070   6.461
 8313SOL    HW225839   5.414   3.162   6.484
 8314SOL     OW25840   4.364   5.624   3.545
 8314SOL    HW125841   4.439   5.565   3.575
 8314SOL    HW225842   4.287   5.616   3.610
 8315SOL     OW25843   3.096   2.804   6.631
 8315SOL    HW125844   3.089   2.807   6.532
 8315SOL    HW225845   3.182   2.759   6.657
 8316SOL     OW25846   1.579   1.718   5.171
 8316SOL    HW125847   1.585   1.618   5.164
 8316SOL    HW225848   1.575   1.757   5.079
 8317SOL     OW25849   1.195   2.291   4.949
 8317SOL    HW125850   1.287   2.291   4.988
 8317SOL    HW225851   1.134   2.237   5.006
 8318SOL     OW25852   4.384   6.902   6.088
 8318SOL    HW125853   4.449   6.915   6.013
 8318SOL    HW225854   4.291   6.903   6.052
 8319SOL     OW25855   2.408   5.437   0.153
 8319SOL    HW125856   2.385   5.430   0.056
 8319SOL    HW225857   2.403   5.533   0.182
 8320SOL     OW25858   3.591   4.017   5.497
 8320SOL    HW125859   3.529   4.055   5.566
 8320SOL    HW225860   3.547   3.939   5.452
 8321SOL     OW25861   0.569   0.185   0.610
 8321SOL    HW125862   0.546   0.105   0.554
 8321SOL    HW225863   0.539   0.170   0.704
 8322SOL     OW25864   1.420   0.589   0.607
 8322SOL    HW125865   1.444   0.658   0.675
 8322SOL    HW225866   1.488   0.588   0.534
 8323SOL     OW25867   5.869   4.831   6.963
 8323SOL    HW125868   5.888   4.926   6.989
 8323SOL    HW225869   5.835   4.781   0.020
 8324SOL     OW25870   5.185   6.597   6.876
 8324SOL    HW125871   5.195   6.570   6.780
 8324SOL    HW225872   5.258   6.555   6.930
 8325SOL     OW25873   1.619   6.233   4.794
 8325SOL    HW125874   1.712   6.198   4.810
 8325SOL    HW225875   1.552   6.164   4.821
 8326SOL     OW25876   2.407   1.939   6.764
 8326SOL    HW125877   2.476   2.006   6.790
 8326SOL    HW225878   2.450   1.861   6.719
 8327SOL     OW25879   0.878   6.295   5.050
 8327SOL    HW125880   0.854   6.200   5.068
 8327SOL    HW225881   0.883   6.311   4.951
 8328SOL     OW25882   0.841   6.260   1.181
 8328SOL    HW125883   0.911   6.234   1.248
 8328SOL    HW225884   0.877   6.330   1.120
 8329SOL     OW25885   1.549   2.702   5.566
 8329SOL    HW125886   1.465   2.672   5.522
 8329SOL    HW225887   1.626   2.649   5.531
 8330SOL     OW25888   2.604   6.644   0.343
 8330SOL    HW125889   2.534   6.713   0.323
 8330SOL    HW225890   2.684   6.688   0.382
 8331SOL     OW25891   2.486   2.422   5.776
 8331SOL    HW125892   2.428   2.347   5.809
 8331SOL    HW225893   2.445   2.463   5.694
 8332SOL     OW25894   6.018   3.835   1.363
 8332SOL    HW125895   6.027   3.840   1.263
 8332SOL    HW225896   6.071   3.908   1.405
 8333SOL     OW25897   2.760   3.956   6.543
 8333SOL    HW125898   2.853   3.961   6.579
 8333SOL    HW225899   2.737   4.042   6.498
 8334SOL     OW25900   3.584   2.275   5.384
 8334SOL    HW125901   3.539   2.205   5.438
 8334SOL    HW225902   3.518   2.320   5.324
 8335SOL     OW25903   5.112   4.153   5.815
 8335SOL    HW125904   5.057   4.155   5.899
 8335SOL    HW225905   5.208   4.145   5.839
 8336SOL     OW25906   1.481   3.769   3.726
 8336SOL    HW125907   1.523   3.803   3.642
 8336SOL    HW225908   1.421   3.839   3.764
 8337SOL     OW25909   0.027   1.324   4.293
 8337SOL    HW125910   0.027   1.347   4.391
 8337SOL    HW225911   0.021   1.408   4.240
 8338SOL     OW25912   2.604   5.815   1.262
 8338SOL    HW125913   2.633   5.723   1.234
 8338SOL    HW225914   2.526   5.808   1.324
 8339SOL     OW25915   6.060   0.594   1.816
 8339SOL    HW125916   6.159   0.602   1.802
 8339SOL    HW225917   6.018   0.684   1.806
 8340SOL     OW25918   5.924   2.529   6.600
 8340SOL    HW125919   5.929   2.434   6.568
 8340SOL    HW225920   6.014   2.558   6.632
 8341SOL     OW25921   4.189   0.345   0.941
 8341SOL    HW125922   4.198   0.432   0.988
 8341SOL    HW225923   4.092   0.330   0.918
 8342SOL     OW25924   3.687   0.990   0.210
 8342SOL    HW125925   3.655   1.084   0.199
 8342SOL    HW225926   3.718   0.976   0.304
 8343SOL     OW25927   5.889   5.231   2.756
 8343SOL    HW125928   5.919   5.182   2.837
 8343SOL    HW225929   5.907   5.328   2.766
 8344SOL     OW25930   2.585   4.905   6.173
 8344SOL    HW125931   2.602   4.833   6.240
 8344SOL    HW225932   2.668   4.923   6.120
 8345SOL     OW25933   5.941   0.127   3.962
 8345SOL    HW125934   5.966   0.221   3.941
 8345SOL    HW225935   5.852   0.125   4.007
 8346SOL     OW25936   5.744   3.763   4.423
 8346SOL    HW125937   5.834   3.726   4.400
 8346SOL    HW225938   5.673   3.704   4.386
 8347SOL     OW25939   1.457   1.421   6.003
 8347SOL    HW125940   1.545   1.374   5.994
 8347SOL    HW225941   1.438   1.439   6.099
 8348SOL     OW25942   3.118   5.601   1.851
 8348SOL    HW125943   3.191   5.638   1.910
 8348SOL    HW225944   3.068   5.677   1.809
 8349SOL     OW25945   4.512   6.106   1.486
 8349SOL    HW125946   4.599   6.062   1.466
 8349SOL    HW225947   4.509   6.197   1.445
 8350SOL     OW25948   1.075   0.038   0.128
 8350SOL    HW125949   1.018   0.047   0.210
 8350SOL    HW225950   1.158   7.010   0.150
 8351SOL     OW25951   6.955   2.572   2.688
 8351SOL    HW125952   6.878   2.515   2.718
 8351SOL    HW225953   0.005   2.567   2.755
 8352SOL     OW25954   2.801   6.571   6.550
 8352SOL    HW125955   2.866   6.646   6.536
 8352SOL    HW225956   2.807   6.507   6.473
 8353SOL     OW25957   0.638   6.316   2.453
 8353SOL    HW125958   0.678   6.267   2.375
 8353SOL    HW225959   0.645   6.414   2.438
 8354SOL     OW25960   4.413   1.740   2.874
 8354SOL    HW125961   4.482   1.674   2.904
 8354SOL    HW225962   4.366   1.778   2.953
 8355SOL     OW25963   3.010   5.253   6.189
 8355SOL    HW125964   3.011   5.235   6.090
 8355SOL    HW225965   2.982   5.348   6.205
 8356SOL     OW25966   2.859   4.154   1.218
 8356SOL    HW125967   2.873   4.239   1.270
 8356SOL    HW225968   2.805   4.091   1.274
 8357SOL     OW25969   3.925   6.804   4.580
 8357SOL    HW125970   3.934   6.705   4.593
 8357SOL    HW225971   3.985   6.834   4.507
 8358SOL     OW25972   0.400   1.252   4.932
 8358SOL    HW125973   0.429   1.341   4.895
 8358SOL    HW225974   0.386   1.260   5.030
 8359SOL     OW25975   4.637   2.422   5.502
 8359SOL    HW125976   4.565   2.384   5.444
 8359SOL    HW225977   4.661   2.356   5.573
 8360SOL     OW25978   3.795   7.016   1.518
 8360SOL    HW125979   3.765   7.017   1.614
 8360SOL    HW225980   3.760   6.934   1.473
 8361SOL     OW25981   4.691   1.649   0.146
 8361SOL    HW125982   4.778   1.621   0.186
 8361SOL    HW225983   4.656   1.576   0.087
 8362SOL     OW25984   0.075   3.365   1.279
 8362SOL    HW125985   0.082   3.453   1.231
 8362SOL    HW225986   0.156   3.310   1.259
 8363SOL     OW25987   1.237   3.056   1.415
 8363SOL    HW125988   1.191   3.031   1.330
 8363SOL    HW225989   1.314   2.995   1.432
 8364SOL     OW25990   0.612   2.491   4.223
 8364SOL    HW125991   0.651   2.404   4.192
 8364SOL    HW225992   0.645   2.565   4.165
 8365SOL     OW25993   1.260   2.340   1.544
 8365SOL    HW125994   1.192   2.317   1.475
 8365SOL    HW225995   1.346   2.363   1.500
 8366SOL     OW25996   4.835   5.781   1.871
 8366SOL    HW125997   4.737   5.797   1.887
 8366SOL    HW225998   4.869   5.715   1.938
 8367SOL     OW25999   1.999   4.555   3.449
 8367SOL    HW126000   2.047   4.637   3.481
 8367SOL    HW226001   1.936   4.524   3.520
 8368SOL     OW26002   6.540   4.918   5.875
 8368SOL    HW126003   6.451   4.923   5.919
 8368SOL    HW226004   6.532   4.941   5.778
 8369SOL     OW26005   1.707   6.918   6.898
 8369SOL    HW126006   1.731   6.829   6.861
 8369SOL    HW226007   1.770   6.941   6.972
 8370SOL     OW26008   2.824   2.836   0.366
 8370SOL    HW126009   2.845   2.933   0.357
 8370SOL    HW226010   2.737   2.816   0.321
 8371SOL     OW26011   3.208   3.710   6.477
 8371SOL    HW126012   3.216   3.661   6.390
 8371SOL    HW226013   3.201   3.645   6.552
 8372SOL     OW26014   1.489   6.623   1.751
 8372SOL    HW126015   1.558   6.691   1.727
 8372SOL    HW226016   1.532   6.549   1.803
 8373SOL     OW26017   6.283   0.519   4.016
 8373SOL    HW126018   6.368   0.498   4.066
 8373SOL    HW226019   6.261   0.616   4.028
 8374SOL     OW26020   0.935   1.432   3.412
 8374SOL    HW126021   0.979   1.496   3.475
 8374SOL    HW226022   0.868   1.480   3.356
 8375SOL     OW26023   1.517   2.253   5.372
 8375SOL    HW126024   1.481   2.160   5.383
 8375SOL    HW226025   1.444   2.319   5.389
 8376SOL     OW26026   1.162   1.843   3.414
 8376SOL    HW126027   1.216   1.868   3.334
 8376SOL    HW226028   1.141   1.745   3.411
 8377SOL     OW26029   3.999   5.393   0.659
 8377SOL    HW126030   3.982   5.319   0.594
 8377SOL    HW226031   3.912   5.435   0.685
 8378SOL     OW26032   4.522   5.723   4.705
 8378SOL    HW126033   4.466   5.755   4.629
 8378SOL    HW226034   4.513   5.787   4.782
 8379SOL     OW26035   6.291   2.006   1.571
 8379SOL    HW126036   6.350   1.936   1.531
 8379SOL    HW226037   6.268   1.981   1.665
 8380SOL     OW26038   0.382   6.137   2.237
 8380SOL    HW126039   0.470   6.182   2.222
 8380SOL    HW226040   0.331   6.134   2.151
 8381SOL     OW26041   1.183   1.942   2.316
 8381SOL    HW126042   1.229   2.027   2.292
 8381SOL    HW226043   1.101   1.932   2.260
 8382SOL     OW26044   0.751   0.095   1.701
 8382SOL    HW126045   0.661   0.137   1.702
 8382SOL    HW226046   0.804   0.129   1.623
 8383SOL     OW26047   2.657   6.899   5.971
 8383SOL    HW126048   2.704   6.821   5.931
 8383SOL    HW226049   2.594   6.867   6.042
 8384SOL     OW26050   0.504   3.705   2.934
 8384SOL    HW126051   0.580   3.747   2.984
 8384SOL    HW226052   0.465   3.772   2.870
 8385SOL     OW26053   4.516   2.020   2.194
 8385SOL    HW126054   4.427   2.063   2.209
 8385SOL    HW226055   4.540   2.028   2.097
 8386SOL     OW26056   1.104   5.263   1.795
 8386SOL    HW126057   1.178   5.196   1.795
 8386SOL    HW226058   1.020   5.221   1.760
 8387SOL     OW26059   0.898   1.712   3.192
 8387SOL    HW126060   0.946   1.666   3.118
 8387SOL    HW226061   0.832   1.649   3.234
 8388SOL     OW26062   3.777   4.793   1.364
 8388SOL    HW126063   3.765   4.871   1.425
 8388SOL    HW226064   3.869   4.755   1.375
 8389SOL     OW26065   0.866   3.354   3.782
 8389SOL    HW126066   0.784   3.307   3.814
 8389SOL    HW226067   0.887   3.324   3.689
 8390SOL     OW26068   2.598   0.334   6.512
 8390SOL    HW126069   2.659   0.271   6.561
 8390SOL    HW226070   2.570   0.407   6.573
 8391SOL     OW26071   5.241   6.220   0.510
 8391SOL    HW126072   5.294   6.194   0.430
 8391SOL    HW226073   5.277   6.305   0.548
 8392SOL     OW26074   5.056   6.083   0.188
 8392SOL    HW126075   4.962   6.099   0.220
 8392SOL    HW226076   5.110   6.043   0.262
 8393SOL     OW26077   0.606   4.980   2.110
 8393SOL    HW126078   0.599   4.914   2.035
 8393SOL    HW226079   0.701   4.983   2.142
 8394SOL     OW26080   1.436   1.570   3.344
 8394SOL    HW126081   1.493   1.552   3.424
 8394SOL    HW226082   1.368   1.498   3.333
 8395SOL     OW26083   1.089   6.675   5.765
 8395SOL    HW126084   1.076   6.601   5.698
 8395SOL    HW226085   1.056   6.761   5.727
 8396SOL     OW26086   4.648   2.112   1.444
 8396SOL    HW126087   4.628   2.081   1.537
 8396SOL    HW226088   4.564   2.148   1.403
 8397SOL     OW26089   2.121   5.418   3.876
 8397SOL    HW126090   2.199   5.403   3.937
 8397SOL    HW226091   2.084   5.330   3.847
 8398SOL     OW26092   6.351   1.797   0.219
 8398SOL    HW126093   6.426   1.743   0.181
 8398SOL    HW226094   6.298   1.838   0.145
 8399SOL     OW26095   5.380   5.820   6.739
 8399SOL    HW126096   5.357   5.891   6.671
 8399SOL    HW226097   5.420   5.741   6.692
 8400SOL     OW26098   6.513   6.593   4.312
 8400SOL    HW126099   6.594   6.593   4.371
 8400SOL    HW226100   6.467   6.504   4.318
 8401SOL     OW26101   2.768   4.052   5.793
 8401SOL    HW126102   2.717   4.134   5.768
 8401SOL    HW226103   2.845   4.077   5.851
 8402SOL     OW26104   4.586   0.628   4.993
 8402SOL    HW126105   4.634   0.711   5.019
 8402SOL    HW226106   4.652   0.554   4.978
 8403SOL     OW26107   0.828   2.847   5.375
 8403SOL    HW126108   0.898   2.911   5.406
 8403SOL    HW226109   0.743   2.862   5.425
 8404SOL     OW26110   4.201   4.810   5.445
 8404SOL    HW126111   4.219   4.887   5.383
 8404SOL    HW226112   4.168   4.732   5.392
 8405SOL     OW26113   2.140   2.486   4.852
 8405SOL    HW126114   2.217   2.423   4.868
 8405SOL    HW226115   2.099   2.511   4.939
 8406SOL     OW26116   5.221   3.704   2.023
 8406SOL    HW126117   5.187   3.762   1.949
 8406SOL    HW226118   5.217   3.754   2.109
 8407SOL     OW26119   4.932   3.640   3.090
 8407SOL    HW126120   4.963   3.728   3.125
 8407SOL    HW226121   4.925   3.644   2.990
 8408SOL     OW26122   5.024   4.111   4.101
 8408SOL    HW126123   5.108   4.092   4.049
 8408SOL    HW226124   4.968   4.029   4.104
 8409SOL     OW26125   0.703   1.814   4.136
 8409SOL    HW126126   0.749   1.894   4.097
 8409SOL    HW226127   0.705   1.739   4.069
 8410SOL     OW26128   2.200   5.902   2.448
 8410SOL    HW126129   2.276   5.959   2.418
 8410SOL    HW226130   2.176   5.926   2.543
 8411SOL     OW26131   1.880   3.256   3.299
 8411SOL    HW126132   1.967   3.294   3.270
 8411SOL    HW226133   1.888   3.221   3.392
 8412SOL     OW26134   6.851   2.171   2.488
 8412SOL    HW126135   6.868   2.083   2.444
 8412SOL    HW226136   6.919   2.237   2.456
 8413SOL     OW26137   2.291   4.427   1.502
 8413SOL    HW126138   2.223   4.482   1.453
 8413SOL    HW226139   2.369   4.408   1.441
 8414SOL     OW26140   6.109   0.113   3.320
 8414SOL    HW126141   6.089   0.019   3.293
 8414SOL    HW226142   6.118   0.118   3.419
 8415SOL     OW26143   6.841   4.148   1.835
 8415SOL    HW126144   6.821   4.147   1.737
 8415SOL    HW226145   6.764   4.109   1.885
 8416SOL     OW26146   4.678   4.547   2.380
 8416SOL    HW126147   4.668   4.481   2.454
 8416SOL    HW226148   4.685   4.498   2.293
 8417SOL     OW26149   2.018   5.856   6.486
 8417SOL    HW126150   1.954   5.901   6.549
 8417SOL    HW226151   2.110   5.861   6.524
 8418SOL     OW26152   6.458   5.708   2.495
 8418SOL    HW126153   6.523   5.731   2.423
 8418SOL    HW226154   6.494   5.736   2.584
 8419SOL     OW26155   5.356   6.896   4.087
 8419SOL    HW126156   5.404   6.984   4.081
 8419SOL    HW226157   5.302   6.894   4.170
 8420SOL     OW26158   4.187   2.514   5.568
 8420SOL    HW126159   4.207   2.477   5.659
 8420SOL    HW226160   4.127   2.594   5.577
 8421SOL     OW26161   0.229   0.644   0.989
 8421SOL    HW126162   0.324   0.619   1.008
 8421SOL    HW226163   0.170   0.568   1.017
 8422SOL     OW26164   3.852   6.979   2.065
 8422SOL    HW126165   3.931   6.960   2.006
 8422SOL    HW226166   3.882   0.012   2.142
 8423SOL     OW26167   2.050   3.792   1.477
 8423SOL    HW126168   1.979   3.861   1.488
 8423SOL    HW226169   2.019   3.706   1.518
 8424SOL     OW26170   2.665   2.613   1.684
 8424SOL    HW126171   2.765   2.612   1.678
 8424SOL    HW226172   2.627   2.536   1.632
 8425SOL     OW26173   6.234   4.871   6.589
 8425SOL    HW126174   6.323   4.910   6.613
 8425SOL    HW226175   6.189   4.931   6.522
 8426SOL     OW26176   3.429   3.413   2.531
 8426SOL    HW126177   3.509   3.466   2.501
 8426SOL    HW226178   3.439   3.318   2.501
 8427SOL     OW26179   2.340   2.283   6.903
 8427SOL    HW126180   2.436   2.277   6.929
 8427SOL    HW226181   2.283   2.242   6.974
 8428SOL     OW26182   6.377   4.252   1.280
 8428SOL    HW126183   6.303   4.270   1.215
 8428SOL    HW226184   6.447   4.323   1.271
 8429SOL     OW26185   1.572   6.727   3.120
 8429SOL    HW126186   1.566   6.796   3.047
 8429SOL    HW226187   1.520   6.758   3.199
 8430SOL     OW26188   5.668   4.168   2.968
 8430SOL    HW126189   5.667   4.068   2.959
 8430SOL    HW226190   5.620   4.194   3.052
 8431SOL     OW26191   2.878   3.422   2.017
 8431SOL    HW126192   2.842   3.411   2.110
 8431SOL    HW226193   2.839   3.504   1.976
 8432SOL     OW26194   5.141   6.307   6.971
 8432SOL    HW126195   5.052   6.348   6.950
 8432SOL    HW226196   5.163   6.324   0.044
 8433SOL     OW26197   0.441   1.818   4.224
 8433SOL    HW126198   0.530   1.773   4.214
 8433SOL    HW226199   0.402   1.835   4.133
 8434SOL     OW26200   5.483   6.141   6.373
 8434SOL    HW126201   5.482   6.046   6.402
 8434SOL    HW226202   5.561   6.156   6.311
 8435SOL     OW26203   4.935   2.187   1.889
 8435SOL    HW126204   5.017   2.159   1.839
 8435SOL    HW226205   4.949   2.174   1.987
 8436SOL     OW26206   3.102   4.437   1.673
 8436SOL    HW126207   3.138   4.357   1.720
 8436SOL    HW226208   3.024   4.474   1.724
 8437SOL     OW26209   0.564   1.697   0.797
 8437SOL    HW126210   0.491   1.760   0.822
 8437SOL    HW226211   0.561   1.617   0.857
 8438SOL     OW26212   2.072   5.890   0.859
 8438SOL    HW126213   1.990   5.834   0.848
 8438SOL    HW226214   2.057   5.957   0.931
 8439SOL     OW26215   6.071   0.507   2.098
 8439SOL    HW126216   6.135   0.573   2.059
 8439SOL    HW226217   6.019   0.462   2.025
 8440SOL     OW26218   0.729   2.782   4.415
 8440SOL    HW126219   0.828   2.799   4.418
 8440SOL    HW226220   0.681   2.860   4.455
 8441SOL     OW26221   4.461   5.551   2.722
 8441SOL    HW126222   4.522   5.475   2.747
 8441SOL    HW226223   4.379   5.548   2.779
 8442SOL     OW26224   2.335   2.844   0.173
 8442SOL    HW126225   2.241   2.878   0.169
 8442SOL    HW226226   2.399   2.920   0.165
 8443SOL     OW26227   0.515   1.614   1.376
 8443SOL    HW126228   0.416   1.632   1.376
 8443SOL    HW226229   0.531   1.516   1.393
 8444SOL     OW26230   4.216   1.163   3.258
 8444SOL    HW126231   4.299   1.184   3.207
 8444SOL    HW226232   4.225   1.196   3.352
 8445SOL     OW26233   4.671   5.354   2.132
 8445SOL    HW126234   4.639   5.342   2.226
 8445SOL    HW226235   4.751   5.298   2.116
 8446SOL     OW26236   0.178   3.389   2.999
 8446SOL    HW126237   0.130   3.454   2.940
 8446SOL    HW226238   0.216   3.315   2.944
 8447SOL     OW26239   4.337   3.393   1.138
 8447SOL    HW126240   4.256   3.447   1.112
 8447SOL    HW226241   4.382   3.359   1.055
 8448SOL     OW26242   1.729   3.381   5.711
 8448SOL    HW126243   1.816   3.348   5.674
 8448SOL    HW226244   1.726   3.364   5.810
 8449SOL     OW26245   0.888   1.297   4.432
 8449SOL    HW126246   0.980   1.336   4.419
 8449SOL    HW226247   0.836   1.356   4.494
 8450SOL     OW26248   1.734   5.442   1.482
 8450SOL    HW126249   1.817   5.394   1.511
 8450SOL    HW226250   1.724   5.434   1.383
 8451SOL     OW26251   3.596   2.882   0.588
 8451SOL    HW126252   3.687   2.924   0.598
 8451SOL    HW226253   3.529   2.953   0.568
 8452SOL     OW26254   0.336   5.198   1.548
 8452SOL    HW126255   0.331   5.180   1.646
 8452SOL    HW226256   0.423   5.243   1.527
 8453SOL     OW26257   6.137   5.325   5.152
 8453SOL    HW126258   6.224   5.373   5.164
 8453SOL    HW226259   6.140   5.238   5.202
 8454SOL     OW26260   2.346   6.691   4.651
 8454SOL    HW126261   2.423   6.630   4.635
 8454SOL    HW226262   2.261   6.638   4.657
 8455SOL     OW26263   5.988   2.655   0.958
 8455SOL    HW126264   5.993   2.747   0.918
 8455SOL    HW226265   5.968   2.663   1.055
 8456SOL     OW26266   4.959   5.376   3.654
 8456SOL    HW126267   5.016   5.315   3.598
 8456SOL    HW226268   4.960   5.346   3.749
 8457SOL     OW26269   6.639   6.009   6.101
 8457SOL    HW126270   6.563   6.005   6.036
 8457SOL    HW226271   6.667   6.105   6.113
 8458SOL     OW26272   1.605   2.221   1.326
 8458SOL    HW126273   1.609   2.121   1.325
 8458SOL    HW226274   1.669   2.257   1.258
 8459SOL     OW26275   2.251   5.226   3.350
 8459SOL    HW126276   2.188   5.196   3.279
 8459SOL    HW226277   2.204   5.288   3.412
 8460SOL     OW26278   3.884   1.597   1.023
 8460SOL    HW126279   3.855   1.520   0.965
 8460SOL    HW226280   3.809   1.662   1.033
 8461SOL     OW26281   5.365   4.217   3.146
 8461SOL    HW126282   5.438   4.199   3.212
 8461SOL    HW226283   5.278   4.185   3.184
 8462SOL     OW26284   2.179   3.937   1.045
 8462SOL    HW126285   2.203   4.033   1.053
 8462SOL    HW226286   2.106   3.926   0.978
 8463SOL     OW26287   6.687   0.563   0.714
 8463SOL    HW126288   6.782   0.534   0.702
 8463SOL    HW226289   6.658   0.542   0.807
 8464SOL     OW26290   6.375   3.851   6.408
 8464SOL    HW126291   6.289   3.805   6.429
 8464SOL    HW226292   6.437   3.787   6.363
 8465SOL     OW26293   5.086   3.720   0.884
 8465SOL    HW126294   5.053   3.658   0.812
 8465SOL    HW226295   5.186   3.724   0.881
 8466SOL     OW26296   0.526   1.523   5.286
 8466SOL    HW126297   0.562   1.473   5.364
 8466SOL    HW226298   0.448   1.474   5.248
 8467SOL     OW26299   3.232   1.162   0.434
 8467SOL    HW126300   3.174   1.106   0.494
 8467SOL    HW226301   3.205   1.257   0.440
 8468SOL     OW26302   5.506   4.169   0.582
 8468SOL    HW126303   5.467   4.104   0.647
 8468SOL    HW226304   5.432   4.218   0.535
 8469SOL     OW26305   3.665   2.946   5.460
 8469SOL    HW126306   3.754   2.991   5.453
 8469SOL    HW226307   3.618   2.977   5.543
 8470SOL     OW26308   1.485   5.521   1.551
 8470SOL    HW126309   1.583   5.509   1.536
 8470SOL    HW226310   1.439   5.432   1.543
 8471SOL     OW26311   4.292   2.241   4.531
 8471SOL    HW126312   4.260   2.280   4.618
 8471SOL    HW226313   4.214   2.230   4.469
 8472SOL     OW26314   5.613   1.902   6.760
 8472SOL    HW126315   5.539   1.846   6.797
 8472SOL    HW226316   5.640   1.970   6.828
 8473SOL     OW26317   5.045   5.069   5.904
 8473SOL    HW126318   4.955   5.052   5.944
 8473SOL    HW226319   5.052   5.165   5.877
 8474SOL     OW26320   2.857   3.999   5.260
 8474SOL    HW126321   2.865   4.098   5.251
 8474SOL    HW226322   2.760   3.974   5.267
 8475SOL     OW26323   6.651   1.739   3.051
 8475SOL    HW126324   6.558   1.715   3.080
 8475SOL    HW226325   6.702   1.655   3.031
 8476SOL     OW26326   5.985   1.470   1.795
 8476SOL    HW126327   5.889   1.497   1.785
 8476SOL    HW226328   5.990   1.370   1.805
 8477SOL     OW26329   5.635   0.518   1.650
 8477SOL    HW126330   5.681   0.592   1.700
 8477SOL    HW226331   5.679   0.431   1.671
 8478SOL     OW26332   0.479   6.788   5.588
 8478SOL    HW126333   0.518   6.749   5.671
 8478SOL    HW226334   0.524   6.748   5.508
 8479SOL     OW26335   0.621   2.814   0.471
 8479SOL    HW126336   0.659   2.741   0.413
 8479SOL    HW226337   0.686   2.835   0.544
 8480SOL     OW26338   3.375   4.191   1.011
 8480SOL    HW126339   3.422   4.224   1.093
 8480SOL    HW226340   3.345   4.096   1.026
 8481SOL     OW26341   3.832   2.104   2.638
 8481SOL    HW126342   3.922   2.061   2.645
 8481SOL    HW226343   3.788   2.077   2.553
 8482SOL     OW26344   4.201   0.665   6.617
 8482SOL    HW126345   4.225   0.605   6.693
 8482SOL    HW226346   4.221   0.760   6.642
 8483SOL     OW26347   3.878   4.917   3.528
 8483SOL    HW126348   3.969   4.919   3.486
 8483SOL    HW226349   3.873   4.840   3.592
 8484SOL     OW26350   5.801   6.135   5.102
 8484SOL    HW126351   5.887   6.088   5.081
 8484SOL    HW226352   5.753   6.086   5.174
 8485SOL     OW26353   3.997   1.106   6.126
 8485SOL    HW126354   4.003   1.175   6.054
 8485SOL    HW226355   4.077   1.111   6.185
 8486SOL     OW26356   5.893   2.483   5.119
 8486SOL    HW126357   5.936   2.569   5.091
 8486SOL    HW226358   5.797   2.482   5.089
 8487SOL     OW26359   6.437   2.270   6.027
 8487SOL    HW126360   6.363   2.211   6.059
 8487SOL    HW226361   6.518   2.215   6.010
 8488SOL     OW26362   4.705   4.232   3.046
 8488SOL    HW126363   4.746   4.147   3.013
 8488SOL    HW226364   4.730   4.246   3.142
 8489SOL     OW26365   6.239   1.953   1.840
 8489SOL    HW126366   6.335   1.929   1.854
 8489SOL    HW226367   6.203   1.994   1.924
 8490SOL     OW26368   3.191   6.525   0.254
 8490SOL    HW126369   3.131   6.604   0.243
 8490SOL    HW226370   3.285   6.556   0.271
 8491SOL     OW26371   3.177   5.502   2.245
 8491SOL    HW126372   3.231   5.423   2.214
 8491SOL    HW226373   3.117   5.532   2.171
 8492SOL     OW26374   6.390   5.966   4.259
 8492SOL    HW126375   6.398   5.885   4.200
 8492SOL    HW226376   6.459   6.033   4.233
 8493SOL     OW26377   4.545   0.882   6.075
 8493SOL    HW126378   4.636   0.855   6.109
 8493SOL    HW226379   4.525   0.833   5.991
 8494SOL     OW26380   6.763   3.382   2.366
 8494SOL    HW126381   6.783   3.333   2.282
 8494SOL    HW226382   6.750   3.479   2.346
 8495SOL     OW26383   6.184   5.647   6.626
 8495SOL    HW126384   6.231   5.715   6.681
 8495SOL    HW226385   6.248   5.574   6.601
 8496SOL     OW26386   5.194   2.492   2.816
 8496SOL    HW126387   5.242   2.416   2.773
 8496SOL    HW226388   5.096   2.484   2.798
 8497SOL     OW26389   6.971   0.796   3.039
 8497SOL    HW126390   6.930   0.843   2.961
 8497SOL    HW226391   7.003   0.706   3.010
 8498SOL     OW26392   4.800   6.523   3.968
 8498SOL    HW126393   4.774   6.552   3.875
 8498SOL    HW226394   4.779   6.597   4.032
 8499SOL     OW26395   5.668   6.793   5.668
 8499SOL    HW126396   5.674   6.757   5.761
 8499SOL    HW226397   5.581   6.764   5.627
 8500SOL     OW26398   1.074   0.384   6.901
 8500SOL    HW126399   1.111   0.296   6.930
 8500SOL    HW226400   1.000   0.411   6.963
 8501SOL     OW26401   2.416   1.227   6.087
 8501SOL    HW126402   2.324   1.230   6.127
 8501SOL    HW226403   2.409   1.198   5.992
 8502SOL     OW26404   5.994   3.600   6.661
 8502SOL    HW126405   5.932   3.678   6.653
 8502SOL    HW226406   6.067   3.622   6.725
 8503SOL     OW26407   4.893   2.635   5.398
 8503SOL    HW126408   4.853   2.725   5.383
 8503SOL    HW226409   4.822   2.565   5.388
 8504SOL     OW26410   0.903   6.917   2.467
 8504SOL    HW126411   0.943   6.829   2.492
 8504SOL    HW226412   0.955   6.990   2.512
 8505SOL     OW26413   5.738   2.247   2.751
 8505SOL    HW126414   5.641   2.223   2.743
 8505SOL    HW226415   5.777   2.197   2.829
 8506SOL     OW26416   1.060   6.774   6.019
 8506SOL    HW126417   1.088   6.733   5.932
 8506SOL    HW226418   1.058   6.873   6.010
 8507SOL     OW26419   3.539   5.161   5.324
 8507SOL    HW126420   3.552   5.213   5.240
 8507SOL    HW226421   3.442   5.162   5.349
 8508SOL     OW26422   2.968   0.869   6.280
 8508SOL    HW126423   2.939   0.774   6.293
 8508SOL    HW226424   2.950   0.921   6.364
 8509SOL     OW26425   5.242   2.271   2.618
 8509SOL    HW126426   5.164   2.208   2.615
 8509SOL    HW226427   5.234   2.337   2.544
 8510SOL     OW26428   0.805   2.186   4.830
 8510SOL    HW126429   0.743   2.246   4.778
 8510SOL    HW226430   0.888   2.171   4.777
 8511SOL     OW26431   6.110   1.879   3.593
 8511SOL    HW126432   6.156   1.857   3.679
 8511SOL    HW226433   6.092   1.794   3.543
 8512SOL     OW26434   2.007   6.300   5.368
 8512SOL    HW126435   2.046   6.391   5.352
 8512SOL    HW226436   2.017   6.276   5.465
 8513SOL     OW26437   5.049   5.974   6.953
 8513SOL    HW126438   4.964   6.015   6.987
 8513SOL    HW226439   5.124   5.994   7.016
 8514SOL     OW26440   3.808   5.749   4.113
 8514SOL    HW126441   3.893   5.792   4.085
 8514SOL    HW226442   3.777   5.686   4.041
 8515SOL     OW26443   6.239   2.353   1.623
 8515SOL    HW126444   6.329   2.361   1.666
 8515SOL    HW226445   6.193   2.270   1.654
 8516SOL     OW26446   6.899   1.925   2.372
 8516SOL    HW126447   6.955   1.949   2.293
 8516SOL    HW226448   6.940   1.847   2.419
 8517SOL     OW26449   1.540   3.546   5.976
 8517SOL    HW126450   1.525   3.591   6.064
 8517SOL    HW226451   1.559   3.449   5.991
 8518SOL     OW26452   2.858   5.841   0.639
 8518SOL    HW126453   2.918   5.767   0.609
 8518SOL    HW226454   2.854   5.843   0.739
 8519SOL     OW26455   2.642   6.054   3.641
 8519SOL    HW126456   2.595   5.969   3.616
 8519SOL    HW226457   2.741   6.040   3.634
 8520SOL     OW26458   3.558   6.300   6.754
 8520SOL    HW126459   3.467   6.341   6.764
 8520SOL    HW226460   3.625   6.357   6.803
 8521SOL     OW26461   1.603   0.251   2.015
 8521SOL    HW126462   1.551   0.166   2.015
 8521SOL    HW226463   1.701   0.230   2.018
 8522SOL     OW26464   2.547   6.532   4.599
 8522SOL    HW126465   2.502   6.444   4.611
 8522SOL    HW226466   2.587   6.537   4.508
 8523SOL     OW26467   1.672   6.626   6.764
 8523SOL    HW126468   1.607   6.642   6.690
 8523SOL    HW226469   1.696   6.529   6.768
 8524SOL     OW26470   1.761   1.431   6.700
 8524SOL    HW126471   1.779   1.482   6.784
 8524SOL    HW226472   1.776   1.491   6.621
 8525SOL     OW26473   5.626   3.563   3.864
 8525SOL    HW126474   5.576   3.547   3.779
 8525SOL    HW226475   5.683   3.644   3.854
 8526SOL     OW26476   2.089   3.359   2.260
 8526SOL    HW126477   2.002   3.400   2.287
 8526SOL    HW226478   2.138   3.421   2.199
 8527SOL     OW26479   4.474   0.353   3.980
 8527SOL    HW126480   4.430   0.306   4.056
 8527SOL    HW226481   4.559   0.396   4.012
 8528SOL     OW26482   5.766   1.522   6.872
 8528SOL    HW126483   5.832   1.596   6.863
 8528SOL    HW226484   5.702   1.542   6.946
 8529SOL     OW26485   6.508   5.928   5.713
 8529SOL    HW126486   6.433   5.902   5.652
 8529SOL    HW226487   6.567   5.849   5.728
 8530SOL     OW26488   1.990   4.798   6.123
 8530SOL    HW126489   1.892   4.817   6.135
 8530SOL    HW226490   2.043   4.875   6.158
 8531SOL     OW26491   4.607   4.809   2.079
 8531SOL    HW126492   4.550   4.738   2.038
 8531SOL    HW226493   4.552   4.890   2.098
 8532SOL     OW26494   1.714   3.791   0.938
 8532SOL    HW126495   1.774   3.848   0.882
 8532SOL    HW226496   1.762   3.765   1.022
 8533SOL     OW26497   3.953   6.525   5.633
 8533SOL    HW126498   4.049   6.521   5.661
 8533SOL    HW226499   3.936   6.457   5.562
 8534SOL     OW26500   1.826   2.294   1.156
 8534SOL    HW126501   1.891   2.240   1.209
 8534SOL    HW226502   1.781   2.234   1.089
 8535SOL     OW26503   0.427   3.465   5.203
 8535SOL    HW126504   0.328   3.466   5.218
 8535SOL    HW226505   0.456   3.371   5.184
 8536SOL     OW26506   5.907   1.112   5.681
 8536SOL    HW126507   5.924   1.167   5.763
 8536SOL    HW226508   5.813   1.077   5.683
 8537SOL     OW26509   4.669   6.557   3.028
 8537SOL    HW126510   4.657   6.572   3.126
 8537SOL    HW226511   4.646   6.462   3.007
 8538SOL     OW26512   5.230   0.439   5.193
 8538SOL    HW126513   5.218   0.341   5.210
 8538SOL    HW226514   5.156   0.471   5.134
 8539SOL     OW26515   1.018   3.030   2.601
 8539SOL    HW126516   1.115   3.033   2.578
 8539SOL    HW226517   0.973   2.959   2.548
 8540SOL     OW26518   4.186   0.145   6.991
 8540SOL    HW126519   4.170   0.192   6.905
 8540SOL    HW226520   4.174   0.046   6.979
 8541SOL     OW26521   2.728   6.367   5.084
 8541SOL    HW126522   2.750   6.373   5.181
 8541SOL    HW226523   2.782   6.294   5.042
 8542SOL     OW26524   0.943   5.191   5.598
 8542SOL    HW126525   0.999   5.210   5.678
 8542SOL    HW226526   1.002   5.157   5.524
 8543SOL     OW26527   3.005   2.378   5.387
 8543SOL    HW126528   3.078   2.376   5.319
 8543SOL    HW226529   3.040   2.346   5.475
 8544SOL     OW26530   4.944   4.617   5.690
 8544SOL    HW126531   5.000   4.620   5.607
 8544SOL    HW226532   4.870   4.551   5.677
 8545SOL     OW26533   1.956   6.973   6.370
 8545SOL    HW126534   2.001   6.899   6.319
 8545SOL    HW226535   1.865   6.989   6.332
 8546SOL     OW26536   4.099   1.490   3.696
 8546SOL    HW126537   4.152   1.568   3.663
 8546SOL    HW226538   4.062   1.439   3.617
 8547SOL     OW26539   5.414   6.173   6.010
 8547SOL    HW126540   5.465   6.253   5.979
 8547SOL    HW226541   5.478   6.104   6.045
 8548SOL     OW26542   1.061   4.409   4.283
 8548SOL    HW126543   1.133   4.427   4.216
 8548SOL    HW226544   0.973   4.440   4.246
 8549SOL     OW26545   2.017   0.618   4.002
 8549SOL    HW126546   1.968   0.661   4.078
 8549SOL    HW226547   2.115   0.622   4.019
 8550SOL     OW26548   0.005   4.845   5.641
 8550SOL    HW126549   0.050   4.756   5.638
 8550SOL    HW226550   0.074   4.917   5.644
 8551SOL     OW26551   3.697   0.959   4.891
 8551SOL    HW126552   3.681   0.913   4.804
 8551SOL    HW226553   3.780   0.923   4.933
 8552SOL     OW26554   3.628   1.328   1.830
 8552SOL    HW126555   3.557   1.316   1.900
 8552SOL    HW226556   3.707   1.375   1.869
 8553SOL     OW26557   4.650   3.980   0.577
 8553SOL    HW126558   4.595   3.934   0.647
 8553SOL    HW226559   4.743   3.943   0.579
 8554SOL     OW26560   1.346   0.729   6.652
 8554SOL    HW126561   1.259   0.753   6.609
 8554SOL    HW226562   1.330   0.687   6.741
 8555SOL     OW26563   3.236   2.142   3.269
 8555SOL    HW126564   3.242   2.140   3.369
 8555SOL    HW226565   3.328   2.148   3.230
 8556SOL     OW26566   0.206   5.217   5.358
 8556SOL    HW126567   0.297   5.229   5.398
 8556SOL    HW226568   0.136   5.244   5.424
 8557SOL     OW26569   6.536   1.002   6.668
 8557SOL    HW126570   6.443   0.983   6.636
 8557SOL    HW226571   6.551   1.101   6.669
 8558SOL     OW26572   3.146   6.177   3.782
 8558SOL    HW126573   3.157   6.252   3.716
 8558SOL    HW226574   3.230   6.165   3.835
 8559SOL     OW26575   1.896   3.487   2.365
 8559SOL    HW126576   1.879   3.478   2.463
 8559SOL    HW226577   1.816   3.455   2.314
 8560SOL     OW26578   3.333   3.750   1.267
 8560SOL    HW126579   3.308   3.654   1.251
 8560SOL    HW226580   3.314   3.773   1.362
 8561SOL     OW26581   3.463   0.826   2.804
 8561SOL    HW126582   3.546   0.786   2.842
 8561SOL    HW226583   3.485   0.915   2.763
 8562SOL     OW26584   5.548   2.154   6.646
 8562SOL    HW126585   5.459   2.197   6.627
 8562SOL    HW226586   5.535   2.056   6.662
 8563SOL     OW26587   2.274   5.274   2.731
 8563SOL    HW126588   2.308   5.360   2.692
 8563SOL    HW226589   2.313   5.198   2.679
 8564SOL     OW26590   3.654   6.008   0.775
 8564SOL    HW126591   3.701   5.922   0.753
 8564SOL    HW226592   3.678   6.077   0.707
 8565SOL     OW26593   1.338   5.045   1.061
 8565SOL    HW126594   1.248   5.019   1.025
 8565SOL    HW226595   1.381   5.111   1.000
 8566SOL     OW26596   3.436   0.750   3.442
 8566SOL    HW126597   3.416   0.694   3.362
 8566SOL    HW226598   3.354   0.756   3.500
 8567SOL     OW26599   1.808   2.430   1.744
 8567SOL    HW126600   1.816   2.366   1.668
 8567SOL    HW226601   1.711   2.442   1.768
 8568SOL     OW26602   6.095   0.945   5.614
 8568SOL    HW126603   6.027   1.013   5.643
 8568SOL    HW226604   6.168   0.991   5.564
 8569SOL     OW26605   5.200   1.855   0.469
 8569SOL    HW126606   5.242   1.855   0.378
 8569SOL    HW226607   5.107   1.821   0.462
 8570SOL     OW26608   2.184   1.294   2.713
 8570SOL    HW126609   2.217   1.221   2.653
 8570SOL    HW226610   2.191   1.382   2.665
 8571SOL     OW26611   1.566   0.614   3.544
 8571SOL    HW126612   1.527   0.609   3.452
 8571SOL    HW226613   1.563   0.708   3.576
 8572SOL     OW26614   3.202   3.904   6.053
 8572SOL    HW126615   3.181   3.916   5.956
 8572SOL    HW226616   3.299   3.921   6.069
 8573SOL     OW26617   2.004   6.050   6.241
 8573SOL    HW126618   2.010   5.961   6.286
 8573SOL    HW226619   2.013   6.122   6.309
 8574SOL     OW26620   5.156   1.704   5.478
 8574SOL    HW126621   5.244   1.725   5.435
 8574SOL    HW226622   5.103   1.788   5.489
 8575SOL     OW26623   3.337   6.648   4.231
 8575SOL    HW126624   3.343   6.580   4.159
 8575SOL    HW226625   3.429   6.677   4.258
 8576SOL     OW26626   1.628   4.476   4.288
 8576SOL    HW126627   1.719   4.445   4.316
 8576SOL    HW226628   1.632   4.571   4.260
 8577SOL     OW26629   2.287   0.298   0.260
 8577SOL    HW126630   2.212   0.359   0.287
 8577SOL    HW226631   2.354   0.293   0.335
 8578SOL     OW26632   1.038   0.007   6.052
 8578SOL    HW126633   1.110   0.077   6.057
 8578SOL    HW226634   0.968   0.026   6.120
 8579SOL     OW26635   3.271   0.087   2.079
 8579SOL    HW126636   3.356   0.065   2.031
 8579SOL    HW226637   3.222   0.158   2.028
 8580SOL     OW26638   1.893   0.355   1.897
 8580SOL    HW126639   1.808   0.390   1.858
 8580SOL    HW226640   1.897   0.256   1.883
 8581SOL     OW26641   4.024   3.935   2.227
 8581SOL    HW126642   4.109   3.984   2.248
 8581SOL    HW226643   3.947   3.984   2.268
 8582SOL     OW26644   4.483   5.229   5.921
 8582SOL    HW126645   4.432   5.159   5.971
 8582SOL    HW226646   4.538   5.282   5.984
 8583SOL     OW26647   3.053   7.009   2.712
 8583SOL    HW126648   3.133   0.045   2.718
 8583SOL    HW226649   3.083   6.913   2.705
 8584SOL     OW26650   6.400   1.848   4.757
 8584SOL    HW126651   6.401   1.839   4.857
 8584SOL    HW226652   6.493   1.841   4.722
 8585SOL     OW26653   4.955   2.499   2.707
 8585SOL    HW126654   4.908   2.578   2.669
 8585SOL    HW226655   4.981   2.437   2.633
 8586SOL     OW26656   5.638   5.629   5.503
 8586SOL    HW126657   5.629   5.538   5.543
 8586SOL    HW226658   5.684   5.622   5.414
 8587SOL     OW26659   6.523   1.616   0.136
 8587SOL    HW126660   6.595   1.678   0.105
 8587SOL    HW226661   6.564   1.533   0.175
 8588SOL     OW26662   1.725   0.749   5.193
 8588SOL    HW126663   1.696   0.696   5.273
 8588SOL    HW226664   1.756   0.686   5.121
 8589SOL     OW26665   5.454   3.109   0.083
 8589SOL    HW126666   5.436   3.136   0.178
 8589SOL    HW226667   5.495   3.186   0.034
 8590SOL     OW26668   0.919   1.800   3.896
 8590SOL    HW126669   0.902   1.847   3.810
 8590SOL    HW226670   0.836   1.750   3.923
 8591SOL     OW26671   0.094   3.992   5.633
 8591SOL    HW126672   0.128   3.934   5.560
 8591SOL    HW226673   0.170   4.022   5.691
 8592SOL     OW26674   6.971   1.824   4.115
 8592SOL    HW126675   0.029   1.867   4.155
 8592SOL    HW226676   6.912   1.788   4.188
 8593SOL     OW26677   6.304   1.197   0.114
 8593SOL    HW126678   6.326   1.290   0.086
 8593SOL    HW226679   6.217   1.169   0.073
 8594SOL     OW26680   6.037   4.238   6.274
 8594SOL    HW126681   5.992   4.187   6.201
 8594SOL    HW226682   6.127   4.197   6.292
 8595SOL     OW26683   4.973   5.905   2.910
 8595SOL    HW126684   5.045   5.875   2.847
 8595SOL    HW226685   4.981   5.854   2.996
 8596SOL     OW26686   0.840   2.547   4.966
 8596SOL    HW126687   0.800   2.620   4.912
 8596SOL    HW226688   0.784   2.529   5.047
 8597SOL     OW26689   6.007   2.302   6.419
 8597SOL    HW126690   5.948   2.248   6.480
 8597SOL    HW226691   5.950   2.364   6.364
 8598SOL     OW26692   6.982   0.589   5.394
 8598SOL    HW126693   7.009   0.511   5.451
 8598SOL    HW226694   7.017   0.576   5.301
 8599SOL     OW26695   6.108   4.076   5.146
 8599SOL    HW126696   6.111   4.066   5.245
 8599SOL    HW226697   6.021   4.041   5.111
 8600SOL     OW26698   4.763   2.790   1.846
 8600SOL    HW126699   4.822   2.821   1.771
 8600SOL    HW226700   4.726   2.869   1.894
 8601SOL     OW26701   6.092   5.894   2.847
 8601SOL    HW126702   6.118   5.900   2.751
 8601SOL    HW226703   6.026   5.820   2.860
 8602SOL     OW26704   1.793   7.018   5.466
 8602SOL    HW126705   1.763   0.067   5.403
 8602SOL    HW226706   1.713   6.969   5.501
 8603SOL     OW26707   0.750   0.753   6.428
 8603SOL    HW126708   0.698   0.758   6.514
 8603SOL    HW226709   0.695   0.706   6.359
 8604SOL     OW26710   2.101   5.331   5.906
 8604SOL    HW126711   2.157   5.303   5.985
 8604SOL    HW226712   2.048   5.252   5.875
 8605SOL     OW26713   0.093   4.638   3.844
 8605SOL    HW126714   0.064   4.642   3.940
 8605SOL    HW226715   0.114   4.731   3.811
 8606SOL     OW26716   1.447   0.861   0.002
 8606SOL    HW126717   1.400   0.924   0.064
 8606SOL    HW226718   1.392   0.779   7.013
 8607SOL     OW26719   2.985   3.105   1.244
 8607SOL    HW126720   3.008   3.097   1.147
 8607SOL    HW226721   3.013   3.194   1.278
 8608SOL     OW26722   1.769   5.403   2.180
 8608SOL    HW126723   1.854   5.362   2.215
 8608SOL    HW226724   1.692   5.342   2.198
 8609SOL     OW26725   4.734   1.827   4.422
 8609SOL    HW126726   4.649   1.838   4.371
 8609SOL    HW226727   4.760   1.914   4.464
 8610SOL     OW26728   0.081   5.724   2.779
 8610SOL    HW126729   0.052   5.629   2.767
 8610SOL    HW226730   0.161   5.728   2.839
 8611SOL     OW26731   1.879   1.206   4.969
 8611SOL    HW126732   1.858   1.304   4.970
 8611SOL    HW226733   1.822   1.161   4.900
 8612SOL     OW26734   3.337   3.452   4.760
 8612SOL    HW126735   3.262   3.518   4.758
 8612SOL    HW226736   3.303   3.363   4.791
 8613SOL     OW26737   3.870   3.045   3.084
 8613SOL    HW126738   3.805   2.970   3.101
 8613SOL    HW226739   3.846   3.123   3.142
 8614SOL     OW26740   0.655   2.214   3.609
 8614SOL    HW126741   0.714   2.181   3.536
 8614SOL    HW226742   0.559   2.194   3.586
 8615SOL     OW26743   3.178   1.895   5.416
 8615SOL    HW126744   3.094   1.842   5.428
 8615SOL    HW226745   3.181   1.931   5.323
 8616SOL     OW26746   5.784   4.631   5.091
 8616SOL    HW126747   5.709   4.572   5.060
 8616SOL    HW226748   5.871   4.595   5.057
 8617SOL     OW26749   1.247   6.850   3.094
 8617SOL    HW126750   1.215   6.941   3.121
 8617SOL    HW226751   1.175   6.802   3.045
 8618SOL     OW26752   5.871   4.089   0.871
 8618SOL    HW126753   5.848   3.995   0.846
 8618SOL    HW226754   5.793   4.148   0.850
 8619SOL     OW26755   5.703   6.096   0.751
 8619SOL    HW126756   5.719   6.020   0.688
 8619SOL    HW226757   5.758   6.175   0.724
 8620SOL     OW26758   1.951   6.683   3.847
 8620SOL    HW126759   1.862   6.689   3.801
 8620SOL    HW226760   1.960   6.594   3.891
 8621SOL     OW26761   5.566   3.460   2.223
 8621SOL    HW126762   5.541   3.541   2.170
 8621SOL    HW226763   5.606   3.392   2.162
 8622SOL     OW26764   0.578   5.234   2.945
 8622SOL    HW126765   0.660   5.178   2.943
 8622SOL    HW226766   0.603   5.330   2.957
 8623SOL     OW26767   1.806   2.410   3.715
 8623SOL    HW126768   1.831   2.366   3.801
 8623SOL    HW226769   1.713   2.384   3.689
 8624SOL     OW26770   3.322   4.050   5.353
 8624SOL    HW126771   3.346   4.133   5.403
 8624SOL    HW226772   3.238   4.067   5.301
 8625SOL     OW26773   4.523   3.022   6.084
 8625SOL    HW126774   4.454   3.044   6.014
 8625SOL    HW226775   4.513   2.926   6.111
 8626SOL     OW26776   4.784   1.807   1.707
 8626SOL    HW126777   4.692   1.823   1.671
 8626SOL    HW226778   4.797   1.861   1.790
 8627SOL     OW26779   1.607   0.290   2.586
 8627SOL    HW126780   1.567   0.382   2.589
 8627SOL    HW226781   1.698   0.293   2.628
 8628SOL     OW26782   0.715   6.923   0.925
 8628SOL    HW126783   0.767   6.857   0.980
 8628SOL    HW226784   0.647   6.874   0.871
 8629SOL     OW26785   0.563   0.018   4.517
 8629SOL    HW126786   0.603   0.097   4.470
 8629SOL    HW226787   0.483   0.048   4.569
 8630SOL     OW26788   5.134   2.597   2.299
 8630SOL    HW126789   5.096   2.603   2.207
 8630SOL    HW226790   5.088   2.524   2.349
 8631SOL     OW26791   2.124   5.952   5.989
 8631SOL    HW126792   2.111   5.877   6.055
 8631SOL    HW226793   2.217   5.986   5.997
 8632SOL     OW26794   5.855   5.405   4.275
 8632SOL    HW126795   5.855   5.441   4.182
 8632SOL    HW226796   5.762   5.381   4.302
 8633SOL     OW26797   5.779   3.997   5.193
 8633SOL    HW126798   5.750   4.081   5.239
 8633SOL    HW226799   5.819   4.019   5.104
 8634SOL     OW26800   5.294   4.460   6.545
 8634SOL    HW126801   5.383   4.465   6.501
 8634SOL    HW226802   5.223   4.441   6.477
 8635SOL     OW26803   4.966   2.724   6.769
 8635SOL    HW126804   5.051   2.777   6.773
 8635SOL    HW226805   4.919   2.731   6.857
 8636SOL     OW26806   4.506   5.898   1.814
 8636SOL    HW126807   4.425   5.922   1.761
 8636SOL    HW226808   4.502   5.942   1.903
 8637SOL     OW26809   1.759   1.959   6.799
 8637SOL    HW126810   1.753   1.932   6.703
 8637SOL    HW226811   1.851   1.994   6.817
 8638SOL     OW26812   4.934   3.218   3.977
 8638SOL    HW126813   4.964   3.283   4.047
 8638SOL    HW226814   4.887   3.268   3.903
 8639SOL     OW26815   3.058   4.231   0.408
 8639SOL    HW126816   3.108   4.209   0.492
 8639SOL    HW226817   2.963   4.253   0.430
 8640SOL     OW26818   3.954   2.388   0.659
 8640SOL    HW126819   4.020   2.463   0.664
 8640SOL    HW226820   3.929   2.358   0.751
 8641SOL     OW26821   3.788   5.366   2.542
 8641SOL    HW126822   3.852   5.311   2.595
 8641SOL    HW226823   3.731   5.306   2.486
 8642SOL     OW26824   1.692   5.906   3.026
 8642SOL    HW126825   1.768   5.867   3.078
 8642SOL    HW226826   1.726   5.939   2.937
 8643SOL     OW26827   3.624   6.384   1.145
 8643SOL    HW126828   3.720   6.407   1.159
 8643SOL    HW226829   3.601   6.392   1.048
 8644SOL     OW26830   5.867   2.424   6.217
 8644SOL    HW126831   5.893   2.343   6.165
 8644SOL    HW226832   5.878   2.505   6.160
 8645SOL     OW26833   5.404   5.739   2.862
 8645SOL    HW126834   5.400   5.809   2.933
 8645SOL    HW226835   5.312   5.712   2.836
 8646SOL     OW26836   6.985   2.667   5.400
 8646SOL    HW126837   6.963   2.665   5.498
 8646SOL    HW226838   0.062   2.665   5.389
 8647SOL     OW26839   1.643   5.274   1.762
 8647SOL    HW126840   1.704   5.283   1.841
 8647SOL    HW226841   1.587   5.356   1.754
 8648SOL     OW26842   4.736   5.425   0.668
 8648SOL    HW126843   4.783   5.350   0.713
 8648SOL    HW226844   4.640   5.427   0.698
 8649SOL     OW26845   5.800   1.449   0.927
 8649SOL    HW126846   5.844   1.386   0.992
 8649SOL    HW226847   5.735   1.507   0.975
 8650SOL     OW26848   2.010   0.111   5.589
 8650SOL    HW126849   1.977   0.167   5.665
 8650SOL    HW226850   1.933   0.075   5.537
 8651SOL     OW26851   4.107   2.020   1.626
 8651SOL    HW126852   4.135   1.930   1.659
 8651SOL    HW226853   4.039   2.058   1.689
 8652SOL     OW26854   0.916   2.900   3.674
 8652SOL    HW126855   1.011   2.898   3.706
 8652SOL    HW226856   0.901   2.983   3.620
 8653SOL     OW26857   5.939   1.324   6.813
 8653SOL    HW126858   5.869   1.389   6.842
 8653SOL    HW226859   6.027   1.370   6.804
 8654SOL     OW26860   6.920   4.902   2.949
 8654SOL    HW126861   6.976   4.824   2.921
 8654SOL    HW226862   6.837   4.906   2.893
 8655SOL     OW26863   0.840   0.165   4.879
 8655SOL    HW126864   0.831   0.153   4.978
 8655SOL    HW226865   0.912   0.232   4.861
 8656SOL     OW26866   4.050   6.553   0.678
 8656SOL    HW126867   4.150   6.551   0.679
 8656SOL    HW226868   4.015   6.501   0.755
 8657SOL     OW26869   3.082   1.912   2.913
 8657SOL    HW126870   3.096   1.987   2.849
 8657SOL    HW226871   3.018   1.940   2.984
 8658SOL     OW26872   6.165   4.705   1.461
 8658SOL    HW126873   6.221   4.770   1.513
 8658SOL    HW226874   6.209   4.688   1.373
 8659SOL     OW26875   3.846   0.732   2.405
 8659SOL    HW126876   3.934   0.767   2.437
 8659SOL    HW226877   3.837   0.751   2.307
 8660SOL     OW26878   0.496   4.225   1.965
 8660SOL    HW126879   0.589   4.217   1.927
 8660SOL    HW226880   0.465   4.135   1.995
 8661SOL     OW26881   6.918   3.625   2.004
 8661SOL    HW126882   6.957   3.690   2.070
 8661SOL    HW226883   6.828   3.594   2.037
 8662SOL     OW26884   1.188   2.318   2.796
 8662SOL    HW126885   1.163   2.236   2.848
 8662SOL    HW226886   1.194   2.397   2.858
 8663SOL     OW26887   4.150   4.746   2.751
 8663SOL    HW126888   4.227   4.810   2.750
 8663SOL    HW226889   4.112   4.738   2.659
 8664SOL     OW26890   3.622   6.169   3.761
 8664SOL    HW126891   3.633   6.105   3.685
 8664SOL    HW226892   3.697   6.235   3.760
 8665SOL     OW26893   5.565   3.991   6.825
 8665SOL    HW126894   5.531   3.897   6.816
 8665SOL    HW226895   5.496   4.055   6.790
 8666SOL     OW26896   4.769   0.444   2.876
 8666SOL    HW126897   4.679   0.460   2.836
 8666SOL    HW226898   4.763   0.374   2.946
 8667SOL     OW26899   5.310   2.298   2.075
 8667SOL    HW126900   5.380   2.324   2.141
 8667SOL    HW226901   5.345   2.308   1.982
 8668SOL     OW26902   4.822   2.096   4.233
 8668SOL    HW126903   4.732   2.067   4.263
 8668SOL    HW226904   4.857   2.166   4.296
 8669SOL     OW26905   6.938   6.276   6.496
 8669SOL    HW126906   6.958   6.326   6.580
 8669SOL    HW226907   6.883   6.195   6.517
 8670SOL     OW26908   6.526   5.125   5.321
 8670SOL    HW126909   6.489   5.099   5.231
 8670SOL    HW226910   6.547   5.043   5.373
 8671SOL     OW26911   6.961   2.801   2.966
 8671SOL    HW126912   6.877   2.823   2.916
 8671SOL    HW226913   6.952   2.711   3.009
 8672SOL     OW26914   6.906   1.423   2.818
 8672SOL    HW126915   6.837   1.443   2.748
 8672SOL    HW226916   6.952   1.337   2.796
 8673SOL     OW26917   1.205   1.518   1.156
 8673SOL    HW126918   1.293   1.471   1.161
 8673SOL    HW226919   1.180   1.551   1.247
 8674SOL     OW26920   7.013   4.483   3.275
 8674SOL    HW126921   6.992   4.422   3.351
 8674SOL    HW226922   0.061   4.548   3.303
 8675SOL     OW26923   4.420   2.448   4.747
 8675SOL    HW126924   4.335   2.396   4.756
 8675SOL    HW226925   4.400   2.546   4.750
 8676SOL     OW26926   4.810   1.942   1.262
 8676SOL    HW126927   4.762   1.992   1.334
 8676SOL    HW226928   4.900   1.914   1.294
 8677SOL     OW26929   2.665   6.961   6.310
 8677SOL    HW126930   2.638   0.034   6.306
 8677SOL    HW226931   2.625   6.918   6.391
 8678SOL     OW26932   2.771   2.107   0.417
 8678SOL    HW126933   2.688   2.120   0.364
 8678SOL    HW226934   2.752   2.046   0.495
 8679SOL     OW26935   1.719   1.908   6.494
 8679SOL    HW126936   1.751   1.924   6.401
 8679SOL    HW226937   1.639   1.847   6.491
 8680SOL     OW26938   0.300   0.352   0.546
 8680SOL    HW126939   0.259   0.441   0.568
 8680SOL    HW226940   0.376   0.334   0.609
 8681SOL     OW26941   5.273   4.911   1.592
 8681SOL    HW126942   5.335   4.956   1.527
 8681SOL    HW226943   5.179   4.932   1.568
 8682SOL     OW26944   2.663   0.564   2.655
 8682SOL    HW126945   2.699   0.484   2.703
 8682SOL    HW226946   2.665   0.547   2.556
 8683SOL     OW26947   2.433   4.481   4.291
 8683SOL    HW126948   2.397   4.437   4.373
 8683SOL    HW226949   2.483   4.413   4.237
 8684SOL     OW26950   2.434   4.414   3.360
 8684SOL    HW126951   2.472   4.449   3.446
 8684SOL    HW226952   2.343   4.376   3.376
 8685SOL     OW26953   4.885   3.118   4.832
 8685SOL    HW126954   4.794   3.102   4.872
 8685SOL    HW226955   4.896   3.062   4.751
 8686SOL     OW26956   1.352   5.195   3.083
 8686SOL    HW126957   1.276   5.252   3.115
 8686SOL    HW226958   1.398   5.154   3.161
 8687SOL     OW26959   5.678   4.364   5.538
 8687SOL    HW126960   5.745   4.317   5.595
 8687SOL    HW226961   5.660   4.310   5.456
 8688SOL     OW26962   1.129   3.955   5.126
 8688SOL    HW126963   1.182   3.876   5.157
 8688SOL    HW226964   1.121   3.952   5.026
 8689SOL     OW26965   4.685   3.334   0.895
 8689SOL    HW126966   4.586   3.324   0.884
 8689SOL    HW226967   4.705   3.373   0.985
 8690SOL     OW26968   1.214   1.578   2.320
 8690SOL    HW126969   1.296   1.614   2.276
 8690SOL    HW226970   1.180   1.498   2.269
 8691SOL     OW26971   3.486   2.283   6.242
 8691SOL    HW126972   3.506   2.371   6.199
 8691SOL    HW226973   3.392   2.283   6.275
 8692SOL     OW26974   5.436   3.082   4.182
 8692SOL    HW126975   5.375   3.129   4.246
 8692SOL    HW226976   5.391   3.001   4.145
 8693SOL     OW26977   6.967   6.796   5.568
 8693SOL    HW126978   0.013   6.743   5.519
 8693SOL    HW226979   6.887   6.738   5.586
 8694SOL     OW26980   4.551   3.496   5.805
 8694SOL    HW126981   4.457   3.465   5.793
 8694SOL    HW226982   4.591   3.454   5.886
 8695SOL     OW26983   2.960   4.943   0.988
 8695SOL    HW126984   2.943   4.851   1.022
 8695SOL    HW226985   2.904   5.008   1.038
 8696SOL     OW26986   2.476   5.924   6.179
 8696SOL    HW126987   2.417   5.987   6.229
 8696SOL    HW226988   2.554   5.899   6.236
 8697SOL     OW26989   0.995   3.628   4.887
 8697SOL    HW126990   1.088   3.595   4.901
 8697SOL    HW226991   0.986   3.665   4.794
 8698SOL     OW26992   4.242   4.363   6.765
 8698SOL    HW126993   4.269   4.286   6.824
 8698SOL    HW226994   4.241   4.447   6.820
 8699SOL     OW26995   2.138   2.239   0.858
 8699SOL    HW126996   2.173   2.149   0.833
 8699SOL    HW226997   2.040   2.244   0.841
 8700SOL     OW26998   0.641   1.808   5.096
 8700SOL    HW126999   0.673   1.716   5.072
 8700SOL    HW227000   0.554   1.826   5.050
 8701SOL     OW27001   1.912   3.253   6.605
 8701SOL    HW127002   1.971   3.191   6.553
 8701SOL    HW227003   1.852   3.302   6.542
 8702SOL     OW27004   5.805   4.259   1.119
 8702SOL    HW127005   5.746   4.186   1.087
 8702SOL    HW227006   5.831   4.242   1.214
 8703SOL     OW27007   2.565   5.875   1.769
 8703SOL    HW127008   2.486   5.826   1.804
 8703SOL    HW227009   2.649   5.827   1.796
 8704SOL     OW27010   0.163   1.468   4.893
 8704SOL    HW127011   0.195   1.390   4.840
 8704SOL    HW227012   0.083   1.442   4.946
 8705SOL     OW27013   3.523   2.102   0.144
 8705SOL    HW127014   3.523   2.202   0.142
 8705SOL    HW227015   3.610   2.068   0.110
 8706SOL     OW27016   4.861   2.318   6.509
 8706SOL    HW127017   4.794   2.268   6.454
 8706SOL    HW227018   4.953   2.303   6.473
 8707SOL     OW27019   1.093   1.218   3.982
 8707SOL    HW127020   1.140   1.138   3.946
 8707SOL    HW227021   1.005   1.228   3.936
 8708SOL     OW27022   5.929   2.682   1.258
 8708SOL    HW127023   5.953   2.772   1.294
 8708SOL    HW227024   5.840   2.654   1.293
 8709SOL     OW27025   6.610   6.089   4.148
 8709SOL    HW127026   6.596   6.183   4.117
 8709SOL    HW227027   6.707   6.074   4.167
 8710SOL     OW27028   2.173   1.779   3.396
 8710SOL    HW127029   2.214   1.829   3.472
 8710SOL    HW227030   2.074   1.793   3.397
 8711SOL     OW27031   1.537   1.217   2.102
 8711SOL    HW127032   1.630   1.203   2.137
 8711SOL    HW227033   1.473   1.217   2.179
 8712SOL     OW27034   0.788   4.523   4.338
 8712SOL    HW127035   0.711   4.466   4.310
 8712SOL    HW227036   0.821   4.493   4.428
 8713SOL     OW27037   0.265   3.821   2.345
 8713SOL    HW127038   0.350   3.854   2.304
 8713SOL    HW227039   0.284   3.787   2.437
 8714SOL     OW27040   6.127   4.628   6.624
 8714SOL    HW127041   6.084   4.610   6.536
 8714SOL    HW227042   6.168   4.719   6.624
 8715SOL     OW27043   2.375   4.857   1.474
 8715SOL    HW127044   2.332   4.926   1.415
 8715SOL    HW227045   2.418   4.902   1.552
 8716SOL     OW27046   6.363   0.598   1.958
 8716SOL    HW127047   6.386   0.501   1.954
 8716SOL    HW227048   6.356   0.634   1.865
 8717SOL     OW27049   3.337   2.594   0.611
 8717SOL    HW127050   3.386   2.517   0.570
 8717SOL    HW227051   3.250   2.562   0.648
 8718SOL     OW27052   3.183   5.266   6.698
 8718SOL    HW127053   3.221   5.358   6.712
 8718SOL    HW227054   3.144   5.232   6.784
 8719SOL     OW27055   2.956   1.373   4.975
 8719SOL    HW127056   2.995   1.438   4.909
 8719SOL    HW227057   2.860   1.398   4.992
 8720SOL     OW27058   1.054   6.053   4.490
 8720SOL    HW127059   1.044   5.955   4.475
 8720SOL    HW227060   1.084   6.097   4.405
 8721SOL     OW27061   0.954   0.004   1.321
 8721SOL    HW127062   0.981   6.967   1.245
 8721SOL    HW227063   0.855   0.019   1.318
 8722SOL     OW27064   3.000   1.515   0.568
 8722SOL    HW127065   2.911   1.540   0.607
 8722SOL    HW227066   3.040   1.441   0.621
 8723SOL     OW27067   4.055   6.499   2.038
 8723SOL    HW127068   4.103   6.566   1.980
 8723SOL    HW227069   4.093   6.408   2.021
 8724SOL     OW27070   3.383   1.713   4.757
 8724SOL    HW127071   3.360   1.743   4.850
 8724SOL    HW227072   3.482   1.701   4.750
 8725SOL     OW27073   6.967   0.457   2.700
 8725SOL    HW127074   6.916   0.473   2.784
 8725SOL    HW227075   6.908   0.412   2.633
 8726SOL     OW27076   6.175   0.774   0.505
 8726SOL    HW127077   6.237   0.804   0.577
 8726SOL    HW227078   6.224   0.716   0.440
 8727SOL     OW27079   5.364   6.072   6.624
 8727SOL    HW127080   5.375   6.115   6.714
 8727SOL    HW227081   5.316   6.136   6.564
 8728SOL     OW27082   6.234   6.689   4.288
 8728SOL    HW127083   6.152   6.634   4.272
 8728SOL    HW227084   6.310   6.629   4.314
 8729SOL     OW27085   5.888   5.633   6.164
 8729SOL    HW127086   5.965   5.616   6.102
 8729SOL    HW227087   5.912   5.707   6.227
 8730SOL     OW27088   4.063   4.694   1.780
 8730SOL    HW127089   4.058   4.594   1.775
 8730SOL    HW227090   3.997   4.727   1.848
 8731SOL     OW27091   6.937   1.804   3.732
 8731SOL    HW127092   6.935   1.801   3.632
 8731SOL    HW227093   6.880   1.880   3.764
 8732SOL     OW27094   5.166   6.214   6.132
 8732SOL    HW127095   5.084   6.189   6.080
 8732SOL    HW227096   5.244   6.217   6.070
 8733SOL     OW27097   6.417   4.633   2.431
 8733SOL    HW127098   6.414   4.612   2.334
 8733SOL    HW227099   6.473   4.714   2.446
 8734SOL     OW27100   1.502   5.242   0.506
 8734SOL    HW127101   1.551   5.174   0.451
 8734SOL    HW227102   1.530   5.234   0.602
 8735SOL     OW27103   1.497   3.062   5.895
 8735SOL    HW127104   1.397   3.070   5.892
 8735SOL    HW227105   1.532   3.045   5.802
 8736SOL     OW27106   1.549   5.611   3.341
 8736SOL    HW127107   1.462   5.602   3.292
 8736SOL    HW227108   1.615   5.660   3.284
 8737SOL     OW27109   0.503   5.596   6.664
 8737SOL    HW127110   0.456   5.615   6.578
 8737SOL    HW227111   0.492   5.499   6.687
 8738SOL     OW27112   1.864   2.564   2.291
 8738SOL    HW127113   1.900   2.580   2.199
 8738SOL    HW227114   1.927   2.602   2.359
 8739SOL     OW27115   5.557   4.434   3.325
 8739SOL    HW127116   5.521   4.431   3.418
 8739SOL    HW227117   5.633   4.369   3.317
 8740SOL     OW27118   3.003   1.924   3.225
 8740SOL    HW127119   2.998   1.929   3.325
 8740SOL    HW227120   3.076   1.985   3.193
 8741SOL     OW27121   1.022   1.725   2.456
 8741SOL    HW127122   1.067   1.654   2.402
 8741SOL    HW227123   1.092   1.784   2.496
 8742SOL     OW27124   2.418   2.697   1.748
 8742SOL    HW127125   2.418   2.796   1.731
 8742SOL    HW227126   2.511   2.662   1.738
 8743SOL     OW27127   0.817   3.257   0.354
 8743SOL    HW127128   0.734   3.285   0.401
 8743SOL    HW227129   0.897   3.280   0.410
 8744SOL     OW27130   3.684   3.819   5.916
 8744SOL    HW127131   3.662   3.785   6.008
 8744SOL    HW227132   3.599   3.831   5.865
 8745SOL     OW27133   5.911   1.955   6.610
 8745SOL    HW127134   5.822   1.996   6.628
 8745SOL    HW227135   5.941   1.979   6.518
 8746SOL     OW27136   4.052   4.888   5.027
 8746SOL    HW127137   4.144   4.849   5.036
 8746SOL    HW227138   3.991   4.846   5.093
 8747SOL     OW27139   1.139   0.697   2.320
 8747SOL    HW127140   1.165   0.736   2.232
 8747SOL    HW227141   1.048   0.657   2.313
 8748SOL     OW27142   5.592   1.917   4.406
 8748SOL    HW127143   5.548   1.842   4.456
 8748SOL    HW227144   5.625   1.883   4.318
 8749SOL     OW27145   2.714   1.140   3.965
 8749SOL    HW127146   2.631   1.088   3.985
 8749SOL    HW227147   2.741   1.192   4.047
 8750SOL     OW27148   4.297   3.442   1.652
 8750SOL    HW127149   4.286   3.521   1.712
 8750SOL    HW227150   4.391   3.436   1.621
 8751SOL     OW27151   2.422   6.848   0.323
 8751SOL    HW127152   2.347   6.810   0.378
 8751SOL    HW227153   2.396   6.846   0.227
 8752SOL     OW27154   6.880   3.542   6.023
 8752SOL    HW127155   6.833   3.454   6.032
 8752SOL    HW227156   6.943   3.554   6.100
 8753SOL     OW27157   1.883   1.835   0.887
 8753SOL    HW127158   1.836   1.791   0.964
 8753SOL    HW227159   1.909   1.766   0.820
 8754SOL     OW27160   1.133   6.244   6.218
 8754SOL    HW127161   1.060   6.297   6.174
 8754SOL    HW227162   1.126   6.254   6.317
 8755SOL     OW27163   0.175   2.624   1.622
 8755SOL    HW127164   0.261   2.671   1.639
 8755SOL    HW227165   0.192   2.535   1.581
 8756SOL     OW27166   1.414   1.572   1.871
 8756SOL    HW127167   1.319   1.587   1.844
 8756SOL    HW227168   1.426   1.478   1.903
 8757SOL     OW27169   5.534   6.118   5.312
 8757SOL    HW127170   5.508   6.034   5.264
 8757SOL    HW227171   5.497   6.116   5.405
 8758SOL     OW27172   3.940   5.958   6.009
 8758SOL    HW127173   3.853   5.930   5.969
 8758SOL    HW227174   3.936   6.055   6.034
 8759SOL     OW27175   6.037   1.138   1.846
 8759SOL    HW127176   6.104   1.076   1.805
 8759SOL    HW227177   5.961   1.151   1.782
 8760SOL     OW27178   2.491   2.287   4.271
 8760SOL    HW127179   2.487   2.201   4.220
 8760SOL    HW227180   2.401   2.307   4.310
 8761SOL     OW27181   4.726   2.408   2.917
 8761SOL    HW127182   4.640   2.455   2.940
 8761SOL    HW227183   4.718   2.366   2.827
 8762SOL     OW27184   4.050   6.265   2.904
 8762SOL    HW127185   4.000   6.197   2.957
 8762SOL    HW227186   4.003   6.282   2.818
 8763SOL     OW27187   0.058   1.742   5.211
 8763SOL    HW127188   0.120   1.724   5.287
 8763SOL    HW227189   6.991   1.767   5.247
 8764SOL     OW27190   3.359   5.003   6.363
 8764SOL    HW127191   3.419   4.939   6.410
 8764SOL    HW227192   3.306   4.954   6.294
 8765SOL     OW27193   4.318   6.703   3.993
 8765SOL    HW127194   4.301   6.775   3.926
 8765SOL    HW227195   4.231   6.678   4.038
 8766SOL     OW27196   5.354   0.125   4.910
 8766SOL    HW127197   5.390   0.142   5.002
 8766SOL    HW227198   5.412   0.173   4.843
 8767SOL     OW27199   1.762   1.017   4.086
 8767SOL    HW127200   1.727   0.992   4.176
 8767SOL    HW227201   1.718   0.960   4.016
 8768SOL     OW27202   6.758   1.443   0.772
 8768SOL    HW127203   6.837   1.397   0.811
 8768SOL    HW227204   6.736   1.404   0.683
 8769SOL     OW27205   6.036   0.135   6.180
 8769SOL    HW127206   5.979   0.060   6.146
 8769SOL    HW227207   6.004   0.221   6.141
 8770SOL     OW27208   4.961   1.954   0.260
 8770SOL    HW127209   5.010   2.019   0.319
 8770SOL    HW227210   4.918   2.004   0.185
 8771SOL     OW27211   0.798   2.314   6.380
 8771SOL    HW127212   0.820   2.234   6.325
 8771SOL    HW227213   0.878   2.341   6.434
 8772SOL     OW27214   0.199   0.033   3.399
 8772SOL    HW127215   0.122   7.014   3.446
 8772SOL    HW227216   0.281   0.027   3.456
 8773SOL     OW27217   0.324   1.666   3.443
 8773SOL    HW127218   0.360   1.580   3.479
 8773SOL    HW227219   0.244   1.648   3.387
 8774SOL     OW27220   1.353   1.945   6.859
 8774SOL    HW127221   1.263   1.947   6.902
 8774SOL    HW227222   1.413   1.883   6.911
 8775SOL     OW27223   5.340   2.284   3.211
 8775SOL    HW127224   5.274   2.318   3.278
 8775SOL    HW227225   5.401   2.219   3.254
 8776SOL     OW27226   4.999   2.842   1.616
 8776SOL    HW127227   4.946   2.813   1.537
 8776SOL    HW227228   5.022   2.939   1.608
 8777SOL     OW27229   6.606   2.378   3.384
 8777SOL    HW127230   6.619   2.477   3.379
 8777SOL    HW227231   6.514   2.355   3.354
 8778SOL     OW27232   2.869   3.967   0.172
 8778SOL    HW127233   2.801   4.040   0.166
 8778SOL    HW227234   2.822   3.879   0.185
 8779SOL     OW27235   4.243   5.475   2.898
 8779SOL    HW127236   4.184   5.445   2.823
 8779SOL    HW227237   4.279   5.396   2.946
 8780SOL     OW27238   0.739   4.381   3.967
 8780SOL    HW127239   0.831   4.389   3.930
 8780SOL    HW227240   0.682   4.327   3.904
 8781SOL     OW27241   2.803   0.729   1.389
 8781SOL    HW127242   2.835   0.816   1.427
 8781SOL    HW227243   2.773   0.670   1.464
 8782SOL     OW27244   6.230   2.528   0.885
 8782SOL    HW127245   6.144   2.567   0.918
 8782SOL    HW227246   6.222   2.510   0.786
 8783SOL     OW27247   4.241   4.060   5.389
 8783SOL    HW127248   4.195   4.035   5.474
 8783SOL    HW227249   4.218   4.154   5.365
 8784SOL     OW27250   4.401   0.915   6.984
 8784SOL    HW127251   4.312   0.950   6.956
 8784SOL    HW227252   4.421   0.831   6.934
 8785SOL     OW27253   6.824   5.525   5.557
 8785SOL    HW127254   6.818   5.544   5.459
 8785SOL    HW227255   6.902   5.465   5.574
 8786SOL     OW27256   5.778   1.826   3.515
 8786SOL    HW127257   5.803   1.740   3.559
 8786SOL    HW227258   5.767   1.897   3.585
 8787SOL     OW27259   3.353   5.308   1.883
 8787SOL    HW127260   3.367   5.230   1.822
 8787SOL    HW227261   3.386   5.391   1.838
 8788SOL     OW27262   0.386   6.177   4.354
 8788SOL    HW127263   0.358   6.207   4.446
 8788SOL    HW227264   0.341   6.234   4.286
 8789SOL     OW27265   1.515   2.652   6.457
 8789SOL    HW127266   1.538   2.693   6.369
 8789SOL    HW227267   1.597   2.615   6.500
 8790SOL     OW27268   4.507   2.647   4.998
 8790SOL    HW127269   4.474   2.738   4.974
 8790SOL    HW227270   4.606   2.650   5.013
 8791SOL     OW27271   4.049   6.002   5.033
 8791SOL    HW127272   4.004   5.923   4.993
 8791SOL    HW227273   3.995   6.084   5.015
 8792SOL     OW27274   5.645   5.180   1.884
 8792SOL    HW127275   5.574   5.127   1.838
 8792SOL    HW227276   5.734   5.139   1.868
 8793SOL     OW27277   6.257   6.142   5.262
 8793SOL    HW127278   6.353   6.161   5.278
 8793SOL    HW227279   6.201   6.210   5.309
 8794SOL     OW27280   7.011   1.633   2.954
 8794SOL    HW127281   6.987   1.543   2.919
 8794SOL    HW227282   0.039   1.684   2.885
 8795SOL     OW27283   1.170   6.417   6.610
 8795SOL    HW127284   1.254   6.377   6.645
 8795SOL    HW227285   1.192   6.489   6.544
 8796SOL     OW27286   5.859   4.025   4.956
 8796SOL    HW127287   5.781   4.063   4.907
 8796SOL    HW227288   5.915   3.972   4.892
 8797SOL     OW27289   5.413   6.266   4.632
 8797SOL    HW127290   5.418   6.227   4.724
 8797SOL    HW227291   5.318   6.265   4.600
 8798SOL     OW27292   2.012   6.211   5.671
 8798SOL    HW127293   1.926   6.260   5.657
 8798SOL    HW227294   2.010   6.124   5.623
 8799SOL     OW27295   1.292   5.935   1.728
 8799SOL    HW127296   1.282   5.852   1.672
 8799SOL    HW227297   1.364   5.992   1.690
 8800SOL     OW27298   6.630   5.925   3.902
 8800SOL    HW127299   6.622   6.021   3.875
 8800SOL    HW227300   6.704   5.915   3.968
 8801SOL     OW27301   5.151   3.593   5.670
 8801SOL    HW127302   5.157   3.683   5.714
 8801SOL    HW227303   5.233   3.540   5.693
 8802SOL     OW27304   1.393   6.316   6.695
 8802SOL    HW127305   1.448   6.378   6.751
 8802SOL    HW227306   1.416   6.221   6.718
 8803SOL     OW27307   5.570   5.649   5.116
 8803SOL    HW127308   5.664   5.654   5.151
 8803SOL    HW227309   5.545   5.553   5.102
 8804SOL     OW27310   1.135   6.034   2.286
 8804SOL    HW127311   1.234   6.020   2.287
 8804SOL    HW227312   1.109   6.079   2.200
 8805SOL     OW27313   5.375   4.622   3.259
 8805SOL    HW127314   5.427   4.540   3.283
 8805SOL    HW227315   5.278   4.606   3.276
 8806SOL     OW27316   1.219   0.808   2.096
 8806SOL    HW127317   1.189   0.896   2.059
 8806SOL    HW227318   1.319   0.804   2.094
 8807SOL     OW27319   5.511   2.406   1.298
 8807SOL    HW127320   5.490   2.382   1.393
 8807SOL    HW227321   5.437   2.461   1.261
 8808SOL     OW27322   2.052   1.888   0.129
 8808SOL    HW127323   1.986   1.957   0.158
 8808SOL    HW227324   2.039   1.804   0.181
 8809SOL     OW27325   0.378   3.457   3.170
 8809SOL    HW127326   0.311   3.434   3.099
 8809SOL    HW227327   0.348   3.419   3.257
 8810SOL     OW27328   0.236   2.232   5.057
 8810SOL    HW127329   0.316   2.204   5.111
 8810SOL    HW227330   0.186   2.151   5.027
 8811SOL     OW27331   4.446   4.640   2.494
 8811SOL    HW127332   4.540   4.633   2.463
 8811SOL    HW227333   4.388   4.672   2.419
 8812SOL     OW27334   5.382   0.990   0.488
 8812SOL    HW127335   5.413   1.063   0.427
 8812SOL    HW227336   5.437   0.908   0.471
 8813SOL     OW27337   2.086   3.104   2.376
 8813SOL    HW127338   2.093   3.107   2.476
 8813SOL    HW227339   2.099   3.196   2.340
 8814SOL     OW27340   5.879   6.617   4.933
 8814SOL    HW127341   5.870   6.525   4.971
 8814SOL    HW227342   5.915   6.678   5.003
 8815SOL     OW27343   4.942   1.039   1.314
 8815SOL    HW127344   4.987   0.950   1.314
 8815SOL    HW227345   4.870   1.040   1.383
 8816SOL     OW27346   0.119   0.113   3.742
 8816SOL    HW127347   0.051   0.176   3.706
 8816SOL    HW227348   0.112   0.111   3.842
 8817SOL     OW27349   1.262   2.843   3.172
 8817SOL    HW127350   1.260   2.916   3.240
 8817SOL    HW227351   1.170   2.804   3.163
 8818SOL     OW27352   0.919   6.415   6.107
 8818SOL    HW127353   0.931   6.432   6.009
 8818SOL    HW227354   0.832   6.455   6.137
 8819SOL     OW27355   4.816   6.138   6.314
 8819SOL    HW127356   4.906   6.180   6.329
 8819SOL    HW227357   4.753   6.167   6.385
 8820SOL     OW27358   4.224   6.654   5.359
 8820SOL    HW127359   4.144   6.699   5.399
 8820SOL    HW227360   4.297   6.649   5.426
 8821SOL     OW27361   0.896   4.809   6.343
 8821SOL    HW127362   0.834   4.752   6.397
 8821SOL    HW227363   0.909   4.897   6.390
 8822SOL     OW27364   6.232   0.407   4.838
 8822SOL    HW127365   6.207   0.500   4.812
 8822SOL    HW227366   6.330   0.394   4.828
 8823SOL     OW27367   4.095   1.399   2.775
 8823SOL    HW127368   4.144   1.482   2.749
 8823SOL    HW227369   4.092   1.392   2.875
 8824SOL     OW27370   1.817   0.421   3.835
 8824SOL    HW127371   1.827   0.502   3.893
 8824SOL    HW227372   1.806   0.450   3.740
 8825SOL     OW27373   0.293   6.791   0.105
 8825SOL    HW127374   0.381   6.811   0.148
 8825SOL    HW227375   0.292   6.696   0.075
 8826SOL     OW27376   0.700   4.316   0.107
 8826SOL    HW127377   0.690   4.361   0.196
 8826SOL    HW227378   0.725   4.220   0.121
 8827SOL     OW27379   4.829   6.747   3.227
 8827SOL    HW127380   4.871   6.799   3.153
 8827SOL    HW227381   4.802   6.809   3.301
 8828SOL     OW27382   5.209   2.048   6.250
 8828SOL    HW127383   5.133   2.085   6.196
 8828SOL    HW227384   5.296   2.070   6.205
 8829SOL     OW27385   7.020   1.162   2.750
 8829SOL    HW127386   0.090   1.165   2.713
 8829SOL    HW227387   6.955   1.159   2.674
 8830SOL     OW27388   3.320   0.612   3.221
 8830SOL    HW127389   3.236   0.561   3.241
 8830SOL    HW227390   3.307   0.666   3.138
 8831SOL     OW27391   6.918   3.118   2.595
 8831SOL    HW127392   7.014   3.142   2.613
 8831SOL    HW227393   6.899   3.128   2.498
 8832SOL     OW27394   5.143   0.714   5.594
 8832SOL    HW127395   5.084   0.795   5.591
 8832SOL    HW227396   5.197   0.715   5.678
 8833SOL     OW27397   4.980   2.958   0.597
 8833SOL    HW127398   4.946   3.017   0.671
 8833SOL    HW227399   5.014   3.015   0.522
 8834SOL     OW27400   5.375   4.854   6.435
 8834SOL    HW127401   5.281   4.859   6.471
 8834SOL    HW227402   5.431   4.924   6.478
 8835SOL     OW27403   6.988   0.976   5.119
 8835SOL    HW127404   6.955   0.992   5.026
 8835SOL    HW227405   6.926   0.914   5.166
 8836SOL     OW27406   4.125   1.165   0.916
 8836SOL    HW127407   4.049   1.167   0.852
 8836SOL    HW227408   4.107   1.227   0.993
 8837SOL     OW27409   4.692   5.742   0.689
 8837SOL    HW127410   4.735   5.812   0.745
 8837SOL    HW227411   4.751   5.661   0.686
 8838SOL     OW27412   2.141   3.418   3.281
 8838SOL    HW127413   2.130   3.482   3.357
 8838SOL    HW227414   2.137   3.469   3.194
 8839SOL     OW27415   4.785   4.631   1.476
 8839SOL    HW127416   4.821   4.585   1.557
 8839SOL    HW227417   4.726   4.707   1.504
 8840SOL     OW27418   6.884   1.057   1.091
 8840SOL    HW127419   6.815   1.040   1.022
 8840SOL    HW227420   6.969   1.009   1.067
 8841SOL     OW27421   3.384   1.093   0.812
 8841SOL    HW127422   3.335   1.154   0.873
 8841SOL    HW227423   3.406   1.008   0.859
 8842SOL     OW27424   3.554   3.028   4.207
 8842SOL    HW127425   3.558   3.127   4.191
 8842SOL    HW227426   3.459   2.998   4.207
 8843SOL     OW27427   2.618   5.428   5.337
 8843SOL    HW127428   2.536   5.468   5.296
 8843SOL    HW227429   2.692   5.494   5.335
 8844SOL     OW27430   3.291   2.871   6.156
 8844SOL    HW127431   3.252   2.957   6.124
 8844SOL    HW227432   3.357   2.838   6.089
 8845SOL     OW27433   0.548   3.601   2.334
 8845SOL    HW127434   0.540   3.507   2.302
 8845SOL    HW227435   0.628   3.609   2.393
 8846SOL     OW27436   5.681   4.894   4.459
 8846SOL    HW127437   5.736   4.972   4.429
 8846SOL    HW227438   5.709   4.867   4.551
 8847SOL     OW27439   0.839   2.169   3.808
 8847SOL    HW127440   0.779   2.170   3.728
 8847SOL    HW227441   0.876   2.261   3.823
 8848SOL     OW27442   6.467   1.850   0.745
 8848SOL    HW127443   6.459   1.806   0.834
 8848SOL    HW227444   6.377   1.881   0.715
 8849SOL     OW27445   3.412   5.730   4.092
 8849SOL    HW127446   3.411   5.647   4.036
 8849SOL    HW227447   3.495   5.783   4.070
 8850SOL     OW27448   2.521   1.608   1.400
 8850SOL    HW127449   2.571   1.526   1.371
 8850SOL    HW227450   2.492   1.659   1.319
 8851SOL     OW27451   0.142   5.228   2.545
 8851SOL    HW127452   0.105   5.156   2.486
 8851SOL    HW227453   0.235   5.251   2.516
 8852SOL     OW27454   5.314   3.451   4.713
 8852SOL    HW127455   5.353   3.360   4.709
 8852SOL    HW227456   5.318   3.485   4.808
 8853SOL     OW27457   4.777   2.219   5.318
 8853SOL    HW127458   4.716   2.141   5.309
 8853SOL    HW227459   4.787   2.242   5.415
 8854SOL     OW27460   2.191   1.002   6.019
 8854SOL    HW127461   2.191   1.059   6.101
 8854SOL    HW227462   2.239   0.917   6.036
 8855SOL     OW27463   6.106   5.075   6.453
 8855SOL    HW127464   6.157   5.158   6.433
 8855SOL    HW227465   6.011   5.099   6.474
 8856SOL     OW27466   5.417   0.904   5.435
 8856SOL    HW127467   5.509   0.929   5.404
 8856SOL    HW227468   5.410   0.804   5.441
 8857SOL     OW27469   1.473   3.166   4.829
 8857SOL    HW127470   1.521   3.233   4.885
 8857SOL    HW227471   1.396   3.128   4.880
 8858SOL     OW27472   6.982   3.850   5.957
 8858SOL    HW127473   6.887   3.878   5.938
 8858SOL    HW227474   6.993   3.754   5.933
 8859SOL     OW27475   2.712   6.092   5.319
 8859SOL    HW127476   2.696   6.169   5.381
 8859SOL    HW227477   2.708   6.124   5.225
 8860SOL     OW27478   1.673   1.902   0.480
 8860SOL    HW127479   1.681   1.982   0.421
 8860SOL    HW227480   1.618   1.925   0.561
 8861SOL     OW27481   2.405   2.614   1.467
 8861SOL    HW127482   2.409   2.650   1.560
 8861SOL    HW227483   2.460   2.671   1.406
 8862SOL     OW27484   6.308   2.720   5.366
 8862SOL    HW127485   6.361   2.637   5.380
 8862SOL    HW227486   6.301   2.740   5.268
 8863SOL     OW27487   1.157   5.408   5.415
 8863SOL    HW127488   1.249   5.376   5.393
 8863SOL    HW227489   1.150   5.422   5.514
 8864SOL     OW27490   1.324   4.202   6.127
 8864SOL    HW127491   1.383   4.133   6.168
 8864SOL    HW227492   1.336   4.289   6.175
 8865SOL     OW27493   2.868   2.160   6.036
 8865SOL    HW127494   2.942   2.096   6.016
 8865SOL    HW227495   2.887   2.248   5.992
 8866SOL     OW27496   5.333   6.550   5.163
 8866SOL    HW127497   5.417   6.502   5.138
 8866SOL    HW227498   5.309   6.615   5.091
 8867SOL     OW27499   6.489   1.282   3.944
 8867SOL    HW127500   6.453   1.196   3.906
 8867SOL    HW227501   6.419   1.352   3.940
 8868SOL     OW27502   4.973   3.539   0.694
 8868SOL    HW127503   4.942   3.567   0.603
 8868SOL    HW227504   5.012   3.447   0.689
 8869SOL     OW27505   3.588   2.113   3.241
 8869SOL    HW127506   3.673   2.163   3.220
 8869SOL    HW227507   3.597   2.069   3.330
 8870SOL     OW27508   4.693   1.396   2.272
 8870SOL    HW127509   4.624   1.468   2.278
 8870SOL    HW227510   4.680   1.344   2.188
 8871SOL     OW27511   1.539   2.411   3.632
 8871SOL    HW127512   1.452   2.445   3.595
 8871SOL    HW227513   1.527   2.386   3.728
 8872SOL     OW27514   1.582   2.484   1.847
 8872SOL    HW127515   1.504   2.500   1.787
 8872SOL    HW227516   1.608   2.569   1.893
 8873SOL     OW27517   6.656   5.772   4.996
 8873SOL    HW127518   6.739   5.783   5.051
 8873SOL    HW227519   6.665   5.690   4.939
 8874SOL     OW27520   0.814   1.679   6.380
 8874SOL    HW127521   0.730   1.706   6.428
 8874SOL    HW227522   0.891   1.733   6.416
 8875SOL     OW27523   1.362   1.234   4.543
 8875SOL    HW127524   1.367   1.137   4.521
 8875SOL    HW227525   1.316   1.246   4.631
 8876SOL     OW27526   2.629   0.378   4.542
 8876SOL    HW127527   2.645   0.476   4.534
 8876SOL    HW227528   2.628   0.337   4.451
 8877SOL     OW27529   3.124   6.521   4.340
 8877SOL    HW127530   3.043   6.545   4.286
 8877SOL    HW227531   3.192   6.593   4.330
 8878SOL     OW27532   5.423   4.689   5.519
 8878SOL    HW127533   5.327   4.712   5.502
 8878SOL    HW227534   5.428   4.607   5.574
 8879SOL     OW27535   4.950   5.383   4.609
 8879SOL    HW127536   4.984   5.417   4.697
 8879SOL    HW227537   5.026   5.343   4.558
 8880SOL     OW27538   0.184   6.130   5.196
 8880SOL    HW127539   0.151   6.036   5.204
 8880SOL    HW227540   0.234   6.155   5.278
 8881SOL     OW27541   6.683   1.273   1.667
 8881SOL    HW127542   6.698   1.184   1.624
 8881SOL    HW227543   6.717   1.270   1.761
 8882SOL     OW27544   5.444   2.618   0.018
 8882SOL    HW127545   5.432   2.602   0.117
 8882SOL    HW227546   5.534   2.656   0.001
 8883SOL     OW27547   6.820   1.711   5.323
 8883SOL    HW127548   6.806   1.649   5.400
 8883SOL    HW227549   6.819   1.659   5.238
 8884SOL     OW27550   6.629   1.194   5.699
 8884SOL    HW127551   6.700   1.174   5.767
 8884SOL    HW227552   6.671   1.221   5.613
 8885SOL     OW27553   5.489   3.642   2.024
 8885SOL    HW127554   5.501   3.565   1.960
 8885SOL    HW227555   5.398   3.680   2.012
 8886SOL     OW27556   3.204   5.682   6.094
 8886SOL    HW127557   3.117   5.725   6.117
 8886SOL    HW227558   3.278   5.727   6.145
 8887SOL     OW27559   1.824   0.326   1.213
 8887SOL    HW127560   1.889   0.253   1.192
 8887SOL    HW227561   1.735   0.305   1.172
 8888SOL     OW27562   3.135   2.178   2.841
 8888SOL    HW127563   3.226   2.220   2.840
 8888SOL    HW227564   3.086   2.207   2.923
 8889SOL     OW27565   3.177   0.260   4.603
 8889SOL    HW127566   3.090   0.218   4.630
 8889SOL    HW227567   3.246   0.188   4.592
 8890SOL     OW27568   0.271   4.097   3.294
 8890SOL    HW127569   0.360   4.051   3.291
 8890SOL    HW227570   0.266   4.154   3.376
 8891SOL     OW27571   2.635   1.787   6.042
 8891SOL    HW127572   2.598   1.699   6.071
 8891SOL    HW227573   2.722   1.772   5.994
 8892SOL     OW27574   1.098   6.743   2.566
 8892SOL    HW127575   1.186   6.789   2.557
 8892SOL    HW227576   1.066   6.750   2.661
 8893SOL     OW27577   0.507   0.753   0.095
 8893SOL    HW127578   0.424   0.778   0.045
 8893SOL    HW227579   0.516   0.653   0.097
 8894SOL     OW27580   4.265   3.133   6.212
 8894SOL    HW127581   4.277   3.140   6.311
 8894SOL    HW227582   4.296   3.218   6.169
 8895SOL     OW27583   1.671   0.803   2.539
 8895SOL    HW127584   1.574   0.788   2.520
 8895SOL    HW227585   1.685   0.810   2.637
 8896SOL     OW27586   1.936   4.305   4.945
 8896SOL    HW127587   2.028   4.286   4.911
 8896SOL    HW227588   1.899   4.223   4.991
 8897SOL     OW27589   1.314   2.442   1.178
 8897SOL    HW127590   1.361   2.451   1.266
 8897SOL    HW227591   1.355   2.505   1.112
 8898SOL     OW27592   6.580   2.710   5.214
 8898SOL    HW127593   6.658   2.715   5.152
 8898SOL    HW227594   6.495   2.721   5.162
 8899SOL     OW27595   3.249   5.299   1.359
 8899SOL    HW127596   3.229   5.202   1.355
 8899SOL    HW227597   3.346   5.312   1.383
 8900SOL     OW27598   0.382   1.412   3.502
 8900SOL    HW127599   0.466   1.358   3.505
 8900SOL    HW227600   0.304   1.356   3.531
 8901SOL     OW27601   1.714   6.367   2.147
 8901SOL    HW127602   1.780   6.383   2.220
 8901SOL    HW227603   1.727   6.275   2.110
 8902SOL     OW27604   3.014   6.018   4.742
 8902SOL    HW127605   3.052   6.010   4.650
 8902SOL    HW227606   2.940   5.951   4.753
 8903SOL     OW27607   0.534   0.592   3.049
 8903SOL    HW127608   0.621   0.553   3.079
 8903SOL    HW227609   0.544   0.691   3.038
 8904SOL     OW27610   1.355   4.978   3.292
 8904SOL    HW127611   1.349   4.891   3.243
 8904SOL    HW227612   1.416   4.967   3.371
 8905SOL     OW27613   2.211   4.301   4.958
 8905SOL    HW127614   2.206   4.356   5.041
 8905SOL    HW227615   2.240   4.208   4.982
 8906SOL     OW27616   1.675   5.134   4.314
 8906SOL    HW127617   1.584   5.161   4.346
 8906SOL    HW227618   1.725   5.089   4.388
 8907SOL     OW27619   4.060   2.740   6.347
 8907SOL    HW127620   3.990   2.799   6.387
 8907SOL    HW227621   4.143   2.743   6.402
 8908SOL     OW27622   0.253   2.438   2.201
 8908SOL    HW127623   0.279   2.516   2.144
 8908SOL    HW227624   0.322   2.423   2.271
 8909SOL     OW27625   3.032   0.194   5.497
 8909SOL    HW127626   3.054   0.097   5.512
 8909SOL    HW227627   3.029   0.213   5.399
 8910SOL     OW27628   3.941   2.891   7.016
 8910SOL    HW127629   3.843   2.897   7.000
 8910SOL    HW227630   3.958   2.825   0.067
 8911SOL     OW27631   4.552   2.177   3.541
 8911SOL    HW127632   4.484   2.136   3.601
 8911SOL    HW227633   4.507   2.237   3.475
 8912SOL     OW27634   5.378   1.855   6.880
 8912SOL    HW127635   5.415   1.791   6.948
 8912SOL    HW227636   5.343   1.803   6.802
 8913SOL     OW27637   4.377   4.105   0.957
 8913SOL    HW127638   4.435   4.024   0.965
 8913SOL    HW227639   4.281   4.078   0.963
 8914SOL     OW27640   4.891   2.183   3.607
 8914SOL    HW127641   4.979   2.172   3.652
 8914SOL    HW227642   4.821   2.131   3.656
 8915SOL     OW27643   1.205   5.680   2.507
 8915SOL    HW127644   1.305   5.677   2.509
 8915SOL    HW227645   1.172   5.621   2.433
 8916SOL     OW27646   5.890   3.170   2.227
 8916SOL    HW127647   5.916   3.074   2.238
 8916SOL    HW227648   5.945   3.227   2.288
 8917SOL     OW27649   5.212   5.517   5.244
 8917SOL    HW127650   5.144   5.590   5.233
 8917SOL    HW227651   5.257   5.526   5.332
 8918SOL     OW27652   4.658   4.154   6.234
 8918SOL    HW127653   4.657   4.105   6.147
 8918SOL    HW227654   4.609   4.241   6.224
 8919SOL     OW27655   2.538   3.348   1.468
 8919SOL    HW127656   2.487   3.263   1.455
 8919SOL    HW227657   2.509   3.415   1.399
 8920SOL     OW27658   6.778   5.194   5.460
 8920SOL    HW127659   6.756   5.119   5.523
 8920SOL    HW227660   6.714   5.192   5.383
 8921SOL     OW27661   1.148   5.558   4.012
 8921SOL    HW127662   1.094   5.641   3.996
 8921SOL    HW227663   1.087   5.483   4.036
 8922SOL     OW27664   6.681   4.048   6.862
 8922SOL    HW127665   6.634   4.117   6.917
 8922SOL    HW227666   6.755   4.007   6.916
 8923SOL     OW27667   2.275   4.228   4.318
 8923SOL    HW127668   2.311   4.247   4.409
 8923SOL    HW227669   2.220   4.145   4.320
 8924SOL     OW27670   2.388   5.531   5.269
 8924SOL    HW127671   2.401   5.565   5.362
 8924SOL    HW227672   2.296   5.556   5.237
 8925SOL     OW27673   4.764   6.066   1.379
 8925SOL    HW127674   4.798   5.973   1.367
 8925SOL    HW227675   4.698   6.087   1.307
 8926SOL     OW27676   5.394   0.859   6.882
 8926SOL    HW127677   5.297   0.883   6.890
 8926SOL    HW227678   5.410   0.815   6.793
 8927SOL     OW27679   2.734   1.676   4.431
 8927SOL    HW127680   2.795   1.661   4.353
 8927SOL    HW227681   2.675   1.754   4.413
 8928SOL     OW27682   0.691   0.251   4.468
 8928SOL    HW127683   0.650   0.290   4.385
 8928SOL    HW227684   0.700   0.323   4.537
 8929SOL     OW27685   5.159   4.562   3.778
 8929SOL    HW127686   5.202   4.651   3.765
 8929SOL    HW227687   5.119   4.558   3.870
 8930SOL     OW27688   0.730   5.021   5.543
 8930SOL    HW127689   0.814   5.069   5.569
 8930SOL    HW227690   0.713   4.946   5.607
 8931SOL     OW27691   4.933   1.048   2.008
 8931SOL    HW127692   4.988   1.123   2.045
 8931SOL    HW227693   4.994   0.973   1.983
 8932SOL     OW27694   6.105   0.537   0.108
 8932SOL    HW127695   6.155   0.605   0.161
 8932SOL    HW227696   6.154   0.450   0.109
 8933SOL     OW27697   1.125   0.473   5.549
 8933SOL    HW127698   1.183   0.553   5.535
 8933SOL    HW227699   1.116   0.454   5.647
 8934SOL     OW27700   4.452   6.686   3.383
 8934SOL    HW127701   4.502   6.741   3.450
 8934SOL    HW227702   4.515   6.620   3.342
 8935SOL     OW27703   5.618   1.620   2.451
 8935SOL    HW127704   5.672   1.651   2.529
 8935SOL    HW227705   5.658   1.536   2.415
 8936SOL     OW27706   1.676   4.002   2.763
 8936SOL    HW127707   1.621   4.024   2.844
 8936SOL    HW227708   1.694   4.085   2.711
 8937SOL     OW27709   4.558   0.271   4.943
 8937SOL    HW127710   4.462   0.264   4.915
 8937SOL    HW227711   4.586   0.186   4.987
 8938SOL     OW27712   5.714   6.450   1.292
 8938SOL    HW127713   5.715   6.353   1.269
 8938SOL    HW227714   5.619   6.481   1.299
 8939SOL     OW27715   0.607   3.036   4.474
 8939SOL    HW127716   0.576   3.094   4.549
 8939SOL    HW227717   0.589   3.083   4.387
 8940SOL     OW27718   6.623   3.345   1.838
 8940SOL    HW127719   6.624   3.249   1.864
 8940SOL    HW227720   6.607   3.402   1.918
 8941SOL     OW27721   5.640   2.066   3.140
 8941SOL    HW127722   5.564   2.003   3.125
 8941SOL    HW227723   5.604   2.158   3.157
 8942SOL     OW27724   4.957   4.267   3.821
 8942SOL    HW127725   4.911   4.324   3.754
 8942SOL    HW227726   4.971   4.319   3.906
 8943SOL     OW27727   4.386   2.688   0.648
 8943SOL    HW127728   4.379   2.596   0.610
 8943SOL    HW227729   4.407   2.753   0.575
 8944SOL     OW27730   4.068   5.632   5.530
 8944SOL    HW127731   4.105   5.551   5.577
 8944SOL    HW227732   4.067   5.709   5.594
 8945SOL     OW27733   6.366   4.234   2.398
 8945SOL    HW127734   6.290   4.201   2.454
 8945SOL    HW227735   6.452   4.221   2.448
 8946SOL     OW27736   4.253   1.858   4.731
 8946SOL    HW127737   4.201   1.837   4.814
 8946SOL    HW227738   4.323   1.788   4.717
 8947SOL     OW27739   2.243   4.213   1.044
 8947SOL    HW127740   2.316   4.278   1.021
 8947SOL    HW227741   2.164   4.231   0.986
 8948SOL     OW27742   5.579   0.421   3.099
 8948SOL    HW127743   5.633   0.416   3.184
 8948SOL    HW227744   5.631   0.381   3.024
 8949SOL     OW27745   3.380   6.277   0.766
 8949SOL    HW127746   3.298   6.300   0.820
 8949SOL    HW227747   3.382   6.179   0.750
 8950SOL     OW27748   3.326   3.771   2.707
 8950SOL    HW127749   3.348   3.858   2.750
 8950SOL    HW227750   3.405   3.739   2.654
 8951SOL     OW27751   0.643   0.791   4.253
 8951SOL    HW127752   0.677   0.721   4.190
 8951SOL    HW227753   0.601   0.746   4.332
 8952SOL     OW27754   1.928   4.549   4.369
 8952SOL    HW127755   2.014   4.518   4.329
 8952SOL    HW227756   1.922   4.649   4.363
 8953SOL     OW27757   0.868   5.063   1.539
 8953SOL    HW127758   0.919   5.107   1.464
 8953SOL    HW227759   0.786   5.019   1.502
 8954SOL     OW27760   2.005   4.162   5.382
 8954SOL    HW127761   2.058   4.232   5.430
 8954SOL    HW227762   1.913   4.157   5.421
 8955SOL     OW27763   5.676   3.111   5.586
 8955SOL    HW127764   5.642   3.183   5.525
 8955SOL    HW227765   5.659   3.022   5.544
 8956SOL     OW27766   0.793   6.048   1.025
 8956SOL    HW127767   0.809   6.098   1.110
 8956SOL    HW227768   0.745   5.962   1.046
 8957SOL     OW27769   1.324   6.901   2.546
 8957SOL    HW127770   1.371   6.864   2.466
 8957SOL    HW227771   1.319   7.001   2.539
 8958SOL     OW27772   0.263   4.159   4.591
 8958SOL    HW127773   0.340   4.168   4.655
 8958SOL    HW227774   0.207   4.082   4.618
 8959SOL     OW27775   5.681   2.287   4.056
 8959SOL    HW127776   5.769   2.241   4.065
 8959SOL    HW227777   5.662   2.339   4.140
 8960SOL     OW27778   5.347   4.965   2.930
 8960SOL    HW127779   5.374   4.884   2.878
 8960SOL    HW227780   5.300   4.937   3.014
 8961SOL     OW27781   2.796   1.685   4.906
 8961SOL    HW127782   2.845   1.730   4.980
 8961SOL    HW227783   2.729   1.621   4.944
 8962SOL     OW27784   6.480   5.977   2.240
 8962SOL    HW127785   6.392   5.931   2.244
 8962SOL    HW227786   6.517   5.971   2.147
 8963SOL     OW27787   2.667   6.303   5.859
 8963SOL    HW127788   2.586   6.340   5.814
 8963SOL    HW227789   2.734   6.275   5.791
 8964SOL     OW27790   1.860   3.182   3.573
 8964SOL    HW127791   1.959   3.171   3.582
 8964SOL    HW227792   1.815   3.097   3.601
 8965SOL     OW27793   4.311   5.910   0.656
 8965SOL    HW127794   4.385   5.849   0.631
 8965SOL    HW227795   4.312   5.990   0.596
 8966SOL     OW27796   5.358   6.778   5.684
 8966SOL    HW127797   5.281   6.716   5.700
 8966SOL    HW227798   5.340   6.834   5.603
 8967SOL     OW27799   2.699   0.306   3.104
 8967SOL    HW127800   2.680   0.208   3.091
 8967SOL    HW227801   2.640   0.342   3.176
 8968SOL     OW27802   3.683   4.877   2.500
 8968SOL    HW127803   3.678   4.872   2.600
 8968SOL    HW227804   3.591   4.874   2.462
 8969SOL     OW27805   6.418   1.432   3.016
 8969SOL    HW127806   6.387   1.346   2.975
 8969SOL    HW227807   6.514   1.448   2.990
 8970SOL     OW27808   2.226   0.970   3.263
 8970SOL    HW127809   2.181   0.938   3.347
 8970SOL    HW227810   2.247   1.067   3.272
 8971SOL     OW27811   2.996   3.939   0.850
 8971SOL    HW127812   3.032   3.948   0.943
 8971SOL    HW227813   2.954   3.849   0.840
 8972SOL     OW27814   5.433   4.244   6.749
 8972SOL    HW127815   5.392   4.327   6.787
 8972SOL    HW227816   5.380   4.213   6.671
 8973SOL     OW27817   2.484   1.788   2.693
 8973SOL    HW127818   2.401   1.788   2.637
 8973SOL    HW227819   2.549   1.854   2.654
 8974SOL     OW27820   1.706   4.182   4.402
 8974SOL    HW127821   1.780   4.189   4.336
 8974SOL    HW227822   1.735   4.222   4.489
 8975SOL     OW27823   6.840   4.229   6.000
 8975SOL    HW127824   6.908   4.284   5.952
 8975SOL    HW227825   6.752   4.236   5.954
 8976SOL     OW27826   5.915   0.389   1.741
 8976SOL    HW127827   5.966   0.472   1.765
 8976SOL    HW227828   5.885   0.343   1.825
 8977SOL     OW27829   6.807   4.513   6.323
 8977SOL    HW127830   6.719   4.480   6.357
 8977SOL    HW227831   6.880   4.459   6.364
 8978SOL     OW27832   6.131   5.627   5.479
 8978SOL    HW127833   6.225   5.611   5.509
 8978SOL    HW227834   6.078   5.542   5.488
 8979SOL     OW27835   1.764   5.142   3.669
 8979SOL    HW127836   1.763   5.044   3.690
 8979SOL    HW227837   1.671   5.178   3.672
 8980SOL     OW27838   3.787   0.915   0.468
 8980SOL    HW127839   3.720   0.975   0.511
 8980SOL    HW227840   3.762   0.820   0.483
 8981SOL     OW27841   4.032   2.197   6.815
 8981SOL    HW127842   4.007   2.238   6.903
 8981SOL    HW227843   4.130   2.207   6.800
 8982SOL     OW27844   0.061   1.349   2.041
 8982SOL    HW127845   7.011   1.297   2.084
 8982SOL    HW227846   0.137   1.360   2.106
 8983SOL     OW27847   1.484   6.898   2.327
 8983SOL    HW127848   1.544   6.978   2.334
 8983SOL    HW227849   1.536   6.822   2.287
 8984SOL     OW27850   0.053   1.758   4.473
 8984SOL    HW127851   0.073   1.850   4.437
 8984SOL    HW227852   0.067   1.758   4.572
 8985SOL     OW27853   4.349   1.337   2.195
 8985SOL    HW127854   4.373   1.430   2.223
 8985SOL    HW227855   4.373   1.323   2.099
 8986SOL     OW27856   0.079   6.075   0.223
 8986SOL    HW127857   0.044   5.981   0.227
 8986SOL    HW227858   0.088   6.110   0.317
 8987SOL     OW27859   2.310   6.540   1.882
 8987SOL    HW127860   2.343   6.607   1.948
 8987SOL    HW227861   2.282   6.587   1.798
 8988SOL     OW27862   2.534   6.927   1.017
 8988SOL    HW127863   2.493   6.983   1.089
 8988SOL    HW227864   2.482   6.938   0.933
 8989SOL     OW27865   6.012   1.425   2.527
 8989SOL    HW127866   6.028   1.332   2.561
 8989SOL    HW227867   6.036   1.429   2.430
 8990SOL     OW27868   3.385   1.104   2.989
 8990SOL    HW127869   3.339   1.193   2.992
 8990SOL    HW227870   3.433   1.095   2.902
 8991SOL     OW27871   1.287   2.626   0.770
 8991SOL    HW127872   1.213   2.569   0.733
 8991SOL    HW227873   1.249   2.701   0.823
 8992SOL     OW27874   6.533   4.530   6.024
 8992SOL    HW127875   6.539   4.534   5.924
 8992SOL    HW227876   6.625   4.524   6.063
 8993SOL     OW27877   5.382   4.170   4.004
 8993SOL    HW127878   5.311   4.122   3.953
 8993SOL    HW227879   5.469   4.120   3.995
 8994SOL     OW27880   1.269   6.590   2.864
 8994SOL    HW127881   1.347   6.542   2.904
 8994SOL    HW227882   1.187   6.572   2.918
 8995SOL     OW27883   2.221   3.892   3.969
 8995SOL    HW127884   2.153   3.872   4.040
 8995SOL    HW227885   2.274   3.972   3.995
 8996SOL     OW27886   2.199   3.505   1.302
 8996SOL    HW127887   2.149   3.579   1.258
 8996SOL    HW227888   2.297   3.512   1.279
 8997SOL     OW27889   4.416   0.436   5.132
 8997SOL    HW127890   4.452   0.353   5.088
 8997SOL    HW227891   4.475   0.513   5.111
 8998SOL     OW27892   1.120   1.754   6.187
 8998SOL    HW127893   1.151   1.676   6.241
 8998SOL    HW227894   1.195   1.786   6.129
 8999SOL     OW27895   5.233   2.820   5.555
 8999SOL    HW127896   5.143   2.864   5.561
 8999SOL    HW227897   5.221   2.721   5.544
 9000SOL     OW27898   3.471   4.949   1.137
 9000SOL    HW127899   3.553   5.006   1.135
 9000SOL    HW227900   3.391   5.005   1.118
 9001SOL     OW27901   1.790   4.583   3.267
 9001SOL    HW127902   1.835   4.585   3.177
 9001SOL    HW227903   1.858   4.576   3.339
 9002SOL     OW27904   5.518   4.057   5.562
 9002SOL    HW127905   5.460   3.975   5.554
 9002SOL    HW227906   5.555   4.062   5.655
 9003SOL     OW27907   6.265   3.349   6.922
 9003SOL    HW127908   6.197   3.304   6.980
 9003SOL    HW227909   6.357   3.317   6.949
 9004SOL     OW27910   4.683   5.377   1.289
 9004SOL    HW127911   4.603   5.329   1.323
 9004SOL    HW227912   4.737   5.410   1.366
 9005SOL     OW27913   5.239   3.069   3.597
 9005SOL    HW127914   5.213   3.028   3.684
 9005SOL    HW227915   5.207   3.011   3.522
 9006SOL     OW27916   1.795   6.876   0.935
 9006SOL    HW127917   1.853   6.795   0.934
 9006SOL    HW227918   1.852   6.958   0.933
 9007SOL     OW27919   1.978   5.949   5.005
 9007SOL    HW127920   1.949   5.862   4.965
 9007SOL    HW227921   1.911   5.978   5.074
 9008SOL     OW27922   0.420   4.667   2.480
 9008SOL    HW127923   0.328   4.653   2.442
 9008SOL    HW227924   0.462   4.747   2.438
 9009SOL     OW27925   3.815   5.974   6.999
 9009SOL    HW127926   3.778   6.017   0.058
 9009SOL    HW227927   3.846   5.881   7.021
 9010SOL     OW27928   6.895   5.446   4.703
 9010SOL    HW127929   6.969   5.382   4.720
 9010SOL    HW227930   6.923   5.513   4.634
 9011SOL     OW27931   4.537   2.379   2.378
 9011SOL    HW127932   4.601   2.302   2.375
 9011SOL    HW227933   4.570   2.453   2.319
 9012SOL     OW27934   5.567   4.854   2.417
 9012SOL    HW127935   5.503   4.835   2.491
 9012SOL    HW227936   5.656   4.814   2.438
 9013SOL     OW27937   4.732   6.316   2.682
 9013SOL    HW127938   4.676   6.343   2.761
 9013SOL    HW227939   4.781   6.395   2.647
 9014SOL     OW27940   2.117   0.255   1.406
 9014SOL    HW127941   2.125   0.217   1.498
 9014SOL    HW227942   2.076   0.346   1.411
 9015SOL     OW27943   6.228   1.525   4.711
 9015SOL    HW127944   6.245   1.441   4.763
 9015SOL    HW227945   6.312   1.578   4.703
 9016SOL     OW27946   6.868   5.719   6.306
 9016SOL    HW127947   6.957   5.677   6.289
 9016SOL    HW227948   6.802   5.685   6.238
 9017SOL     OW27949   0.065   3.648   2.951
 9017SOL    HW127950   0.062   3.705   2.868
 9017SOL    HW227951   0.151   3.663   2.999
 9018SOL     OW27952   4.398   2.043   6.203
 9018SOL    HW127953   4.421   1.961   6.256
 9018SOL    HW227954   4.474   2.108   6.208
 9019SOL     OW27955   1.651   5.347   0.218
 9019SOL    HW127956   1.751   5.345   0.211
 9019SOL    HW227957   1.620   5.282   0.286
 9020SOL     OW27958   0.766   5.073   3.686
 9020SOL    HW127959   0.805   5.074   3.778
 9020SOL    HW227960   0.758   4.979   3.654
 9021SOL     OW27961   5.505   5.298   5.602
 9021SOL    HW127962   5.531   5.354   5.680
 9021SOL    HW227963   5.521   5.202   5.622
 9022SOL     OW27964   2.951   6.723   6.829
 9022SOL    HW127965   3.031   6.666   6.814
 9022SOL    HW227966   2.869   6.666   6.830
 9023SOL     OW27967   3.116   3.046   3.801
 9023SOL    HW127968   3.206   3.083   3.826
 9023SOL    HW227969   3.119   3.012   3.707
 9024SOL     OW27970   1.418   0.310   6.562
 9024SOL    HW127971   1.354   0.381   6.593
 9024SOL    HW227972   1.399   0.288   6.467
 9025SOL     OW27973   0.327   3.814   0.057
 9025SOL    HW127974   0.362   3.792   6.989
 9025SOL    HW227975   0.347   3.738   0.119
 9026SOL     OW27976   2.680   3.111   5.579
 9026SOL    HW127977   2.650   3.202   5.549
 9026SOL    HW227978   2.692   3.110   5.678
 9027SOL     OW27979   2.396   2.623   2.704
 9027SOL    HW127980   2.368   2.601   2.610
 9027SOL    HW227981   2.420   2.539   2.752
 9028SOL     OW27982   2.733   4.753   4.520
 9028SOL    HW127983   2.814   4.755   4.463
 9028SOL    HW227984   2.701   4.846   4.537
 9029SOL     OW27985   5.874   5.308   2.345
 9029SOL    HW127986   5.819   5.232   2.379
 9029SOL    HW227987   5.822   5.358   2.276
 9030SOL     OW27988   3.881   2.127   2.158
 9030SOL    HW127989   3.827   2.186   2.098
 9030SOL    HW227990   3.977   2.153   2.152
 9031SOL     OW27991   1.981   1.511   1.162
 9031SOL    HW127992   2.068   1.507   1.211
 9031SOL    HW227993   1.994   1.560   1.076
 9032SOL     OW27994   0.514   2.814   1.994
 9032SOL    HW127995   0.515   2.914   1.991
 9032SOL    HW227996   0.594   2.783   2.045
 9033SOL     OW27997   1.377   3.921   2.193
 9033SOL    HW127998   1.448   3.896   2.259
 9033SOL    HW227999   1.319   3.993   2.233
 9034SOL     OW28000   1.937   6.762   6.825
 9034SOL    HW128001   1.995   6.829   6.779
 9034SOL    HW228002   1.865   6.732   6.762
 9035SOL     OW28003   6.790   0.718   4.602
 9035SOL    HW128004   6.721   0.646   4.603
 9035SOL    HW228005   6.850   0.708   4.681
 9036SOL     OW28006   1.141   1.661   3.882
 9036SOL    HW128007   1.209   1.711   3.827
 9036SOL    HW228008   1.057   1.715   3.887
 9037SOL     OW28009   2.803   4.035   6.119
 9037SOL    HW128010   2.715   3.990   6.105
 9037SOL    HW228011   2.877   3.969   6.101
 9038SOL     OW28012   4.397   5.348   5.266
 9038SOL    HW128013   4.323   5.288   5.296
 9038SOL    HW228014   4.370   5.444   5.278
 9039SOL     OW28015   2.457   4.326   6.764
 9039SOL    HW128016   2.449   4.255   6.694
 9039SOL    HW228017   2.540   4.311   6.818
 9040SOL     OW28018   2.499   1.966   1.933
 9040SOL    HW128019   2.563   1.909   1.985
 9040SOL    HW228020   2.546   2.006   1.855
 9041SOL     OW28021   1.942   3.033   6.012
 9041SOL    HW128022   2.001   3.110   5.988
 9041SOL    HW228023   1.942   3.021   6.111
 9042SOL     OW28024   1.922   5.427   3.167
 9042SOL    HW128025   1.943   5.349   3.108
 9042SOL    HW228026   1.900   5.394   3.259
 9043SOL     OW28027   6.895   2.354   0.085
 9043SOL    HW128028   6.958   2.431   0.072
 9043SOL    HW228029   6.834   2.374   0.162
 9044SOL     OW28030   0.268   4.177   0.309
 9044SOL    HW128031   0.357   4.223   0.316
 9044SOL    HW228032   0.278   4.082   0.339
 9045SOL     OW28033   2.364   4.929   4.076
 9045SOL    HW128034   2.414   4.973   4.001
 9045SOL    HW228035   2.370   4.986   4.158
 9046SOL     OW28036   3.486   4.465   6.424
 9046SOL    HW128037   3.505   4.487   6.520
 9046SOL    HW228038   3.486   4.549   6.370
 9047SOL     OW28039   0.790   4.343   4.830
 9047SOL    HW128040   0.871   4.368   4.778
 9047SOL    HW228041   0.768   4.247   4.814
 9048SOL     OW28042   1.803   2.010   5.231
 9048SOL    HW128043   1.725   2.036   5.174
 9048SOL    HW228044   1.865   1.951   5.177
 9049SOL     OW28045   4.959   6.534   6.497
 9049SOL    HW128046   5.033   6.561   6.436
 9049SOL    HW228047   4.923   6.614   6.543
 9050SOL     OW28048   7.020   5.291   5.544
 9050SOL    HW128049   0.054   5.218   5.581
 9050SOL    HW228050   6.935   5.253   5.509
 9051SOL     OW28051   5.527   6.525   6.239
 9051SOL    HW128052   5.496   6.603   6.294
 9051SOL    HW228053   5.578   6.558   6.160
 9052SOL     OW28054   2.975   4.845   4.722
 9052SOL    HW128055   2.992   4.836   4.820
 9052SOL    HW228056   2.905   4.781   4.693
 9053SOL     OW28057   3.001   1.504   2.546
 9053SOL    HW128058   2.912   1.498   2.592
 9053SOL    HW228059   3.061   1.563   2.599
 9054SOL     OW28060   1.986   6.872   1.287
 9054SOL    HW128061   2.068   6.849   1.235
 9054SOL    HW228062   1.926   6.792   1.291
 9055SOL     OW28063   0.871   2.946   4.739
 9055SOL    HW128064   0.839   2.986   4.653
 9055SOL    HW228065   0.939   2.875   4.719
 9056SOL     OW28066   4.601   2.583   2.185
 9056SOL    HW128067   4.651   2.669   2.198
 9056SOL    HW228068   4.602   2.558   2.088
 9057SOL     OW28069   3.853   6.393   0.350
 9057SOL    HW128070   3.859   6.451   0.268
 9057SOL    HW228071   3.765   6.347   0.352
 9058SOL     OW28072   2.329   2.318   4.695
 9058SOL    HW128073   2.405   2.375   4.726
 9058SOL    HW228074   2.258   2.376   4.655
 9059SOL     OW28075   0.280   1.479   2.177
 9059SOL    HW128076   0.215   1.502   2.250
 9059SOL    HW228077   0.326   1.393   2.200
 9060SOL     OW28078   0.214   5.074   1.315
 9060SOL    HW128079   0.307   5.107   1.335
 9060SOL    HW228080   0.152   5.103   1.388
 9061SOL     OW28081   5.070   3.741   2.281
 9061SOL    HW128082   5.152   3.762   2.336
 9061SOL    HW228083   5.041   3.648   2.300
 9062SOL     OW28084   1.233   5.898   3.129
 9062SOL    HW128085   1.173   5.860   3.059
 9062SOL    HW228086   1.313   5.939   3.085
 9063SOL     OW28087   4.847   1.165   1.101
 9063SOL    HW128088   4.897   1.110   1.167
 9063SOL    HW228089   4.770   1.112   1.065
 9064SOL     OW28090   1.340   5.387   3.373
 9064SOL    HW128091   1.298   5.369   3.462
 9064SOL    HW228092   1.278   5.442   3.317
 9065SOL     OW28093   3.850   4.195   6.869
 9065SOL    HW128094   3.762   4.156   6.896
 9065SOL    HW228095   3.839   4.248   6.785
 9066SOL     OW28096   4.330   5.032   3.985
 9066SOL    HW128097   4.429   5.044   3.977
 9066SOL    HW228098   4.284   5.119   3.969
 9067SOL     OW28099   2.016   6.884   4.399
 9067SOL    HW128100   2.048   6.822   4.470
 9067SOL    HW228101   1.997   6.974   4.439
 9068SOL     OW28102   4.020   0.086   6.148
 9068SOL    HW128103   4.021   0.022   6.224
 9068SOL    HW228104   4.067   0.170   6.175
 9069SOL     OW28105   5.529   2.641   2.274
 9069SOL    HW128106   5.495   2.713   2.213
 9069SOL    HW228107   5.610   2.599   2.234
 9070SOL     OW28108   1.643   0.980   5.585
 9070SOL    HW128109   1.602   0.992   5.676
 9070SOL    HW228110   1.674   1.069   5.551
 9071SOL     OW28111   5.283   2.529   6.599
 9071SOL    HW128112   5.237   2.502   6.684
 9071SOL    HW228113   5.223   2.509   6.521
 9072SOL     OW28114   5.951   6.921   2.229
 9072SOL    HW128115   5.987   7.002   2.183
 9072SOL    HW228116   5.855   6.936   2.253
 9073SOL     OW28117   4.286   3.219   5.321
 9073SOL    HW128118   4.237   3.279   5.384
 9073SOL    HW228119   4.382   3.246   5.317
 9074SOL     OW28120   1.665   0.880   2.842
 9074SOL    HW128121   1.679   0.979   2.841
 9074SOL    HW228122   1.729   0.838   2.907
 9075SOL     OW28123   5.546   6.022   0.518
 9075SOL    HW128124   5.502   5.939   0.483
 9075SOL    HW228125   5.514   6.101   0.466
 9076SOL     OW28126   0.709   6.592   2.456
 9076SOL    HW128127   0.697   6.576   2.554
 9076SOL    HW228128   0.793   6.548   2.425
 9077SOL     OW28129   6.068   1.905   6.826
 9077SOL    HW128130   6.009   1.929   6.749
 9077SOL    HW228131   6.163   1.904   6.796
 9078SOL     OW28132   5.140   6.738   0.422
 9078SOL    HW128133   5.169   6.830   0.446
 9078SOL    HW228134   5.218   6.687   0.386
 9079SOL     OW28135   1.272   1.430   5.817
 9079SOL    HW128136   1.323   1.432   5.731
 9079SOL    HW228137   1.333   1.402   5.891
 9080SOL     OW28138   6.141   4.133   2.622
 9080SOL    HW128139   6.093   4.091   2.700
 9080SOL    HW228140   6.239   4.130   2.638
 9081SOL     OW28141   5.165   1.716   0.801
 9081SOL    HW128142   5.149   1.622   0.830
 9081SOL    HW228143   5.078   1.757   0.774
 9082SOL     OW28144   3.315   5.260   6.403
 9082SOL    HW128145   3.328   5.292   6.496
 9082SOL    HW228146   3.313   5.160   6.402
 9083SOL     OW28147   3.494   0.048   0.584
 9083SOL    HW128148   3.418   0.048   0.519
 9083SOL    HW228149   3.550   0.130   0.570
 9084SOL     OW28150   6.890   4.083   5.027
 9084SOL    HW128151   6.819   4.153   5.030
 9084SOL    HW228152   6.976   4.123   5.058
 9085SOL     OW28153   2.903   5.137   0.451
 9085SOL    HW128154   2.994   5.160   0.417
 9085SOL    HW228155   2.911   5.075   0.530
 9086SOL     OW28156   7.013   3.097   0.396
 9086SOL    HW128157   0.082   3.120   0.366
 9086SOL    HW228158   7.010   3.000   0.422
 9087SOL     OW28159   5.170   1.557   1.667
 9087SOL    HW128160   5.171   1.579   1.764
 9087SOL    HW228161   5.262   1.535   1.636
 9088SOL     OW28162   6.170   5.641   0.185
 9088SOL    HW128163   6.207   5.647   0.093
 9088SOL    HW228164   6.072   5.663   0.183
 9089SOL     OW28165   5.263   5.661   3.497
 9089SOL    HW128166   5.291   5.573   3.536
 9089SOL    HW228167   5.317   5.680   3.415
 9090SOL     OW28168   4.938   6.023   6.055
 9090SOL    HW128169   4.903   5.946   6.002
 9090SOL    HW228170   4.926   6.004   6.153
 9091SOL     OW28171   2.856   2.076   1.968
 9091SOL    HW128172   2.852   2.170   2.001
 9091SOL    HW228173   2.852   2.013   2.046
 9092SOL     OW28174   2.140   1.509   4.899
 9092SOL    HW128175   2.163   1.592   4.950
 9092SOL    HW228176   2.042   1.508   4.878
 9093SOL     OW28177   2.296   3.190   1.057
 9093SOL    HW128178   2.372   3.234   1.011
 9093SOL    HW228179   2.210   3.231   1.027
 9094SOL     OW28180   6.230   3.752   0.790
 9094SOL    HW128181   6.179   3.836   0.771
 9094SOL    HW228182   6.264   3.754   0.884
 9095SOL     OW28183   1.930   2.921   6.875
 9095SOL    HW128184   2.019   2.889   6.843
 9095SOL    HW228185   1.862   2.909   6.803
 9096SOL     OW28186   6.246   3.417   3.336
 9096SOL    HW128187   6.254   3.390   3.432
 9096SOL    HW228188   6.158   3.461   3.321
 9097SOL     OW28189   6.268   5.703   6.158
 9097SOL    HW128190   6.302   5.793   6.182
 9097SOL    HW228191   6.344   5.639   6.151
 9098SOL     OW28192   3.645   4.107   4.268
 9098SOL    HW128193   3.616   4.017   4.299
 9098SOL    HW228194   3.632   4.174   4.342
 9099SOL     OW28195   1.915   2.075   0.253
 9099SOL    HW128196   1.939   2.120   0.339
 9099SOL    HW228197   1.817   2.081   0.239
 9100SOL     OW28198   1.506   2.865   0.030
 9100SOL    HW128199   1.444   2.850   0.107
 9100SOL    HW228200   1.486   2.954   7.012
 9101SOL     OW28201   2.295   1.820   7.012
 9101SOL    HW128202   2.203   1.848   0.017
 9101SOL    HW228203   2.330   1.886   6.945
 9102SOL     OW28204   5.781   6.610   2.305
 9102SOL    HW128205   5.777   6.630   2.207
 9102SOL    HW228206   5.742   6.687   2.356
 9103SOL     OW28207   0.661   4.115   6.421
 9103SOL    HW128208   0.694   4.208   6.400
 9103SOL    HW228209   0.575   4.121   6.471
 9104SOL     OW28210   5.173   0.205   2.515
 9104SOL    HW128211   5.089   0.164   2.553
 9104SOL    HW228212   5.156   0.300   2.491
 9105SOL     OW28213   2.629   1.513   5.578
 9105SOL    HW128214   2.660   1.505   5.672
 9105SOL    HW228215   2.707   1.531   5.518
 9106SOL     OW28216   6.387   5.060   1.816
 9106SOL    HW128217   6.480   5.093   1.833
 9106SOL    HW228218   6.326   5.138   1.800
 9107SOL     OW28219   5.013   0.622   0.687
 9107SOL    HW128220   5.042   0.609   0.592
 9107SOL    HW228221   4.952   0.547   0.713
 9108SOL     OW28222   4.181   6.098   6.676
 9108SOL    HW128223   4.181   6.124   6.773
 9108SOL    HW228224   4.118   6.157   6.626
 9109SOL     OW28225   3.073   1.349   4.365
 9109SOL    HW128226   3.105   1.272   4.420
 9109SOL    HW228227   3.149   1.384   4.310
 9110SOL     OW28228   1.519   2.826   3.036
 9110SOL    HW128229   1.432   2.819   3.083
 9110SOL    HW228230   1.542   2.922   3.021
 9111SOL     OW28231   4.213   3.928   1.731
 9111SOL    HW128232   4.157   3.928   1.814
 9111SOL    HW228233   4.295   3.983   1.746
 9112SOL     OW28234   0.721   5.005   1.776
 9112SOL    HW128235   0.787   5.004   1.701
 9112SOL    HW228236   0.664   5.087   1.770
 9113SOL     OW28237   3.237   5.976   0.227
 9113SOL    HW128238   3.148   5.965   0.184
 9113SOL    HW228239   3.282   6.058   0.191
 9114SOL     OW28240   2.689   4.084   1.697
 9114SOL    HW128241   2.591   4.102   1.703
 9114SOL    HW228242   2.738   4.170   1.685
 9115SOL     OW28243   1.943   4.217   4.212
 9115SOL    HW128244   2.002   4.143   4.244
 9115SOL    HW228245   1.997   4.302   4.208
 9116SOL     OW28246   1.742   1.455   5.573
 9116SOL    HW128247   1.728   1.534   5.514
 9116SOL    HW228248   1.752   1.486   5.668
 9117SOL     OW28249   6.491   2.681   6.814
 9117SOL    HW128250   6.439   2.639   6.888
 9117SOL    HW228251   6.482   2.627   6.731
 9118SOL     OW28252   0.028   5.390   1.682
 9118SOL    HW128253   0.061   5.379   1.775
 9118SOL    HW228254   0.083   5.459   1.635
 9119SOL     OW28255   6.175   0.092   1.092
 9119SOL    HW128256   6.090   0.138   1.065
 9119SOL    HW228257   6.180   0.002   1.048
 9120SOL     OW28258   5.799   1.091   6.276
 9120SOL    HW128259   5.837   1.183   6.287
 9120SOL    HW228260   5.863   1.024   6.313
 9121SOL     OW28261   1.691   1.118   6.876
 9121SOL    HW128262   1.610   1.065   6.854
 9121SOL    HW228263   1.759   1.108   6.803
 9122SOL     OW28264   0.763   2.889   0.751
 9122SOL    HW128265   0.796   2.909   0.843
 9122SOL    HW228266   0.665   2.909   0.746
 9123SOL     OW28267   2.946   6.004   6.777
 9123SOL    HW128268   2.869   5.957   6.735
 9123SOL    HW228269   2.913   6.066   6.848
 9124SOL     OW28270   5.842   4.718   5.861
 9124SOL    HW128271   5.793   4.669   5.789
 9124SOL    HW228272   5.924   4.667   5.886
 9125SOL     OW28273   4.831   6.051   2.137
 9125SOL    HW128274   4.855   5.965   2.183
 9125SOL    HW228275   4.861   6.128   2.193
 9126SOL     OW28276   5.900   0.515   2.316
 9126SOL    HW128277   5.891   0.613   2.332
 9126SOL    HW228278   5.980   0.498   2.258
 9127SOL     OW28279   5.231   6.880   6.735
 9127SOL    HW128280   5.268   6.799   6.690
 9127SOL    HW228281   5.212   6.859   6.831
 9128SOL     OW28282   4.801   2.632   4.912
 9128SOL    HW128283   4.884   2.602   4.959
 9128SOL    HW228284   4.775   2.722   4.946
 9129SOL     OW28285   2.122   1.698   6.487
 9129SOL    HW128286   2.145   1.791   6.457
 9129SOL    HW228287   2.022   1.689   6.494
 9130SOL     OW28288   6.188   5.492   0.926
 9130SOL    HW128289   6.240   5.570   0.892
 9130SOL    HW228290   6.091   5.515   0.929
 9131SOL     OW28291   0.346   4.338   4.048
 9131SOL    HW128292   0.331   4.295   3.959
 9131SOL    HW228293   0.268   4.318   4.108
 9132SOL     OW28294   1.331   3.100   4.611
 9132SOL    HW128295   1.292   3.020   4.656
 9132SOL    HW228296   1.389   3.149   4.677
 9133SOL     OW28297   1.799   4.395   1.132
 9133SOL    HW128298   1.737   4.329   1.175
 9133SOL    HW228299   1.769   4.488   1.154
 9134SOL     OW28300   3.085   5.006   5.952
 9134SOL    HW128301   3.178   5.031   5.978
 9134SOL    HW228302   3.039   5.085   5.910
 9135SOL     OW28303   7.001   6.172   4.145
 9135SOL    HW128304   0.046   6.223   4.092
 9135SOL    HW228305   6.964   6.098   4.088
 9136SOL     OW28306   4.307   5.114   6.080
 9136SOL    HW128307   4.341   5.090   6.171
 9136SOL    HW228308   4.215   5.153   6.088
 9137SOL     OW28309   4.000   1.194   2.393
 9137SOL    HW128310   3.994   1.289   2.361
 9137SOL    HW228311   3.957   1.134   2.326
 9138SOL     OW28312   3.579   4.700   1.217
 9138SOL    HW128313   3.518   4.770   1.179
 9138SOL    HW228314   3.641   4.742   1.283
 9139SOL     OW28315   3.151   1.232   5.472
 9139SOL    HW128316   3.062   1.259   5.437
 9139SOL    HW228317   3.203   1.313   5.499
 9140SOL     OW28318   0.070   2.332   3.541
 9140SOL    HW128319   7.016   2.280   3.576
 9140SOL    HW228320   0.095   2.299   3.450
 9141SOL     OW28321   5.791   0.736   5.656
 9141SOL    HW128322   5.751   0.828   5.652
 9141SOL    HW228323   5.854   0.730   5.733
 9142SOL     OW28324   0.885   3.937   6.443
 9142SOL    HW128325   0.791   3.967   6.461
 9142SOL    HW228326   0.931   4.004   6.384
 9143SOL     OW28327   5.358   3.968   0.838
 9143SOL    HW128328   5.344   3.950   0.740
 9143SOL    HW228329   5.383   3.882   0.884
 9144SOL     OW28330   1.933   4.729   5.199
 9144SOL    HW128331   1.990   4.707   5.120
 9144SOL    HW228332   1.913   4.646   5.250
 9145SOL     OW28333   0.256   4.349   6.862
 9145SOL    HW128334   0.331   4.362   6.927
 9145SOL    HW228335   0.208   4.264   6.883
 9146SOL     OW28336   6.831   1.675   1.497
 9146SOL    HW128337   6.778   1.673   1.582
 9146SOL    HW228338   6.831   1.767   1.460
 9147SOL     OW28339   4.315   6.432   6.148
 9147SOL    HW128340   4.250   6.508   6.154
 9147SOL    HW228341   4.275   6.359   6.092
 9148SOL     OW28342   4.284   5.977   3.286
 9148SOL    HW128343   4.366   5.932   3.250
 9148SOL    HW228344   4.253   6.046   3.221
 9149SOL     OW28345   5.967   3.567   4.031
 9149SOL    HW128346   5.872   3.548   4.054
 9149SOL    HW228347   5.984   3.665   4.037
 9150SOL     OW28348   4.447   1.343   3.222
 9150SOL    HW128349   4.433   1.340   3.123
 9150SOL    HW228350   4.507   1.419   3.246
 9151SOL     OW28351   1.518   3.651   2.558
 9151SOL    HW128352   1.489   3.556   2.569
 9151SOL    HW228353   1.614   3.653   2.530
 9152SOL     OW28354   2.365   5.562   2.528
 9152SOL    HW128355   2.382   5.549   2.625
 9152SOL    HW228356   2.269   5.583   2.513
 9153SOL     OW28357   1.619   3.259   6.024
 9153SOL    HW128358   1.568   3.212   5.951
 9153SOL    HW228359   1.560   3.272   6.103
 9154SOL     OW28360   2.175   5.897   0.604
 9154SOL    HW128361   2.116   5.912   0.683
 9154SOL    HW228362   2.155   5.807   0.563
 9155SOL     OW28363   1.648   4.197   0.187
 9155SOL    HW128364   1.601   4.131   0.246
 9155SOL    HW228365   1.746   4.193   0.204
 9156SOL     OW28366   5.148   2.765   1.862
 9156SOL    HW128367   5.073   2.772   1.797
 9156SOL    HW228368   5.113   2.733   1.950
 9157SOL     OW28369   5.129   3.914   5.675
 9157SOL    HW128370   5.050   3.899   5.616
 9157SOL    HW228371   5.120   4.003   5.721
 9158SOL     OW28372   0.521   4.087   3.404
 9158SOL    HW128373   0.593   4.021   3.384
 9158SOL    HW228374   0.561   4.166   3.452
 9159SOL     OW28375   6.862   3.890   3.088
 9159SOL    HW128376   6.877   3.911   3.185
 9159SOL    HW228377   6.948   3.857   3.049
 9160SOL     OW28378   6.775   6.877   6.581
 9160SOL    HW128379   6.848   6.916   6.525
 9160SOL    HW228380   6.700   6.943   6.588
 9161SOL     OW28381   5.296   3.762   4.269
 9161SOL    HW128382   5.304   3.757   4.170
 9161SOL    HW228383   5.199   3.770   4.294
 9162SOL     OW28384   5.059   2.218   2.145
 9162SOL    HW128385   4.992   2.291   2.150
 9162SOL    HW228386   5.150   2.256   2.127
 9163SOL     OW28387   3.149   1.766   3.887
 9163SOL    HW128388   3.235   1.789   3.842
 9163SOL    HW228389   3.131   1.834   3.959
 9164SOL     OW28390   3.194   6.779   0.527
 9164SOL    HW128391   3.291   6.775   0.505
 9164SOL    HW228392   3.145   6.708   0.477
 9165SOL     OW28393   5.612   6.584   0.301
 9165SOL    HW128394   5.513   6.578   0.307
 9165SOL    HW228395   5.645   6.659   0.359
 9166SOL     OW28396   3.026   5.678   1.342
 9166SOL    HW128397   2.945   5.715   1.386
 9166SOL    HW228398   3.010   5.668   1.244
 9167SOL     OW28399   1.120   4.280   4.779
 9167SOL    HW128400   1.123   4.280   4.679
 9167SOL    HW228401   1.118   4.185   4.811
 9168SOL     OW28402   2.185   0.201   6.288
 9168SOL    HW128403   2.234   0.251   6.360
 9168SOL    HW228404   2.168   0.108   6.318
 9169SOL     OW28405   6.914   6.968   3.306
 9169SOL    HW128406   6.826   6.979   3.353
 9169SOL    HW228407   6.950   6.877   3.325
 9170SOL     OW28408   6.371   6.086   6.895
 9170SOL    HW128409   6.372   6.160   6.827
 9170SOL    HW228410   6.346   6.123   6.984
 9171SOL     OW28411   2.655   5.755   6.345
 9171SOL    HW128412   2.652   5.702   6.430
 9171SOL    HW228413   2.709   5.837   6.359
 9172SOL     OW28414   2.847   1.842   4.188
 9172SOL    HW128415   2.770   1.780   4.174
 9172SOL    HW228416   2.833   1.926   4.135
 9173SOL     OW28417   0.360   5.174   4.790
 9173SOL    HW128418   0.416   5.164   4.708
 9173SOL    HW228419   0.413   5.149   4.871
 9174SOL     OW28420   0.581   5.004   0.359
 9174SOL    HW128421   0.663   5.052   0.327
 9174SOL    HW228422   0.519   5.069   0.402
 9175SOL     OW28423   1.415   6.828   5.299
 9175SOL    HW128424   1.327   6.792   5.330
 9175SOL    HW228425   1.411   6.844   5.200
 9176SOL     OW28426   2.175   0.691   5.541
 9176SOL    HW128427   2.098   0.676   5.479
 9176SOL    HW228428   2.153   0.654   5.631
 9177SOL     OW28429   0.932   4.952   4.165
 9177SOL    HW128430   0.899   4.867   4.206
 9177SOL    HW228431   1.022   4.936   4.123
 9178SOL     OW28432   2.425   4.665   0.667
 9178SOL    HW128433   2.483   4.651   0.586
 9178SOL    HW228434   2.482   4.683   0.746
 9179SOL     OW28435   3.150   4.972   4.498
 9179SOL    HW128436   3.242   4.934   4.490
 9179SOL    HW228437   3.112   4.948   4.587
 9180SOL     OW28438   4.998   2.122   3.291
 9180SOL    HW128439   4.904   2.091   3.277
 9180SOL    HW228440   5.038   2.147   3.203
 9181SOL     OW28441   4.284   1.197   2.432
 9181SOL    HW128442   4.307   1.239   2.344
 9181SOL    HW228443   4.196   1.150   2.425
 9182SOL     OW28444   1.333   6.837   1.848
 9182SOL    HW128445   1.391   6.762   1.818
 9182SOL    HW228446   1.382   6.893   1.914
 9183SOL     OW28447   5.443   5.900   0.204
 9183SOL    HW128448   5.386   5.868   0.128
 9183SOL    HW228449   5.462   5.824   0.266
 9184SOL     OW28450   5.066   0.214   0.496
 9184SOL    HW128451   5.113   0.302   0.483
 9184SOL    HW228452   5.058   0.195   0.594
 9185SOL     OW28453   3.957   1.329   5.202
 9185SOL    HW128454   3.863   1.356   5.220
 9185SOL    HW228455   4.008   1.406   5.163
 9186SOL     OW28456   5.523   0.555   6.375
 9186SOL    HW128457   5.569   0.625   6.320
 9186SOL    HW228458   5.591   0.494   6.415
 9187SOL     OW28459   2.446   6.153   2.111
 9187SOL    HW128460   2.508   6.075   2.100
 9187SOL    HW228461   2.434   6.172   2.209
 9188SOL     OW28462   2.587   6.118   1.420
 9188SOL    HW128463   2.657   6.102   1.490
 9188SOL    HW228464   2.628   6.110   1.329
 9189SOL     OW28465   5.431   5.484   2.332
 9189SOL    HW128466   5.433   5.414   2.402
 9189SOL    HW228467   5.346   5.477   2.279
 9190SOL     OW28468   1.836   4.969   0.539
 9190SOL    HW128469   1.756   4.956   0.598
 9190SOL    HW228470   1.860   4.882   0.496
 9191SOL     OW28471   6.910   0.844   5.978
 9191SOL    HW128472   6.827   0.887   6.015
 9191SOL    HW228473   6.905   0.745   5.994
 9192SOL     OW28474   6.859   4.072   3.896
 9192SOL    HW128475   6.864   3.975   3.873
 9192SOL    HW228476   6.765   4.104   3.884
 9193SOL     OW28477   2.714   3.098   6.635
 9193SOL    HW128478   2.701   3.196   6.620
 9193SOL    HW228479   2.803   3.084   6.678
 9194SOL     OW28480   3.672   0.261   4.086
 9194SOL    HW128481   3.771   0.277   4.085
 9194SOL    HW228482   3.645   0.218   3.999
 9195SOL     OW28483   1.784   1.631   3.742
 9195SOL    HW128484   1.823   1.715   3.780
 9195SOL    HW228485   1.822   1.613   3.652
 9196SOL     OW28486   5.009   2.455   5.659
 9196SOL    HW128487   4.972   2.362   5.651
 9196SOL    HW228488   4.942   2.521   5.627
 9197SOL     OW28489   2.498   3.568   1.687
 9197SOL    HW128490   2.551   3.627   1.626
 9197SOL    HW228491   2.411   3.612   1.708
 9198SOL     OW28492   6.919   5.175   4.221
 9198SOL    HW128493   6.866   5.149   4.302
 9198SOL    HW228494   7.016   5.166   4.241
 9199SOL     OW28495   6.298   4.760   4.866
 9199SOL    HW128496   6.284   4.742   4.964
 9199SOL    HW228497   6.210   4.772   4.821
 9200SOL     OW28498   2.574   7.021   0.519
 9200SOL    HW128499   2.536   6.968   0.443
 9200SOL    HW228500   2.672   0.012   0.504
 9201SOL     OW28501   1.882   4.184   0.733
 9201SOL    HW128502   1.963   4.165   0.677
 9201SOL    HW228503   1.817   4.240   0.681
 9202SOL     OW28504   2.425   0.429   3.346
 9202SOL    HW128505   2.410   0.455   3.441
 9202SOL    HW228506   2.476   0.500   3.299
 9203SOL     OW28507   6.781   6.762   0.722
 9203SOL    HW128508   6.797   6.725   0.630
 9203SOL    HW228509   6.785   6.688   0.789
 9204SOL     OW28510   5.022   1.020   5.593
 9204SOL    HW128511   4.928   1.006   5.562
 9204SOL    HW228512   5.024   1.091   5.663
 9205SOL     OW28513   7.018   4.276   1.986
 9205SOL    HW128514   6.962   4.273   2.069
 9205SOL    HW228515   6.967   4.236   1.910
 9206SOL     OW28516   3.528   5.531   0.558
 9206SOL    HW128517   3.481   5.611   0.520
 9206SOL    HW228518   3.495   5.449   0.513
 9207SOL     OW28519   4.968   5.437   6.466
 9207SOL    HW128520   5.047   5.400   6.417
 9207SOL    HW228521   4.888   5.379   6.447
 9208SOL     OW28522   1.416   3.641   3.058
 9208SOL    HW128523   1.449   3.673   3.146
 9208SOL    HW228524   1.475   3.675   2.985
 9209SOL     OW28525   2.867   0.274   6.358
 9209SOL    HW128526   2.813   0.272   6.274
 9209SOL    HW228527   2.826   0.213   6.426
 9210SOL     OW28528   6.965   0.499   3.289
 9210SOL    HW128529   0.018   0.478   3.227
 9210SOL    HW228530   6.930   0.415   3.330
 9211SOL     OW28531   0.777   1.589   2.535
 9211SOL    HW128532   0.852   1.637   2.489
 9211SOL    HW228533   0.766   1.498   2.494
 9212SOL     OW28534   3.250   4.915   4.169
 9212SOL    HW128535   3.208   4.882   4.085
 9212SOL    HW228536   3.194   4.989   4.207
 9213SOL     OW28537   5.926   4.388   6.710
 9213SOL    HW128538   5.943   4.296   6.746
 9213SOL    HW228539   5.957   4.456   6.777
 9214SOL     OW28540   0.294   4.773   0.939
 9214SOL    HW128541   0.394   4.784   0.944
 9214SOL    HW228542   0.254   4.791   1.029
 9215SOL     OW28543   1.003   0.915   1.005
 9215SOL    HW128544   0.999   0.945   0.909
 9215SOL    HW228545   1.067   0.839   1.013
 9216SOL     OW28546   2.160   6.800   3.062
 9216SOL    HW128547   2.200   6.762   3.145
 9216SOL    HW228548   2.208   6.885   3.038
 9217SOL     OW28549   1.125   2.428   6.603
 9217SOL    HW128550   1.123   2.512   6.658
 9217SOL    HW228551   1.187   2.441   6.526
 9218SOL     OW28552   2.721   0.681   0.564
 9218SOL    HW128553   2.669   0.716   0.642
 9218SOL    HW228554   2.756   0.590   0.585
 9219SOL     OW28555   0.398   1.616   0.538
 9219SOL    HW128556   0.337   1.694   0.522
 9219SOL    HW228557   0.400   1.594   0.635
 9220SOL     OW28558   3.262   6.390   1.746
 9220SOL    HW128559   3.314   6.457   1.693
 9220SOL    HW228560   3.280   6.403   1.843
 9221SOL     OW28561   3.105   5.527   4.075
 9221SOL    HW128562   3.092   5.586   3.996
 9221SOL    HW228563   3.053   5.564   4.153
 9222SOL     OW28564   2.762   2.283   5.704
 9222SOL    HW128565   2.687   2.341   5.671
 9222SOL    HW228566   2.794   2.225   5.629
 9223SOL     OW28567   2.703   2.918   5.361
 9223SOL    HW128568   2.698   2.969   5.446
 9223SOL    HW228569   2.643   2.959   5.293
 9224SOL     OW28570   2.355   5.105   5.352
 9224SOL    HW128571   2.258   5.126   5.342
 9224SOL    HW228572   2.407   5.148   5.278
 9225SOL     OW28573   2.072   6.270   0.009
 9225SOL    HW128574   2.061   6.369   7.019
 9225SOL    HW228575   2.076   6.226   6.942
 9226SOL     OW28576   3.886   6.506   1.136
 9226SOL    HW128577   3.965   6.526   1.078
 9226SOL    HW228578   3.905   6.424   1.191
 9227SOL     OW28579   1.705   5.824   2.072
 9227SOL    HW128580   1.668   5.805   1.981
 9227SOL    HW228581   1.790   5.773   2.085
 9228SOL     OW28582   1.050   7.016   6.414
 9228SOL    HW128583   1.059   0.022   6.510
 9228SOL    HW228584   1.010   0.068   6.361
 9229SOL     OW28585   0.403   5.472   5.443
 9229SOL    HW128586   0.440   5.434   5.528
 9229SOL    HW228587   0.456   5.440   5.365
 9230SOL     OW28588   5.749   0.176   4.185
 9230SOL    HW128589   5.747   0.076   4.175
 9230SOL    HW228590   5.759   0.199   4.282
 9231SOL     OW28591   1.931   2.575   3.394
 9231SOL    HW128592   1.970   2.624   3.317
 9231SOL    HW228593   1.966   2.612   3.480
 9232SOL     OW28594   4.067   4.656   1.291
 9232SOL    HW128595   4.025   4.569   1.264
 9232SOL    HW228596   4.161   4.638   1.323
 9233SOL     OW28597   4.998   4.571   0.936
 9233SOL    HW128598   4.907   4.601   0.964
 9233SOL    HW228599   5.067   4.626   0.983
 9234SOL     OW28600   2.421   6.223   3.568
 9234SOL    HW128601   2.384   6.279   3.642
 9234SOL    HW228602   2.497   6.167   3.603
 9235SOL     OW28603   0.471   2.043   3.150
 9235SOL    HW128604   0.465   1.985   3.231
 9235SOL    HW228605   0.525   2.124   3.171
 9236SOL     OW28606   3.715   2.787   5.832
 9236SOL    HW128607   3.748   2.695   5.810
 9236SOL    HW228608   3.621   2.781   5.865
 9237SOL     OW28609   1.558   3.353   4.108
 9237SOL    HW128610   1.584   3.363   4.012
 9237SOL    HW228611   1.508   3.435   4.138
 9238SOL     OW28612   4.354   3.211   6.448
 9238SOL    HW128613   4.296   3.173   6.521
 9238SOL    HW228614   4.449   3.190   6.468
 9239SOL     OW28615   1.787   3.945   0.472
 9239SOL    HW128616   1.834   3.874   0.419
 9239SOL    HW228617   1.815   3.940   0.568
 9240SOL     OW28618   4.374   0.850   2.357
 9240SOL    HW128619   4.369   0.830   2.455
 9240SOL    HW228620   4.470   0.859   2.330
 9241SOL     OW28621   0.453   5.965   6.680
 9241SOL    HW128622   0.454   6.048   6.624
 9241SOL    HW228623   0.543   5.923   6.679
 9242SOL     OW28624   6.915   6.294   1.667
 9242SOL    HW128625   6.894   6.382   1.624
 9242SOL    HW228626   6.894   6.220   1.603
 9243SOL     OW28627   6.361   6.373   4.716
 9243SOL    HW128628   6.459   6.373   4.696
 9243SOL    HW228629   6.315   6.309   4.654
 9244SOL     OW28630   3.616   4.932   6.746
 9244SOL    HW128631   3.694   4.982   6.706
 9244SOL    HW228632   3.647   4.880   6.826
 9245SOL     OW28633   0.700   5.764   1.111
 9245SOL    HW128634   0.626   5.714   1.065
 9245SOL    HW228635   0.767   5.699   1.148
 9246SOL     OW28636   6.884   4.775   4.337
 9246SOL    HW128637   6.865   4.677   4.347
 9246SOL    HW228638   6.959   4.788   4.272
 9247SOL     OW28639   1.506   6.497   2.245
 9247SOL    HW128640   1.549   6.422   2.196
 9247SOL    HW228641   1.428   6.531   2.192
 9248SOL     OW28642   3.003   1.424   6.345
 9248SOL    HW128643   3.078   1.391   6.401
 9248SOL    HW228644   2.934   1.353   6.336
 9249SOL     OW28645   4.895   0.199   4.030
 9249SOL    HW128646   4.987   0.184   4.067
 9249SOL    HW228647   4.839   0.118   4.047
 9250SOL     OW28648   5.315   3.678   4.001
 9250SOL    HW128649   5.230   3.698   3.952
 9250SOL    HW228650   5.342   3.583   3.984
 9251SOL     OW28651   3.352   2.091   2.473
 9251SOL    HW128652   3.397   2.105   2.561
 9251SOL    HW228653   3.419   2.059   2.406
 9252SOL     OW28654   1.511   6.918   4.406
 9252SOL    HW128655   1.574   6.995   4.418
 9252SOL    HW228656   1.478   6.917   4.312
 9253SOL     OW28657   1.153   6.945   5.475
 9253SOL    HW128658   1.148   6.906   5.567
 9253SOL    HW228659   1.221   7.018   5.474
 9254SOL     OW28660   5.799   3.599   1.699
 9254SOL    HW128661   5.817   3.539   1.620
 9254SOL    HW228662   5.714   3.571   1.743
 9255SOL     OW28663   6.532   4.218   0.502
 9255SOL    HW128664   6.547   4.126   0.467
 9255SOL    HW228665   6.533   4.216   0.602
 9256SOL     OW28666   4.503   4.750   1.692
 9256SOL    HW128667   4.405   4.768   1.685
 9256SOL    HW228668   4.554   4.834   1.674
 9257SOL     OW28669   0.884   4.001   1.239
 9257SOL    HW128670   0.945   4.009   1.160
 9257SOL    HW228671   0.865   3.905   1.257
 9258SOL     OW28672   4.132   3.495   3.794
 9258SOL    HW128673   4.064   3.560   3.761
 9258SOL    HW228674   4.223   3.535   3.783
 9259SOL     OW28675   0.832   2.951   6.943
 9259SOL    HW128676   0.904   2.961   7.011
 9259SOL    HW228677   0.746   2.926   6.988
 9260SOL     OW28678   5.571   3.662   6.638
 9260SOL    HW128679   5.522   3.711   6.567
 9260SOL    HW228680   5.595   3.571   6.605
 9261SOL     OW28681   4.754   6.978   0.136
 9261SOL    HW128682   4.846   6.940   0.129
 9261SOL    HW228683   4.758   0.055   0.128
 9262SOL     OW28684   4.803   1.446   5.253
 9262SOL    HW128685   4.757   1.365   5.218
 9262SOL    HW228686   4.804   1.444   5.353
 9263SOL     OW28687   5.597   3.862   1.833
 9263SOL    HW128688   5.609   3.932   1.904
 9263SOL    HW228689   5.571   3.775   1.876
 9264SOL     OW28690   6.232   3.492   0.297
 9264SOL    HW128691   6.187   3.551   0.230
 9264SOL    HW228692   6.331   3.496   0.284
 9265SOL     OW28693   1.799   0.718   5.582
 9265SOL    HW128694   1.790   0.815   5.604
 9265SOL    HW228695   1.877   0.705   5.521
 9266SOL     OW28696   1.923   6.162   2.052
 9266SOL    HW128697   1.963   6.088   2.105
 9266SOL    HW228698   1.993   6.229   2.030
 9267SOL     OW28699   2.556   5.211   5.195
 9267SOL    HW128700   2.568   5.237   5.100
 9267SOL    HW228701   2.582   5.287   5.254
 9268SOL     OW28702   0.252   1.179   2.611
 9268SOL    HW128703   0.280   1.275   2.605
 9268SOL    HW228704   0.322   1.127   2.659
 9269SOL     OW28705   3.659   1.283   5.828
 9269SOL    HW128706   3.648   1.234   5.742
 9269SOL    HW228707   3.755   1.278   5.856
 9270SOL     OW28708   0.455   0.003   5.775
 9270SOL    HW128709   0.447   6.938   5.727
 9270SOL    HW228710   0.380   0.012   5.841
 9271SOL     OW28711   1.163   5.050   6.983
 9271SOL    HW128712   1.227   5.106   6.930
 9271SOL    HW228713   1.166   4.956   6.951
 9272SOL     OW28714   2.430   4.544   6.624
 9272SOL    HW128715   2.440   4.478   6.698
 9272SOL    HW228716   2.518   4.557   6.578
 9273SOL     OW28717   3.773   6.118   5.536
 9273SOL    HW128718   3.779   6.034   5.481
 9273SOL    HW228719   3.678   6.133   5.562
 9274SOL     OW28720   5.589   2.077   1.023
 9274SOL    HW128721   5.541   2.063   0.936
 9274SOL    HW228722   5.619   2.172   1.029
 9275SOL     OW28723   1.104   0.450   6.245
 9275SOL    HW128724   1.170   0.377   6.263
 9275SOL    HW228725   1.018   0.430   6.291
 9276SOL     OW28726   4.305   6.290   4.951
 9276SOL    HW128727   4.248   6.281   5.032
 9276SOL    HW228728   4.292   6.210   4.891
 9277SOL     OW28729   3.548   2.690   0.796
 9277SOL    HW128730   3.585   2.750   0.724
 9277SOL    HW228731   3.554   2.595   0.767
 9278SOL     OW28732   1.266   2.167   1.749
 9278SOL    HW128733   1.172   2.147   1.776
 9278SOL    HW228734   1.266   2.216   1.661
 9279SOL     OW28735   3.449   6.910   1.560
 9279SOL    HW128736   3.454   6.911   1.660
 9279SOL    HW228737   3.529   6.863   1.523
 9280SOL     OW28738   1.935   0.009   2.935
 9280SOL    HW128739   1.899   0.020   3.028
 9280SOL    HW228740   1.860   0.015   2.869
 9281SOL     OW28741   2.084   2.574   0.335
 9281SOL    HW128742   2.132   2.582   0.422
 9281SOL    HW228743   1.999   2.627   0.339
 9282SOL     OW28744   4.710   1.987   6.404
 9282SOL    HW128745   4.656   1.972   6.487
 9282SOL    HW228746   4.677   2.069   6.357
 9283SOL     OW28747   5.929   2.229   2.536
 9283SOL    HW128748   5.903   2.325   2.521
 9283SOL    HW228749   5.875   2.191   2.610
 9284SOL     OW28750   3.088   3.411   1.608
 9284SOL    HW128751   3.123   3.318   1.602
 9284SOL    HW228752   3.063   3.443   1.517
 9285SOL     OW28753   6.061   3.149   6.837
 9285SOL    HW128754   5.998   3.222   6.811
 9285SOL    HW228755   6.155   3.184   6.835
 9286SOL     OW28756   5.366   6.415   5.546
 9286SOL    HW128757   5.301   6.392   5.618
 9286SOL    HW228758   5.318   6.424   5.459
 9287SOL     OW28759   2.972   6.420   1.752
 9287SOL    HW128760   2.933   6.387   1.838
 9287SOL    HW228761   3.070   6.399   1.749
 9288SOL     OW28762   4.760   2.273   6.056
 9288SOL    HW128763   4.706   2.357   6.051
 9288SOL    HW228764   4.758   2.228   5.967
 9289SOL     OW28765   4.947   3.063   3.099
 9289SOL    HW128766   4.876   3.015   3.149
 9289SOL    HW228767   4.932   3.162   3.105
 9290SOL     OW28768   4.776   2.072   4.986
 9290SOL    HW128769   4.676   2.072   4.993
 9290SOL    HW228770   4.809   1.979   4.972
 9291SOL     OW28771   0.853   2.085   5.406
 9291SOL    HW128772   0.835   2.170   5.455
 9291SOL    HW228773   0.920   2.102   5.333
 9292SOL     OW28774   6.711   3.605   6.612
 9292SOL    HW128775   6.787   3.557   6.656
 9292SOL    HW228776   6.747   3.680   6.556
 9293SOL     OW28777   5.230   4.230   6.976
 9293SOL    HW128778   5.139   4.271   6.966
 9293SOL    HW228779   5.251   4.177   6.893
 9294SOL     OW28780   5.933   6.234   0.397
 9294SOL    HW128781   5.978   6.149   0.422
 9294SOL    HW228782   5.984   6.279   0.323
 9295SOL     OW28783   4.747   2.001   3.760
 9295SOL    HW128784   4.755   1.952   3.847
 9295SOL    HW228785   4.665   1.971   3.713
 9296SOL     OW28786   6.125   0.279   5.544
 9296SOL    HW128787   6.109   0.367   5.589
 9296SOL    HW228788   6.222   0.258   5.545
 9297SOL     OW28789   0.877   1.127   0.493
 9297SOL    HW128790   0.904   1.147   0.399
 9297SOL    HW228791   0.778   1.112   0.496
 9298SOL     OW28792   1.191   6.336   4.881
 9298SOL    HW128793   1.209   6.241   4.909
 9298SOL    HW228794   1.139   6.336   4.796
 9299SOL     OW28795   2.153   2.750   4.442
 9299SOL    HW128796   2.091   2.738   4.365
 9299SOL    HW228797   2.235   2.693   4.429
 9300SOL     OW28798   5.429   4.799   4.367
 9300SOL    HW128799   5.525   4.817   4.385
 9300SOL    HW228800   5.420   4.747   4.282
 9301SOL     OW28801   5.528   4.187   2.668
 9301SOL    HW128802   5.583   4.229   2.740
 9301SOL    HW228803   5.505   4.255   2.599
 9302SOL     OW28804   1.945   1.824   2.198
 9302SOL    HW128805   1.999   1.877   2.132
 9302SOL    HW228806   1.948   1.869   2.287
 9303SOL     OW28807   3.601   5.194   0.799
 9303SOL    HW128808   3.632   5.180   0.893
 9303SOL    HW228809   3.502   5.182   0.794
 9304SOL     OW28810   4.390   3.272   0.879
 9304SOL    HW128811   4.327   3.197   0.900
 9304SOL    HW228812   4.353   3.326   0.803
 9305SOL     OW28813   5.345   2.700   2.600
 9305SOL    HW128814   5.318   2.639   2.526
 9305SOL    HW228815   5.441   2.685   2.623
 9306SOL     OW28816   6.949   4.348   3.864
 9306SOL    HW128817   6.939   4.253   3.892
 9306SOL    HW228818   6.880   4.370   3.795
 9307SOL     OW28819   1.939   1.259   6.449
 9307SOL    HW128820   1.985   1.170   6.456
 9307SOL    HW228821   2.007   1.332   6.452
 9308SOL     OW28822   6.592   3.114   1.119
 9308SOL    HW128823   6.651   3.192   1.141
 9308SOL    HW228824   6.544   3.132   1.033
 9309SOL     OW28825   4.508   3.493   6.722
 9309SOL    HW128826   4.560   3.466   6.642
 9309SOL    HW228827   4.507   3.593   6.729
 9310SOL     OW28828   3.772   5.813   0.610
 9310SOL    HW128829   3.812   5.725   0.585
 9310SOL    HW228830   3.826   5.887   0.571
 9311SOL     OW28831   6.020   2.890   0.791
 9311SOL    HW128832   6.116   2.904   0.815
 9311SOL    HW228833   5.997   2.949   0.713
 9312SOL     OW28834   1.390   4.774   5.784
 9312SOL    HW128835   1.315   4.730   5.735
 9312SOL    HW228836   1.384   4.751   5.881
 9313SOL     OW28837   5.941   6.702   2.612
 9313SOL    HW128838   6.008   6.696   2.538
 9313SOL    HW228839   5.905   6.795   2.618
 9314SOL     OW28840   5.404   4.818   0.421
 9314SOL    HW128841   5.306   4.823   0.442
 9314SOL    HW228842   5.417   4.822   0.322
 9315SOL     OW28843   6.750   6.434   6.329
 9315SOL    HW128844   6.701   6.514   6.362
 9315SOL    HW228845   6.794   6.387   6.406
 9316SOL     OW28846   3.635   5.957   4.074
 9316SOL    HW128847   3.604   5.972   4.168
 9316SOL    HW228848   3.707   5.887   4.074
 9317SOL     OW28849   6.076   4.303   4.524
 9317SOL    HW128850   6.162   4.346   4.551
 9317SOL    HW228851   6.001   4.346   4.575
 9318SOL     OW28852   6.503   0.330   6.238
 9318SOL    HW128853   6.569   0.345   6.164
 9318SOL    HW228854   6.552   0.319   6.325
 9319SOL     OW28855   0.046   3.229   4.568
 9319SOL    HW128856   6.972   3.235   4.589
 9319SOL    HW228857   0.099   3.227   4.653
 9320SOL     OW28858   4.645   2.681   6.545
 9320SOL    HW128859   4.606   2.772   6.558
 9320SOL    HW228860   4.744   2.688   6.540
 9321SOL     OW28861   6.370   5.851   3.017
 9321SOL    HW128862   6.286   5.892   2.982
 9321SOL    HW228863   6.415   5.914   3.080
 9322SOL     OW28864   0.704   6.590   7.007
 9322SOL    HW128865   0.777   6.631   0.037
 9322SOL    HW228866   0.716   6.490   7.005
 9323SOL     OW28867   6.958   1.745   6.037
 9323SOL    HW128868   6.984   1.676   6.105
 9323SOL    HW228869   6.865   1.777   6.055
 9324SOL     OW28870   1.713   5.909   6.963
 9324SOL    HW128871   1.653   5.834   6.991
 9324SOL    HW228872   1.764   5.883   6.881
 9325SOL     OW28873   6.835   2.754   0.983
 9325SOL    HW128874   6.751   2.776   1.032
 9325SOL    HW228875   6.812   2.717   0.893
 9326SOL     OW28876   2.413   6.249   1.236
 9326SOL    HW128877   2.431   6.337   1.280
 9326SOL    HW228878   2.478   6.181   1.270
 9327SOL     OW28879   3.937   1.075   3.269
 9327SOL    HW128880   4.020   1.131   3.265
 9327SOL    HW228881   3.927   1.037   3.361
 9328SOL     OW28882   2.903   0.782   2.131
 9328SOL    HW128883   2.883   0.876   2.157
 9328SOL    HW228884   2.836   0.721   2.173
 9329SOL     OW28885   1.377   3.542   1.612
 9329SOL    HW128886   1.295   3.599   1.607
 9329SOL    HW228887   1.453   3.596   1.648
 9330SOL     OW28888   5.683   0.334   0.256
 9330SOL    HW128889   5.782   0.339   0.273
 9330SOL    HW228890   5.649   0.424   0.230
 9331SOL     OW28891   0.741   1.125   6.682
 9331SOL    HW128892   0.824   1.070   6.678
 9331SOL    HW228893   0.704   1.126   6.775
 9332SOL     OW28894   3.676   3.668   4.063
 9332SOL    HW128895   3.758   3.611   4.061
 9332SOL    HW228896   3.701   3.763   4.078
 9333SOL     OW28897   5.661   5.198   1.122
 9333SOL    HW128898   5.723   5.121   1.110
 9333SOL    HW228899   5.658   5.252   1.038
 9334SOL     OW28900   3.228   6.872   4.771
 9334SOL    HW128901   3.284   6.834   4.844
 9334SOL    HW228902   3.213   6.803   4.700
 9335SOL     OW28903   0.745   0.781   1.016
 9335SOL    HW128904   0.821   0.845   1.003
 9335SOL    HW228905   0.781   0.688   1.028
 9336SOL     OW28906   3.221   6.618   5.642
 9336SOL    HW128907   3.258   6.596   5.732
 9336SOL    HW228908   3.263   6.559   5.573
 9337SOL     OW28909   4.828   0.122   2.861
 9337SOL    HW128910   4.821   0.202   2.921
 9337SOL    HW228911   4.861   0.151   2.771
 9338SOL     OW28912   4.074   0.409   1.277
 9338SOL    HW128913   4.061   0.405   1.376
 9338SOL    HW228914   4.154   0.466   1.256
 9339SOL     OW28915   4.162   5.933   1.104
 9339SOL    HW128916   4.118   6.022   1.095
 9339SOL    HW228917   4.219   5.915   1.024
 9340SOL     OW28918   5.700   3.272   0.703
 9340SOL    HW128919   5.694   3.239   0.609
 9340SOL    HW228920   5.796   3.278   0.730
 9341SOL     OW28921   6.971   5.178   5.855
 9341SOL    HW128922   6.934   5.270   5.843
 9341SOL    HW228923   6.903   5.119   5.898
 9342SOL     OW28924   0.940   5.922   6.108
 9342SOL    HW128925   0.956   5.824   6.102
 9342SOL    HW228926   1.021   5.972   6.078
 9343SOL     OW28927   6.471   5.576   4.680
 9343SOL    HW128928   6.390   5.523   4.704
 9343SOL    HW228929   6.484   5.575   4.581
 9344SOL     OW28930   4.819   6.764   1.506
 9344SOL    HW128931   4.723   6.739   1.503
 9344SOL    HW228932   4.849   6.796   1.416
 9345SOL     OW28933   6.825   2.794   0.660
 9345SOL    HW128934   6.772   2.868   0.619
 9345SOL    HW228935   6.889   2.832   0.726
 9346SOL     OW28936   6.317   0.054   6.925
 9346SOL    HW128937   6.226   0.050   6.885
 9346SOL    HW228938   6.323   7.013   7.002
 9347SOL     OW28939   1.366   6.110   2.004
 9347SOL    HW128940   1.340   6.029   1.951
 9347SOL    HW228941   1.461   6.134   1.984
 9348SOL     OW28942   3.043   5.016   0.153
 9348SOL    HW128943   2.963   4.980   0.202
 9348SOL    HW228944   3.125   5.001   0.209
 9349SOL     OW28945   1.830   6.327   2.586
 9349SOL    HW128946   1.852   6.419   2.553
 9349SOL    HW228947   1.833   6.263   2.509
 9350SOL     OW28948   0.782   2.821   5.856
 9350SOL    HW128949   0.690   2.833   5.893
 9350SOL    HW228950   0.804   2.898   5.796
 9351SOL     OW28951   2.344   1.205   6.780
 9351SOL    HW128952   2.392   1.231   6.865
 9351SOL    HW228953   2.251   1.176   6.802
 9352SOL     OW28954   2.473   4.706   5.599
 9352SOL    HW128955   2.482   4.806   5.593
 9352SOL    HW228956   2.436   4.681   5.688
 9353SOL     OW28957   6.167   0.522   0.894
 9353SOL    HW128958   6.212   0.574   0.966
 9353SOL    HW228959   6.230   0.508   0.818
 9354SOL     OW28960   0.597   1.737   6.504
 9354SOL    HW128961   0.590   1.833   6.477
 9354SOL    HW228962   0.625   1.731   6.600
 9355SOL     OW28963   0.254   1.954   5.583
 9355SOL    HW128964   0.323   1.982   5.517
 9355SOL    HW228965   0.221   1.862   5.561
 9356SOL     OW28966   5.631   0.105   3.341
 9356SOL    HW128967   5.702   0.129   3.408
 9356SOL    HW228968   5.593   0.015   3.362
 9357SOL     OW28969   0.851   1.953   0.132
 9357SOL    HW128970   0.834   1.937   0.035
 9357SOL    HW228971   0.915   1.884   0.166
 9358SOL     OW28972   0.532   3.086   1.398
 9358SOL    HW128973   0.501   3.175   1.434
 9358SOL    HW228974   0.600   3.101   1.327
 9359SOL     OW28975   0.874   6.938   5.079
 9359SOL    HW128976   0.956   6.972   5.126
 9359SOL    HW228977   0.831   6.867   5.134
 9360SOL     OW28978   0.920   0.247   5.899
 9360SOL    HW128979   0.851   0.319   5.913
 9360SOL    HW228980   0.892   0.188   5.823
 9361SOL     OW28981   2.160   6.015   3.898
 9361SOL    HW128982   2.152   6.113   3.914
 9361SOL    HW228983   2.143   5.965   3.984
 9362SOL     OW28984   2.157   0.092   1.941
 9362SOL    HW128985   2.174   0.086   1.843
 9362SOL    HW228986   2.218   0.160   1.982
 9363SOL     OW28987   1.985   4.759   2.658
 9363SOL    HW128988   1.889   4.772   2.634
 9363SOL    HW228989   2.035   4.728   2.577
 9364SOL     OW28990   1.436   2.606   1.002
 9364SOL    HW128991   1.522   2.602   0.950
 9364SOL    HW228992   1.359   2.608   0.938
 9365SOL     OW28993   3.177   1.121   4.503
 9365SOL    HW128994   3.219   1.160   4.585
 9365SOL    HW228995   3.101   1.061   4.530
 9366SOL     OW28996   4.544   5.983   2.101
 9366SOL    HW128997   4.640   6.010   2.087
 9366SOL    HW228998   4.535   5.939   2.191
 9367SOL     OW28999   7.010   0.938   1.566
 9367SOL    HW129000   0.028   0.865   1.512
 9367SOL    HW229001   7.009   0.911   1.663
 9368SOL     OW29002   2.773   0.407   2.850
 9368SOL    HW129003   2.756   0.396   2.948
 9368SOL    HW229004   2.834   0.334   2.818
 9369SOL     OW29005   3.382   4.978   0.531
 9369SOL    HW129006   3.366   5.004   0.627
 9369SOL    HW229007   3.460   4.916   0.526
 9370SOL     OW29008   4.634   1.825   4.797
 9370SOL    HW129009   4.732   1.847   4.790
 9370SOL    HW229010   4.595   1.818   4.705
 9371SOL     OW29011   4.716   4.871   1.175
 9371SOL    HW129012   4.653   4.847   1.249
 9371SOL    HW229013   4.696   4.964   1.144
 9372SOL     OW29014   4.337   5.875   1.551
 9372SOL    HW129015   4.354   5.778   1.534
 9372SOL    HW229016   4.418   5.928   1.524
 9373SOL     OW29017   0.074   2.974   1.012
 9373SOL    HW129018   0.043   2.983   1.107
 9373SOL    HW229019   0.035   2.891   0.972
 9374SOL     OW29020   0.324   5.995   5.675
 9374SOL    HW129021   0.250   6.045   5.720
 9374SOL    HW229022   0.410   6.045   5.685
 9375SOL     OW29023   0.619   1.115   6.908
 9375SOL    HW129024   0.590   1.050   6.979
 9375SOL    HW229025   0.571   1.202   6.921
 9376SOL     OW29026   2.394   3.862   1.293
 9376SOL    HW129027   2.353   3.805   1.365
 9376SOL    HW229028   2.336   3.859   1.212
 9377SOL     OW29029   1.838   0.756   3.269
 9377SOL    HW129030   1.838   0.855   3.275
 9377SOL    HW229031   1.891   0.718   3.345
 9378SOL     OW29032   3.699   1.379   5.174
 9378SOL    HW129033   3.602   1.358   5.181
 9378SOL    HW229034   3.720   1.412   5.082
 9379SOL     OW29035   5.185   6.925   4.319
 9379SOL    HW129036   5.129   6.842   4.328
 9379SOL    HW229037   5.262   6.919   4.383
 9380SOL     OW29038   5.695   5.484   6.984
 9380SOL    HW129039   5.749   5.444   0.035
 9380SOL    HW229040   5.600   5.496   7.014
 9381SOL     OW29041   5.848   1.540   5.392
 9381SOL    HW129042   5.891   1.567   5.306
 9381SOL    HW229043   5.795   1.456   5.378
 9382SOL     OW29044   2.943   5.228   5.924
 9382SOL    HW129045   2.858   5.181   5.899
 9382SOL    HW229046   2.925   5.325   5.936
 9383SOL     OW29047   5.989   4.028   2.893
 9383SOL    HW129048   6.053   3.965   2.935
 9383SOL    HW229049   5.917   3.977   2.846
 9384SOL     OW29050   3.711   0.544   1.778
 9384SOL    HW129051   3.621   0.503   1.793
 9384SOL    HW229052   3.782   0.488   1.820
 9385SOL     OW29053   4.877   1.501   3.871
 9385SOL    HW129054   4.939   1.429   3.840
 9385SOL    HW229055   4.929   1.583   3.894
 9386SOL     OW29056   4.964   6.185   0.499
 9386SOL    HW129057   5.063   6.176   0.495
 9386SOL    HW229058   4.936   6.267   0.449
 9387SOL     OW29059   2.781   1.339   0.189
 9387SOL    HW129060   2.808   1.379   0.101
 9387SOL    HW229061   2.826   1.251   0.201
 9388SOL     OW29062   2.587   0.058   5.029
 9388SOL    HW129063   2.587   0.157   5.024
 9388SOL    HW229064   2.496   0.026   5.056
 9389SOL     OW29065   2.115   4.408   2.107
 9389SOL    HW129066   2.182   4.333   2.109
 9389SOL    HW229067   2.079   4.418   2.015
 9390SOL     OW29068   4.796   4.822   4.312
 9390SOL    HW129069   4.824   4.798   4.219
 9390SOL    HW229070   4.874   4.859   4.362
 9391SOL     OW29071   1.510   4.027   4.524
 9391SOL    HW129072   1.546   4.088   4.453
 9391SOL    HW229073   1.585   3.999   4.584
 9392SOL     OW29074   5.104   4.605   3.095
 9392SOL    HW129075   5.190   4.564   3.064
 9392SOL    HW229076   5.039   4.533   3.119
 9393SOL     OW29077   1.895   6.190   6.031
 9393SOL    HW129078   1.873   6.141   5.947
 9393SOL    HW229079   1.945   6.129   6.093
 9394SOL     OW29080   4.064   0.492   0.577
 9394SOL    HW129081   4.080   0.575   0.631
 9394SOL    HW229082   4.048   0.518   0.482
 9395SOL     OW29083   1.458   1.426   1.109
 9395SOL    HW129084   1.508   1.487   1.170
 9395SOL    HW229085   1.521   1.361   1.067
 9396SOL     OW29086   0.652   0.218   6.070
 9396SOL    HW129087   0.668   0.315   6.052
 9396SOL    HW229088   0.740   0.170   6.073
 9397SOL     OW29089   3.480   1.011   5.074
 9397SOL    HW129090   3.559   0.986   5.018
 9397SOL    HW229091   3.462   1.109   5.063
 9398SOL     OW29092   0.689   2.175   0.161
 9398SOL    HW129093   0.724   2.222   0.242
 9398SOL    HW229094   0.735   2.087   0.151
 9399SOL     OW29095   1.092   2.395   4.530
 9399SOL    HW129096   1.060   2.484   4.496
 9399SOL    HW229097   1.061   2.384   4.625
 9400SOL     OW29098   6.034   1.547   1.154
 9400SOL    HW129099   5.967   1.618   1.176
 9400SOL    HW229100   6.092   1.578   1.079
 9401SOL     OW29101   0.027   2.193   3.870
 9401SOL    HW129102   0.113   2.227   3.833
 9401SOL    HW229103   7.002   2.140   3.800
 9402SOL     OW29104   2.455   6.857   4.271
 9402SOL    HW129105   2.545   6.842   4.231
 9402SOL    HW229106   2.386   6.855   4.200
 9403SOL     OW29107   5.250   1.992   1.250
 9403SOL    HW129108   5.232   2.075   1.198
 9403SOL    HW229109   5.336   2.001   1.299
 9404SOL     OW29110   2.213   2.200   1.158
 9404SOL    HW129111   2.202   2.282   1.214
 9404SOL    HW229112   2.254   2.225   1.070
 9405SOL     OW29113   6.040   5.790   5.299
 9405SOL    HW129114   6.078   5.725   5.365
 9405SOL    HW229115   6.074   5.769   5.208
 9406SOL     OW29116   0.839   2.233   0.405
 9406SOL    HW129117   0.762   2.259   0.462
 9406SOL    HW229118   0.898   2.170   0.455
 9407SOL     OW29119   2.113   5.115   4.804
 9407SOL    HW129120   2.133   5.038   4.743
 9407SOL    HW229121   2.027   5.097   4.853
 9408SOL     OW29122   6.602   4.167   4.833
 9408SOL    HW129123   6.670   4.094   4.841
 9408SOL    HW229124   6.519   4.130   4.791
 9409SOL     OW29125   6.251   5.313   1.794
 9409SOL    HW129126   6.170   5.301   1.736
 9409SOL    HW229127   6.282   5.408   1.788
 9410SOL     OW29128   3.863   0.660   0.868
 9410SOL    HW129129   3.889   0.574   0.911
 9410SOL    HW229130   3.945   0.709   0.838
 9411SOL     OW29131   3.405   3.880   3.546
 9411SOL    HW129132   3.451   3.916   3.628
 9411SOL    HW229133   3.439   3.928   3.466
 9412SOL     OW29134   4.573   6.865   1.816
 9412SOL    HW129135   4.531   6.778   1.844
 9412SOL    HW229136   4.552   6.883   1.720
 9413SOL     OW29137   4.820   3.983   2.946
 9413SOL    HW129138   4.865   3.895   2.930
 9413SOL    HW229139   4.812   4.034   2.860
 9414SOL     OW29140   2.467   2.318   2.919
 9414SOL    HW129141   2.546   2.358   2.871
 9414SOL    HW229142   2.436   2.238   2.868
 9415SOL     OW29143   5.533   0.671   2.153
 9415SOL    HW129144   5.522   0.601   2.224
 9415SOL    HW229145   5.540   0.626   2.064
 9416SOL     OW29146   5.539   5.501   5.771
 9416SOL    HW129147   5.589   5.578   5.811
 9416SOL    HW229148   5.451   5.491   5.817
 9417SOL     OW29149   3.174   5.485   2.817
 9417SOL    HW129150   3.177   5.540   2.900
 9417SOL    HW229151   3.247   5.515   2.755
 9418SOL     OW29152   3.055   2.013   4.902
 9418SOL    HW129153   3.033   2.020   4.805
 9418SOL    HW229154   3.067   2.104   4.940
 9419SOL     OW29155   1.898   2.763   6.467
 9419SOL    HW129156   1.839   2.691   6.504
 9419SOL    HW229157   1.989   2.724   6.449
 9420SOL     OW29158   5.424   4.423   5.624
 9420SOL    HW129159   5.401   4.401   5.719
 9420SOL    HW229160   5.502   4.367   5.595
 9421SOL     OW29161   3.763   6.461   6.898
 9421SOL    HW129162   3.807   6.390   6.843
 9421SOL    HW229163   3.808   6.549   6.881
 9422SOL     OW29164   2.399   6.406   5.739
 9422SOL    HW129165   2.409   6.402   5.640
 9422SOL    HW229166   2.355   6.323   5.772
 9423SOL     OW29167   4.772   4.812   2.289
 9423SOL    HW129168   4.716   4.792   2.209
 9423SOL    HW229169   4.762   4.739   2.356
 9424SOL     OW29170   6.500   0.457   4.186
 9424SOL    HW129171   6.541   0.442   4.276
 9424SOL    HW229172   6.559   0.419   4.115
 9425SOL     OW29173   0.085   3.900   0.863
 9425SOL    HW129174   0.090   3.983   0.808
 9425SOL    HW229175   7.013   3.874   0.877
 9426SOL     OW29176   5.174   3.177   6.153
 9426SOL    HW129177   5.115   3.125   6.092
 9426SOL    HW229178   5.201   3.119   6.230
 9427SOL     OW29179   4.795   4.124   2.709
 9427SOL    HW129180   4.754   4.215   2.711
 9427SOL    HW229181   4.802   4.093   2.614
 9428SOL     OW29182   0.949   6.161   5.700
 9428SOL    HW129183   0.890   6.213   5.761
 9428SOL    HW229184   0.961   6.068   5.736
 9429SOL     OW29185   2.233   2.567   3.891
 9429SOL    HW129186   2.203   2.479   3.853
 9429SOL    HW229187   2.186   2.584   3.978
 9430SOL     OW29188   1.903   1.469   4.056
 9430SOL    HW129189   1.862   1.388   4.098
 9430SOL    HW229190   1.945   1.444   3.969
 9431SOL     OW29191   0.698   4.485   5.718
 9431SOL    HW129192   0.704   4.433   5.632
 9431SOL    HW229193   0.622   4.549   5.713
 9432SOL     OW29194   6.629   1.125   4.357
 9432SOL    HW129195   6.666   1.153   4.269
 9432SOL    HW229196   6.633   1.203   4.421
 9433SOL     OW29197   4.828   5.153   1.852
 9433SOL    HW129198   4.851   5.059   1.827
 9433SOL    HW229199   4.865   5.173   1.943
 9434SOL     OW29200   4.166   5.647   3.716
 9434SOL    HW129201   4.138   5.743   3.703
 9434SOL    HW229202   4.100   5.587   3.673
 9435SOL     OW29203   6.075   3.791   1.111
 9435SOL    HW129204   6.167   3.765   1.083
 9435SOL    HW229205   6.013   3.714   1.097
 9436SOL     OW29206   2.962   0.707   3.199
 9436SOL    HW129207   2.969   0.784   3.263
 9436SOL    HW229208   3.018   0.632   3.231
 9437SOL     OW29209   5.452   0.641   4.809
 9437SOL    HW129210   5.439   0.657   4.907
 9437SOL    HW229211   5.364   0.629   4.765
 9438SOL     OW29212   4.839   0.364   2.535
 9438SOL    HW129213   4.905   0.434   2.507
 9438SOL    HW229214   4.751   0.382   2.490
 9439SOL     OW29215   2.101   3.777   0.777
 9439SOL    HW129216   2.040   3.703   0.750
 9439SOL    HW229217   2.189   3.766   0.731
 9440SOL     OW29218   1.485   5.275   3.946
 9440SOL    HW129219   1.420   5.293   4.020
 9440SOL    HW229220   1.548   5.352   3.937
 9441SOL     OW29221   0.382   6.592   4.366
 9441SOL    HW129222   0.479   6.609   4.386
 9441SOL    HW229223   0.331   6.585   4.452
 9442SOL     OW29224   5.788   3.274   1.068
 9442SOL    HW129225   5.721   3.338   1.105
 9442SOL    HW229226   5.786   3.189   1.121
 9443SOL     OW29227   2.138   4.258   1.666
 9443SOL    HW129228   2.178   4.288   1.752
 9443SOL    HW229229   2.199   4.282   1.590
 9444SOL     OW29230   2.070   4.630   6.484
 9444SOL    HW129231   2.034   4.714   6.445
 9444SOL    HW229232   2.023   4.551   6.444
 9445SOL     OW29233   0.282   1.444   4.054
 9445SOL    HW129234   0.186   1.471   4.062
 9445SOL    HW229235   0.288   1.345   4.051
 9446SOL     OW29236   6.247   3.949   4.940
 9446SOL    HW129237   6.157   3.926   4.903
 9446SOL    HW229238   6.238   3.982   5.034
 9447SOL     OW29239   5.020   4.937   2.068
 9447SOL    HW129240   5.038   4.950   2.166
 9447SOL    HW229241   5.043   4.843   2.042
 9448SOL     OW29242   6.005   2.213   6.834
 9448SOL    HW129243   6.004   2.244   6.929
 9448SOL    HW229244   6.098   2.185   6.809
 9449SOL     OW29245   5.441   6.874   2.111
 9449SOL    HW129246   5.521   6.928   2.085
 9449SOL    HW229247   5.470   6.789   2.155
 9450SOL     OW29248   0.953   0.303   3.488
 9450SOL    HW129249   1.025   0.324   3.422
 9450SOL    HW229250   0.876   0.366   3.474
 9451SOL     OW29251   3.983   5.133   0.498
 9451SOL    HW129252   4.009   5.064   0.430
 9451SOL    HW229253   3.914   5.193   0.458
 9452SOL     OW29254   6.289   4.101   6.253
 9452SOL    HW129255   6.278   4.011   6.295
 9452SOL    HW229256   6.370   4.100   6.194
 9453SOL     OW29257   5.492   4.650   1.667
 9453SOL    HW129258   5.477   4.642   1.569
 9453SOL    HW229259   5.404   4.643   1.715
 9454SOL     OW29260   6.323   4.818   0.738
 9454SOL    HW129261   6.350   4.913   0.756
 9454SOL    HW229262   6.250   4.817   0.670
 9455SOL     OW29263   4.576   0.479   1.433
 9455SOL    HW129264   4.584   0.412   1.507
 9455SOL    HW229265   4.514   0.552   1.460
 9456SOL     OW29266   6.259   2.050   3.195
 9456SOL    HW129267   6.232   2.115   3.124
 9456SOL    HW229268   6.355   2.027   3.184
 9457SOL     OW29269   6.587   6.254   4.436
 9457SOL    HW129270   6.592   6.297   4.526
 9457SOL    HW229271   6.504   6.284   4.390
 9458SOL     OW29272   6.006   4.292   0.232
 9458SOL    HW129273   5.921   4.339   0.254
 9458SOL    HW229274   6.065   4.352   0.178
 9459SOL     OW29275   4.761   4.141   4.975
 9459SOL    HW129276   4.748   4.111   5.069
 9459SOL    HW229277   4.709   4.226   4.960
 9460SOL     OW29278   0.909   2.997   1.976
 9460SOL    HW129279   0.836   2.936   2.010
 9460SOL    HW229280   0.990   2.986   2.032
 9461SOL     OW29281   1.794   1.405   1.667
 9461SOL    HW129282   1.705   1.449   1.657
 9461SOL    HW229283   1.806   1.337   1.595
 9462SOL     OW29284   6.710   1.283   5.462
 9462SOL    HW129285   6.628   1.306   5.411
 9462SOL    HW229286   6.762   1.213   5.413
 9463SOL     OW29287   6.465   3.688   0.046
 9463SOL    HW129288   6.447   3.784   0.063
 9463SOL    HW229289   6.448   3.668   6.972
 9464SOL     OW29290   1.415   0.580   1.596
 9464SOL    HW129291   1.330   0.580   1.544
 9464SOL    HW229292   1.394   0.573   1.694
 9465SOL     OW29293   6.960   5.824   0.306
 9465SOL    HW129294   6.889   5.893   0.322
 9465SOL    HW229295   6.989   5.785   0.394
 9466SOL     OW29296   4.492   3.679   5.316
 9466SOL    HW129297   4.515   3.634   5.403
 9466SOL    HW229298   4.556   3.650   5.245
 9467SOL     OW29299   1.021   3.645   0.956
 9467SOL    HW129300   1.043   3.564   1.012
 9467SOL    HW229301   1.102   3.704   0.951
 9468SOL     OW29302   5.900   1.330   0.673
 9468SOL    HW129303   5.848   1.391   0.732
 9468SOL    HW229304   5.984   1.302   0.720
 9469SOL     OW29305   6.762   0.109   1.345
 9469SOL    HW129306   6.694   0.042   1.374
 9469SOL    HW229307   6.729   0.158   1.264
 9470SOL     OW29308   3.742   3.134   0.509
 9470SOL    HW129309   3.703   3.178   0.591
 9470SOL    HW229310   3.840   3.120   0.523
 9471SOL     OW29311   6.607   2.426   5.326
 9471SOL    HW129312   6.646   2.498   5.269
 9471SOL    HW229313   6.552   2.466   5.399
 9472SOL     OW29314   1.479   3.601   5.361
 9472SOL    HW129315   1.465   3.564   5.452
 9472SOL    HW229316   1.521   3.692   5.368
 9473SOL     OW29317   2.877   3.483   1.037
 9473SOL    HW129318   2.961   3.436   1.010
 9473SOL    HW229319   2.836   3.527   0.957
 9474SOL     OW29320   5.513   4.444   1.079
 9474SOL    HW129321   5.548   4.402   1.163
 9474SOL    HW229322   5.561   4.405   1.000
 9475SOL     OW29323   4.697   4.036   5.967
 9475SOL    HW129324   4.619   4.065   5.912
 9475SOL    HW229325   4.743   3.960   5.922
 9476SOL     OW29326   4.374   3.820   1.117
 9476SOL    HW129327   4.345   3.903   1.163
 9476SOL    HW229328   4.401   3.752   1.186
 9477SOL     OW29329   2.516   4.542   1.096
 9477SOL    HW129330   2.417   4.547   1.100
 9477SOL    HW229331   2.553   4.517   1.185
 9478SOL     OW29332   5.594   4.075   6.520
 9478SOL    HW129333   5.666   4.138   6.490
 9478SOL    HW229334   5.550   4.110   6.602
 9479SOL     OW29335   4.477   1.040   2.083
 9479SOL    HW129336   4.408   1.000   2.022
 9479SOL    HW229337   4.441   1.124   2.124
 9480SOL     OW29338   5.805   0.860   0.337
 9480SOL    HW129339   5.884   0.914   0.310
 9480SOL    HW229340   5.730   0.876   0.273
 9481SOL     OW29341   4.440   0.563   3.138
 9481SOL    HW129342   4.507   0.637   3.149
 9481SOL    HW229343   4.370   0.592   3.073
 9482SOL     OW29344   6.303   5.320   5.893
 9482SOL    HW129345   6.274   5.235   5.849
 9482SOL    HW229346   6.252   5.331   5.978
 9483SOL     OW29347   6.317   6.471   6.862
 9483SOL    HW129348   6.347   6.434   6.949
 9483SOL    HW229349   6.255   6.548   6.877
 9484SOL     OW29350   3.079   5.876   4.517
 9484SOL    HW129351   3.020   5.847   4.593
 9484SOL    HW229352   3.119   5.795   4.473
 9485SOL     OW29353   0.134   1.543   5.506
 9485SOL    HW129354   0.232   1.561   5.494
 9485SOL    HW229355   0.087   1.627   5.530
 9486SOL     OW29356   6.383   5.379   6.880
 9486SOL    HW129357   6.353   5.331   6.797
 9486SOL    HW229358   6.473   5.420   6.863
 9487SOL     OW29359   3.529   3.581   3.839
 9487SOL    HW129360   3.433   3.563   3.862
 9487SOL    HW229361   3.578   3.608   3.922
 9488SOL     OW29362   1.817   0.673   1.197
 9488SOL    HW129363   1.861   0.739   1.258
 9488SOL    HW229364   1.883   0.601   1.172
 9489SOL     OW29365   5.743   4.051   0.032
 9489SOL    HW129366   5.698   4.027   6.970
 9489SOL    HW229367   5.688   4.117   0.083
 9490SOL     OW29368   5.736   3.532   5.156
 9490SOL    HW129369   5.664   3.600   5.142
 9490SOL    HW229370   5.815   3.555   5.101
 9491SOL     OW29371   5.858   0.194   2.647
 9491SOL    HW129372   5.789   0.260   2.677
 9491SOL    HW229373   5.926   0.182   2.720
 9492SOL     OW29374   4.889   2.622   3.649
 9492SOL    HW129375   4.864   2.597   3.743
 9492SOL    HW229376   4.929   2.713   3.648
 9493SOL     OW29377   3.754   6.221   1.666
 9493SOL    HW129378   3.712   6.305   1.631
 9493SOL    HW229379   3.685   6.166   1.712
 9494SOL     OW29380   5.448   2.347   1.846
 9494SOL    HW129381   5.425   2.429   1.793
 9494SOL    HW229382   5.451   2.268   1.785
 9495SOL     OW29383   5.476   3.010   1.140
 9495SOL    HW129384   5.397   3.067   1.163
 9495SOL    HW229385   5.524   3.048   1.062
 9496SOL     OW29386   5.641   2.740   1.184
 9496SOL    HW129387   5.622   2.782   1.273
 9496SOL    HW229388   5.673   2.810   1.120
 9497SOL     OW29389   4.484   5.007   5.031
 9497SOL    HW129390   4.544   5.069   5.081
 9497SOL    HW229391   4.469   5.043   4.938
 9498SOL     OW29392   0.713   5.684   4.934
 9498SOL    HW129393   0.687   5.727   5.021
 9498SOL    HW229394   0.641   5.621   4.906
 9499SOL     OW29395   5.782   5.843   4.222
 9499SOL    HW129396   5.687   5.846   4.253
 9499SOL    HW229397   5.841   5.886   4.290
 9500SOL     OW29398   2.803   1.624   0.724
 9500SOL    HW129399   2.829   1.715   0.755
 9500SOL    HW229400   2.703   1.619   0.714
 9501SOL     OW29401   2.075   3.951   5.231
 9501SOL    HW129402   2.049   4.035   5.279
 9501SOL    HW229403   2.166   3.963   5.191
 9502SOL     OW29404   5.687   4.715   3.834
 9502SOL    HW129405   5.763   4.662   3.870
 9502SOL    HW229406   5.709   4.748   3.742
 9503SOL     OW29407   6.244   0.765   0.229
 9503SOL    HW129408   6.314   0.807   0.171
 9503SOL    HW229409   6.192   0.836   0.276
 9504SOL     OW29410   6.325   5.562   1.804
 9504SOL    HW129411   6.348   5.609   1.889
 9504SOL    HW229412   6.275   5.624   1.744
 9505SOL     OW29413   4.443   4.293   6.466
 9505SOL    HW129414   4.378   4.218   6.457
 9505SOL    HW229415   4.440   4.350   6.384
 9506SOL     OW29416   2.653   1.002   0.847
 9506SOL    HW129417   2.751   0.984   0.833
 9506SOL    HW229418   2.599   0.937   0.795
 9507SOL     OW29419   6.202   0.013   1.843
 9507SOL    HW129420   6.132   6.967   1.827
 9507SOL    HW229421   6.179   0.096   1.792
 9508SOL     OW29422   4.293   0.864   2.647
 9508SOL    HW129423   4.220   0.834   2.708
 9508SOL    HW229424   4.322   0.956   2.673
 9509SOL     OW29425   5.391   1.165   3.841
 9509SOL    HW129426   5.428   1.083   3.797
 9509SOL    HW229427   5.455   1.241   3.829
 9510SOL     OW29428   1.738   2.686   2.804
 9510SOL    HW129429   1.790   2.610   2.842
 9510SOL    HW229430   1.671   2.652   2.738
 9511SOL     OW29431   0.774   1.977   1.189
 9511SOL    HW129432   0.747   1.884   1.210
 9511SOL    HW229433   0.824   1.979   1.102
 9512SOL     OW29434   6.501   1.855   1.858
 9512SOL    HW129435   6.573   1.891   1.918
 9512SOL    HW229436   6.541   1.793   1.791
 9513SOL     OW29437   4.486   3.966   5.389
 9513SOL    HW129438   4.488   3.873   5.353
 9513SOL    HW229439   4.394   4.004   5.378
 9514SOL     OW29440   3.586   2.632   0.417
 9514SOL    HW129441   3.577   2.714   0.472
 9514SOL    HW229442   3.683   2.614   0.399
 9515SOL     OW29443   0.820   5.622   3.471
 9515SOL    HW129444   0.736   5.647   3.519
 9515SOL    HW229445   0.801   5.616   3.373
 9516SOL     OW29446   0.114   4.106   5.966
 9516SOL    HW129447   0.019   4.092   5.990
 9516SOL    HW229448   0.149   4.024   5.918
 9517SOL     OW29449   0.020   6.711   0.917
 9517SOL    HW129450   7.004   6.711   1.009
 9517SOL    HW229451   0.028   6.617   0.884
 9518SOL     OW29452   1.349   0.825   1.356
 9518SOL    HW129453   1.262   0.855   1.316
 9518SOL    HW229454   1.383   0.745   1.306
 9519SOL     OW29455   0.953   2.582   5.537
 9519SOL    HW129456   0.898   2.651   5.491
 9519SOL    HW229457   1.049   2.609   5.537
 9520SOL     OW29458   3.896   6.727   1.836
 9520SOL    HW129459   3.853   6.687   1.917
 9520SOL    HW229460   3.901   6.658   1.764
 9521SOL     OW29461   5.137   5.199   3.546
 9521SOL    HW129462   5.214   5.202   3.610
 9521SOL    HW229463   5.104   5.105   3.538
 9522SOL     OW29464   3.098   5.134   6.928
 9522SOL    HW129465   3.066   5.115   7.021
 9522SOL    HW229466   3.140   5.052   6.890
 9523SOL     OW29467   2.351   6.663   5.431
 9523SOL    HW129468   2.382   6.713   5.512
 9523SOL    HW229469   2.366   6.719   5.350
 9524SOL     OW29470   4.893   2.579   0.961
 9524SOL    HW129471   4.897   2.678   0.974
 9524SOL    HW229472   4.797   2.550   0.963
 9525SOL     OW29473   3.937   0.139   4.535
 9525SOL    HW129474   3.849   0.100   4.562
 9525SOL    HW229475   3.956   0.115   4.439
 9526SOL     OW29476   5.176   6.024   1.700
 9526SOL    HW129477   5.104   6.053   1.636
 9526SOL    HW229478   5.140   6.020   1.793
 9527SOL     OW29479   6.902   2.291   0.935
 9527SOL    HW129480   6.914   2.377   0.985
 9527SOL    HW229481   6.808   2.259   0.946
 9528SOL     OW29482   0.018   1.252   1.563
 9528SOL    HW129483   7.019   1.155   1.553
 9528SOL    HW229484   7.010   1.283   1.653
 9529SOL     OW29485   1.259   3.564   4.952
 9529SOL    HW129486   1.233   3.605   5.040
 9529SOL    HW229487   1.355   3.583   4.933
 9530SOL     OW29488   1.582   1.836   3.996
 9530SOL    HW129489   1.483   1.834   3.991
 9530SOL    HW229490   1.617   1.742   4.006
 9531SOL     OW29491   2.870   6.445   3.388
 9531SOL    HW129492   2.814   6.386   3.447
 9531SOL    HW229493   2.925   6.506   3.445
 9532SOL     OW29494   3.374   1.301   1.960
 9532SOL    HW129495   3.334   1.372   2.017
 9532SOL    HW229496   3.314   1.221   1.960
 9533SOL     OW29497   0.698   1.548   5.085
 9533SOL    HW129498   0.627   1.540   5.154
 9533SOL    HW229499   0.760   1.470   5.090
 9534SOL     OW29500   5.693   1.687   4.218
 9534SOL    HW129501   5.762   1.665   4.287
 9534SOL    HW229502   5.618   1.622   4.223
 9535SOL     OW29503   3.512   2.121   4.525
 9535SOL    HW129504   3.544   2.101   4.617
 9535SOL    HW229505   3.432   2.181   4.530
 9536SOL     OW29506   2.644   6.244   6.551
 9536SOL    HW129507   2.579   6.310   6.587
 9536SOL    HW229508   2.722   6.291   6.511
 9537SOL     OW29509   2.771   6.754   0.557
 9537SOL    HW129510   2.691   6.732   0.614
 9537SOL    HW229511   2.811   6.840   0.588
 9538SOL     OW29512   6.212   4.117   3.126
 9538SOL    HW129513   6.180   4.026   3.153
 9538SOL    HW229514   6.175   4.139   3.036
 9539SOL     OW29515   0.266   4.052   6.874
 9539SOL    HW129516   0.335   3.980   6.874
 9539SOL    HW229517   0.182   4.017   6.916
 9540SOL     OW29518   5.344   3.173   5.629
 9540SOL    HW129519   5.408   3.096   5.637
 9540SOL    HW229520   5.252   3.142   5.654
 9541SOL     OW29521   0.021   1.892   3.477
 9541SOL    HW129522   7.004   1.810   3.435
 9541SOL    HW229523   0.068   1.945   3.407
 9542SOL     OW29524   4.635   4.458   4.315
 9542SOL    HW129525   4.591   4.484   4.401
 9542SOL    HW229526   4.612   4.525   4.244
 9543SOL     OW29527   5.393   2.641   1.859
 9543SOL    HW129528   5.407   2.650   1.958
 9543SOL    HW229529   5.318   2.702   1.831
 9544SOL     OW29530   4.389   1.050   1.355
 9544SOL    HW129531   4.360   1.144   1.372
 9544SOL    HW229532   4.314   0.997   1.315
 9545SOL     OW29533   1.252   0.162   4.585
 9545SOL    HW129534   1.203   0.146   4.499
 9545SOL    HW229535   1.305   0.081   4.608
 9546SOL     OW29536   2.325   4.873   1.961
 9546SOL    HW129537   2.225   4.878   1.966
 9546SOL    HW229538   2.352   4.806   1.892
 9547SOL     OW29539   5.764   5.247   3.232
 9547SOL    HW129540   5.831   5.174   3.244
 9547SOL    HW229541   5.673   5.207   3.223
 9548SOL     OW29542   5.374   0.229   2.735
 9548SOL    HW129543   5.378   0.326   2.760
 9548SOL    HW229544   5.297   0.214   2.674
 9549SOL     OW29545   2.419   5.688   0.236
 9549SOL    HW129546   2.383   5.781   0.227
 9549SOL    HW229547   2.476   5.682   0.318
 9550SOL     OW29548   1.896   1.255   0.335
 9550SOL    HW129549   1.995   1.244   0.345
 9550SOL    HW229550   1.855   1.167   0.310
 9551SOL     OW29551   1.761   5.383   4.958
 9551SOL    HW129552   1.846   5.416   4.917
 9551SOL    HW229553   1.715   5.320   4.895
 9552SOL     OW29554   0.432   5.093   3.676
 9552SOL    HW129555   0.440   4.999   3.711
 9552SOL    HW229556   0.343   5.104   3.631
 9553SOL     OW29557   5.588   4.707   6.307
 9553SOL    HW129558   5.579   4.608   6.321
 9553SOL    HW229559   5.503   4.752   6.333
 9554SOL     OW29560   1.850   1.569   1.413
 9554SOL    HW129561   1.890   1.639   1.473
 9554SOL    HW229562   1.898   1.569   1.325
 9555SOL     OW29563   0.284   2.764   6.202
 9555SOL    HW129564   0.184   2.762   6.205
 9555SOL    HW229565   0.321   2.679   6.240
 9556SOL     OW29566   6.801   0.950   1.364
 9556SOL    HW129567   6.882   0.935   1.420
 9556SOL    HW229568   6.826   1.002   1.283
 9557SOL     OW29569   5.121   1.557   1.963
 9557SOL    HW129570   5.169   1.545   2.050
 9557SOL    HW229571   5.107   1.654   1.946
 9558SOL     OW29572   6.533   4.038   1.397
 9558SOL    HW129573   6.484   4.119   1.365
 9558SOL    HW229574   6.597   4.007   1.326
 9559SOL     OW29575   0.567   3.890   2.555
 9559SOL    HW129576   0.639   3.930   2.611
 9559SOL    HW229577   0.574   3.925   2.461
 9560SOL     OW29578   4.074   2.346   5.330
 9560SOL    HW129579   4.102   2.335   5.426
 9560SOL    HW229580   4.129   2.418   5.288
 9561SOL     OW29581   3.046   6.427   5.947
 9561SOL    HW129582   2.975   6.489   5.979
 9561SOL    HW229583   3.018   6.387   5.859
 9562SOL     OW29584   5.823   5.138   4.426
 9562SOL    HW129585   5.838   5.185   4.513
 9562SOL    HW229586   5.887   5.173   4.357
 9563SOL     OW29587   0.551   6.674   6.738
 9563SOL    HW129588   0.566   6.640   6.830
 9563SOL    HW229589   0.488   6.752   6.740
 9564SOL     OW29590   1.406   0.698   6.013
 9564SOL    HW129591   1.491   0.741   5.982
 9564SOL    HW229592   1.428   0.619   6.070
 9565SOL     OW29593   3.494   5.985   4.764
 9565SOL    HW129594   3.404   6.026   4.780
 9565SOL    HW229595   3.483   5.904   4.706
 9566SOL     OW29596   3.201   4.798   6.213
 9566SOL    HW129597   3.153   4.869   6.161
 9566SOL    HW229598   3.149   4.712   6.207
 9567SOL     OW29599   6.074   5.000   4.978
 9567SOL    HW129600   6.160   5.050   4.967
 9567SOL    HW229601   6.034   5.022   5.067
 9568SOL     OW29602   5.175   4.015   6.083
 9568SOL    HW129603   5.088   4.064   6.081
 9568SOL    HW229604   5.234   4.056   6.153
 9569SOL     OW29605   5.862   7.009   1.640
 9569SOL    HW129606   5.772   6.979   1.673
 9569SOL    HW229607   5.856   0.080   1.608
 9570SOL     OW29608   1.203   1.642   6.832
 9570SOL    HW129609   1.188   1.735   6.866
 9570SOL    HW229610   1.300   1.629   6.811
 9571SOL     OW29611   2.691   2.188   0.849
 9571SOL    HW129612   2.645   2.264   0.894
 9571SOL    HW229613   2.625   2.133   0.798
 9572SOL     OW29614   0.300   3.965   1.004
 9572SOL    HW129615   0.221   3.957   0.943
 9572SOL    HW229616   0.362   3.888   0.988
 9573SOL     OW29617   4.662   1.141   2.962
 9573SOL    HW129618   4.717   1.069   2.919
 9573SOL    HW229619   4.723   1.206   3.007
 9574SOL     OW29620   2.642   2.403   3.426
 9574SOL    HW129621   2.614   2.443   3.339
 9574SOL    HW229622   2.592   2.447   3.501
 9575SOL     OW29623   4.167   1.349   3.032
 9575SOL    HW129624   4.263   1.327   3.018
 9575SOL    HW229625   4.159   1.437   3.080
 9576SOL     OW29626   3.894   3.308   5.504
 9576SOL    HW129627   3.985   3.350   5.503
 9576SOL    HW229628   3.901   3.213   5.475
 9577SOL     OW29629   0.898   6.060   3.634
 9577SOL    HW129630   0.806   6.091   3.610
 9577SOL    HW229631   0.917   5.974   3.588
 9578SOL     OW29632   6.964   3.918   1.350
 9578SOL    HW129633   6.964   3.821   1.373
 9578SOL    HW229634   0.017   3.938   1.289
 9579SOL     OW29635   2.069   5.169   3.118
 9579SOL    HW129636   2.006   5.118   3.059
 9579SOL    HW229637   2.160   5.168   3.078
 9580SOL     OW29638   4.263   3.528   5.737
 9580SOL    HW129639   4.287   3.613   5.690
 9580SOL    HW229640   4.164   3.523   5.749
 9581SOL     OW29641   0.989   5.720   5.548
 9581SOL    HW129642   0.925   5.672   5.488
 9581SOL    HW229643   1.069   5.661   5.564
 9582SOL     OW29644   4.711   5.169   3.265
 9582SOL    HW129645   4.671   5.260   3.272
 9582SOL    HW229646   4.805   5.171   3.300
 9583SOL     OW29647   2.057   4.813   1.617
 9583SOL    HW129648   2.027   4.838   1.709
 9583SOL    HW229649   2.155   4.798   1.617
 9584SOL     OW29650   5.097   4.998   0.239
 9584SOL    HW129651   5.191   5.020   0.265
 9584SOL    HW229652   5.097   4.919   0.177
 9585SOL     OW29653   0.211   1.059   2.894
 9585SOL    HW129654   0.111   1.056   2.887
 9585SOL    HW229655   0.251   0.989   2.836
 9586SOL     OW29656   5.214   3.653   2.664
 9586SOL    HW129657   5.156   3.612   2.735
 9586SOL    HW229658   5.289   3.592   2.642
 9587SOL     OW29659   4.977   6.154   1.535
 9587SOL    HW129660   4.905   6.119   1.474
 9587SOL    HW229661   4.936   6.216   1.602
 9588SOL     OW29662   6.237   1.096   3.329
 9588SOL    HW129663   6.204   1.054   3.413
 9588SOL    HW229664   6.327   1.138   3.346
 9589SOL     OW29665   3.220   2.070   4.603
 9589SOL    HW129666   3.166   1.986   4.601
 9589SOL    HW229667   3.158   2.149   4.608
 9590SOL     OW29668   0.554   4.755   4.764
 9590SOL    HW129669   0.571   4.820   4.690
 9590SOL    HW229670   0.530   4.666   4.727
 9591SOL     OW29671   1.363   4.596   2.541
 9591SOL    HW129672   1.383   4.520   2.479
 9591SOL    HW229673   1.276   4.579   2.587
 9592SOL     OW29674   4.734   5.506   1.055
 9592SOL    HW129675   4.795   5.586   1.056
 9592SOL    HW229676   4.751   5.450   1.136
 9593SOL     OW29677   2.396   1.851   2.960
 9593SOL    HW129678   2.454   1.840   2.879
 9593SOL    HW229679   2.301   1.827   2.937
 9594SOL     OW29680   5.935   0.186   1.033
 9594SOL    HW129681   5.917   0.242   0.953
 9594SOL    HW229682   5.870   0.209   1.106
 9595SOL     OW29683   1.003   5.673   5.008
 9595SOL    HW129684   0.917   5.639   4.969
 9595SOL    HW229685   1.030   5.615   5.085
 9596SOL     OW29686   5.228   5.930   2.108
 9596SOL    HW129687   5.244   5.838   2.071
 9596SOL    HW229688   5.163   5.979   2.049
 9597SOL     OW29689   2.623   4.380   1.351
 9597SOL    HW129690   2.714   4.376   1.308
 9597SOL    HW229691   2.610   4.471   1.391
 9598SOL     OW29692   0.444   6.421   5.832
 9598SOL    HW129693   0.360   6.409   5.779
 9598SOL    HW229694   0.436   6.372   5.919
 9599SOL     OW29695   3.884   2.034   4.979
 9599SOL    HW129696   3.788   2.016   4.955
 9599SOL    HW229697   3.929   2.081   4.903
 9600SOL     OW29698   1.779   6.456   6.477
 9600SOL    HW129699   1.812   6.517   6.406
 9600SOL    HW229700   1.683   6.434   6.461
 9601SOL     OW29701   0.821   6.409   5.317
 9601SOL    HW129702   0.850   6.334   5.377
 9601SOL    HW229703   0.842   6.385   5.222
 9602SOL     OW29704   1.469   5.215   6.272
 9602SOL    HW129705   1.445   5.256   6.360
 9602SOL    HW229706   1.545   5.266   6.232
 9603SOL     OW29707   1.067   4.818   2.351
 9603SOL    HW129708   1.155   4.828   2.398
 9603SOL    HW229709   1.080   4.829   2.253
 9604SOL     OW29710   0.140   0.302   6.640
 9604SOL    HW129711   0.154   0.399   6.619
 9604SOL    HW229712   0.143   0.250   6.555
 9605SOL     OW29713   2.756   4.669   0.987
 9605SOL    HW129714   2.748   4.700   1.082
 9605SOL    HW229715   2.673   4.691   0.937
 9606SOL     OW29716   0.321   0.242   5.146
 9606SOL    HW129717   0.286   0.159   5.189
 9606SOL    HW229718   0.399   0.219   5.088
 9607SOL     OW29719   0.267   2.044   2.479
 9607SOL    HW129720   0.232   2.102   2.552
 9607SOL    HW229721   0.363   2.021   2.498
 9608SOL     OW29722   6.612   0.817   2.101
 9608SOL    HW129723   6.550   0.746   2.135
 9608SOL    HW229724   6.579   0.852   2.014
 9609SOL     OW29725   1.546   2.105   3.431
 9609SOL    HW129726   1.634   2.064   3.454
 9609SOL    HW229727   1.543   2.199   3.464
 9610SOL     OW29728   3.705   0.851   5.293
 9610SOL    HW129729   3.628   0.916   5.290
 9610SOL    HW229730   3.742   0.849   5.386
 9611SOL     OW29731   5.226   5.976   0.721
 9611SOL    HW129732   5.321   5.943   0.724
 9611SOL    HW229733   5.197   5.985   0.626
 9612SOL     OW29734   5.461   3.481   3.656
 9612SOL    HW129735   5.376   3.529   3.677
 9612SOL    HW229736   5.446   3.382   3.665
 9613SOL     OW29737   5.575   1.192   4.767
 9613SOL    HW129738   5.668   1.162   4.747
 9613SOL    HW229739   5.512   1.115   4.759
 9614SOL     OW29740   2.518   2.385   0.593
 9614SOL    HW129741   2.532   2.357   0.498
 9614SOL    HW229742   2.599   2.361   0.647
 9615SOL     OW29743   0.604   5.672   3.635
 9615SOL    HW129744   0.519   5.652   3.684
 9615SOL    HW229745   0.603   5.768   3.605
 9616SOL     OW29746   1.214   2.814   0.925
 9616SOL    HW129747   1.199   2.797   1.023
 9616SOL    HW229748   1.231   2.911   0.910
 9617SOL     OW29749   0.299   2.856   2.556
 9617SOL    HW129750   0.216   2.843   2.609
 9617SOL    HW229751   0.287   2.815   2.465
 9618SOL     OW29752   4.761   3.787   1.813
 9618SOL    HW129753   4.739   3.884   1.816
 9618SOL    HW229754   4.820   3.763   1.890
 9619SOL     OW29755   0.444   6.717   1.179
 9619SOL    HW129756   0.488   6.634   1.215
 9619SOL    HW229757   0.378   6.692   1.108
 9620SOL     OW29758   3.684   1.403   6.892
 9620SOL    HW129759   3.590   1.405   6.860
 9620SOL    HW229760   3.735   1.478   6.849
 9621SOL     OW29761   0.249   0.907   1.263
 9621SOL    HW129762   0.338   0.951   1.276
 9621SOL    HW229763   0.224   0.856   1.345
 9622SOL     OW29764   6.182   5.796   5.758
 9622SOL    HW129765   6.238   5.714   5.758
 9622SOL    HW229766   6.117   5.793   5.682
 9623SOL     OW29767   2.895   5.937   5.669
 9623SOL    HW129768   2.916   5.883   5.587
 9623SOL    HW229769   2.970   5.928   5.735
 9624SOL     OW29770   4.356   5.657   5.787
 9624SOL    HW129771   4.382   5.561   5.776
 9624SOL    HW229772   4.271   5.663   5.840
 9625SOL     OW29773   4.579   4.539   6.602
 9625SOL    HW129774   4.673   4.572   6.598
 9625SOL    HW229775   4.561   4.478   6.525
 9626SOL     OW29776   2.744   2.338   6.491
 9626SOL    HW129777   2.756   2.430   6.454
 9626SOL    HW229778   2.647   2.316   6.496
 9627SOL     OW29779   0.323   5.722   0.627
 9627SOL    HW129780   0.251   5.653   0.634
 9627SOL    HW229781   0.314   5.771   0.541
 9628SOL     OW29782   5.682   1.121   5.939
 9628SOL    HW129783   5.759   1.182   5.919
 9628SOL    HW229784   5.716   1.034   5.974
 9629SOL     OW29785   0.386   5.584   3.825
 9629SOL    HW129786   0.316   5.612   3.890
 9629SOL    HW229787   0.342   5.552   3.741
 9630SOL     OW29788   5.134   1.010   6.444
 9630SOL    HW129789   5.191   1.072   6.390
 9630SOL    HW229790   5.039   1.014   6.411
 9631SOL     OW29791   4.575   6.231   0.628
 9631SOL    HW129792   4.651   6.170   0.654
 9631SOL    HW229793   4.545   6.282   0.709
 9632SOL     OW29794   2.573   4.949   3.223
 9632SOL    HW129795   2.518   4.866   3.228
 9632SOL    HW229796   2.544   5.013   3.294
 9633SOL     OW29797   3.540   3.002   5.181
 9633SOL    HW129798   3.587   2.962   5.259
 9633SOL    HW229799   3.524   3.099   5.198
 9634SOL     OW29800   5.765   4.771   2.981
 9634SOL    HW129801   5.848   4.824   2.998
 9634SOL    HW229802   5.739   4.781   2.885
 9635SOL     OW29803   0.598   4.883   4.546
 9635SOL    HW129804   0.518   4.925   4.503
 9635SOL    HW229805   0.661   4.851   4.476
 9636SOL     OW29806   5.925   3.826   4.016
 9636SOL    HW129807   6.007   3.860   3.970
 9636SOL    HW229808   5.886   3.899   4.073
 9637SOL     OW29809   1.463   3.423   6.838
 9637SOL    HW129810   1.413   3.500   6.877
 9637SOL    HW229811   1.544   3.404   6.894
 9638SOL     OW29812   6.162   5.286   5.510
 9638SOL    HW129813   6.244   5.262   5.562
 9638SOL    HW229814   6.165   5.240   5.421
 9639SOL     OW29815   4.927   2.228   1.464
 9639SOL    HW129816   4.910   2.297   1.394
 9639SOL    HW229817   4.842   2.206   1.511
 9640SOL     OW29818   3.644   7.023   3.080
 9640SOL    HW129819   3.706   0.059   3.131
 9640SOL    HW229820   3.553   0.040   3.078
 9641SOL     OW29821   0.207   3.228   4.781
 9641SOL    HW129822   0.264   3.148   4.800
 9641SOL    HW229823   0.211   3.291   4.859
 9642SOL     OW29824   0.704   2.717   4.808
 9642SOL    HW129825   0.617   2.712   4.856
 9642SOL    HW229826   0.720   2.810   4.775
 9643SOL     OW29827   5.746   4.816   4.731
 9643SOL    HW129828   5.826   4.765   4.763
 9643SOL    HW229829   5.670   4.753   4.715
 9644SOL     OW29830   1.260   4.562   3.816
 9644SOL    HW129831   1.242   4.656   3.790
 9644SOL    HW229832   1.325   4.521   3.751
 9645SOL     OW29833   1.249   5.009   6.559
 9645SOL    HW129834   1.323   4.975   6.618
 9645SOL    HW229835   1.276   5.001   6.463
 9646SOL     OW29836   3.213   5.377   0.638
 9646SOL    HW129837   3.114   5.388   0.636
 9646SOL    HW229838   3.252   5.432   0.712
 9647SOL     OW29839   5.409   6.687   3.085
 9647SOL    HW129840   5.334   6.707   3.149
 9647SOL    HW229841   5.468   6.617   3.125
 9648SOL     OW29842   3.127   1.906   1.415
 9648SOL    HW129843   3.033   1.881   1.439
 9648SOL    HW229844   3.131   1.936   1.320
 9649SOL     OW29845   0.501   5.594   1.043
 9649SOL    HW129846   0.468   5.598   1.137
 9649SOL    HW229847   0.481   5.504   1.004
 9650SOL     OW29848   0.597   4.915   5.000
 9650SOL    HW129849   0.583   4.862   4.916
 9650SOL    HW229850   0.586   5.013   4.981
 9651SOL     OW29851   3.699   1.974   6.536
 9651SOL    HW129852   3.674   1.918   6.457
 9651SOL    HW229853   3.790   2.013   6.521
 9652SOL     OW29854   0.362   3.916   0.375
 9652SOL    HW129855   0.459   3.929   0.353
 9652SOL    HW229856   0.346   3.821   0.401
 9653SOL     OW29857   5.041   4.599   5.946
 9653SOL    HW129858   5.009   4.595   5.851
 9653SOL    HW229859   5.037   4.693   5.979
 9654SOL     OW29860   3.751   3.512   3.287
 9654SOL    HW129861   3.847   3.528   3.312
 9654SOL    HW229862   3.698   3.595   3.300
 9655SOL     OW29863   4.704   1.342   1.282
 9655SOL    HW129864   4.752   1.277   1.225
 9655SOL    HW229865   4.709   1.433   1.240
 9656SOL     OW29866   4.584   4.392   6.829
 9656SOL    HW129867   4.566   4.427   6.738
 9656SOL    HW229868   4.650   4.451   6.875
 9657SOL     OW29869   5.140   4.533   3.521
 9657SOL    HW129870   5.134   4.537   3.621
 9657SOL    HW229871   5.075   4.465   3.486
 9658SOL     OW29872   5.419   1.374   2.706
 9658SOL    HW129873   5.458   1.452   2.756
 9658SOL    HW229874   5.327   1.397   2.675
 9659SOL     OW29875   3.362   3.024   6.720
 9659SOL    HW129876   3.293   3.022   6.648
 9659SOL    HW229877   3.452   3.000   6.681
 9660SOL     OW29878   1.567   6.469   1.294
 9660SOL    HW129879   1.626   6.400   1.336
 9660SOL    HW229880   1.589   6.478   1.197
 9661SOL     OW29881   4.053   3.496   1.979
 9661SOL    HW129882   4.119   3.541   1.919
 9661SOL    HW229883   4.081   3.402   1.995
 9662SOL     OW29884   4.816   0.039   5.658
 9662SOL    HW129885   4.795   0.081   5.747
 9662SOL    HW229886   4.742   0.060   5.594
 9663SOL     OW29887   1.049   5.348   3.027
 9663SOL    HW129888   1.054   5.249   3.014
 9663SOL    HW229889   1.048   5.393   2.938
 9664SOL     OW29890   3.087   5.102   2.869
 9664SOL    HW129891   3.100   5.077   2.773
 9664SOL    HW229892   3.143   5.043   2.927
 9665SOL     OW29893   6.566   4.759   6.412
 9665SOL    HW129894   6.557   4.671   6.367
 9665SOL    HW229895   6.615   4.747   6.499
 9666SOL     OW29896   5.433   3.697   0.932
 9666SOL    HW129897   5.433   3.611   0.882
 9666SOL    HW229898   5.502   3.694   1.004
 9667SOL     OW29899   5.390   6.479   0.039
 9667SOL    HW129900   5.322   6.457   0.109
 9667SOL    HW229901   5.466   6.415   0.046
 9668SOL     OW29902   1.754   1.038   6.393
 9668SOL    HW129903   1.674   1.008   6.340
 9668SOL    HW229904   1.744   1.134   6.416
 9669SOL     OW29905   2.739   0.341   6.871
 9669SOL    HW129906   2.753   0.422   6.929
 9669SOL    HW229907   2.811   0.338   6.802
 9670SOL     OW29908   0.503   0.584   1.066
 9670SOL    HW129909   0.569   0.660   1.062
 9670SOL    HW229910   0.466   0.578   1.159
 9671SOL     OW29911   1.299   4.983   6.258
 9671SOL    HW129912   1.292   4.973   6.159
 9671SOL    HW229913   1.353   5.064   6.279
 9672SOL     OW29914   0.715   3.597   4.021
 9672SOL    HW129915   0.757   3.623   4.107
 9672SOL    HW229916   0.645   3.664   3.997
 9673SOL     OW29917   2.410   2.484   6.475
 9673SOL    HW129918   2.378   2.402   6.524
 9673SOL    HW229919   2.456   2.457   6.391
 9674SOL     OW29920   1.654   6.959   3.819
 9674SOL    HW129921   1.711   0.015   3.797
 9674SOL    HW229922   1.692   6.878   3.775
 9675SOL     OW29923   6.580   4.670   5.745
 9675SOL    HW129924   6.569   4.757   5.793
 9675SOL    HW229925   6.675   4.639   5.752
 9676SOL     OW29926   0.580   3.488   5.431
 9676SOL    HW129927   0.597   3.390   5.425
 9676SOL    HW229928   0.523   3.517   5.354
 9677SOL     OW29929   6.958   4.831   2.574
 9677SOL    HW129930   6.966   4.911   2.633
 9677SOL    HW229931   0.012   4.828   2.510
 9678SOL     OW29932   3.516   3.324   5.531
 9678SOL    HW129933   3.434   3.377   5.552
 9678SOL    HW229934   3.521   3.244   5.591
 9679SOL     OW29935   1.469   1.307   3.991
 9679SOL    HW129936   1.454   1.237   4.061
 9679SOL    HW229937   1.425   1.392   4.020
 9680SOL     OW29938   4.565   0.359   2.424
 9680SOL    HW129939   4.501   0.309   2.483
 9680SOL    HW229940   4.516   0.431   2.375
 9681SOL     OW29941   1.443   3.495   1.270
 9681SOL    HW129942   1.532   3.535   1.295
 9681SOL    HW229943   1.397   3.462   1.353
 9682SOL     OW29944   4.842   0.261   5.889
 9682SOL    HW129945   4.886   0.323   5.954
 9682SOL    HW229946   4.874   0.282   5.796
 9683SOL     OW29947   4.015   6.080   4.249
 9683SOL    HW129948   4.006   6.024   4.167
 9683SOL    HW229949   4.100   6.131   4.246
 9684SOL     OW29950   6.870   3.517   5.739
 9684SOL    HW129951   6.894   3.613   5.749
 9684SOL    HW229952   6.849   3.478   5.829
 9685SOL     OW29953   3.275   4.690   1.761
 9685SOL    HW129954   3.374   4.704   1.768
 9685SOL    HW229955   3.256   4.594   1.742
 9686SOL     OW29956   0.456   1.615   5.723
 9686SOL    HW129957   0.530   1.664   5.677
 9686SOL    HW229958   0.494   1.536   5.772
 9687SOL     OW29959   5.593   1.367   3.780
 9687SOL    HW129960   5.661   1.353   3.708
 9687SOL    HW229961   5.617   1.447   3.834
 9688SOL     OW29962   0.392   4.772   1.551
 9688SOL    HW129963   0.421   4.765   1.456
 9688SOL    HW229964   0.410   4.865   1.584
 9689SOL     OW29965   1.649   5.453   1.206
 9689SOL    HW129966   1.565   5.410   1.240
 9689SOL    HW229967   1.712   5.382   1.173
 9690SOL     OW29968   0.415   4.431   5.406
 9690SOL    HW129969   0.344   4.458   5.341
 9690SOL    HW229970   0.501   4.476   5.381
 9691SOL     OW29971   3.896   3.568   2.189
 9691SOL    HW129972   3.808   3.533   2.158
 9691SOL    HW229973   3.967   3.543   2.124
 9692SOL     OW29974   4.945   4.473   0.333
 9692SOL    HW129975   4.895   4.550   0.294
 9692SOL    HW229976   5.021   4.507   0.389
 9693SOL     OW29977   4.649   3.454   6.091
 9693SOL    HW129978   4.580   3.412   6.152
 9693SOL    HW229979   4.654   3.552   6.109
 9694SOL     OW29980   2.649   6.192   1.011
 9694SOL    HW129981   2.648   6.247   0.927
 9694SOL    HW229982   2.667   6.252   1.089
 9695SOL     OW29983   1.167   3.175   4.243
 9695SOL    HW129984   1.100   3.125   4.189
 9695SOL    HW229985   1.210   3.113   4.309
 9696SOL     OW29986   4.768   3.011   3.537
 9696SOL    HW129987   4.779   3.092   3.478
 9696SOL    HW229988   4.836   3.013   3.610
 9697SOL     OW29989   0.238   0.559   1.585
 9697SOL    HW129990   0.295   0.481   1.562
 9697SOL    HW229991   0.276   0.606   1.664
 9698SOL     OW29992   0.104   3.542   1.833
 9698SOL    HW129993   0.011   3.532   1.869
 9698SOL    HW229994   0.106   3.618   1.769
 9699SOL     OW29995   0.724   5.983   1.993
 9699SOL    HW129996   0.626   5.981   1.973
 9699SOL    HW229997   0.774   6.002   1.908
 9700SOL     OW29998   5.646   0.722   6.185
 9700SOL    HW129999   5.621   0.815   6.161
 9700SOL    HW230000   5.654   0.667   6.102
 9701SOL     OW30001   5.331   3.909   0.558
 9701SOL    HW130002   5.375   3.821   0.549
 9701SOL    HW230003   5.240   3.906   0.516
 9702SOL     OW30004   3.466   3.788   1.863
 9702SOL    HW130005   3.410   3.706   1.846
 9702SOL    HW230006   3.510   3.817   1.779
 9703SOL     OW30007   5.912   5.019   3.297
 9703SOL    HW130008   6.009   5.002   3.279
 9703SOL    HW230009   5.897   5.030   3.395
 9704SOL     OW30010   1.133   4.303   2.498
 9704SOL    HW130011   1.043   4.272   2.468
 9704SOL    HW230012   1.122   4.366   2.575
 9705SOL     OW30013   0.414   3.518   5.636
 9705SOL    HW130014   0.474   3.478   5.566
 9705SOL    HW230015   0.437   3.614   5.649
 9706SOL     OW30016   0.729   0.918   2.237
 9706SOL    HW130017   0.733   0.910   2.138
 9706SOL    HW230018   0.639   0.886   2.269
 9707SOL     OW30019   0.859   5.054   2.162
 9707SOL    HW130020   0.887   5.070   2.257
 9707SOL    HW230021   0.865   5.139   2.110
 9708SOL     OW30022   3.120   0.283   1.630
 9708SOL    HW130023   3.044   0.227   1.662
 9708SOL    HW230024   3.088   0.347   1.560
 9709SOL     OW30025   5.084   1.840   1.926
 9709SOL    HW130026   5.129   1.868   1.841
 9709SOL    HW230027   4.999   1.892   1.937
 9710SOL     OW30028   5.040   5.073   4.725
 9710SOL    HW130029   5.090   5.159   4.725
 9710SOL    HW230030   5.045   5.031   4.635
 9711SOL     OW30031   2.745   0.855   6.525
 9711SOL    HW130032   2.839   0.825   6.544
 9711SOL    HW230033   2.724   0.935   6.581
 9712SOL     OW30034   4.730   0.578   5.494
 9712SOL    HW130035   4.818   0.533   5.482
 9712SOL    HW230036   4.661   0.511   5.520
 9713SOL     OW30037   2.072   0.256   2.624
 9713SOL    HW130038   2.091   0.169   2.579
 9713SOL    HW230039   2.106   0.331   2.568
 9714SOL     OW30040   2.154   3.096   4.393
 9714SOL    HW130041   2.232   3.076   4.452
 9714SOL    HW230042   2.090   3.019   4.394
 9715SOL     OW30043   0.437   2.961   6.413
 9715SOL    HW130044   0.417   3.030   6.343
 9715SOL    HW230045   0.420   2.870   6.376
 9716SOL     OW30046   2.642   6.281   0.763
 9716SOL    HW130047   2.627   6.202   0.704
 9716SOL    HW230048   2.722   6.332   0.731
 9717SOL     OW30049   3.870   2.567   5.794
 9717SOL    HW130050   3.866   2.539   5.890
 9717SOL    HW230051   3.867   2.485   5.736
 9718SOL     OW30052   4.015   2.688   6.662
 9718SOL    HW130053   3.955   2.767   6.656
 9718SOL    HW230054   4.009   2.634   6.577
 9719SOL     OW30055   4.571   0.490   5.814
 9719SOL    HW130056   4.571   0.422   5.740
 9719SOL    HW230057   4.536   0.449   5.898
 9720SOL     OW30058   2.034   2.334   2.333
 9720SOL    HW130059   2.009   2.290   2.419
 9720SOL    HW230060   1.953   2.343   2.275
 9721SOL     OW30061   0.752   1.710   1.244
 9721SOL    HW130062   0.792   1.619   1.233
 9721SOL    HW230063   0.663   1.702   1.289
 9722SOL     OW30064   4.394   2.603   5.339
 9722SOL    HW130065   4.308   2.609   5.288
 9722SOL    HW230066   4.377   2.570   5.431
 9723SOL     OW30067   5.891   0.565   4.823
 9723SOL    HW130068   5.875   0.475   4.864
 9723SOL    HW230069   5.866   0.636   4.888
 9724SOL     OW30070   1.423   4.484   1.342
 9724SOL    HW130071   1.388   4.391   1.351
 9724SOL    HW230072   1.515   4.481   1.303
 9725SOL     OW30073   5.481   5.591   3.830
 9725SOL    HW130074   5.414   5.656   3.795
 9725SOL    HW230075   5.527   5.629   3.910
 9726SOL     OW30076   6.722   0.082   2.640
 9726SOL    HW130077   6.736   7.020   2.588
 9726SOL    HW230078   6.630   0.117   2.623
 9727SOL     OW30079   5.956   2.839   1.643
 9727SOL    HW130080   6.001   2.758   1.681
 9727SOL    HW230081   5.859   2.819   1.627
 9728SOL     OW30082   5.425   2.256   4.391
 9728SOL    HW130083   5.379   2.188   4.335
 9728SOL    HW230084   5.473   2.321   4.332
 9729SOL     OW30085   0.496   3.401   2.866
 9729SOL    HW130086   0.441   3.389   2.783
 9729SOL    HW230087   0.468   3.484   2.913
 9730SOL     OW30088   1.063   5.509   3.287
 9730SOL    HW130089   1.041   5.605   3.272
 9730SOL    HW230090   1.075   5.463   3.199
 9731SOL     OW30091   6.268   2.799   1.425
 9731SOL    HW130092   6.301   2.837   1.511
 9731SOL    HW230093   6.251   2.872   1.359
 9732SOL     OW30094   1.502   3.228   2.778
 9732SOL    HW130095   1.489   3.201   2.873
 9732SOL    HW230096   1.531   3.148   2.724
 9733SOL     OW30097   6.164   5.016   2.052
 9733SOL    HW130098   6.134   5.080   2.123
 9733SOL    HW230099   6.144   5.053   1.962
 9734SOL     OW30100   4.168   5.051   6.576
 9734SOL    HW130101   4.111   5.117   6.528
 9734SOL    HW230102   4.211   4.989   6.510
 9735SOL     OW30103   0.444   1.836   0.241
 9735SOL    HW130104   0.369   1.826   0.306
 9735SOL    HW230105   0.464   1.748   0.199
 9736SOL     OW30106   5.108   2.533   5.272
 9736SOL    HW130107   5.039   2.579   5.328
 9736SOL    HW230108   5.069   2.508   5.184
 9737SOL     OW30109   5.683   2.999   4.463
 9737SOL    HW130110   5.657   3.076   4.406
 9737SOL    HW230111   5.620   2.923   4.448
 9738SOL     OW30112   2.485   6.503   1.413
 9738SOL    HW130113   2.554   6.574   1.400
 9738SOL    HW230114   2.484   6.474   1.508
 9739SOL     OW30115   5.744   6.962   0.363
 9739SOL    HW130116   5.717   6.883   0.418
 9739SOL    HW230117   5.833   6.995   0.394
 9740SOL     OW30118   6.300   0.598   1.677
 9740SOL    HW130119   6.348   0.511   1.676
 9740SOL    HW230120   6.347   0.663   1.617
 9741SOL     OW30121   2.595   2.483   3.165
 9741SOL    HW130122   2.660   2.559   3.174
 9741SOL    HW230123   2.509   2.517   3.128
 9742SOL     OW30124   3.899   2.023   6.172
 9742SOL    HW130125   3.870   2.099   6.229
 9742SOL    HW230126   3.835   1.946   6.183
 9743SOL     OW30127   6.714   3.827   4.395
 9743SOL    HW130128   6.802   3.820   4.349
 9743SOL    HW230129   6.671   3.915   4.373
 9744SOL     OW30130   1.898   1.746   2.696
 9744SOL    HW130131   1.893   1.647   2.707
 9744SOL    HW230132   1.819   1.789   2.741
 9745SOL     OW30133   0.257   0.022   5.972
 9745SOL    HW130134   0.193   6.986   5.923
 9745SOL    HW230135   0.231   0.026   6.068
 9746SOL     OW30136   3.240   6.131   5.521
 9746SOL    HW130137   3.144   6.152   5.500
 9746SOL    HW230138   3.285   6.095   5.439
 9747SOL     OW30139   3.604   1.702   3.688
 9747SOL    HW130140   3.635   1.755   3.609
 9747SOL    HW230141   3.622   1.605   3.672
 9748SOL     OW30142   0.545   1.542   2.245
 9748SOL    HW130143   0.458   1.584   2.271
 9748SOL    HW230144   0.611   1.553   2.319
 9749SOL     OW30145   7.008   0.896   1.836
 9749SOL    HW130146   6.965   0.932   1.919
 9749SOL    HW230147   6.976   0.802   1.819
 9750SOL     OW30148   5.577   2.774   5.888
 9750SOL    HW130149   5.600   2.860   5.933
 9750SOL    HW230150   5.483   2.776   5.856
 9751SOL     OW30151   3.019   6.566   1.395
 9751SOL    HW130152   2.961   6.485   1.407
 9751SOL    HW230153   3.011   6.625   1.475
 9752SOL     OW30154   3.119   3.059   0.578
 9752SOL    HW130155   3.178   2.983   0.550
 9752SOL    HW230156   3.172   3.123   0.634
 9753SOL     OW30157   6.857   5.705   3.785
 9753SOL    HW130158   6.876   5.771   3.712
 9753SOL    HW230159   6.817   5.623   3.745
 9754SOL     OW30160   3.391   0.897   1.998
 9754SOL    HW130161   3.433   0.876   2.086
 9754SOL    HW230162   3.311   0.839   1.984
 9755SOL     OW30163   3.477   3.709   0.058
 9755SOL    HW130164   3.500   3.782   0.122
 9755SOL    HW230165   3.525   3.725   6.995
 9756SOL     OW30166   5.657   0.657   5.913
 9756SOL    HW130167   5.704   0.568   5.916
 9756SOL    HW230168   5.596   0.659   5.833
 9757SOL     OW30169   5.546   3.645   4.283
 9757SOL    HW130170   5.459   3.690   4.262
 9757SOL    HW230171   5.562   3.571   4.218
 9758SOL     OW30172   2.637   0.609   2.096
 9758SOL    HW130173   2.631   0.692   2.150
 9758SOL    HW230174   2.548   0.590   2.054
 9759SOL     OW30175   6.607   1.993   1.171
 9759SOL    HW130176   6.621   2.068   1.236
 9759SOL    HW230177   6.641   2.019   1.081
 9760SOL     OW30178   4.710   0.286   6.547
 9760SOL    HW130179   4.712   0.326   6.455
 9760SOL    HW230180   4.726   0.187   6.540
 9761SOL     OW30181   0.886   2.474   1.177
 9761SOL    HW130182   0.891   2.525   1.091
 9761SOL    HW230183   0.854   2.381   1.160
 9762SOL     OW30184   3.010   0.869   5.836
 9762SOL    HW130185   3.074   0.830   5.902
 9762SOL    HW230186   3.061   0.915   5.763
 9763SOL     OW30187   6.652   2.720   1.393
 9763SOL    HW130188   6.617   2.798   1.445
 9763SOL    HW230189   6.593   2.704   1.313
 9764SOL     OW30190   0.725   2.665   2.621
 9764SOL    HW130191   0.740   2.594   2.690
 9764SOL    HW230192   0.710   2.752   2.667
 9765SOL     OW30193   6.754   1.536   1.230
 9765SOL    HW130194   6.768   1.545   1.329
 9765SOL    HW230195   6.695   1.611   1.198
 9766SOL     OW30196   0.492   2.917   3.098
 9766SOL    HW130197   0.522   2.974   3.174
 9766SOL    HW230198   0.430   2.969   3.040
 9767SOL     OW30199   2.984   1.829   5.079
 9767SOL    HW130200   2.936   1.860   5.162
 9767SOL    HW230201   3.020   1.908   5.030
 9768SOL     OW30202   5.003   2.553   0.043
 9768SOL    HW130203   5.032   2.479   0.104
 9768SOL    HW230204   5.082   2.611   0.022
 9769SOL     OW30205   3.439   1.755   5.492
 9769SOL    HW130206   3.518   1.798   5.536
 9769SOL    HW230207   3.357   1.810   5.510
 9770SOL     OW30208   1.825   2.929   5.374
 9770SOL    HW130209   1.782   2.946   5.462
 9770SOL    HW230210   1.824   3.013   5.319
 9771SOL     OW30211   3.570   0.932   1.451
 9771SOL    HW130212   3.511   0.872   1.504
 9771SOL    HW230213   3.528   1.023   1.446
 9772SOL     OW30214   1.115   0.409   1.124
 9772SOL    HW130215   1.038   0.465   1.095
 9772SOL    HW230216   1.201   0.452   1.093
 9773SOL     OW30217   6.060   5.891   1.910
 9773SOL    HW130218   6.006   5.808   1.898
 9773SOL    HW230219   6.009   5.970   1.875
 9774SOL     OW30220   2.369   5.062   4.346
 9774SOL    HW130221   2.408   5.019   4.428
 9774SOL    HW230222   2.279   5.100   4.368
 9775SOL     OW30223   1.606   1.334   2.477
 9775SOL    HW130224   1.664   1.262   2.438
 9775SOL    HW230225   1.606   1.414   2.417
 9776SOL     OW30226   2.398   5.662   1.385
 9776SOL    HW130227   2.333   5.632   1.455
 9776SOL    HW230228   2.375   5.619   1.298
 9777SOL     OW30229   4.565   2.057   5.270
 9777SOL    HW130230   4.525   2.054   5.179
 9777SOL    HW230231   4.557   1.968   5.314
 9778SOL     OW30232   1.234   3.858   3.014
 9778SOL    HW130233   1.142   3.846   2.975
 9778SOL    HW230234   1.275   3.768   3.031
 9779SOL     OW30235   3.043   0.365   3.558
 9779SOL    HW130236   3.074   0.379   3.652
 9779SOL    HW230237   3.065   0.272   3.529
 9780SOL     OW30238   0.618   1.493   0.230
 9780SOL    HW130239   0.555   1.417   0.216
 9780SOL    HW230240   0.638   1.502   0.328
 9781SOL     OW30241   1.159   1.380   2.146
 9781SOL    HW130242   1.128   1.297   2.193
 9781SOL    HW230243   1.084   1.419   2.093
 9782SOL     OW30244   0.420   2.555   0.517
 9782SOL    HW130245   0.468   2.620   0.459
 9782SOL    HW230246   0.436   2.462   0.484
 9783SOL     OW30247   4.432   1.340   2.948
 9783SOL    HW130248   4.412   1.348   2.850
 9783SOL    HW230249   4.501   1.270   2.962
 9784SOL     OW30250   1.620   1.303   6.480
 9784SOL    HW130251   1.604   1.367   6.405
 9784SOL    HW230252   1.669   1.350   6.554
 9785SOL     OW30253   0.816   3.822   4.666
 9785SOL    HW130254   0.739   3.831   4.602
 9785SOL    HW230255   0.875   3.748   4.636
 9786SOL     OW30256   2.499   3.883   6.350
 9786SOL    HW130257   2.579   3.931   6.387
 9786SOL    HW230258   2.505   3.880   6.251
 9787SOL     OW30259   3.116   3.553   1.986
 9787SOL    HW130260   3.151   3.588   2.073
 9787SOL    HW230261   3.031   3.504   2.002
 9788SOL     OW30262   3.406   6.855   2.662
 9788SOL    HW130263   3.374   6.826   2.571
 9788SOL    HW230264   3.506   6.861   2.661
 9789SOL     OW30265   3.340   0.885   0.365
 9789SOL    HW130266   3.406   0.871   0.291
 9789SOL    HW230267   3.349   0.979   0.399
 9790SOL     OW30268   4.271   5.535   4.798
 9790SOL    HW130269   4.300   5.630   4.807
 9790SOL    HW230270   4.325   5.477   4.859
 9791SOL     OW30271   0.227   0.333   1.264
 9791SOL    HW130272   0.309   0.304   1.215
 9791SOL    HW230273   0.235   0.306   1.360
 9792SOL     OW30274   3.646   4.442   0.894
 9792SOL    HW130275   3.628   4.343   0.895
 9792SOL    HW230276   3.569   4.490   0.936
 9793SOL     OW30277   6.225   0.712   3.099
 9793SOL    HW130278   6.176   0.650   3.037
 9793SOL    HW230279   6.280   0.776   3.046
 9794SOL     OW30280   4.224   5.125   4.290
 9794SOL    HW130281   4.243   5.059   4.363
 9794SOL    HW230282   4.279   5.102   4.209
 9795SOL     OW30283   0.998   3.645   3.494
 9795SOL    HW130284   1.085   3.601   3.516
 9795SOL    HW230285   0.956   3.597   3.417
 9796SOL     OW30286   2.894   3.675   4.289
 9796SOL    HW130287   2.908   3.772   4.269
 9796SOL    HW230288   2.870   3.665   4.385
 9797SOL     OW30289   3.278   5.540   6.718
 9797SOL    HW130290   3.300   5.629   6.677
 9797SOL    HW230291   3.213   5.554   6.794
 9798SOL     OW30292   6.960   4.287   6.420
 9798SOL    HW130293   0.031   4.260   6.440
 9798SOL    HW230294   6.920   4.222   6.356
 9799SOL     OW30295   3.305   6.835   0.200
 9799SOL    HW130296   3.266   6.833   0.108
 9799SOL    HW230297   3.371   6.910   0.207
 9800SOL     OW30298   6.757   3.968   4.658
 9800SOL    HW130299   6.805   4.055   4.665
 9800SOL    HW230300   6.757   3.936   4.564
 9801SOL     OW30301   4.891   6.262   1.050
 9801SOL    HW130302   4.937   6.256   1.139
 9801SOL    HW230303   4.946   6.214   0.981
 9802SOL     OW30304   3.722   3.783   0.419
 9802SOL    HW130305   3.815   3.782   0.382
 9802SOL    HW230306   3.721   3.733   0.505
 9803SOL     OW30307   1.168   3.748   6.269
 9803SOL    HW130308   1.082   3.771   6.313
 9803SOL    HW230309   1.191   3.818   6.201
 9804SOL     OW30310   1.030   4.258   3.267
 9804SOL    HW130311   1.129   4.253   3.280
 9804SOL    HW230312   0.985   4.233   3.353
 9805SOL     OW30313   0.323   5.833   4.250
 9805SOL    HW130314   0.241   5.784   4.220
 9805SOL    HW230315   0.310   5.931   4.236
 9806SOL     OW30316   3.583   1.810   0.245
 9806SOL    HW130317   3.592   1.723   0.196
 9806SOL    HW230318   3.505   1.860   0.208
 9807SOL     OW30319   4.024   3.292   3.335
 9807SOL    HW130320   4.080   3.293   3.252
 9807SOL    HW230321   4.083   3.280   3.415
 9808SOL     OW30322   3.768   5.337   2.099
 9808SOL    HW130323   3.751   5.410   2.034
 9808SOL    HW230324   3.682   5.299   2.131
 9809SOL     OW30325   6.122   2.589   0.611
 9809SOL    HW130326   6.039   2.638   0.637
 9809SOL    HW230327   6.191   2.655   0.579
 9810SOL     OW30328   2.364   2.396   0.848
 9810SOL    HW130329   2.392   2.408   0.753
 9810SOL    HW230330   2.270   2.364   0.852
 9811SOL     OW30331   5.607   3.861   4.703
 9811SOL    HW130332   5.697   3.831   4.672
 9811SOL    HW230333   5.541   3.853   4.628
 9812SOL     OW30334   3.374   5.716   5.686
 9812SOL    HW130335   3.402   5.775   5.611
 9812SOL    HW230336   3.436   5.728   5.763
 9813SOL     OW30337   4.845   0.684   2.489
 9813SOL    HW130338   4.895   0.643   2.413
 9813SOL    HW230339   4.902   0.683   2.571
 9814SOL     OW30340   0.019   1.538   6.243
 9814SOL    HW130341   0.107   1.495   6.263
 9814SOL    HW230342   7.006   1.582   6.325
 9815SOL     OW30343   3.994   2.111   4.154
 9815SOL    HW130344   3.904   2.087   4.117
 9815SOL    HW230345   4.042   2.170   4.089
 9816SOL     OW30346   2.819   1.335   1.224
 9816SOL    HW130347   2.793   1.429   1.200
 9816SOL    HW230348   2.748   1.272   1.192
 9817SOL     OW30349   6.365   0.323   1.885
 9817SOL    HW130350   6.419   0.353   1.806
 9817SOL    HW230351   6.358   0.223   1.884
 9818SOL     OW30352   4.342   2.936   5.360
 9818SOL    HW130353   4.315   3.024   5.320
 9818SOL    HW230354   4.268   2.870   5.349
 9819SOL     OW30355   3.954   0.812   1.938
 9819SOL    HW130356   3.932   0.771   2.027
 9819SOL    HW230357   3.871   0.853   1.898
 9820SOL     OW30358   3.928   2.689   0.197
 9820SOL    HW130359   3.930   2.642   0.285
 9820SOL    HW230360   3.855   2.651   0.140
 9821SOL     OW30361   0.051   5.362   0.007
 9821SOL    HW130362   0.089   5.452   7.011
 9821SOL    HW230363   7.001   5.371   0.075
 9822SOL     OW30364   0.793   0.574   3.169
 9822SOL    HW130365   0.840   0.648   3.120
 9822SOL    HW230366   0.859   0.504   3.195
 9823SOL     OW30367   3.676   6.758   1.387
 9823SOL    HW130368   3.757   6.700   1.395
 9823SOL    HW230369   3.648   6.763   1.291
 9824SOL     OW30370   1.473   3.973   6.224
 9824SOL    HW130371   1.564   3.990   6.187
 9824SOL    HW230372   1.477   3.978   6.324
 9825SOL     OW30373   4.036   5.139   5.566
 9825SOL    HW130374   4.104   5.154   5.637
 9825SOL    HW230375   4.015   5.041   5.560
 9826SOL     OW30376   5.003   0.480   5.570
 9826SOL    HW130377   5.047   0.569   5.555
 9826SOL    HW230378   5.061   0.407   5.535
 9827SOL     OW30379   0.808   4.050   4.245
 9827SOL    HW130380   0.806   3.964   4.296
 9827SOL    HW230381   0.802   4.031   4.147
 9828SOL     OW30382   3.228   2.456   6.573
 9828SOL    HW130383   3.150   2.442   6.633
 9828SOL    HW230384   3.277   2.539   6.600
 9829SOL     OW30385   2.981   4.282   0.923
 9829SOL    HW130386   2.971   4.196   0.873
 9829SOL    HW230387   2.899   4.297   0.979
 9830SOL     OW30388   6.626   0.932   0.303
 9830SOL    HW130389   6.648   0.837   0.281
 9830SOL    HW230390   6.651   0.991   0.227
 9831SOL     OW30391   5.660   0.017   0.742
 9831SOL    HW130392   5.715   0.073   0.680
 9831SOL    HW230393   5.714   7.016   0.822
 9832SOL     OW30394   3.852   4.952   1.084
 9832SOL    HW130395   3.949   4.943   1.061
 9832SOL    HW230396   3.838   4.929   1.180
 9833SOL     OW30397   4.286   4.320   5.674
 9833SOL    HW130398   4.282   4.347   5.771
 9833SOL    HW230399   4.197   4.334   5.632
 9834SOL     OW30400   1.524   2.274   3.958
 9834SOL    HW130401   1.594   2.256   4.027
 9834SOL    HW230402   1.434   2.261   3.998
 9835SOL     OW30403   4.751   1.610   4.576
 9835SOL    HW130404   4.668   1.558   4.554
 9835SOL    HW230405   4.761   1.685   4.510
 9836SOL     OW30406   5.235   5.068   2.351
 9836SOL    HW130407   5.287   5.068   2.266
 9836SOL    HW230408   5.158   5.004   2.344
 9837SOL     OW30409   1.445   6.618   4.645
 9837SOL    HW130410   1.515   6.549   4.627
 9837SOL    HW230411   1.441   6.638   4.743
 9838SOL     OW30412   6.419   5.375   5.211
 9838SOL    HW130413   6.508   5.331   5.198
 9838SOL    HW230414   6.412   5.410   5.304
 9839SOL     OW30415   0.172   2.236   2.670
 9839SOL    HW130416   0.093   2.187   2.705
 9839SOL    HW230417   0.142   2.309   2.609
 9840SOL     OW30418   6.334   0.718   1.094
 9840SOL    HW130419   6.413   0.760   1.049
 9840SOL    HW230420   6.365   0.642   1.151
 9841SOL     OW30421   1.635   3.610   4.414
 9841SOL    HW130422   1.665   3.706   4.412
 9841SOL    HW230423   1.706   3.554   4.457
 9842SOL     OW30424   3.159   3.237   3.328
 9842SOL    HW130425   3.252   3.274   3.330
 9842SOL    HW230426   3.097   3.299   3.376
 9843SOL     OW30427   5.879   3.626   3.057
 9843SOL    HW130428   5.946   3.595   2.990
 9843SOL    HW230429   5.849   3.549   3.113
 9844SOL     OW30430   5.399   0.639   2.514
 9844SOL    HW130431   5.455   0.707   2.560
 9844SOL    HW230432   5.454   0.560   2.489
 9845SOL     OW30433   0.904   2.156   3.444
 9845SOL    HW130434   0.967   2.112   3.507
 9845SOL    HW230435   0.955   2.213   3.379
 9846SOL     OW30436   3.192   3.399   3.034
 9846SOL    HW130437   3.213   3.481   3.087
 9846SOL    HW230438   3.100   3.367   3.057
 9847SOL     OW30439   2.443   4.482   5.002
 9847SOL    HW130440   2.398   4.404   4.957
 9847SOL    HW230441   2.373   4.546   5.034
 9848SOL     OW30442   5.306   3.644   0.445
 9848SOL    HW130443   5.303   3.585   0.526
 9848SOL    HW230444   5.218   3.641   0.398
 9849SOL     OW30445   0.148   0.046   5.275
 9849SOL    HW130446   0.063   0.070   5.230
 9849SOL    HW230447   0.141   6.977   5.314
 9850SOL     OW30448   4.426   6.866   2.495
 9850SOL    HW130449   4.479   6.782   2.488
 9850SOL    HW230450   4.488   6.944   2.505
 9851SOL     OW30451   5.667   3.035   5.031
 9851SOL    HW130452   5.607   3.013   5.109
 9851SOL    HW230453   5.713   3.122   5.048
 9852SOL     OW30454   4.795   2.284   4.028
 9852SOL    HW130455   4.779   2.200   4.081
 9852SOL    HW230456   4.743   2.359   4.068
 9853SOL     OW30457   0.438   4.009   1.286
 9853SOL    HW130458   0.506   4.081   1.271
 9853SOL    HW230459   0.394   3.987   1.199
 9854SOL     OW30460   4.644   6.114   3.412
 9854SOL    HW130461   4.729   6.164   3.428
 9854SOL    HW230462   4.613   6.074   3.498
 9855SOL     OW30463   1.627   3.515   0.782
 9855SOL    HW130464   1.632   3.416   0.775
 9855SOL    HW230465   1.624   3.542   0.878
 9856SOL     OW30466   3.852   2.346   0.929
 9856SOL    HW130467   3.762   2.368   0.968
 9856SOL    HW230468   3.880   2.254   0.958
 9857SOL     OW30469   6.185   4.185   3.394
 9857SOL    HW130470   6.094   4.224   3.393
 9857SOL    HW230471   6.209   4.155   3.301
 9858SOL     OW30472   4.447   1.527   1.558
 9858SOL    HW130473   4.433   1.582   1.476
 9858SOL    HW230474   4.431   1.431   1.536
 9859SOL     OW30475   6.462   0.362   1.627
 9859SOL    HW130476   6.559   0.343   1.610
 9859SOL    HW230477   6.408   0.332   1.549
 9860SOL     OW30478   0.404   1.209   2.289
 9860SOL    HW130479   0.335   1.147   2.253
 9860SOL    HW230480   0.456   1.162   2.361
 9861SOL     OW30481   3.486   6.619   5.256
 9861SOL    HW130482   3.423   6.542   5.242
 9861SOL    HW230483   3.504   6.629   5.354
 9862SOL     OW30484   0.866   2.678   0.577
 9862SOL    HW130485   0.839   2.717   0.665
 9862SOL    HW230486   0.953   2.719   0.549
 9863SOL     OW30487   2.979   6.942   0.618
 9863SOL    HW130488   2.984   6.924   0.716
 9863SOL    HW230489   3.061   6.907   0.573
 9864SOL     OW30490   4.462   5.918   2.637
 9864SOL    HW130491   4.426   6.010   2.624
 9864SOL    HW230492   4.489   5.880   2.548
 9865SOL     OW30493   0.959   2.860   4.989
 9865SOL    HW130494   0.935   2.940   4.934
 9865SOL    HW230495   0.875   2.817   5.023
 9866SOL     OW30496   4.203   4.821   3.029
 9866SOL    HW130497   4.263   4.764   3.086
 9866SOL    HW230498   4.196   4.782   2.937
 9867SOL     OW30499   3.950   0.503   6.169
 9867SOL    HW130500   3.973   0.583   6.113
 9867SOL    HW230501   4.019   0.491   6.240
 9868SOL     OW30502   6.956   5.331   6.717
 9868SOL    HW130503   6.962   5.322   6.816
 9868SOL    HW230504   6.946   5.427   6.693
 9869SOL     OW30505   1.892   3.730   3.692
 9869SOL    HW130506   1.848   3.760   3.776
 9869SOL    HW230507   1.867   3.635   3.674
 9870SOL     OW30508   5.017   4.280   2.353
 9870SOL    HW130509   4.945   4.211   2.360
 9870SOL    HW230510   5.105   4.238   2.374
 9871SOL     OW30511   1.329   1.741   5.307
 9871SOL    HW130512   1.412   1.710   5.261
 9871SOL    HW230513   1.259   1.671   5.300
 9872SOL     OW30514   1.246   4.810   3.705
 9872SOL    HW130515   1.317   4.880   3.701
 9872SOL    HW230516   1.178   4.827   3.634
 9873SOL     OW30517   1.091   2.835   0.515
 9873SOL    HW130518   1.169   2.836   0.578
 9873SOL    HW230519   1.115   2.782   0.434
 9874SOL     OW30520   0.854   3.119   3.449
 9874SOL    HW130521   0.773   3.171   3.476
 9874SOL    HW230522   0.933   3.151   3.502
 9875SOL     OW30523   0.978   0.951   3.172
 9875SOL    HW130524   1.001   0.859   3.139
 9875SOL    HW230525   1.020   0.965   3.262
 9876SOL     OW30526   0.037   5.870   2.560
 9876SOL    HW130527   0.067   5.834   2.648
 9876SOL    HW230528   0.076   5.815   2.486
 9877SOL     OW30529   3.548   0.039   2.010
 9877SOL    HW130530   3.557   0.137   2.030
 9877SOL    HW230531   3.636   7.017   2.026
 9878SOL     OW30532   0.766   0.154   5.237
 9878SOL    HW130533   0.710   0.162   5.319
 9878SOL    HW230534   0.780   0.058   5.215
 9879SOL     OW30535   5.624   6.037   6.137
 9879SOL    HW130536   5.606   5.961   6.200
 9879SOL    HW230537   5.722   6.047   6.123
 9880SOL     OW30538   1.916   1.662   4.673
 9880SOL    HW130539   2.004   1.709   4.682
 9880SOL    HW230540   1.903   1.633   4.579
 9881SOL     OW30541   6.998   2.246   6.484
 9881SOL    HW130542   0.021   2.311   6.424
 9881SOL    HW230543   0.038   2.215   6.555
 9882SOL     OW30544   1.088   1.652   2.732
 9882SOL    HW130545   1.073   1.745   2.765
 9882SOL    HW230546   1.058   1.645   2.636
 9883SOL     OW30547   1.966   0.640   1.876
 9883SOL    HW130548   1.946   0.542   1.883
 9883SOL    HW230549   1.886   0.693   1.904
 9884SOL     OW30550   3.629   0.648   4.295
 9884SOL    HW130551   3.573   0.575   4.335
 9884SOL    HW230552   3.705   0.668   4.357
 9885SOL     OW30553   6.100   4.916   3.782
 9885SOL    HW130554   6.081   4.850   3.709
 9885SOL    HW230555   6.198   4.911   3.805
 9886SOL     OW30556   1.205   3.419   2.419
 9886SOL    HW130557   1.292   3.435   2.466
 9886SOL    HW230558   1.174   3.503   2.375
 9887SOL     OW30559   4.230   0.519   5.940
 9887SOL    HW130560   4.191   0.592   5.997
 9887SOL    HW230561   4.308   0.478   5.988
 9888SOL     OW30562   0.142   4.367   0.507
 9888SOL    HW130563   0.163   4.330   0.417
 9888SOL    HW230564   0.143   4.467   0.503
 9889SOL     OW30565   0.578   5.321   0.249
 9889SOL    HW130566   0.525   5.247   0.207
 9889SOL    HW230567   0.627   5.371   0.177
 9890SOL     OW30568   1.150   3.084   1.103
 9890SOL    HW130569   1.189   3.175   1.119
 9890SOL    HW230570   1.145   3.066   1.005
 9891SOL     OW30571   4.837   1.350   1.633
 9891SOL    HW130572   4.816   1.401   1.550
 9891SOL    HW230573   4.862   1.413   1.707
 9892SOL     OW30574   0.034   5.842   6.518
 9892SOL    HW130575   0.007   5.800   6.432
 9892SOL    HW230576   0.134   5.849   6.522
 9893SOL     OW30577   2.237   1.431   1.255
 9893SOL    HW130578   2.259   1.426   1.353
 9893SOL    HW230579   2.298   1.371   1.204
 9894SOL     OW30580   1.679   1.549   0.904
 9894SOL    HW130581   1.605   1.616   0.893
 9894SOL    HW230582   1.740   1.555   0.825
 9895SOL     OW30583   4.809   3.782   5.819
 9895SOL    HW130584   4.786   3.742   5.908
 9895SOL    HW230585   4.786   3.716   5.747
 9896SOL     OW30586   6.087   6.660   6.675
 9896SOL    HW130587   6.067   6.739   6.617
 9896SOL    HW230588   6.094   6.578   6.618
 9897SOL     OW30589   5.380   5.142   3.767
 9897SOL    HW130590   5.355   5.046   3.784
 9897SOL    HW230591   5.379   5.193   3.853
 9898SOL     OW30592   3.021   6.157   5.181
 9898SOL    HW130593   2.958   6.134   5.107
 9898SOL    HW230594   3.038   6.255   5.181
 9899SOL     OW30595   0.144   5.607   6.979
 9899SOL    HW130596   0.204   5.652   6.913
 9899SOL    HW230597   0.055   5.653   6.978
 9900SOL     OW30598   2.135   3.638   3.433
 9900SOL    HW130599   2.155   3.689   3.516
 9900SOL    HW230600   2.138   3.699   3.354
 9901SOL     OW30601   2.176   2.725   5.464
 9901SOL    HW130602   2.095   2.740   5.407
 9901SOL    HW230603   2.215   2.813   5.490
 9902SOL     OW30604   2.445   3.996   6.878
 9902SOL    HW130605   2.512   3.928   6.848
 9902SOL    HW230606   2.474   4.087   6.848
 9903SOL     OW30607   5.842   0.283   3.618
 9903SOL    HW130608   5.807   0.314   3.706
 9903SOL    HW230609   5.921   0.223   3.632
 9904SOL     OW30610   6.588   2.612   6.501
 9904SOL    HW130611   6.602   2.695   6.556
 9904SOL    HW230612   6.557   2.538   6.560
 9905SOL     OW30613   4.626   1.387   0.007
 9905SOL    HW130614   4.586   1.373   6.940
 9905SOL    HW230615   4.660   1.300   0.042
 9906SOL     OW30616   4.062   3.200   4.616
 9906SOL    HW130617   3.991   3.131   4.629
 9906SOL    HW230618   4.073   3.252   4.702
 9907SOL     OW30619   0.596   0.359   1.376
 9907SOL    HW130620   0.632   0.449   1.352
 9907SOL    HW230621   0.513   0.369   1.431
 9908SOL     OW30622   4.876   3.328   3.129
 9908SOL    HW130623   4.858   3.314   3.227
 9908SOL    HW230624   4.852   3.422   3.105
 9909SOL     OW30625   2.352   0.011   5.131
 9909SOL    HW130626   2.288   0.027   5.055
 9909SOL    HW230627   2.306   0.030   5.218
 9910SOL     OW30628   0.848   4.510   3.303
 9910SOL    HW130629   0.839   4.424   3.252
 9910SOL    HW230630   0.940   4.548   3.289
 9911SOL     OW30631   3.086   6.312   2.342
 9911SOL    HW130632   3.080   6.348   2.435
 9911SOL    HW230633   2.994   6.312   2.301
 9912SOL     OW30634   5.115   0.846   6.864
 9912SOL    HW130635   5.070   0.757   6.856
 9912SOL    HW230636   5.048   0.915   6.894
 9913SOL     OW30637   5.477   3.239   6.713
 9913SOL    HW130638   5.417   3.219   6.636
 9913SOL    HW230639   5.560   3.183   6.706
 9914SOL     OW30640   6.913   3.010   4.868
 9914SOL    HW130641   6.947   3.101   4.848
 9914SOL    HW230642   6.857   2.977   4.791
 9915SOL     OW30643   5.530   0.458   3.618
 9915SOL    HW130644   5.563   0.430   3.708
 9915SOL    HW230645   5.601   0.512   3.572
 9916SOL     OW30646   2.303   2.271   1.576
 9916SOL    HW130647   2.237   2.346   1.576
 9916SOL    HW230648   2.382   2.295   1.633
 9917SOL     OW30649   6.280   4.383   4.930
 9917SOL    HW130650   6.316   4.455   4.988
 9917SOL    HW230651   6.323   4.296   4.955
 9918SOL     OW30652   4.248   2.286   2.698
 9918SOL    HW130653   4.228   2.191   2.673
 9918SOL    HW230654   4.277   2.289   2.794
 9919SOL     OW30655   6.795   6.367   0.280
 9919SOL    HW130656   6.826   6.359   0.185
 9919SOL    HW230657   6.870   6.346   0.342
 9920SOL     OW30658   4.696   1.293   2.021
 9920SOL    HW130659   4.761   1.228   1.982
 9920SOL    HW230660   4.614   1.297   1.964
 9921SOL     OW30661   3.531   5.697   5.924
 9921SOL    HW130662   3.626   5.727   5.914
 9921SOL    HW230663   3.494   5.731   6.010
 9922SOL     OW30664   0.573   5.265   0.510
 9922SOL    HW130665   0.604   5.292   0.419
 9922SOL    HW230666   0.559   5.347   0.566
 9923SOL     OW30667   5.266   4.779   0.812
 9923SOL    HW130668   5.270   4.684   0.781
 9923SOL    HW230669   5.212   4.784   0.896
 9924SOL     OW30670   0.782   4.066   4.787
 9924SOL    HW130671   0.777   3.976   4.743
 9924SOL    HW230672   0.781   4.054   4.886
 9925SOL     OW30673   5.298   2.816   3.752
 9925SOL    HW130674   5.391   2.783   3.768
 9925SOL    HW230675   5.257   2.765   3.676
 9926SOL     OW30676   2.252   5.094   6.849
 9926SOL    HW130677   2.159   5.110   6.883
 9926SOL    HW230678   2.292   5.016   6.896
 9927SOL     OW30679   6.087   6.938   2.748
 9927SOL    HW130680   6.174   6.945   2.699
 9927SOL    HW230681   6.012   6.949   2.684
 9928SOL     OW30682   4.756   4.277   1.568
 9928SOL    HW130683   4.699   4.199   1.595
 9928SOL    HW230684   4.719   4.361   1.608
 9929SOL     OW30685   1.907   4.275   3.004
 9929SOL    HW130686   1.892   4.372   3.021
 9929SOL    HW230687   1.912   4.225   3.090
 9930SOL     OW30688   7.001   0.350   3.775
 9930SOL    HW130689   7.002   0.421   3.705
 9930SOL    HW230690   7.011   0.392   3.865
 9931SOL     OW30691   0.705   4.809   5.696
 9931SOL    HW130692   0.650   4.844   5.772
 9931SOL    HW230693   0.794   4.778   5.731
 9932SOL     OW30694   1.135   6.267   5.220
 9932SOL    HW130695   1.126   6.258   5.121
 9932SOL    HW230696   1.046   6.257   5.263
 9933SOL     OW30697   0.143   5.778   2.156
 9933SOL    HW130698   0.237   5.785   2.191
 9933SOL    HW230699   0.120   5.862   2.108
 9934SOL     OW30700   6.494   2.253   6.421
 9934SOL    HW130701   6.572   2.264   6.359
 9934SOL    HW230702   6.412   2.290   6.378
 9935SOL     OW30703   3.212   0.743   6.378
 9935SOL    HW130704   3.176   0.652   6.359
 9935SOL    HW230705   3.160   0.811   6.326
 9936SOL     OW30706   0.449   4.570   4.344
 9936SOL    HW130707   0.363   4.588   4.297
 9936SOL    HW230708   0.504   4.506   4.290
 9937SOL     OW30709   6.482   2.407   6.642
 9937SOL    HW130710   6.487   2.343   6.566
 9937SOL    HW230711   6.464   2.356   6.727
 9938SOL     OW30712   6.485   6.293   2.620
 9938SOL    HW130713   6.502   6.203   2.659
 9938SOL    HW230714   6.570   6.331   2.584
 9939SOL     OW30715   3.214   3.022   2.298
 9939SOL    HW130716   3.178   3.070   2.218
 9939SOL    HW230717   3.312   3.011   2.288
 9940SOL     OW30718   0.147   1.070   0.125
 9940SOL    HW130719   0.203   1.027   0.054
 9940SOL    HW230720   0.083   1.002   0.163
 9941SOL     OW30721   3.014   4.898   5.706
 9941SOL    HW130722   3.080   4.950   5.651
 9941SOL    HW230723   3.030   4.917   5.803
 9942SOL     OW30724   2.644   5.357   3.523
 9942SOL    HW130725   2.634   5.258   3.510
 9942SOL    HW230726   2.610   5.405   3.442
 9943SOL     OW30727   1.141   6.758   5.103
 9943SOL    HW130728   1.198   6.740   5.023
 9943SOL    HW230729   1.144   6.856   5.125
 9944SOL     OW30730   0.730   3.763   0.473
 9944SOL    HW130731   0.708   3.731   0.381
 9944SOL    HW230732   0.760   3.859   0.469
 9945SOL     OW30733   6.444   5.802   0.191
 9945SOL    HW130734   6.470   5.894   0.164
 9945SOL    HW230735   6.398   5.756   0.114
 9946SOL     OW30736   5.253   1.299   4.894
 9946SOL    HW130737   5.331   1.285   4.954
 9946SOL    HW230738   5.173   1.324   4.949
 9947SOL     OW30739   6.097   4.696   3.622
 9947SOL    HW130740   6.079   4.639   3.542
 9947SOL    HW230741   6.074   4.646   3.705
 9948SOL     OW30742   5.285   4.365   4.193
 9948SOL    HW130743   5.335   4.294   4.143
 9948SOL    HW230744   5.214   4.322   4.248
 9949SOL     OW30745   5.582   5.292   2.743
 9949SOL    HW130746   5.522   5.264   2.669
 9949SOL    HW230747   5.668   5.242   2.738
 9950SOL     OW30748   3.500   5.872   5.495
 9950SOL    HW130749   3.474   5.959   5.538
 9950SOL    HW230750   3.568   5.889   5.424
 9951SOL     OW30751   5.900   2.106   3.001
 9951SOL    HW130752   5.958   2.158   3.064
 9951SOL    HW230753   5.808   2.098   3.041
 9952SOL     OW30754   0.741   5.470   0.036
 9952SOL    HW130755   0.668   5.529   0.002
 9952SOL    HW230756   0.749   5.390   7.000
 9953SOL     OW30757   6.656   2.078   4.000
 9953SOL    HW130758   6.610   2.087   4.088
 9953SOL    HW230759   6.588   2.063   3.928
 9954SOL     OW30760   4.555   0.382   5.536
 9954SOL    HW130761   4.487   0.445   5.499
 9954SOL    HW230762   4.541   0.291   5.497
 9955SOL     OW30763   0.569   4.542   4.583
 9955SOL    HW130764   0.530   4.575   4.497
 9955SOL    HW230765   0.613   4.454   4.568
 9956SOL     OW30766   1.159   6.179   1.034
 9956SOL    HW130767   1.239   6.174   0.974
 9956SOL    HW230768   1.152   6.094   1.087
 9957SOL     OW30769   6.355   4.618   2.750
 9957SOL    HW130770   6.277   4.630   2.812
 9957SOL    HW230771   6.322   4.612   2.656
 9958SOL     OW30772   2.339   4.114   1.424
 9958SOL    HW130773   2.352   4.102   1.523
 9958SOL    HW230774   2.377   4.035   1.376
 9959SOL     OW30775   3.891   3.479   0.899
 9959SOL    HW130776   3.884   3.577   0.919
 9959SOL    HW230777   3.934   3.467   0.810
 9960SOL     OW30778   0.838   1.410   2.309
 9960SOL    HW130779   0.767   1.358   2.263
 9960SOL    HW230780   0.855   1.495   2.258
 9961SOL     OW30781   2.251   4.651   4.724
 9961SOL    HW130782   2.349   4.644   4.739
 9961SOL    HW230783   2.215   4.562   4.693
 9962SOL     OW30784   5.712   6.157   4.816
 9962SOL    HW130785   5.661   6.241   4.835
 9962SOL    HW230786   5.732   6.110   4.902
 9963SOL     OW30787   3.057   0.468   0.402
 9963SOL    HW130788   3.112   0.384   0.402
 9963SOL    HW230789   3.087   0.527   0.327
 9964SOL     OW30790   4.836   5.933   5.079
 9964SOL    HW130791   4.831   5.849   5.024
 9964SOL    HW230792   4.827   5.910   5.176
 9965SOL     OW30793   3.873   0.443   0.259
 9965SOL    HW130794   3.948   0.499   0.223
 9965SOL    HW230795   3.910   0.358   0.297
 9966SOL     OW30796   6.983   6.917   2.506
 9966SOL    HW130797   6.892   6.880   2.523
 9966SOL    HW230798   0.019   6.897   2.585
 9967SOL     OW30799   1.175   5.332   0.436
 9967SOL    HW130800   1.273   5.316   0.419
 9967SOL    HW230801   1.122   5.291   0.362
 9968SOL     OW30802   3.507   2.984   2.679
 9968SOL    HW130803   3.439   2.983   2.753
 9968SOL    HW230804   3.477   3.044   2.605
 9969SOL     OW30805   1.367   3.316   1.823
 9969SOL    HW130806   1.458   3.275   1.828
 9969SOL    HW230807   1.349   3.346   1.729
 9970SOL     OW30808   5.976   4.460   1.508
 9970SOL    HW130809   5.915   4.469   1.586
 9970SOL    HW230810   6.070   4.478   1.537
 9971SOL     OW30811   2.328   5.948   0.190
 9971SOL    HW130812   2.413   5.963   0.138
 9971SOL    HW230813   2.326   6.011   0.267
 9972SOL     OW30814   6.998   4.741   1.477
 9972SOL    HW130815   6.940   4.708   1.552
 9972SOL    HW230816   6.965   4.706   1.390
 9973SOL     OW30817   5.636   6.850   4.304
 9973SOL    HW130818   5.617   6.752   4.313
 9973SOL    HW230819   5.664   6.869   4.210
 9974SOL     OW30820   2.185   0.973   3.961
 9974SOL    HW130821   2.180   0.920   4.045
 9974SOL    HW230822   2.111   1.041   3.960
 9975SOL     OW30823   6.792   3.612   0.697
 9975SOL    HW130824   6.755   3.577   0.783
 9975SOL    HW230825   6.891   3.628   0.707
 9976SOL     OW30826   2.160   0.175   4.996
 9976SOL    HW130827   2.144   0.229   4.913
 9976SOL    HW230828   2.156   0.235   5.075
 9977SOL     OW30829   6.584   4.549   4.266
 9977SOL    HW130830   6.526   4.488   4.320
 9977SOL    HW230831   6.530   4.589   4.192
 9978SOL     OW30832   0.142   2.680   4.625
 9978SOL    HW130833   0.232   2.722   4.623
 9978SOL    HW230834   0.108   2.678   4.719
 9979SOL     OW30835   0.849   4.052   5.501
 9979SOL    HW130836   0.946   4.041   5.479
 9979SOL    HW230837   0.800   3.968   5.476
 9980SOL     OW30838   3.246   6.749   5.035
 9980SOL    HW130839   3.230   6.679   4.965
 9980SOL    HW230840   3.313   6.715   5.101
 9981SOL     OW30841   3.146   1.870   4.149
 9981SOL    HW130842   3.063   1.844   4.198
 9981SOL    HW230843   3.226   1.846   4.203
 9982SOL     OW30844   6.313   6.151   2.862
 9982SOL    HW130845   6.231   6.130   2.915
 9982SOL    HW230846   6.287   6.192   2.774
 9983SOL     OW30847   0.245   1.306   1.379
 9983SOL    HW130848   0.275   1.223   1.426
 9983SOL    HW230849   0.171   1.348   1.430
 9984SOL     OW30850   2.756   0.975   0.327
 9984SOL    HW130851   2.744   0.997   0.230
 9984SOL    HW230852   2.717   0.885   0.346
 9985SOL     OW30853   1.181   1.287   1.777
 9985SOL    HW130854   1.278   1.264   1.783
 9985SOL    HW230855   1.169   1.385   1.795
 9986SOL     OW30856   5.152   4.299   5.011
 9986SOL    HW130857   5.130   4.383   4.962
 9986SOL    HW230858   5.155   4.223   4.947
 9987SOL     OW30859   0.247   4.637   6.010
 9987SOL    HW130860   0.147   4.629   6.004
 9987SOL    HW230861   0.287   4.546   6.014
 9988SOL     OW30862   6.743   6.927   4.514
 9988SOL    HW130863   6.647   6.898   4.514
 9988SOL    HW230864   6.749   7.021   4.482
 9989SOL     OW30865   0.822   3.472   4.606
 9989SOL    HW130866   0.775   3.511   4.527
 9989SOL    HW230867   0.921   3.482   4.595
 9990SOL     OW30868   1.206   5.068   2.133
 9990SOL    HW130869   1.267   5.073   2.212
 9990SOL    HW230870   1.178   4.974   2.118
 9991SOL     OW30871   3.872   2.176   3.231
 9991SOL    HW130872   3.918   2.102   3.182
 9991SOL    HW230873   3.908   2.182   3.324
 9992SOL     OW30874   6.669   5.713   6.097
 9992SOL    HW130875   6.691   5.807   6.122
 9992SOL    HW230876   6.711   5.691   6.009
 9993SOL     OW30877   1.144   1.064   1.978
 9993SOL    HW130878   1.077   1.094   2.046
 9993SOL    HW230879   1.175   1.143   1.925
 9994SOL     OW30880   6.174   4.694   2.985
 9994SOL    HW130881   6.194   4.697   3.082
 9994SOL    HW230882   6.113   4.770   2.961
 9995SOL     OW30883   4.918   1.352   4.629
 9995SOL    HW130884   4.945   1.438   4.673
 9995SOL    HW230885   4.823   1.331   4.654
 9996SOL     OW30886   2.413   3.177   0.028
 9996SOL    HW130887   2.431   3.163   6.954
 9996SOL    HW230888   2.368   3.266   0.041
 9997SOL     OW30889   2.819   6.844   4.576
 9997SOL    HW130890   2.802   6.774   4.645
 9997SOL    HW230891   2.731   6.883   4.546
 9998SOL     OW30892   5.881   6.557   5.545
 9998SOL    HW130893   5.809   6.514   5.599
 9998SOL    HW230894   5.842   6.595   5.461
 9999SOL     OW30895   6.612   2.493   4.744
 9999SOL    HW130896   6.589   2.410   4.692
 9999SOL    HW230897   6.631   2.468   4.839
10000SOL     OW30898   0.028   4.184   6.760
10000SOL    HW130899   0.108   4.194   6.702
10000SOL    HW230900   0.021   4.090   6.792
10001SOL     OW30901   4.079   0.008   3.183
10001SOL    HW130902   4.099   0.036   3.089
10001SOL    HW230903   4.147   6.965   3.213
10002SOL     OW30904   1.141   1.570   1.785
10002SOL    HW130905   1.137   1.628   1.703
10002SOL    HW230906   1.055   1.580   1.836
10003SOL     OW30907   5.490   2.497   3.670
10003SOL    HW130908   5.524   2.572   3.726
10003SOL    HW230909   5.501   2.519   3.573
10004SOL     OW30910   0.357   2.234   2.870
10004SOL    HW130911   0.377   2.141   2.901
10004SOL    HW230912   0.293   2.230   2.794
10005SOL     OW30913   5.392   6.661   4.484
10005SOL    HW130914   5.307   6.688   4.440
10005SOL    HW230915   5.373   6.631   4.578
10006SOL     OW30916   4.414   1.656   4.684
10006SOL    HW130917   4.422   1.608   4.596
10006SOL    HW230918   4.481   1.620   4.748
10007SOL     OW30919   6.309   3.724   4.118
10007SOL    HW130920   6.326   3.628   4.096
10007SOL    HW230921   6.396   3.770   4.135
10008SOL     OW30922   3.828   6.884   4.089
10008SOL    HW130923   3.886   6.803   4.093
10008SOL    HW230924   3.816   6.912   3.993
10009SOL     OW30925   1.137   4.101   1.649
10009SOL    HW130926   1.065   4.118   1.582
10009SOL    HW230927   1.165   4.188   1.691
10010SOL     OW30928   6.417   1.563   6.229
10010SOL    HW130929   6.401   1.580   6.326
10010SOL    HW230930   6.343   1.506   6.192
10011SOL     OW30931   0.000   6.885   4.482
10011SOL    HW130932   0.040   6.826   4.411
10011SOL    HW230933   6.928   6.860   4.495
10012SOL     OW30934   5.787   0.292   4.425
10012SOL    HW130935   5.724   0.329   4.493
10012SOL    HW230936   5.863   0.246   4.471
10013SOL     OW30937   1.460   0.842   1.868
10013SOL    HW130938   1.507   0.928   1.845
10013SOL    HW230939   1.361   0.856   1.865
10014SOL     OW30940   1.707   5.253   5.693
10014SOL    HW130941   1.607   5.252   5.701
10014SOL    HW230942   1.743   5.161   5.708
10015SOL     OW30943   2.386   4.538   6.914
10015SOL    HW130944   2.314   4.606   6.900
10015SOL    HW230945   2.367   4.456   6.861
10016SOL     OW30946   2.818   0.645   5.278
10016SOL    HW130947   2.825   0.677   5.183
10016SOL    HW230948   2.735   0.682   5.319
10017SOL     OW30949   0.685   2.236   4.184
10017SOL    HW130950   0.764   2.250   4.243
10017SOL    HW230951   0.689   2.145   4.142
10018SOL     OW30952   4.876   6.625   6.007
10018SOL    HW130953   4.908   6.690   6.076
10018SOL    HW230954   4.830   6.675   5.934
10019SOL     OW30955   1.797   1.140   2.229
10019SOL    HW130956   1.777   1.118   2.324
10019SOL    HW230957   1.887   1.181   2.222
10020SOL     OW30958   0.123   2.805   6.984
10020SOL    HW130959   0.097   2.901   6.974
10020SOL    HW230960   0.188   2.781   6.911
10021SOL     OW30961   5.391   3.231   1.702
10021SOL    HW130962   5.299   3.259   1.674
10021SOL    HW230963   5.396   3.131   1.701
10022SOL     OW30964   1.646   0.546   6.380
10022SOL    HW130965   1.712   0.496   6.436
10022SOL    HW230966   1.673   0.642   6.374
10023SOL     OW30967   0.421   3.210   1.008
10023SOL    HW130968   0.421   3.119   0.965
10023SOL    HW230969   0.361   3.208   1.088
10024SOL     OW30970   1.562   4.643   3.673
10024SOL    HW130971   1.573   4.681   3.765
10024SOL    HW230972   1.516   4.554   3.680
10025SOL     OW30973   1.188   1.141   0.540
10025SOL    HW130974   1.139   1.154   0.454
10025SOL    HW230975   1.123   1.118   0.613
10026SOL     OW30976   0.007   0.425   4.111
10026SOL    HW130977   0.043   0.401   4.201
10026SOL    HW230978   0.083   0.431   4.046
10027SOL     OW30979   5.302   2.504   5.887
10027SOL    HW130980   5.276   2.441   5.813
10027SOL    HW230981   5.393   2.481   5.920
10028SOL     OW30982   1.948   0.462   1.432
10028SOL    HW130983   1.895   0.413   1.363
10028SOL    HW230984   1.887   0.522   1.484
10029SOL     OW30985   4.790   1.489   4.153
10029SOL    HW130986   4.839   1.500   4.067
10029SOL    HW230987   4.801   1.395   4.187
10030SOL     OW30988   1.269   0.631   2.957
10030SOL    HW130989   1.306   0.678   3.037
10030SOL    HW230990   1.200   0.688   2.912
10031SOL     OW30991   6.673   4.633   3.920
10031SOL    HW130992   6.587   4.583   3.930
10031SOL    HW230993   6.728   4.622   4.003
10032SOL     OW30994   3.057   1.113   4.938
10032SOL    HW130995   3.131   1.116   4.870
10032SOL    HW230996   3.041   1.205   4.974
10033SOL     OW30997   5.395   3.205   4.652
10033SOL    HW130998   5.494   3.216   4.657
10033SOL    HW230999   5.372   3.108   4.647
10034SOL     OW31000   4.459   0.380   6.053
10034SOL    HW131001   4.444   0.387   6.151
10034SOL    HW231002   4.517   0.300   6.034
10035SOL     OW31003   0.012   6.498   3.659
10035SOL    HW131004   0.050   6.496   3.566
10035SOL    HW231005   0.025   6.589   3.699
10036SOL     OW31006   6.866   0.342   0.178
10036SOL    HW131007   6.823   0.344   0.269
10036SOL    HW231008   6.821   0.409   0.119
10037SOL     OW31009   6.925   0.097   1.080
10037SOL    HW131010   6.979   0.079   1.163
10037SOL    HW231011   6.971   0.055   1.001
10038SOL     OW31012   6.398   0.475   0.743
10038SOL    HW131013   6.456   0.398   0.716
10038SOL    HW231014   6.447   0.532   0.809
10039SOL     OW31015   3.697   0.716   2.919
10039SOL    HW131016   3.765   0.757   2.858
10039SOL    HW231017   3.741   0.690   3.005
10040SOL     OW31018   0.406   2.460   0.791
10040SOL    HW131019   0.416   2.505   0.702
10040SOL    HW231020   0.475   2.495   0.854
10041SOL     OW31021   1.335   6.099   0.627
10041SOL    HW131022   1.333   6.116   0.726
10041SOL    HW231023   1.408   6.034   0.606
10042SOL     OW31024   6.364   2.330   3.301
10042SOL    HW131025   6.336   2.412   3.252
10042SOL    HW231026   6.340   2.249   3.246
10043SOL     OW31027   1.093   3.333   4.982
10043SOL    HW131028   1.004   3.376   4.998
10043SOL    HW231029   1.151   3.397   4.931
10044SOL     OW31030   4.165   2.070   6.063
10044SOL    HW131031   4.082   2.065   6.119
10044SOL    HW231032   4.239   2.020   6.108
10045SOL     OW31033   2.494   0.782   0.754
10045SOL    HW131034   2.491   0.701   0.812
10045SOL    HW231035   2.440   0.765   0.671
10046SOL     OW31036   1.086   5.240   1.254
10046SOL    HW131037   1.096   5.293   1.170
10046SOL    HW231038   1.087   5.302   1.333
10047SOL     OW31039   1.257   3.492   0.493
10047SOL    HW131040   1.168   3.529   0.468
10047SOL    HW231041   1.319   3.496   0.415
10048SOL     OW31042   5.839   5.042   2.138
10048SOL    HW131043   5.872   4.974   2.203
10048SOL    HW231044   5.784   5.110   2.187
10049SOL     OW31045   5.757   1.562   4.927
10049SOL    HW131046   5.657   1.561   4.930
10049SOL    HW231047   5.787   1.591   4.836
10050SOL     OW31048   0.007   2.974   5.725
10050SOL    HW131049   0.106   2.987   5.723
10050SOL    HW231050   6.987   3.036   5.660
10051SOL     OW31051   2.020   1.398   4.447
10051SOL    HW131052   2.062   1.356   4.367
10051SOL    HW231053   2.088   1.408   4.519
10052SOL     OW31054   1.252   0.447   3.646
10052SOL    HW131055   1.205   0.392   3.715
10052SOL    HW231056   1.349   0.454   3.670
10053SOL     OW31057   5.974   5.164   3.012
10053SOL    HW131058   5.963   5.123   3.102
10053SOL    HW231059   6.015   5.255   3.021
10054SOL     OW31060   6.959   4.177   4.140
10054SOL    HW131061   6.977   4.144   4.048
10054SOL    HW231062   6.861   4.192   4.152
10055SOL     OW31063   1.484   2.129   6.429
10055SOL    HW131064   1.524   2.202   6.484
10055SOL    HW231065   1.536   2.120   6.343
10056SOL     OW31066   6.077   2.294   4.359
10056SOL    HW131067   6.117   2.217   4.409
10056SOL    HW231068   5.987   2.315   4.398
10057SOL     OW31069   5.376   4.874   5.902
10057SOL    HW131070   5.453   4.834   5.952
10057SOL    HW231071   5.297   4.884   5.963
10058SOL     OW31072   0.131   4.316   4.968
10058SOL    HW131073   0.167   4.233   4.926
10058SOL    HW231074   0.085   4.371   4.899
10059SOL     OW31075   5.452   6.767   6.430
10059SOL    HW131076   5.490   6.765   6.523
10059SOL    HW231077   5.366   6.717   6.429
10060SOL     OW31078   3.016   1.504   1.906
10060SOL    HW131079   3.057   1.580   1.856
10060SOL    HW231080   3.070   1.421   1.892
10061SOL     OW31081   2.984   0.045   2.350
10061SOL    HW131082   3.005   6.978   2.313
10061SOL    HW231083   2.887   0.049   2.378
10062SOL     OW31084   0.222   6.914   4.935
10062SOL    HW131085   0.170   6.917   5.020
10062SOL    HW231086   0.319   6.920   4.955
10063SOL     OW31087   2.831   2.327   4.412
10063SOL    HW131088   2.752   2.266   4.407
10063SOL    HW231089   2.857   2.340   4.508
10064SOL     OW31090   2.804   0.403   2.120
10064SOL    HW131091   2.750   0.487   2.115
10064SOL    HW231092   2.900   0.424   2.104
10065SOL     OW31093   0.251   1.982   1.499
10065SOL    HW131094   0.166   1.939   1.468
10065SOL    HW231095   0.276   2.055   1.435
10066SOL     OW31096   6.622   4.971   3.511
10066SOL    HW131097   6.719   4.976   3.488
10066SOL    HW231098   6.611   4.930   3.602
10067SOL     OW31099   6.955   3.587   5.075
10067SOL    HW131100   6.925   3.545   5.161
10067SOL    HW231101   6.892   3.561   5.002
10068SOL     OW31102   1.603   2.702   2.363
10068SOL    HW131103   1.692   2.657   2.363
10068SOL    HW231104   1.598   2.768   2.288
10069SOL     OW31105   3.201   5.027   1.331
10069SOL    HW131106   3.228   4.932   1.318
10069SOL    HW231107   3.111   5.043   1.289
10070SOL     OW31108   5.421   0.329   0.730
10070SOL    HW131109   5.403   0.343   0.633
10070SOL    HW231110   5.433   0.418   0.774
10071SOL     OW31111   5.281   1.100   5.570
10071SOL    HW131112   5.332   1.034   5.515
10071SOL    HW231113   5.187   1.069   5.581
10072SOL     OW31114   6.280   2.979   2.048
10072SOL    HW131115   6.219   2.919   1.996
10072SOL    HW231116   6.243   3.072   2.049
10073SOL     OW31117   5.644   5.334   5.032
10073SOL    HW131118   5.744   5.331   5.044
10073SOL    HW231119   5.602   5.265   5.091
10074SOL     OW31120   2.191   4.704   0.382
10074SOL    HW131121   2.149   4.615   0.362
10074SOL    HW231122   2.247   4.696   0.465
10075SOL     OW31123   1.335   2.786   1.631
10075SOL    HW131124   1.254   2.845   1.636
10075SOL    HW231125   1.389   2.810   1.551
10076SOL     OW31126   5.790   4.438   4.138
10076SOL    HW131127   5.873   4.423   4.192
10076SOL    HW231128   5.805   4.408   4.044
10077SOL     OW31129   4.410   3.758   6.518
10077SOL    HW131130   4.408   3.659   6.504
10077SOL    HW231131   4.413   3.777   6.616
10078SOL     OW31132   6.099   5.151   4.634
10078SOL    HW131133   6.035   5.204   4.691
10078SOL    HW231134   6.171   5.114   4.691
10079SOL     OW31135   5.400   4.425   3.568
10079SOL    HW131136   5.429   4.393   3.658
10079SOL    HW231137   5.331   4.497   3.578
10080SOL     OW31138   4.863   1.914   5.499
10080SOL    HW131139   4.948   1.955   5.532
10080SOL    HW231140   4.871   1.894   5.401
10081SOL     OW31141   1.222   4.796   6.914
10081SOL    HW131142   1.319   4.812   6.896
10081SOL    HW231143   1.212   4.751   7.003
10082SOL     OW31144   1.464   4.655   1.089
10082SOL    HW131145   1.410   4.739   1.100
10082SOL    HW231146   1.513   4.635   1.174
10083SOL     OW31147   2.758   5.758   2.224
10083SOL    HW131148   2.844   5.712   2.200
10083SOL    HW231149   2.761   5.785   2.321
10084SOL     OW31150   1.527   2.783   4.279
10084SOL    HW131151   1.562   2.835   4.201
10084SOL    HW231152   1.519   2.686   4.254
10085SOL     OW31153   4.772   0.018   1.801
10085SOL    HW131154   4.841   0.004   1.872
10085SOL    HW231155   4.696   6.978   1.815
10086SOL     OW31156   4.336   6.625   2.980
10086SOL    HW131157   4.380   6.704   3.023
10086SOL    HW231158   4.279   6.578   3.047
10087SOL     OW31159   1.717   6.584   5.084
10087SOL    HW131160   1.721   6.485   5.077
10087SOL    HW231161   1.708   6.610   5.180
10088SOL     OW31162   6.431   2.691   1.237
10088SOL    HW131163   6.386   2.611   1.198
10088SOL    HW231164   6.370   2.734   1.304
10089SOL     OW31165   4.304   0.241   2.111
10089SOL    HW131166   4.324   0.182   2.190
10089SOL    HW231167   4.390   0.271   2.070
10090SOL     OW31168   1.754   6.099   2.715
10090SOL    HW131169   1.666   6.105   2.761
10090SOL    HW231170   1.776   6.187   2.672
10091SOL     OW31171   5.400   5.080   4.512
10091SOL    HW131172   5.356   5.047   4.428
10091SOL    HW231173   5.472   5.016   4.538
10092SOL     OW31174   0.604   1.540   2.979
10092SOL    HW131175   0.686   1.578   2.938
10092SOL    HW231176   0.621   1.445   3.008
10093SOL     OW31177   4.289   3.933   6.355
10093SOL    HW131178   4.336   3.862   6.407
10093SOL    HW231179   4.333   3.943   6.265
10094SOL     OW31180   3.689   2.205   0.558
10094SOL    HW131181   3.643   2.124   0.523
10094SOL    HW231182   3.785   2.204   0.530
10095SOL     OW31183   4.064   3.618   5.374
10095SOL    HW131184   4.024   3.623   5.283
10095SOL    HW231185   4.008   3.671   5.438
10096SOL     OW31186   6.649   3.564   2.032
10096SOL    HW131187   6.597   3.601   2.109
10096SOL    HW231188   6.650   3.631   1.958
10097SOL     OW31189   0.922   1.530   1.024
10097SOL    HW131190   1.011   1.533   1.070
10097SOL    HW231191   0.896   1.434   1.010
10098SOL     OW31192   3.269   6.115   4.811
10098SOL    HW131193   3.180   6.073   4.793
10098SOL    HW231194   3.263   6.171   4.893
10099SOL     OW31195   0.177   5.168   3.514
10099SOL    HW131196   0.205   5.124   3.429
10099SOL    HW231197   0.086   5.135   3.540
10100SOL     OW31198   4.908   4.773   4.043
10100SOL    HW131199   4.973   4.822   3.985
10100SOL    HW231200   4.950   4.689   4.077
10101SOL     OW31201   6.846   2.637   0.256
10101SOL    HW131202   6.773   2.620   0.189
10101SOL    HW231203   6.812   2.615   0.348
10102SOL     OW31204   6.381   4.903   3.424
10102SOL    HW131205   6.471   4.943   3.442
10102SOL    HW231206   6.371   4.818   3.476
10103SOL     OW31207   0.266   6.693   6.672
10103SOL    HW131208   0.310   6.606   6.651
10103SOL    HW231209   0.290   6.720   6.766
10104SOL     OW31210   2.990   0.565   4.734
10104SOL    HW131211   3.031   0.591   4.821
10104SOL    HW231212   2.900   0.608   4.725
10105SOL     OW31213   2.971   1.484   3.525
10105SOL    HW131214   2.994   1.581   3.522
10105SOL    HW231215   3.040   1.435   3.579
10106SOL     OW31216   5.822   4.190   1.730
10106SOL    HW131217   5.913   4.219   1.759
10106SOL    HW231218   5.825   4.093   1.705
10107SOL     OW31219   5.332   5.616   6.143
10107SOL    HW131220   5.425   5.645   6.167
10107SOL    HW231221   5.285   5.691   6.096
10108SOL     OW31222   2.539   2.561   5.076
10108SOL    HW131223   2.563   2.658   5.067
10108SOL    HW231224   2.478   2.549   5.155
10109SOL     OW31225   1.294   3.319   1.057
10109SOL    HW131226   1.347   3.281   0.981
10109SOL    HW231227   1.356   3.357   1.126
10110SOL     OW31228   6.550   5.938   1.729
10110SOL    HW131229   6.513   5.914   1.639
10110SOL    HW231230   6.549   6.038   1.740
10111SOL     OW31231   6.183   2.690   1.699
10111SOL    HW131232   6.158   2.614   1.639
10111SOL    HW231233   6.282   2.695   1.708
10112SOL     OW31234   6.843   2.730   4.032
10112SOL    HW131235   6.905   2.784   3.976
10112SOL    HW231236   6.851   2.634   4.008
10113SOL     OW31237   6.562   6.239   5.640
10113SOL    HW131238   6.608   6.151   5.637
10113SOL    HW231239   6.541   6.263   5.735
10114SOL     OW31240   5.153   3.457   1.982
10114SOL    HW131241   5.186   3.551   1.976
10114SOL    HW231242   5.208   3.407   2.049
10115SOL     OW31243   3.688   2.968   6.375
10115SOL    HW131244   3.694   2.991   6.278
10115SOL    HW231245   3.592   2.957   6.400
10116SOL     OW31246   0.465   0.199   6.250
10116SOL    HW131247   0.521   0.218   6.169
10116SOL    HW231248   0.435   0.285   6.290
10117SOL     OW31249   6.907   4.557   1.289
10117SOL    HW131250   6.927   4.493   1.362
10117SOL    HW231251   6.901   4.508   1.202
10118SOL     OW31252   4.057   4.782   3.757
10118SOL    HW131253   4.013   4.704   3.802
10118SOL    HW231254   4.101   4.840   3.826
10119SOL     OW31255   5.981   6.126   6.880
10119SOL    HW131256   6.068   6.094   6.843
10119SOL    HW231257   5.930   6.174   6.808
10120SOL     OW31258   2.450   2.354   2.531
10120SOL    HW131259   2.411   2.279   2.585
10120SOL    HW231260   2.548   2.341   2.520
10121SOL     OW31261   6.583   5.583   1.613
10121SOL    HW131262   6.583   5.647   1.536
10121SOL    HW231263   6.496   5.589   1.662
10122SOL     OW31264   1.898   0.254   3.183
10122SOL    HW131265   1.867   0.316   3.112
10122SOL    HW231266   1.989   0.282   3.214
10123SOL     OW31267   6.032   6.234   6.162
10123SOL    HW131268   6.017   6.236   6.261
10123SOL    HW231269   6.130   6.221   6.144
10124SOL     OW31270   2.514   5.236   2.355
10124SOL    HW131271   2.562   5.254   2.441
10124SOL    HW231272   2.574   5.259   2.278
10125SOL     OW31273   1.317   1.089   5.044
10125SOL    HW131274   1.266   1.075   4.959
10125SOL    HW231275   1.404   1.039   5.039
10126SOL     OW31276   6.745   6.055   5.054
10126SOL    HW131277   6.796   5.972   5.077
10126SOL    HW231278   6.768   6.128   5.117
10127SOL     OW31279   2.063   6.903   5.775
10127SOL    HW131280   2.001   6.916   5.852
10127SOL    HW231281   2.064   6.986   5.719
10128SOL     OW31282   2.633   1.841   6.902
10128SOL    HW131283   2.631   1.882   6.994
10128SOL    HW231284   2.659   1.910   6.835
10129SOL     OW31285   6.777   2.035   4.927
10129SOL    HW131286   6.714   2.110   4.948
10129SOL    HW231287   6.794   2.031   4.829
10130SOL     OW31288   1.457   2.337   3.226
10130SOL    HW131289   1.448   2.436   3.243
10130SOL    HW231290   1.543   2.319   3.178
10131SOL     OW31291   1.830   0.343   5.195
10131SOL    HW131292   1.825   0.383   5.286
10131SOL    HW231293   1.923   0.311   5.177
10132SOL     OW31294   5.739   0.640   2.699
10132SOL    HW131295   5.718   0.647   2.796
10132SOL    HW231296   5.698   0.716   2.650
10133SOL     OW31297   4.468   5.723   1.303
10133SOL    HW131298   4.516   5.767   1.227
10133SOL    HW231299   4.379   5.690   1.272
10134SOL     OW31300   6.985   6.436   3.362
10134SOL    HW131301   6.896   6.426   3.408
10134SOL    HW231302   7.022   6.345   3.344
10135SOL     OW31303   6.568   6.638   3.578
10135SOL    HW131304   6.606   6.669   3.665
10135SOL    HW231305   6.468   6.638   3.584
10136SOL     OW31306   4.421   0.938   3.616
10136SOL    HW131307   4.478   1.015   3.588
10136SOL    HW231308   4.468   0.885   3.686
10137SOL     OW31309   7.012   5.753   4.325
10137SOL    HW131310   6.927   5.806   4.324
10137SOL    HW231311   7.017   5.695   4.244
10138SOL     OW31312   0.272   2.394   1.510
10138SOL    HW131313   0.326   2.379   1.427
10138SOL    HW231314   0.328   2.370   1.590
10139SOL     OW31315   4.252   2.800   0.146
10139SOL    HW131316   4.318   2.865   0.183
10139SOL    HW231317   4.233   2.822   0.050
10140SOL     OW31318   6.580   5.744   5.407
10140SOL    HW131319   6.525   5.821   5.440
10140SOL    HW231320   6.677   5.767   5.416
10141SOL     OW31321   1.888   2.143   4.849
10141SOL    HW131322   1.808   2.198   4.872
10141SOL    HW231323   1.860   2.050   4.828
10142SOL     OW31324   4.894   5.807   2.213
10142SOL    HW131325   4.979   5.753   2.212
10142SOL    HW231326   4.817   5.748   2.188
10143SOL     OW31327   5.588   3.278   6.173
10143SOL    HW131328   5.508   3.331   6.147
10143SOL    HW231329   5.593   3.271   6.273
10144SOL     OW31330   3.442   0.444   0.783
10144SOL    HW131331   3.486   0.418   0.697
10144SOL    HW231332   3.485   0.527   0.818
10145SOL     OW31333   6.385   0.062   5.159
10145SOL    HW131334   6.472   0.109   5.145
10145SOL    HW231335   6.314   0.106   5.104
10146SOL     OW31336   1.665   2.950   5.630
10146SOL    HW131337   1.614   2.868   5.605
10146SOL    HW231338   1.735   2.926   5.697
10147SOL     OW31339   3.773   5.325   0.468
10147SOL    HW131340   3.679   5.306   0.441
10147SOL    HW231341   3.775   5.350   0.565
10148SOL     OW31342   0.382   5.147   6.683
10148SOL    HW131343   0.328   5.193   6.754
10148SOL    HW231344   0.320   5.102   6.618
10149SOL     OW31345   3.856   3.116   2.446
10149SOL    HW131346   3.889   3.090   2.355
10149SOL    HW231347   3.809   3.040   2.489
10150SOL     OW31348   5.009   4.110   1.696
10150SOL    HW131349   4.951   4.133   1.774
10150SOL    HW231350   5.002   4.182   1.627
10151SOL     OW31351   7.018   1.225   6.054
10151SOL    HW131352   0.052   1.304   6.031
10151SOL    HW231353   6.979   1.186   5.970
10152SOL     OW31354   4.032   6.459   3.525
10152SOL    HW131355   4.050   6.552   3.494
10152SOL    HW231356   4.113   6.402   3.511
10153SOL     OW31357   4.695   3.506   1.765
10153SOL    HW131358   4.772   3.464   1.813
10153SOL    HW231359   4.695   3.605   1.783
10154SOL     OW31360   4.107   5.233   5.309
10154SOL    HW131361   4.038   5.257   5.240
10154SOL    HW231362   4.061   5.207   5.394
10155SOL     OW31363   4.579   2.081   4.353
10155SOL    HW131364   4.507   2.028   4.398
10155SOL    HW231365   4.579   2.174   4.388
10156SOL     OW31366   3.905   2.404   6.049
10156SOL    HW131367   3.946   2.328   5.998
10156SOL    HW231368   3.850   2.368   6.124
10157SOL     OW31369   0.941   4.674   0.752
10157SOL    HW131370   0.877   4.745   0.720
10157SOL    HW231371   0.891   4.588   0.765
10158SOL     OW31372   5.391   5.111   0.275
10158SOL    HW131373   5.336   5.190   0.248
10158SOL    HW231374   5.447   5.135   0.354
10159SOL     OW31375   3.603   2.867   1.987
10159SOL    HW131376   3.626   2.794   1.923
10159SOL    HW231377   3.671   2.870   2.061
10160SOL     OW31378   0.378   4.157   2.586
10160SOL    HW131379   0.427   4.233   2.542
10160SOL    HW231380   0.342   4.096   2.515
10161SOL     OW31381   5.847   3.320   6.123
10161SOL    HW131382   5.891   3.404   6.152
10161SOL    HW231383   5.748   3.328   6.135
10162SOL     OW31384   1.302   2.199   2.600
10162SOL    HW131385   1.283   2.234   2.509
10162SOL    HW231386   1.256   2.256   2.668
10163SOL     OW31387   3.181   5.099   4.812
10163SOL    HW131388   3.126   5.182   4.818
10163SOL    HW231389   3.135   5.025   4.863
10164SOL     OW31390   0.263   1.185   4.004
10164SOL    HW131391   0.273   1.145   3.913
10164SOL    HW231392   0.258   1.111   4.072
10165SOL     OW31393   1.625   3.262   3.826
10165SOL    HW131394   1.717   3.247   3.862
10165SOL    HW231395   1.615   3.357   3.798
10166SOL     OW31396   3.300   5.977   3.291
10166SOL    HW131397   3.324   5.884   3.264
10166SOL    HW231398   3.268   6.028   3.211
10167SOL     OW31399   3.457   2.139   6.488
10167SOL    HW131400   3.533   2.121   6.550
10167SOL    HW231401   3.475   2.222   6.436
10168SOL     OW31402   0.687   1.131   5.989
10168SOL    HW131403   0.745   1.060   5.949
10168SOL    HW231404   0.636   1.093   6.067
10169SOL     OW31405   4.518   5.379   3.283
10169SOL    HW131406   4.448   5.377   3.212
10169SOL    HW231407   4.567   5.466   3.281
10170SOL     OW31408   4.822   7.006   0.674
10170SOL    HW131409   4.884   0.024   0.742
10170SOL    HW231410   4.871   6.993   0.588
10171SOL     OW31411   2.095   4.199   3.874
10171SOL    HW131412   2.164   4.167   3.938
10171SOL    HW231413   2.093   4.140   3.794
10172SOL     OW31414   0.291   0.742   2.533
10172SOL    HW131415   0.383   0.703   2.541
10172SOL    HW231416   0.298   0.841   2.528
10173SOL     OW31417   3.968   3.569   5.135
10173SOL    HW131418   3.896   3.629   5.100
10173SOL    HW231419   3.942   3.474   5.120
10174SOL     OW31420   5.028   4.347   1.546
10174SOL    HW131421   5.058   4.440   1.526
10174SOL    HW231422   4.930   4.347   1.566
10175SOL     OW31423   6.462   6.865   4.019
10175SOL    HW131424   6.456   6.854   3.920
10175SOL    HW231425   6.557   6.882   4.045
10176SOL     OW31426   6.982   1.080   4.672
10176SOL    HW131427   6.974   1.177   4.646
10176SOL    HW231428   7.004   1.026   4.591
10177SOL     OW31429   2.954   1.572   3.952
10177SOL    HW131430   3.003   1.640   3.897
10177SOL    HW231431   2.929   1.494   3.895
10178SOL     OW31432   0.585   1.249   1.689
10178SOL    HW131433   0.599   1.274   1.593
10178SOL    HW231434   0.506   1.298   1.725
10179SOL     OW31435   0.052   5.843   0.782
10179SOL    HW131436   0.137   5.823   0.831
10179SOL    HW231437   0.011   5.757   0.750
10180SOL     OW31438   2.900   6.666   6.032
10180SOL    HW131439   2.904   6.699   6.126
10180SOL    HW231440   2.957   6.723   5.973
10181SOL     OW31441   0.248   3.465   2.278
10181SOL    HW131442   0.290   3.545   2.321
10181SOL    HW231443   0.253   3.387   2.341
10182SOL     OW31444   3.811   0.421   0.643
10182SOL    HW131445   3.786   0.514   0.669
10182SOL    HW231446   3.901   0.421   0.599
10183SOL     OW31447   4.006   6.162   5.748
10183SOL    HW131448   3.981   6.184   5.843
10183SOL    HW231449   3.927   6.178   5.689
10184SOL     OW31450   5.439   3.003   4.912
10184SOL    HW131451   5.528   3.018   4.953
10184SOL    HW231452   5.394   2.925   4.956
10185SOL     OW31453   2.583   4.641   2.582
10185SOL    HW131454   2.562   4.638   2.680
10185SOL    HW231455   2.620   4.731   2.559
10186SOL     OW31456   2.951   2.892   0.879
10186SOL    HW131457   2.914   2.827   0.946
10186SOL    HW231458   3.009   2.844   0.813
10187SOL     OW31459   2.389   3.873   5.534
10187SOL    HW131460   2.305   3.873   5.588
10187SOL    HW231461   2.374   3.822   5.449
10188SOL     OW31462   2.040   6.552   6.995
10188SOL    HW131463   1.986   6.543   0.056
10188SOL    HW231464   2.009   6.633   6.944
10189SOL     OW31465   2.214   1.711   5.055
10189SOL    HW131466   2.219   1.708   5.155
10189SOL    HW231467   2.291   1.764   5.019
10190SOL     OW31468   3.867   3.742   0.938
10190SOL    HW131469   3.895   3.777   0.849
10190SOL    HW231470   3.924   3.784   1.009
10191SOL     OW31471   5.566   0.578   0.192
10191SOL    HW131472   5.580   0.677   0.186
10191SOL    HW231473   5.468   0.558   0.200
10192SOL     OW31474   1.983   1.155   3.968
10192SOL    HW131475   1.964   1.233   3.908
10192SOL    HW231476   1.896   1.113   3.995
10193SOL     OW31477   3.318   3.806   3.842
10193SOL    HW131478   3.280   3.829   3.752
10193SOL    HW231479   3.271   3.726   3.879
10194SOL     OW31480   3.057   5.949   2.905
10194SOL    HW131481   3.079   5.996   2.990
10194SOL    HW231482   3.099   5.997   2.828
10195SOL     OW31483   5.187   0.647   2.886
10195SOL    HW131484   5.209   0.567   2.942
10195SOL    HW231485   5.183   0.728   2.945
10196SOL     OW31486   5.069   4.259   4.342
10196SOL    HW131487   5.047   4.232   4.248
10196SOL    HW231488   4.994   4.315   4.379
10197SOL     OW31489   4.903   1.748   2.831
10197SOL    HW131490   4.874   1.699   2.914
10197SOL    HW231491   4.842   1.724   2.755
10198SOL     OW31492   3.371   1.415   1.689
10198SOL    HW131493   3.442   1.392   1.756
10198SOL    HW231494   3.298   1.347   1.693
10199SOL     OW31495   0.795   1.889   6.912
10199SOL    HW131496   0.778   1.963   6.847
10199SOL    HW231497   0.770   1.802   6.871
10200SOL     OW31498   5.854   6.318   4.331
10200SOL    HW131499   5.852   6.218   4.336
10200SOL    HW231500   5.760   6.353   4.330
10201SOL     OW31501   1.526   4.703   2.824
10201SOL    HW131502   1.434   4.744   2.821
10201SOL    HW231503   1.522   4.614   2.868
10202SOL     OW31504   0.768   1.894   3.420
10202SOL    HW131505   0.841   1.869   3.356
10202SOL    HW231506   0.770   1.993   3.437
10203SOL     OW31507   0.272   2.232   0.837
10203SOL    HW131508   0.338   2.307   0.830
10203SOL    HW231509   0.310   2.150   0.794
10204SOL     OW31510   2.546   6.050   4.237
10204SOL    HW131511   2.549   6.022   4.141
10204SOL    HW231512   2.548   5.969   4.296
10205SOL     OW31513   3.584   0.303   1.366
10205SOL    HW131514   3.638   0.331   1.287
10205SOL    HW231515   3.571   0.382   1.426
10206SOL     OW31516   5.540   6.781   6.691
10206SOL    HW131517   5.630   6.742   6.671
10206SOL    HW231518   5.505   6.742   6.777
10207SOL     OW31519   3.995   1.154   2.663
10207SOL    HW131520   4.016   1.157   2.565
10207SOL    HW231521   4.025   1.240   2.706
10208SOL     OW31522   6.828   3.284   5.932
10208SOL    HW131523   6.781   3.209   5.979
10208SOL    HW231524   6.895   3.246   5.868
10209SOL     OW31525   3.887   6.215   6.888
10209SOL    HW131526   3.904   6.192   6.792
10209SOL    HW231527   3.835   6.142   6.931
10210SOL     OW31528   5.515   5.262   0.486
10210SOL    HW131529   5.496   5.258   0.584
10210SOL    HW231530   5.613   5.249   0.470
10211SOL     OW31531   3.736   5.822   5.639
10211SOL    HW131532   3.651   5.840   5.588
10211SOL    HW231533   3.748   5.724   5.650
10212SOL     OW31534   6.049   6.483   6.056
10212SOL    HW131535   6.034   6.385   6.042
10212SOL    HW231536   6.147   6.499   6.074
10213SOL     OW31537   4.317   0.640   4.257
10213SOL    HW131538   4.279   0.647   4.349
10213SOL    HW231539   4.417   0.633   4.263
10214SOL     OW31540   0.820   0.531   0.284
10214SOL    HW131541   0.781   0.477   0.359
10214SOL    HW231542   0.786   0.625   0.289
10215SOL     OW31543   4.310   2.238   0.294
10215SOL    HW131544   4.215   2.224   0.322
10215SOL    HW231545   4.371   2.211   0.369
10216SOL     OW31546   5.073   0.222   3.004
10216SOL    HW131547   5.139   0.297   3.015
10216SOL    HW231548   5.122   0.136   2.991
10217SOL     OW31549   3.597   2.168   5.748
10217SOL    HW131550   3.544   2.136   5.669
10217SOL    HW231551   3.548   2.242   5.793
10218SOL     OW31552   3.520   1.629   6.635
10218SOL    HW131553   3.617   1.652   6.645
10218SOL    HW231554   3.490   1.575   6.713
10219SOL     OW31555   1.427   5.306   0.067
10219SOL    HW131556   1.514   5.298   0.115
10219SOL    HW231557   1.370   5.374   0.113
10220SOL     OW31558   4.093   2.269   0.052
10220SOL    HW131559   4.155   2.348   0.049
10220SOL    HW231560   4.023   2.285   0.121
10221SOL     OW31561   2.540   0.820   4.098
10221SOL    HW131562   2.507   0.872   4.177
10221SOL    HW231563   2.625   0.773   4.123
10222SOL     OW31564   1.883   4.505   5.451
10222SOL    HW131565   1.900   4.585   5.510
10222SOL    HW231566   1.942   4.429   5.481
10223SOL     OW31567   0.980   4.497   6.478
10223SOL    HW131568   0.955   4.557   6.555
10223SOL    HW231569   0.968   4.401   6.505
10224SOL     OW31570   2.969   6.829   4.875
10224SOL    HW131571   2.921   6.768   4.812
10224SOL    HW231572   3.054   6.861   4.833
10225SOL     OW31573   4.918   6.090   4.854
10225SOL    HW131574   4.990   6.022   4.838
10225SOL    HW231575   4.852   6.053   4.920
10226SOL     OW31576   6.471   2.803   6.143
10226SOL    HW131577   6.433   2.824   6.233
10226SOL    HW231578   6.416   2.848   6.073
10227SOL     OW31579   4.693   4.996   5.707
10227SOL    HW131580   4.597   4.967   5.703
10227SOL    HW231581   4.720   5.032   5.618
10228SOL     OW31582   0.948   3.259   1.864
10228SOL    HW131583   0.937   3.171   1.910
10228SOL    HW231584   0.956   3.246   1.766
10229SOL     OW31585   2.422   0.449   1.430
10229SOL    HW131586   2.408   0.548   1.422
10229SOL    HW231587   2.464   0.414   1.346
10230SOL     OW31588   6.301   6.661   3.329
10230SOL    HW131589   6.384   6.694   3.283
10230SOL    HW231590   6.224   6.720   3.305
10231SOL     OW31591   4.740   6.734   4.407
10231SOL    HW131592   4.819   6.779   4.447
10231SOL    HW231593   4.750   6.635   4.416
10232SOL     OW31594   3.750   2.111   3.620
10232SOL    HW131595   3.717   2.039   3.559
10232SOL    HW231596   3.673   2.166   3.653
10233SOL     OW31597   4.824   0.294   5.269
10233SOL    HW131598   4.756   0.361   5.298
10233SOL    HW231599   4.871   0.328   5.188
10234SOL     OW31600   4.472   5.327   1.507
10234SOL    HW131601   4.407   5.265   1.464
10234SOL    HW231602   4.498   5.292   1.597
10235SOL     OW31603   5.124   0.940   0.447
10235SOL    HW131604   5.100   0.973   0.356
10235SOL    HW231605   5.212   0.978   0.475
10236SOL     OW31606   1.604   5.727   1.380
10236SOL    HW131607   1.629   5.631   1.385
10236SOL    HW231608   1.535   5.748   1.450
10237SOL     OW31609   5.660   2.331   3.276
10237SOL    HW131610   5.755   2.310   3.298
10237SOL    HW231611   5.657   2.409   3.213
10238SOL     OW31612   4.223   5.964   5.250
10238SOL    HW131613   4.172   5.975   5.336
10238SOL    HW231614   4.160   5.973   5.173
10239SOL     OW31615   5.932   3.306   4.822
10239SOL    HW131616   5.883   3.288   4.907
10239SOL    HW231617   5.885   3.260   4.747
10240SOL     OW31618   5.052   3.646   3.452
10240SOL    HW131619   5.128   3.645   3.387
10240SOL    HW231620   5.002   3.733   3.445
10241SOL     OW31621   1.816   1.917   3.230
10241SOL    HW131622   1.910   1.916   3.196
10241SOL    HW231623   1.753   1.940   3.156
10242SOL     OW31624   1.137   5.247   5.808
10242SOL    HW131625   1.202   5.171   5.812
10242SOL    HW231626   1.140   5.298   5.895
10243SOL     OW31627   0.711   6.598   3.102
10243SOL    HW131628   0.798   6.597   3.054
10243SOL    HW231629   0.668   6.688   3.094
10244SOL     OW31630   1.657   5.683   0.238
10244SOL    HW131631   1.620   5.620   0.307
10244SOL    HW231632   1.732   5.638   0.190
10245SOL     OW31633   2.338   2.564   0.508
10245SOL    HW131634   2.402   2.490   0.528
10245SOL    HW231635   2.351   2.595   0.414
10246SOL     OW31636   2.906   3.464   4.542
10246SOL    HW131637   3.005   3.466   4.561
10246SOL    HW231638   2.856   3.483   4.626
10247SOL     OW31639   0.969   5.859   5.780
10247SOL    HW131640   1.021   5.803   5.844
10247SOL    HW231641   0.938   5.803   5.703
10248SOL     OW31642   5.886   0.562   3.876
10248SOL    HW131643   5.861   0.588   3.969
10248SOL    HW231644   5.868   0.638   3.814
10249SOL     OW31645   4.791   0.794   6.188
10249SOL    HW131646   4.822   0.866   6.250
10249SOL    HW231647   4.842   0.799   6.102
10250SOL     OW31648   5.021   6.702   0.675
10250SOL    HW131649   4.960   6.628   0.704
10250SOL    HW231650   5.051   6.686   0.581
10251SOL     OW31651   3.694   4.408   1.196
10251SOL    HW131652   3.604   4.446   1.215
10251SOL    HW231653   3.730   4.447   1.111
10252SOL     OW31654   0.332   4.300   1.048
10252SOL    HW131655   0.391   4.358   0.991
10252SOL    HW231656   0.363   4.205   1.043
10253SOL     OW31657   3.617   4.809   0.525
10253SOL    HW131658   3.603   4.712   0.547
10253SOL    HW231659   3.645   4.858   0.607
10254SOL     OW31660   2.194   1.461   4.630
10254SOL    HW131661   2.213   1.492   4.723
10254SOL    HW231662   2.259   1.503   4.567
10255SOL     OW31663   3.029   5.686   3.002
10255SOL    HW131664   3.026   5.777   2.960
10255SOL    HW231665   3.072   5.692   3.091
10256SOL     OW31666   6.006   6.785   0.219
10256SOL    HW131667   6.003   6.872   0.171
10256SOL    HW231668   5.948   6.718   0.171
10257SOL     OW31669   1.586   5.528   5.498
10257SOL    HW131670   1.663   5.483   5.453
10257SOL    HW231671   1.620   5.589   5.569
10258SOL     OW31672   3.997   0.774   3.061
10258SOL    HW131673   3.928   0.777   3.134
10258SOL    HW231674   4.079   0.823   3.090
10259SOL     OW31675   0.577   3.339   3.873
10259SOL    HW131676   0.618   3.418   3.919
10259SOL    HW231677   0.482   3.329   3.903
10260SOL     OW31678   0.061   5.664   2.390
10260SOL    HW131679   0.048   5.566   2.375
10260SOL    HW231680   0.073   5.710   2.302
10261SOL     OW31681   1.865   0.083   1.926
10261SOL    HW131682   1.949   0.029   1.929
10261SOL    HW231683   1.794   0.031   1.878
10262SOL     OW31684   1.346   6.395   3.979
10262SOL    HW131685   1.324   6.407   4.076
10262SOL    HW231686   1.262   6.402   3.925
10263SOL     OW31687   6.461   2.993   5.283
10263SOL    HW131688   6.524   2.924   5.318
10263SOL    HW231689   6.470   3.076   5.339
10264SOL     OW31690   0.577   6.841   0.166
10264SOL    HW131691   0.639   6.765   0.188
10264SOL    HW231692   0.628   6.916   0.126
10265SOL     OW31693   4.405   1.990   2.786
10265SOL    HW131694   4.428   1.893   2.797
10265SOL    HW231695   4.430   2.040   2.869
10266SOL     OW31696   4.029   4.006   6.836
10266SOL    HW131697   4.117   4.047   6.859
10266SOL    HW231698   3.959   4.078   6.833
10267SOL     OW31699   6.492   1.203   6.317
10267SOL    HW131700   6.428   1.258   6.370
10267SOL    HW231701   6.568   1.260   6.286
10268SOL     OW31702   6.681   3.771   1.101
10268SOL    HW131703   6.599   3.733   1.144
10268SOL    HW231704   6.700   3.861   1.140
10269SOL     OW31705   3.783   2.033   5.905
10269SOL    HW131706   3.752   2.022   6.000
10269SOL    HW231707   3.711   2.078   5.852
10270SOL     OW31708   3.054   6.135   2.017
10270SOL    HW131709   3.091   6.210   2.072
10270SOL    HW231710   3.116   6.115   1.942
10271SOL     OW31711   2.544   5.301   1.145
10271SOL    HW131712   2.521   5.225   1.205
10271SOL    HW231713   2.479   5.376   1.159
10272SOL     OW31714   1.669   1.943   4.256
10272SOL    HW131715   1.621   1.909   4.337
10272SOL    HW231716   1.623   1.911   4.173
10273SOL     OW31717   4.521   7.000   3.880
10273SOL    HW131718   4.524   6.992   3.979
10273SOL    HW231719   4.431   6.973   3.847
10274SOL     OW31720   2.711   4.599   6.570
10274SOL    HW131721   2.758   4.686   6.564
10274SOL    HW231722   2.716   4.564   6.663
10275SOL     OW31723   0.956   6.667   1.735
10275SOL    HW131724   0.940   6.705   1.826
10275SOL    HW231725   0.951   6.739   1.667
10276SOL     OW31726   1.141   6.450   6.975
10276SOL    HW131727   1.156   6.487   0.044
10276SOL    HW231728   1.230   6.431   6.932
10277SOL     OW31729   0.459   5.698   1.766
10277SOL    HW131730   0.437   5.792   1.793
10277SOL    HW231731   0.375   5.644   1.763
10278SOL     OW31732   6.660   0.120   5.236
10278SOL    HW131733   6.640   0.027   5.268
10278SOL    HW231734   6.672   0.180   5.315
10279SOL     OW31735   3.632   6.153   5.147
10279SOL    HW131736   3.674   6.109   5.068
10279SOL    HW231737   3.683   6.237   5.169
10280SOL     OW31738   3.712   2.720   0.013
10280SOL    HW131739   3.622   2.677   0.005
10280SOL    HW231740   3.709   2.789   0.086
10281SOL     OW31741   5.142   0.138   4.156
10281SOL    HW131742   5.166   0.073   4.229
10281SOL    HW231743   5.220   0.148   4.094
10282SOL     OW31744   1.308   2.932   4.362
10282SOL    HW131745   1.396   2.894   4.332
10282SOL    HW231746   1.323   2.996   4.438
10283SOL     OW31747   1.692   4.223   5.858
10283SOL    HW131748   1.617   4.284   5.832
10283SOL    HW231749   1.756   4.271   5.918
10284SOL     OW31750   5.024   3.464   6.911
10284SOL    HW131751   5.103   3.472   6.851
10284SOL    HW231752   4.940   3.462   6.857
10285SOL     OW31753   5.251   1.291   1.064
10285SOL    HW131754   5.233   1.299   1.162
10285SOL    HW231755   5.348   1.309   1.046
10286SOL     OW31756   4.443   0.753   3.850
10286SOL    HW131757   4.362   0.727   3.902
10286SOL    HW231758   4.523   0.703   3.885
10287SOL     OW31759   1.729   4.741   2.212
10287SOL    HW131760   1.706   4.838   2.214
10287SOL    HW231761   1.669   4.691   2.275
10288SOL     OW31762   4.415   6.389   4.410
10288SOL    HW131763   4.417   6.469   4.350
10288SOL    HW231764   4.443   6.416   4.502
10289SOL     OW31765   3.111   1.529   1.490
10289SOL    HW131766   3.024   1.579   1.492
10289SOL    HW231767   3.160   1.544   1.576
10290SOL     OW31768   3.146   3.054   2.588
10290SOL    HW131769   3.163   3.002   2.504
10290SOL    HW231770   3.204   3.018   2.661
10291SOL     OW31771   3.870   0.550   5.371
10291SOL    HW131772   3.893   0.632   5.320
10291SOL    HW231773   3.869   0.570   5.469
10292SOL     OW31774   0.595   2.295   4.627
10292SOL    HW131775   0.500   2.325   4.624
10292SOL    HW231776   0.600   2.204   4.668
10293SOL     OW31777   3.166   5.410   3.082
10293SOL    HW131778   3.226   5.335   3.109
10293SOL    HW231779   3.132   5.394   2.990
10294SOL     OW31780   6.474   1.456   3.322
10294SOL    HW131781   6.507   1.369   3.359
10294SOL    HW231782   6.443   1.442   3.228
10295SOL     OW31783   1.447   4.332   4.480
10295SOL    HW131784   1.528   4.360   4.427
10295SOL    HW231785   1.473   4.320   4.576
10296SOL     OW31786   6.792   3.067   1.764
10296SOL    HW131787   6.744   3.020   1.690
10296SOL    HW231788   6.887   3.085   1.737
10297SOL     OW31789   3.258   5.606   4.891
10297SOL    HW131790   3.334   5.664   4.919
10297SOL    HW231791   3.283   5.510   4.903
10298SOL     OW31792   5.837   3.350   3.177
10298SOL    HW131793   5.902   3.302   3.236
10298SOL    HW231794   5.746   3.347   3.218
10299SOL     OW31795   4.807   4.105   2.314
10299SOL    HW131796   4.777   4.031   2.374
10299SOL    HW231797   4.859   4.068   2.238
10300SOL     OW31798   0.705   5.575   1.782
10300SOL    HW131799   0.632   5.644   1.773
10300SOL    HW231800   0.665   5.484   1.780
10301SOL     OW31801   4.464   1.004   1.665
10301SOL    HW131802   4.487   1.061   1.585
10301SOL    HW231803   4.537   1.012   1.733
10302SOL     OW31804   2.318   4.189   4.042
10302SOL    HW131805   2.318   4.175   4.141
10302SOL    HW231806   2.350   4.281   4.021
10303SOL     OW31807   4.529   2.806   1.659
10303SOL    HW131808   4.591   2.815   1.737
10303SOL    HW231809   4.475   2.889   1.649
10304SOL     OW31810   6.303   6.450   3.508
10304SOL    HW131811   6.304   6.524   3.441
10304SOL    HW231812   6.277   6.487   3.598
10305SOL     OW31813   1.922   5.391   1.255
10305SOL    HW131814   1.953   5.376   1.349
10305SOL    HW231815   1.990   5.354   1.191
10306SOL     OW31816   3.936   4.086   1.118
10306SOL    HW131817   3.983   4.044   1.039
10306SOL    HW231818   3.986   4.167   1.148
10307SOL     OW31819   2.593   1.824   5.197
10307SOL    HW131820   2.671   1.880   5.225
10307SOL    HW231821   2.519   1.835   5.263
10308SOL     OW31822   2.765   5.454   3.727
10308SOL    HW131823   2.828   5.380   3.746
10308SOL    HW231824   2.695   5.423   3.662
10309SOL     OW31825   7.009   6.091   3.700
10309SOL    HW131826   6.971   6.019   3.643
10309SOL    HW231827   6.947   6.169   3.703
10310SOL     OW31828   3.513   2.933   4.706
10310SOL    HW131829   3.569   2.952   4.786
10310SOL    HW231830   3.568   2.885   4.637
10311SOL     OW31831   0.764   0.322   0.472
10311SOL    HW131832   0.696   0.269   0.523
10311SOL    HW231833   0.821   0.260   0.418
10312SOL     OW31834   2.511   4.734   0.914
10312SOL    HW131835   2.474   4.688   0.994
10312SOL    HW231836   2.507   4.833   0.927
10313SOL     OW31837   6.587   5.566   3.769
10313SOL    HW131838   6.538   5.636   3.718
10313SOL    HW231839   6.563   5.571   3.866
10314SOL     OW31840   6.452   5.505   5.460
10314SOL    HW131841   6.506   5.589   5.449
10314SOL    HW231842   6.444   5.484   5.558
10315SOL     OW31843   4.688   6.960   5.421
10315SOL    HW131844   4.765   6.900   5.403
10315SOL    HW231845   4.607   6.905   5.441
10316SOL     OW31846   0.261   3.791   3.082
10316SOL    HW131847   0.358   3.770   3.069
10316SOL    HW231848   0.241   3.881   3.045
10317SOL     OW31849   4.810   4.705   0.286
10317SOL    HW131850   4.823   4.768   0.210
10317SOL    HW231851   4.823   4.753   0.373
10318SOL     OW31852   6.121   5.563   2.823
10318SOL    HW131853   6.197   5.534   2.766
10318SOL    HW231854   6.129   5.661   2.842
10319SOL     OW31855   5.449   6.528   4.736
10319SOL    HW131856   5.525   6.497   4.793
10319SOL    HW231857   5.416   6.451   4.681
10320SOL     OW31858   4.474   5.832   2.326
10320SOL    HW131859   4.534   5.767   2.373
10320SOL    HW231860   4.430   5.786   2.249
10321SOL     OW31861   4.012   0.099   4.273
10321SOL    HW131862   3.987   0.191   4.245
10321SOL    HW231863   3.959   0.033   4.221
10322SOL     OW31864   0.769   2.313   6.939
10322SOL    HW131865   0.839   2.263   6.887
10322SOL    HW231866   0.753   2.266   0.003
10323SOL     OW31867   0.780   2.334   5.579
10323SOL    HW131868   0.876   2.359   5.592
10323SOL    HW231869   0.731   2.347   5.665
10324SOL     OW31870   3.659   2.912   4.449
10324SOL    HW131871   3.605   2.946   4.373
10324SOL    HW231872   3.747   2.879   4.415
10325SOL     OW31873   6.784   3.569   3.539
10325SOL    HW131874   6.699   3.588   3.490
10325SOL    HW231875   6.834   3.497   3.492
10326SOL     OW31876   5.632   1.835   1.572
10326SOL    HW131877   5.562   1.778   1.529
10326SOL    HW231878   5.720   1.788   1.568
10327SOL     OW31879   6.103   0.953   3.545
10327SOL    HW131880   6.059   0.865   3.527
10327SOL    HW231881   6.035   1.019   3.575
10328SOL     OW31882   6.391   4.074   2.633
10328SOL    HW131883   6.395   3.988   2.582
10328SOL    HW231884   6.483   4.097   2.665
10329SOL     OW31885   3.313   5.736   2.914
10329SOL    HW131886   3.406   5.761   2.887
10329SOL    HW231887   3.260   5.714   2.832
10330SOL     OW31888   3.233   3.491   1.081
10330SOL    HW131889   3.251   3.557   1.008
10330SOL    HW231890   3.320   3.456   1.116
10331SOL     OW31891   5.290   1.403   4.319
10331SOL    HW131892   5.223   1.475   4.338
10331SOL    HW231893   5.262   1.354   4.236
10332SOL     OW31894   0.883   1.616   6.128
10332SOL    HW131895   0.972   1.660   6.113
10332SOL    HW231896   0.851   1.636   6.220
10333SOL     OW31897   6.423   4.714   5.516
10333SOL    HW131898   6.376   4.647   5.457
10333SOL    HW231899   6.450   4.669   5.601
10334SOL     OW31900   0.692   5.129   5.288
10334SOL    HW131901   0.629   5.059   5.254
10334SOL    HW231902   0.720   5.105   5.381
10335SOL     OW31903   3.215   5.331   2.563
10335SOL    HW131904   3.256   5.247   2.599
10335SOL    HW231905   3.282   5.379   2.506
10336SOL     OW31906   4.971   6.913   2.699
10336SOL    HW131907   4.936   6.985   2.639
10336SOL    HW231908   4.899   6.885   2.762
10337SOL     OW31909   0.345   4.006   5.774
10337SOL    HW131910   0.371   4.055   5.691
10337SOL    HW231911   0.368   4.062   5.854
10338SOL     OW31912   2.609   5.015   2.673
10338SOL    HW131913   2.612   5.112   2.648
10338SOL    HW231914   2.684   4.966   2.630
10339SOL     OW31915   2.531   5.352   0.863
10339SOL    HW131916   2.621   5.319   0.836
10339SOL    HW231917   2.523   5.352   0.963
10340SOL     OW31918   1.676   6.658   0.453
10340SOL    HW131919   1.588   6.665   0.498
10340SOL    HW231920   1.742   6.615   0.514
10341SOL     OW31921   0.732   2.221   1.727
10341SOL    HW131922   0.769   2.179   1.644
10341SOL    HW231923   0.677   2.301   1.703
10342SOL     OW31924   3.819   6.204   4.540
10342SOL    HW131925   3.784   6.125   4.489
10342SOL    HW231926   3.759   6.282   4.525
10343SOL     OW31927   2.470   2.619   4.103
10343SOL    HW131928   2.549   2.578   4.147
10343SOL    HW231929   2.473   2.603   4.005
10344SOL     OW31930   4.541   3.514   1.306
10344SOL    HW131931   4.511   3.596   1.354
10344SOL    HW231932   4.463   3.470   1.262
10345SOL     OW31933   3.006   2.379   6.160
10345SOL    HW131934   2.942   2.305   6.183
10345SOL    HW231935   2.996   2.404   6.064
10346SOL     OW31936   6.297   5.685   0.732
10346SOL    HW131937   6.324   5.760   0.792
10346SOL    HW231938   6.253   5.722   0.650
10347SOL     OW31939   4.400   6.955   1.563
10347SOL    HW131940   4.451   6.966   1.477
10347SOL    HW231941   4.377   0.022   1.600
10348SOL     OW31942   6.765   4.958   5.677
10348SOL    HW131943   6.852   4.922   5.644
10348SOL    HW231944   6.770   4.973   5.776
10349SOL     OW31945   6.669   2.411   0.253
10349SOL    HW131946   6.700   2.437   0.344
10349SOL    HW231947   6.612   2.329   0.259
10350SOL     OW31948   2.147   4.886   4.627
10350SOL    HW131949   2.189   4.811   4.679
10350SOL    HW231950   2.086   4.849   4.557
10351SOL     OW31951   3.723   4.935   4.712
10351SOL    HW131952   3.687   4.928   4.619
10351SOL    HW231953   3.655   4.901   4.777
10352SOL     OW31954   6.865   1.016   0.613
10352SOL    HW131955   6.801   1.079   0.569
10352SOL    HW231956   6.941   0.997   0.552
10353SOL     OW31957   6.300   2.301   4.045
10353SOL    HW131958   6.322   2.312   3.948
10353SOL    HW231959   6.270   2.389   4.082
10354SOL     OW31960   6.621   2.825   1.092
10354SOL    HW131961   6.533   2.786   1.119
10354SOL    HW231962   6.615   2.925   1.096
10355SOL     OW31963   0.921   1.961   0.932
10355SOL    HW131964   0.834   1.997   0.897
10355SOL    HW231965   0.944   1.877   0.883
10356SOL     OW31966   5.710   2.533   6.762
10356SOL    HW131967   5.704   2.556   6.859
10356SOL    HW231968   5.803   2.551   6.729
10357SOL     OW31969   1.253   0.209   6.045
10357SOL    HW131970   1.325   0.151   6.006
10357SOL    HW231971   1.245   0.293   5.991
10358SOL     OW31972   0.523   2.479   2.867
10358SOL    HW131973   0.591   2.476   2.794
10358SOL    HW231974   0.477   2.390   2.873
10359SOL     OW31975   0.629   2.130   1.990
10359SOL    HW131976   0.578   2.047   1.966
10359SOL    HW231977   0.670   2.168   1.907
10360SOL     OW31978   6.080   4.063   1.073
10360SOL    HW131979   6.006   4.094   1.014
10360SOL    HW231980   6.068   3.966   1.096
10361SOL     OW31981   6.424   1.880   2.140
10361SOL    HW131982   6.410   1.900   2.043
10361SOL    HW231983   6.414   1.963   2.194
10362SOL     OW31984   1.126   5.586   1.840
10362SOL    HW131985   1.128   5.486   1.841
10362SOL    HW231986   1.181   5.622   1.915
10363SOL     OW31987   5.530   5.032   6.593
10363SOL    HW131988   5.617   5.007   6.636
10363SOL    HW231989   5.535   5.128   6.563
10364SOL     OW31990   5.512   5.843   2.624
10364SOL    HW131991   5.462   5.807   2.703
10364SOL    HW231992   5.575   5.774   2.591
10365SOL     OW31993   6.204   5.374   0.295
10365SOL    HW131994   6.254   5.375   0.382
10365SOL    HW231995   6.230   5.455   0.242
10366SOL     OW31996   2.660   6.613   3.843
10366SOL    HW131997   2.585   6.654   3.895
10366SOL    HW231998   2.650   6.636   3.746
10367SOL     OW31999   5.481   6.541   1.824
10367SOL    HW132000   5.460   6.604   1.899
10367SOL    HW232001   5.515   6.594   1.746
10368SOL     OW32002   0.852   5.507   2.001
10368SOL    HW132003   0.811   5.538   1.916
10368SOL    HW232004   0.891   5.585   2.050
10369SOL     OW32005   2.451   0.336   5.543
10369SOL    HW132006   2.457   0.408   5.612
10369SOL    HW232007   2.524   0.348   5.476
10370SOL     OW32008   2.029   1.483   5.562
10370SOL    HW132009   1.951   1.436   5.520
10370SOL    HW232010   2.104   1.488   5.496
10371SOL     OW32011   4.225   5.656   3.132
10371SOL    HW132012   4.229   5.598   3.050
10371SOL    HW232013   4.195   5.601   3.210
10372SOL     OW32014   2.348   6.332   0.984
10372SOL    HW132015   2.340   6.251   0.925
10372SOL    HW232016   2.370   6.303   1.077
10373SOL     OW32017   5.901   0.639   6.741
10373SOL    HW132018   5.891   0.688   6.827
10373SOL    HW232019   5.996   0.644   6.710
10374SOL     OW32020   2.848   4.786   3.173
10374SOL    HW132021   2.878   4.791   3.078
10374SOL    HW232022   2.927   4.799   3.233
10375SOL     OW32023   2.250   5.209   0.850
10375SOL    HW132024   2.349   5.222   0.857
10375SOL    HW232025   2.224   5.205   0.753
10376SOL     OW32026   2.462   4.985   3.663
10376SOL    HW132027   2.522   4.905   3.667
10376SOL    HW232028   2.368   4.957   3.679
10377SOL     OW32029   2.285   0.789   2.660
10377SOL    HW132030   2.302   0.753   2.568
10377SOL    HW232031   2.355   0.754   2.722
10378SOL     OW32032   0.564   6.075   5.102
10378SOL    HW132033   0.537   6.165   5.067
10378SOL    HW232034   0.651   6.048   5.062
10379SOL     OW32035   2.021   6.905   3.513
10379SOL    HW132036   1.972   6.931   3.431
10379SOL    HW232037   2.119   6.922   3.500
10380SOL     OW32038   3.602   1.205   3.951
10380SOL    HW132039   3.507   1.235   3.942
10380SOL    HW232040   3.605   1.112   3.987
10381SOL     OW32041   4.032   6.924   2.870
10381SOL    HW132042   4.099   6.907   2.798
10381SOL    HW232043   4.029   6.845   2.932
10382SOL     OW32044   4.430   5.291   2.018
10382SOL    HW132045   4.515   5.320   2.063
10382SOL    HW232046   4.363   5.265   2.087
10383SOL     OW32047   0.708   5.264   6.872
10383SOL    HW132048   0.696   5.232   6.778
10383SOL    HW232049   0.775   5.207   6.919
10384SOL     OW32050   4.877   5.754   1.309
10384SOL    HW132051   4.810   5.742   1.382
10384SOL    HW232052   4.967   5.774   1.348
10385SOL     OW32053   4.459   4.826   0.169
10385SOL    HW132054   4.520   4.891   0.214
10385SOL    HW232055   4.429   4.757   0.236
10386SOL     OW32056   6.970   0.589   1.235
10386SOL    HW132057   6.984   0.492   1.213
10386SOL    HW232058   6.932   0.636   1.155
10387SOL     OW32059   4.872   3.398   2.442
10387SOL    HW132060   4.773   3.407   2.430
10387SOL    HW232061   4.918   3.418   2.355
10388SOL     OW32062   1.716   0.195   4.804
10388SOL    HW132063   1.780   0.170   4.877
10388SOL    HW232064   1.658   0.116   4.782
10389SOL     OW32065   0.775   4.080   6.825
10389SOL    HW132066   0.833   4.160   6.842
10389SOL    HW232067   0.682   4.111   6.802
10390SOL     OW32068   1.926   2.566   2.028
10390SOL    HW132069   2.021   2.571   1.998
10390SOL    HW232070   1.877   2.499   1.973
10391SOL     OW32071   6.079   6.939   3.840
10391SOL    HW132072   6.013   6.864   3.834
10391SOL    HW232073   6.053   7.001   3.913
10392SOL     OW32074   6.671   4.270   4.171
10392SOL    HW132075   6.577   4.240   4.155
10392SOL    HW232076   6.672   4.366   4.196
10393SOL     OW32077   2.124   2.429   2.765
10393SOL    HW132078   2.138   2.514   2.714
10393SOL    HW232079   2.211   2.397   2.801
10394SOL     OW32080   3.338   0.124   4.277
10394SOL    HW132081   3.392   0.143   4.359
10394SOL    HW232082   3.253   0.079   4.304
10395SOL     OW32083   0.858   0.585   1.156
10395SOL    HW132084   0.828   0.600   1.250
10395SOL    HW232085   0.831   0.493   1.127
10396SOL     OW32086   3.348   2.080   4.862
10396SOL    HW132087   3.326   2.066   4.765
10396SOL    HW232088   3.300   2.160   4.896
10397SOL     OW32089   5.285   2.081   4.220
10397SOL    HW132090   5.365   2.024   4.241
10397SOL    HW232091   5.208   2.022   4.195
10398SOL     OW32092   5.818   2.502   2.521
10398SOL    HW132093   5.785   2.502   2.427
10398SOL    HW232094   5.888   2.571   2.532
10399SOL     OW32095   1.058   3.664   2.476
10399SOL    HW132096   1.109   3.682   2.392
10399SOL    HW232097   0.960   3.671   2.458
10400SOL     OW32098   2.146   6.196   0.672
10400SOL    HW132099   2.088   6.235   0.744
10400SOL    HW232100   2.211   6.132   0.713
10401SOL     OW32101   0.214   1.099   5.690
10401SOL    HW132102   0.201   1.005   5.722
10401SOL    HW232103   0.279   1.146   5.749
10402SOL     OW32104   6.915   3.369   5.270
10402SOL    HW132105   6.904   3.392   5.366
10402SOL    HW232106   6.902   3.271   5.257
10403SOL     OW32107   3.169   6.855   0.840
10403SOL    HW132108   3.223   6.927   0.796
10403SOL    HW232109   3.187   6.768   0.794
10404SOL     OW32110   6.422   6.819   6.040
10404SOL    HW132111   6.454   6.888   6.104
10404SOL    HW232112   6.391   6.863   5.956
10405SOL     OW32113   0.811   2.764   6.613
10405SOL    HW132114   0.764   2.715   6.540
10405SOL    HW232115   0.819   2.705   6.694
10406SOL     OW32116   1.818   5.101   1.605
10406SOL    HW132117   1.751   5.157   1.653
10406SOL    HW232118   1.776   5.062   1.523
10407SOL     OW32119   1.965   5.973   5.507
10407SOL    HW132120   1.951   5.932   5.417
10407SOL    HW232121   1.988   5.901   5.572
10408SOL     OW32122   4.123   1.357   0.170
10408SOL    HW132123   4.222   1.368   0.167
10408SOL    HW232124   4.092   1.361   0.265
10409SOL     OW32125   6.280   4.628   1.245
10409SOL    HW132126   6.335   4.674   1.175
10409SOL    HW232127   6.205   4.577   1.200
10410SOL     OW32128   4.658   0.222   0.578
10410SOL    HW132129   4.715   0.304   0.586
10410SOL    HW232130   4.716   0.141   0.589
10411SOL     OW32131   2.253   4.674   4.176
10411SOL    HW132132   2.306   4.745   4.130
10411SOL    HW232133   2.313   4.617   4.232
10412SOL     OW32134   5.427   0.134   0.902
10412SOL    HW132135   5.408   0.221   0.856
10412SOL    HW232136   5.523   0.110   0.889
10413SOL     OW32137   6.488   3.146   2.217
10413SOL    HW132138   6.490   3.245   2.204
10413SOL    HW232139   6.394   3.114   2.224
10414SOL     OW32140   4.818   2.677   4.204
10414SOL    HW132141   4.802   2.706   4.298
10414SOL    HW232142   4.836   2.757   4.147
10415SOL     OW32143   0.184   0.750   6.305
10415SOL    HW132144   0.281   0.745   6.281
10415SOL    HW232145   0.145   0.833   6.264
10416SOL     OW32146   5.585   3.432   4.099
10416SOL    HW132147   5.567   3.482   4.015
10416SOL    HW232148   5.654   3.362   4.082
10417SOL     OW32149   2.545   4.607   3.195
10417SOL    HW132150   2.617   4.621   3.263
10417SOL    HW232151   2.505   4.516   3.207
10418SOL     OW32152   1.845   5.533   5.998
10418SOL    HW132153   1.945   5.532   6.008
10418SOL    HW232154   1.820   5.505   5.906
10419SOL     OW32155   1.296   1.392   0.668
10419SOL    HW132156   1.255   1.415   0.756
10419SOL    HW232157   1.259   1.304   0.636
10420SOL     OW32158   0.290   3.226   3.329
10420SOL    HW132159   0.212   3.288   3.338
10420SOL    HW232160   0.258   3.132   3.324
10421SOL     OW32161   0.221   1.448   3.192
10421SOL    HW132162   0.227   1.426   3.289
10421SOL    HW232163   0.285   1.522   3.171
10422SOL     OW32164   5.363   3.866   5.951
10422SOL    HW132165   5.281   3.913   5.984
10422SOL    HW232166   5.436   3.933   5.937
10423SOL     OW32167   5.220   4.441   2.710
10423SOL    HW132168   5.308   4.428   2.664
10423SOL    HW232169   5.235   4.454   2.808
10424SOL     OW32170   4.996   1.568   6.423
10424SOL    HW132171   4.897   1.580   6.426
10424SOL    HW232172   5.018   1.488   6.365
10425SOL     OW32173   1.955   6.409   1.493
10425SOL    HW132174   1.981   6.415   1.590
10425SOL    HW232175   2.028   6.447   1.437
10426SOL     OW32176   6.382   3.764   0.324
10426SOL    HW132177   6.366   3.719   0.237
10426SOL    HW232178   6.295   3.795   0.362
10427SOL     OW32179   4.369   1.222   0.818
10427SOL    HW132180   4.395   1.319   0.822
10427SOL    HW232181   4.286   1.209   0.872
10428SOL     OW32182   4.571   0.923   4.286
10428SOL    HW132183   4.519   0.968   4.214
10428SOL    HW232184   4.514   0.913   4.368
10429SOL     OW32185   5.948   6.469   1.576
10429SOL    HW132186   5.909   6.377   1.570
10429SOL    HW232187   5.946   6.512   1.486
10430SOL     OW32188   3.950   6.345   3.232
10430SOL    HW132189   3.911   6.258   3.201
10430SOL    HW232190   3.888   6.420   3.206
10431SOL     OW32191   2.061   1.294   5.194
10431SOL    HW132192   2.119   1.232   5.247
10431SOL    HW232193   2.005   1.241   5.131
10432SOL     OW32194   5.056   1.418   5.094
10432SOL    HW132195   5.087   1.501   5.049
10432SOL    HW232196   4.991   1.441   5.167
10433SOL     OW32197   2.520   6.663   1.045
10433SOL    HW132198   2.546   6.611   0.963
10433SOL    HW232199   2.524   6.761   1.024
10434SOL     OW32200   2.456   2.043   4.147
10434SOL    HW132201   2.388   1.974   4.120
10434SOL    HW232202   2.524   2.053   4.074
10435SOL     OW32203   5.630   5.944   6.836
10435SOL    HW132204   5.683   5.982   6.760
10435SOL    HW232205   5.535   5.929   6.806
10436SOL     OW32206   0.751   0.110   2.147
10436SOL    HW132207   0.848   0.121   2.169
10436SOL    HW232208   0.740   0.104   2.047
10437SOL     OW32209   6.555   5.276   6.015
10437SOL    HW132210   6.630   5.241   5.958
10437SOL    HW232211   6.472   5.282   5.960
10438SOL     OW32212   3.682   6.857   6.301
10438SOL    HW132213   3.637   6.890   6.383
10438SOL    HW232214   3.691   6.757   6.305
10439SOL     OW32215   4.280   0.633   5.655
10439SOL    HW132216   4.205   0.568   5.668
10439SOL    HW232217   4.337   0.603   5.578
10440SOL     OW32218   2.370   6.090   0.542
10440SOL    HW132219   2.303   6.020   0.566
10440SOL    HW232220   2.325   6.165   0.493
10441SOL     OW32221   3.703   0.597   6.937
10441SOL    HW132222   3.727   0.643   7.022
10441SOL    HW232223   3.780   0.601   6.873
10442SOL     OW32224   4.272   6.088   5.722
10442SOL    HW132225   4.318   6.117   5.638
10442SOL    HW232226   4.175   6.071   5.704
10443SOL     OW32227   6.155   3.017   5.226
10443SOL    HW132228   6.255   3.026   5.233
10443SOL    HW232229   6.114   3.108   5.218
10444SOL     OW32230   3.519   4.969   4.167
10444SOL    HW132231   3.516   5.059   4.124
10444SOL    HW232232   3.426   4.932   4.172
10445SOL     OW32233   6.019   6.068   3.323
10445SOL    HW132234   6.078   6.003   3.369
10445SOL    HW232235   5.934   6.022   3.295
10446SOL     OW32236   0.969   6.405   6.774
10446SOL    HW132237   0.995   6.415   6.870
10446SOL    HW232238   1.049   6.422   6.716
10447SOL     OW32239   6.340   2.191   0.899
10447SOL    HW132240   6.390   2.231   0.822
10447SOL    HW232241   6.247   2.226   0.900
10448SOL     OW32242   3.130   4.029   2.518
10448SOL    HW132243   3.035   4.001   2.528
10448SOL    HW232244   3.159   4.015   2.423
10449SOL     OW32245   1.386   5.193   4.462
10449SOL    HW132246   1.370   5.273   4.520
10449SOL    HW232247   1.434   5.123   4.514
10450SOL     OW32248   0.022   2.827   0.445
10450SOL    HW132249   6.972   2.774   0.487
10450SOL    HW232250   0.035   2.797   0.350
10451SOL     OW32251   2.384   4.384   2.602
10451SOL    HW132252   2.382   4.429   2.513
10451SOL    HW232253   2.452   4.428   2.661
10452SOL     OW32254   1.043   3.671   4.614
10452SOL    HW132255   1.087   3.613   4.545
10452SOL    HW232256   1.106   3.743   4.643
10453SOL     OW32257   5.394   0.473   1.789
10453SOL    HW132258   5.451   0.514   1.718
10453SOL    HW232259   5.300   0.504   1.778
10454SOL     OW32260   4.950   3.479   2.736
10454SOL    HW132261   4.957   3.400   2.798
10454SOL    HW232262   4.952   3.447   2.641
10455SOL     OW32263   0.022   4.661   2.932
10455SOL    HW132264   7.013   4.567   2.943
10455SOL    HW232265   0.103   4.661   2.874
10456SOL     OW32266   3.586   6.047   1.341
10456SOL    HW132267   3.571   6.117   1.411
10456SOL    HW232268   3.498   6.017   1.304
10457SOL     OW32269   3.615   3.299   4.137
10457SOL    HW132270   3.654   3.366   4.074
10457SOL    HW232271   3.668   3.296   4.221
10458SOL     OW32272   6.571   6.959   1.531
10458SOL    HW132273   6.607   7.009   1.610
10458SOL    HW232274   6.483   6.918   1.554
10459SOL     OW32275   6.633   4.691   2.790
10459SOL    HW132276   6.536   4.669   2.779
10459SOL    HW232277   6.658   4.685   2.886
10460SOL     OW32278   2.109   5.142   2.026
10460SOL    HW132279   2.111   5.127   2.125
10460SOL    HW232280   2.153   5.229   2.004
10461SOL     OW32281   2.435   1.400   6.469
10461SOL    HW132282   2.391   1.440   6.549
10461SOL    HW232283   2.399   1.308   6.453
10462SOL     OW32284   5.220   0.134   1.392
10462SOL    HW132285   5.140   0.184   1.425
10462SOL    HW232286   5.256   0.179   1.310
10463SOL     OW32287   2.990   3.753   1.311
10463SOL    HW132288   3.046   3.795   1.382
10463SOL    HW232289   3.004   3.654   1.311
10464SOL     OW32290   5.503   7.022   1.358
10464SOL    HW132291   5.470   6.970   1.436
10464SOL    HW232292   5.448   6.999   1.277
10465SOL     OW32293   6.692   5.088   4.989
10465SOL    HW132294   6.652   5.014   4.935
10465SOL    HW232295   6.741   5.049   5.067
10466SOL     OW32296   4.924   6.364   6.695
10466SOL    HW132297   4.931   6.420   6.612
10466SOL    HW232298   5.000   6.300   6.699
10467SOL     OW32299   4.224   1.001   3.818
10467SOL    HW132300   4.276   0.980   3.736
10467SOL    HW232301   4.225   0.922   3.880
10468SOL     OW32302   3.365   5.749   3.184
10468SOL    HW132303   3.465   5.761   3.180
10468SOL    HW232304   3.329   5.743   3.090
10469SOL     OW32305   1.500   5.038   6.998
10469SOL    HW132306   1.451   5.113   0.019
10469SOL    HW232307   1.529   4.972   0.044
10470SOL     OW32308   2.913   1.567   4.202
10470SOL    HW132309   2.996   1.553   4.257
10470SOL    HW232310   2.939   1.590   4.108
10471SOL     OW32311   4.185   3.814   0.488
10471SOL    HW132312   4.256   3.842   0.424
10471SOL    HW232313   4.226   3.762   0.564
10472SOL     OW32314   4.656   1.592   3.242
10472SOL    HW132315   4.717   1.567   3.317
10472SOL    HW232316   4.586   1.656   3.276
10473SOL     OW32317   4.962   5.474   0.145
10473SOL    HW132318   4.954   5.374   0.143
10473SOL    HW232319   4.893   5.511   0.208
10474SOL     OW32320   5.251   1.145   4.461
10474SOL    HW132321   5.308   1.065   4.478
10474SOL    HW232322   5.289   1.224   4.509
10475SOL     OW32323   4.734   6.247   1.807
10475SOL    HW132324   4.811   6.309   1.790
10475SOL    HW232325   4.754   6.158   1.765
10476SOL     OW32326   0.379   4.586   0.233
10476SOL    HW132327   0.372   4.682   0.207
10476SOL    HW232328   0.290   4.541   0.221
10477SOL     OW32329   4.574   4.762   5.165
10477SOL    HW132330   4.633   4.751   5.085
10477SOL    HW232331   4.535   4.854   5.166
10478SOL     OW32332   0.566   6.144   2.671
10478SOL    HW132333   0.485   6.190   2.708
10478SOL    HW232334   0.583   6.178   2.578
10479SOL     OW32335   1.514   4.967   2.630
10479SOL    HW132336   1.471   5.030   2.694
10479SOL    HW232337   1.602   5.004   2.600
10480SOL     OW32338   5.868   0.221   1.961
10480SOL    HW132339   5.805   0.264   2.026
10480SOL    HW232340   5.933   0.163   2.011
10481SOL     OW32341   2.810   1.085   4.770
10481SOL    HW132342   2.838   1.068   4.865
10481SOL    HW232343   2.865   1.029   4.709
10482SOL     OW32344   1.126   5.688   6.033
10482SOL    HW132345   1.215   5.726   6.057
10482SOL    HW232346   1.119   5.595   6.068
10483SOL     OW32347   0.002   5.262   0.595
10483SOL    HW132348   6.980   5.202   0.661
10483SOL    HW232349   7.002   5.232   0.502
10484SOL     OW32350   5.900   2.026   1.216
10484SOL    HW132351   5.929   1.933   1.237
10484SOL    HW232352   5.832   2.055   1.283
10485SOL     OW32353   3.133   3.975   3.501
10485SOL    HW132354   3.068   3.962   3.576
10485SOL    HW232355   3.224   3.992   3.538
10486SOL     OW32356   5.771   5.325   5.306
10486SOL    HW132357   5.785   5.358   5.400
10486SOL    HW232358   5.673   5.315   5.289
10487SOL     OW32359   5.129   2.865   3.119
10487SOL    HW132360   5.046   2.920   3.111
10487SOL    HW232361   5.147   2.817   3.033
10488SOL     OW32362   0.346   2.474   5.178
10488SOL    HW132363   0.312   2.426   5.258
10488SOL    HW232364   0.329   2.419   5.096
10489SOL     OW32365   5.971   4.040   4.597
10489SOL    HW132366   5.999   4.021   4.503
10489SOL    HW232367   6.001   4.131   4.624
10490SOL     OW32368   5.608   6.497   6.547
10490SOL    HW132369   5.546   6.512   6.470
10490SOL    HW232370   5.685   6.440   6.518
10491SOL     OW32371   1.974   3.259   5.582
10491SOL    HW132372   1.956   3.258   5.484
10491SOL    HW232373   2.032   3.181   5.606
10492SOL     OW32374   3.203   5.816   0.433
10492SOL    HW132375   3.234   5.864   0.351
10492SOL    HW232376   3.270   5.827   0.506
10493SOL     OW32377   3.923   5.345   1.787
10493SOL    HW132378   3.845   5.286   1.806
10493SOL    HW232379   3.892   5.439   1.772
10494SOL     OW32380   0.543   4.854   4.183
10494SOL    HW132381   0.593   4.907   4.115
10494SOL    HW232382   0.608   4.814   4.248
10495SOL     OW32383   0.204   6.658   0.540
10495SOL    HW132384   0.160   6.732   0.591
10495SOL    HW232385   0.134   6.603   0.494
10496SOL     OW32386   0.132   4.821   6.273
10496SOL    HW132387   0.078   4.752   6.226
10496SOL    HW232388   0.228   4.813   6.244
10497SOL     OW32389   3.340   0.231   1.770
10497SOL    HW132390   3.339   0.135   1.798
10497SOL    HW232391   3.264   0.248   1.706
10498SOL     OW32392   4.102   3.583   6.752
10498SOL    HW132393   4.114   3.664   6.809
10498SOL    HW232394   4.114   3.608   6.656
10499SOL     OW32395   5.079   3.883   2.622
10499SOL    HW132396   5.122   3.970   2.648
10499SOL    HW232397   5.145   3.809   2.633
10500SOL     OW32398   1.385   3.155   5.168
10500SOL    HW132399   1.315   3.127   5.102
10500SOL    HW232400   1.474   3.121   5.138
10501SOL     OW32401   4.033   4.901   3.246
10501SOL    HW132402   3.955   4.957   3.218
10501SOL    HW232403   4.092   4.884   3.168
10502SOL     OW32404   3.183   3.454   2.706
10502SOL    HW132405   3.259   3.412   2.656
10502SOL    HW232406   3.212   3.476   2.799
10503SOL     OW32407   6.798   1.446   6.467
10503SOL    HW132408   6.857   1.490   6.535
10503SOL    HW232409   6.753   1.366   6.508
10504SOL     OW32410   1.172   3.879   5.831
10504SOL    HW132411   1.178   3.836   5.742
10504SOL    HW232412   1.187   3.810   5.903
10505SOL     OW32413   6.244   0.202   0.535
10505SOL    HW132414   6.249   0.285   0.479
10505SOL    HW232415   6.183   0.217   0.612
10506SOL     OW32416   1.623   4.400   5.637
10506SOL    HW132417   1.641   4.478   5.578
10506SOL    HW232418   1.524   4.390   5.649
10507SOL     OW32419   0.709   6.043   5.986
10507SOL    HW132420   0.791   6.007   6.031
10507SOL    HW232421   0.727   6.137   5.955
10508SOL     OW32422   1.611   5.794   6.583
10508SOL    HW132423   1.531   5.818   6.529
10508SOL    HW232424   1.631   5.696   6.571
10509SOL     OW32425   4.613   2.666   3.256
10509SOL    HW132426   4.587   2.700   3.346
10509SOL    HW232427   4.630   2.568   3.261
10510SOL     OW32428   5.753   5.945   3.424
10510SOL    HW132429   5.779   5.887   3.502
10510SOL    HW232430   5.765   5.894   3.339
10511SOL     OW32431   4.393   1.611   1.042
10511SOL    HW132432   4.302   1.653   1.049
10511SOL    HW232433   4.398   1.556   0.959
10512SOL     OW32434   3.875   1.805   5.803
10512SOL    HW132435   3.840   1.896   5.824
10512SOL    HW232436   3.822   1.737   5.854
10513SOL     OW32437   3.703   2.974   0.926
10513SOL    HW132438   3.620   2.921   0.946
10513SOL    HW232439   3.773   2.912   0.890
10514SOL     OW32440   1.542   5.007   1.647
10514SOL    HW132441   1.475   4.933   1.653
10514SOL    HW232442   1.521   5.076   1.717
10515SOL     OW32443   2.048   3.030   4.669
10515SOL    HW132444   2.092   3.119   4.662
10515SOL    HW232445   1.986   3.018   4.591
10516SOL     OW32446   5.460   1.909   2.158
10516SOL    HW132447   5.384   1.854   2.193
10516SOL    HW232448   5.521   1.934   2.234
10517SOL     OW32449   0.907   2.813   2.460
10517SOL    HW132450   0.908   2.774   2.368
10517SOL    HW232451   0.848   2.757   2.519
10518SOL     OW32452   0.576   5.729   2.133
10518SOL    HW132453   0.604   5.645   2.180
10518SOL    HW232454   0.645   5.754   2.065
10519SOL     OW32455   3.455   0.048   1.314
10519SOL    HW132456   3.480   0.144   1.326
10519SOL    HW232457   3.475   7.021   1.398
10520SOL     OW32458   1.870   2.366   6.390
10520SOL    HW132459   1.859   2.420   6.306
10520SOL    HW232460   1.966   2.337   6.399
10521SOL     OW32461   6.670   2.625   3.260
10521SOL    HW132462   6.693   2.639   3.163
10521SOL    HW232463   6.576   2.656   3.276
10522SOL     OW32464   5.531   1.553   3.960
10522SOL    HW132465   5.464   1.618   3.925
10522SOL    HW232466   5.512   1.534   4.057
10523SOL     OW32467   1.005   4.438   2.183
10523SOL    HW132468   0.959   4.526   2.191
10523SOL    HW232469   1.092   4.450   2.136
10524SOL     OW32470   6.745   5.793   4.644
10524SOL    HW132471   6.828   5.779   4.698
10524SOL    HW232472   6.737   5.721   4.574
10525SOL     OW32473   4.927   1.107   3.919
10525SOL    HW132474   4.901   1.116   4.015
10525SOL    HW232475   5.010   1.162   3.902
10526SOL     OW32476   1.323   5.509   6.247
10526SOL    HW132477   1.405   5.565   6.263
10526SOL    HW232478   1.265   5.511   6.329
10527SOL     OW32479   7.002   6.230   5.403
10527SOL    HW132480   0.068   6.198   5.437
10527SOL    HW232481   6.939   6.238   5.479
10528SOL     OW32482   2.108   4.971   5.244
10528SOL    HW132483   2.048   4.892   5.236
10528SOL    HW232484   2.202   4.940   5.259
10529SOL     OW32485   0.219   4.999   0.727
10529SOL    HW132486   0.235   4.919   0.785
10529SOL    HW232487   0.222   5.082   0.783
10530SOL     OW32488   6.912   6.808   1.159
10530SOL    HW132489   6.862   6.855   1.087
10530SOL    HW232490   6.849   6.784   1.233
10531SOL     OW32491   3.794   2.385   5.619
10531SOL    HW132492   3.805   2.300   5.670
10531SOL    HW232493   3.771   2.366   5.524
10532SOL     OW32494   4.569   5.800   5.880
10532SOL    HW132495   4.581   5.859   5.800
10532SOL    HW232496   4.491   5.739   5.865
10533SOL     OW32497   3.989   6.745   3.092
10533SOL    HW132498   3.972   6.823   3.153
10533SOL    HW232499   4.058   6.686   3.134
10534SOL     OW32500   1.670   6.084   3.798
10534SOL    HW132501   1.696   5.999   3.844
10534SOL    HW232502   1.574   6.103   3.816
10535SOL     OW32503   3.737   2.021   2.377
10535SOL    HW132504   3.763   2.041   2.282
10535SOL    HW232505   3.815   1.982   2.426
10536SOL     OW32506   5.549   3.851   5.140
10536SOL    HW132507   5.609   3.930   5.152
10536SOL    HW232508   5.574   3.801   5.057
10537SOL     OW32509   3.880   1.346   3.515
10537SOL    HW132510   3.796   1.333   3.567
10537SOL    HW232511   3.938   1.264   3.524
10538SOL     OW32512   6.883   2.613   3.430
10538SOL    HW132513   6.811   2.632   3.364
10538SOL    HW232514   6.924   2.524   3.410
10539SOL     OW32515   6.868   6.807   2.792
10539SOL    HW132516   6.786   6.763   2.755
10539SOL    HW232517   6.852   6.835   2.886
10540SOL     OW32518   1.830   4.139   6.970
10540SOL    HW132519   1.838   4.065   6.904
10540SOL    HW232520   1.784   4.217   6.927
10541SOL     OW32521   2.930   2.788   5.481
10541SOL    HW132522   2.857   2.845   5.444
10541SOL    HW232523   3.016   2.839   5.481
10542SOL     OW32524   4.962   6.399   3.003
10542SOL    HW132525   4.862   6.394   2.999
10542SOL    HW232526   4.993   6.484   2.960
10543SOL     OW32527   2.291   2.932   4.008
10543SOL    HW132528   2.211   2.883   4.043
10543SOL    HW232529   2.363   2.933   4.077
10544SOL     OW32530   2.952   1.353   2.310
10544SOL    HW132531   2.982   1.419   2.379
10544SOL    HW232532   2.862   1.378   2.276
10545SOL     OW32533   2.252   2.946   2.228
10545SOL    HW132534   2.347   2.948   2.260
10545SOL    HW232535   2.202   3.024   2.266
10546SOL     OW32536   2.613   6.691   6.787
10546SOL    HW132537   2.654   6.611   6.830
10546SOL    HW232538   2.517   6.673   6.768
10547SOL     OW32539   3.510   6.157   5.682
10547SOL    HW132540   3.412   6.163   5.665
10547SOL    HW232541   3.532   6.194   5.772
10548SOL     OW32542   0.500   6.465   3.514
10548SOL    HW132543   0.444   6.459   3.432
10548SOL    HW232544   0.581   6.520   3.495
10549SOL     OW32545   6.886   0.905   2.807
10549SOL    HW132546   6.935   0.882   2.722
10549SOL    HW232547   6.871   1.003   2.811
10550SOL     OW32548   5.035   5.474   3.278
10550SOL    HW132549   5.093   5.398   3.249
10550SOL    HW232550   4.946   5.467   3.233
10551SOL     OW32551   3.559   0.620   5.249
10551SOL    HW132552   3.499   0.626   5.170
10551SOL    HW232553   3.626   0.695   5.246
10552SOL     OW32554   3.090   0.077   3.532
10552SOL    HW132555   3.122   0.003   3.474
10552SOL    HW232556   3.108   0.054   3.628
10553SOL     OW32557   5.957   5.953   1.002
10553SOL    HW132558   6.007   5.918   1.082
10553SOL    HW232559   5.860   5.965   1.026
10554SOL     OW32560   6.179   6.460   1.755
10554SOL    HW132561   6.106   6.492   1.695
10554SOL    HW232562   6.260   6.517   1.742
10555SOL     OW32563   3.538   2.971   1.269
10555SOL    HW132564   3.541   2.915   1.351
10555SOL    HW232565   3.541   2.913   1.188
10556SOL     OW32566   2.611   1.635   1.989
10556SOL    HW132567   2.640   1.649   1.895
10556SOL    HW232568   2.691   1.612   2.045
10557SOL     OW32569   2.211   4.490   3.160
10557SOL    HW132570   2.140   4.560   3.145
10557SOL    HW232571   2.203   4.456   3.254
10558SOL     OW32572   4.040   4.883   4.755
10558SOL    HW132573   3.941   4.889   4.739
10558SOL    HW232574   4.059   4.894   4.852
10559SOL     OW32575   3.923   6.499   1.668
10559SOL    HW132576   3.832   6.487   1.627
10559SOL    HW232577   3.965   6.409   1.683
10560SOL     OW32578   5.537   6.877   3.288
10560SOL    HW132579   5.540   6.839   3.195
10560SOL    HW232580   5.457   6.841   3.335
10561SOL     OW32581   0.274   5.011   6.453
10561SOL    HW132582   0.373   4.993   6.454
10561SOL    HW232583   0.230   4.955   6.383
10562SOL     OW32584   4.125   5.913   2.332
10562SOL    HW132585   4.151   5.872   2.420
10562SOL    HW232586   4.205   5.954   2.290
10563SOL     OW32587   0.928   6.644   2.823
10563SOL    HW132588   0.981   6.580   2.878
10563SOL    HW232589   0.869   6.593   2.760
10564SOL     OW32590   4.913   4.396   3.164
10564SOL    HW132591   4.945   4.380   3.258
10564SOL    HW232592   4.944   4.321   3.105
10565SOL     OW32593   0.305   1.364   5.210
10565SOL    HW132594   0.317   1.319   5.298
10565SOL    HW232595   0.218   1.413   5.208
10566SOL     OW32596   3.128   1.722   0.739
10566SOL    HW132597   3.181   1.680   0.812
10566SOL    HW232598   3.098   1.652   0.674
10567SOL     OW32599   2.306   2.135   6.249
10567SOL    HW132600   2.384   2.093   6.296
10567SOL    HW232601   2.314   2.119   6.151
10568SOL     OW32602   4.934   1.913   6.045
10568SOL    HW132603   5.012   1.864   6.007
10568SOL    HW232604   4.955   2.011   6.051
10569SOL     OW32605   5.540   0.738   0.465
10569SOL    HW132606   5.630   0.759   0.501
10569SOL    HW232607   5.536   0.642   0.438
10570SOL     OW32608   1.687   3.515   3.476
10570SOL    HW132609   1.730   3.496   3.564
10570SOL    HW232610   1.758   3.523   3.405
10571SOL     OW32611   6.812   3.768   5.408
10571SOL    HW132612   6.739   3.757   5.341
10571SOL    HW232613   6.889   3.816   5.367
10572SOL     OW32614   6.505   4.254   0.788
10572SOL    HW132615   6.449   4.173   0.807
10572SOL    HW232616   6.469   4.332   0.840
10573SOL     OW32617   6.885   2.371   3.300
10573SOL    HW132618   6.790   2.378   3.330
10573SOL    HW232619   6.907   2.275   3.281
10574SOL     OW32620   6.176   2.376   2.610
10574SOL    HW132621   6.132   2.407   2.694
10574SOL    HW232622   6.126   2.298   2.573
10575SOL     OW32623   5.264   0.050   2.248
10575SOL    HW132624   5.211   0.093   2.321
10575SOL    HW232625   5.329   7.008   2.288
10576SOL     OW32626   1.287   3.808   4.670
10576SOL    HW132627   1.347   3.728   4.658
10576SOL    HW232628   1.342   3.886   4.701
10577SOL     OW32629   4.032   4.227   0.792
10577SOL    HW132630   3.970   4.291   0.747
10577SOL    HW232631   4.125   4.239   0.755
10578SOL     OW32632   0.752   3.590   2.521
10578SOL    HW132633   0.760   3.631   2.612
10578SOL    HW232634   0.774   3.493   2.526
10579SOL     OW32635   0.279   3.242   0.072
10579SOL    HW132636   0.280   3.225   6.997
10579SOL    HW232637   0.245   3.334   0.090
10580SOL     OW32638   5.392   7.022   6.436
10580SOL    HW132639   5.380   6.923   6.443
10580SOL    HW232640   5.448   0.031   6.513
10581SOL     OW32641   4.260   0.784   3.463
10581SOL    HW132642   4.314   0.846   3.521
10581SOL    HW232643   4.267   0.813   3.368
10582SOL     OW32644   6.370   3.118   6.324
10582SOL    HW132645   6.412   3.209   6.328
10582SOL    HW232646   6.396   3.067   6.407
10583SOL     OW32647   3.826   2.043   5.432
10583SOL    HW132648   3.922   2.013   5.439
10583SOL    HW232649   3.812   2.092   5.346
10584SOL     OW32650   0.495   0.092   3.220
10584SOL    HW132651   0.478   7.017   3.225
10584SOL    HW232652   0.439   0.132   3.147
10585SOL     OW32653   1.527   0.883   5.360
10585SOL    HW132654   1.597   0.844   5.300
10585SOL    HW232655   1.570   0.921   5.442
10586SOL     OW32656   4.497   4.232   5.506
10586SOL    HW132657   4.479   4.137   5.481
10586SOL    HW232658   4.425   4.264   5.568
10587SOL     OW32659   2.492   4.979   5.561
10587SOL    HW132660   2.582   5.021   5.571
10587SOL    HW232661   2.453   5.005   5.473
10588SOL     OW32662   1.691   4.027   3.702
10588SOL    HW132663   1.638   4.001   3.621
10588SOL    HW232664   1.706   3.947   3.760
10589SOL     OW32665   5.860   6.740   3.855
10589SOL    HW132666   5.905   6.727   3.943
10589SOL    HW232667   5.870   6.657   3.800
10590SOL     OW32668   0.851   5.043   2.666
10590SOL    HW132669   0.921   5.064   2.734
10590SOL    HW232670   0.762   5.035   2.711
10591SOL     OW32671   0.167   4.061   2.413
10591SOL    HW132672   0.182   3.968   2.380
10591SOL    HW232673   0.159   4.124   2.336
10592SOL     OW32674   0.391   2.771   4.635
10592SOL    HW132675   0.436   2.736   4.552
10592SOL    HW232676   0.423   2.720   4.714
10593SOL     OW32677   2.679   5.537   3.278
10593SOL    HW132678   2.733   5.615   3.307
10593SOL    HW232679   2.719   5.497   3.196
10594SOL     OW32680   3.395   5.678   3.505
10594SOL    HW132681   3.303   5.659   3.540
10594SOL    HW232682   3.412   5.777   3.507
10595SOL     OW32683   4.905   6.693   1.163
10595SOL    HW132684   4.904   6.746   1.079
10595SOL    HW232685   4.988   6.638   1.167
10596SOL     OW32686   5.093   3.647   0.283
10596SOL    HW132687   5.134   3.652   0.192
10596SOL    HW232688   5.004   3.602   0.278
10597SOL     OW32689   2.071   6.555   5.034
10597SOL    HW132690   2.070   6.527   5.130
10597SOL    HW232691   2.121   6.487   4.980
10598SOL     OW32692   3.091   0.604   0.148
10598SOL    HW132693   3.005   0.587   0.099
10598SOL    HW232694   3.161   0.542   0.114
10599SOL     OW32695   1.060   2.487   0.638
10599SOL    HW132696   1.021   2.399   0.665
10599SOL    HW232697   0.987   2.551   0.615
10600SOL     OW32698   4.054   1.178   1.447
10600SOL    HW132699   3.957   1.153   1.440
10600SOL    HW232700   4.085   1.165   1.541
10601SOL     OW32701   1.798   0.983   4.420
10601SOL    HW132702   1.833   1.014   4.508
10601SOL    HW232703   1.704   1.016   4.409
10602SOL     OW32704   6.294   0.364   1.413
10602SOL    HW132705   6.280   0.272   1.376
10602SOL    HW232706   6.205   0.409   1.425
10603SOL     OW32707   6.110   0.492   2.916
10603SOL    HW132708   6.088   0.434   2.837
10603SOL    HW232709   6.181   0.448   2.971
10604SOL     OW32710   4.900   1.797   4.916
10604SOL    HW132711   4.855   1.723   4.967
10604SOL    HW232712   4.968   1.758   4.854
10605SOL     OW32713   3.469   1.781   1.114
10605SOL    HW132714   3.560   1.807   1.080
10605SOL    HW232715   3.442   1.695   1.073
10606SOL     OW32716   6.721   1.097   0.067
10606SOL    HW132717   6.677   1.051   7.013
10606SOL    HW232718   6.816   1.117   0.043
10607SOL     OW32719   3.087   4.044   0.621
10607SOL    HW132720   3.059   3.981   0.549
10607SOL    HW232721   3.037   4.024   0.705
10608SOL     OW32722   5.497   4.354   3.820
10608SOL    HW132723   5.473   4.449   3.843
10608SOL    HW232724   5.463   4.293   3.891
10609SOL     OW32725   6.058   6.894   6.530
10609SOL    HW132726   6.125   6.943   6.475
10609SOL    HW232727   5.969   6.896   6.483
10610SOL     OW32728   0.715   1.550   3.321
10610SOL    HW132729   0.648   1.500   3.267
10610SOL    HW232730   0.684   1.557   3.415
10611SOL     OW32731   4.015   5.188   5.028
10611SOL    HW132732   4.060   5.215   4.943
10611SOL    HW232733   4.027   5.090   5.043
10612SOL     OW32734   6.317   2.623   3.781
10612SOL    HW132735   6.354   2.662   3.864
10612SOL    HW232736   6.330   2.524   3.782
10613SOL     OW32737   4.680   6.081   4.462
10613SOL    HW132738   4.675   6.100   4.363
10613SOL    HW232739   4.749   6.011   4.479
10614SOL     OW32740   4.147   2.437   5.889
10614SOL    HW132741   4.153   2.467   5.985
10614SOL    HW232742   4.073   2.370   5.880
10615SOL     OW32743   2.590   2.677   5.451
10615SOL    HW132744   2.665   2.611   5.457
10615SOL    HW232745   2.615   2.751   5.390
10616SOL     OW32746   1.534   5.911   0.556
10616SOL    HW132747   1.566   5.911   0.461
10616SOL    HW232748   1.538   5.818   0.592
10617SOL     OW32749   1.668   3.051   1.349
10617SOL    HW132750   1.672   3.076   1.252
10617SOL    HW232751   1.759   3.022   1.379
10618SOL     OW32752   1.142   4.901   4.545
10618SOL    HW132753   1.207   4.859   4.608
10618SOL    HW232754   1.060   4.845   4.539
10619SOL     OW32755   0.875   3.023   1.710
10619SOL    HW132756   0.861   3.018   1.809
10619SOL    HW232757   0.830   2.945   1.667
10620SOL     OW32758   3.323   0.709   5.938
10620SOL    HW132759   3.371   0.671   5.859
10620SOL    HW232760   3.355   0.802   5.955
10621SOL     OW32761   0.687   3.914   3.286
10621SOL    HW132762   0.775   3.956   3.265
10621SOL    HW232763   0.675   3.832   3.230
10622SOL     OW32764   4.613   2.435   0.220
10622SOL    HW132765   4.537   2.484   0.177
10622SOL    HW232766   4.621   2.463   0.316
10623SOL     OW32767   5.011   5.366   5.499
10623SOL    HW132768   5.000   5.410   5.410
10623SOL    HW232769   5.106   5.338   5.512
10624SOL     OW32770   0.160   2.151   6.653
10624SOL    HW132771   0.171   2.052   6.643
10624SOL    HW232772   0.192   2.179   6.744
10625SOL     OW32773   6.717   5.783   0.620
10625SOL    HW132774   6.658   5.723   0.565
10625SOL    HW232775   6.792   5.729   0.660
10626SOL     OW32776   5.664   2.749   1.890
10626SOL    HW132777   5.564   2.741   1.885
10626SOL    HW232778   5.705   2.704   1.811
10627SOL     OW32779   5.760   5.065   5.498
10627SOL    HW132780   5.716   5.031   5.415
10627SOL    HW232781   5.818   5.144   5.475
10628SOL     OW32782   2.887   6.283   0.201
10628SOL    HW132783   2.933   6.255   0.285
10628SOL    HW232784   2.790   6.302   0.220
10629SOL     OW32785   4.625   5.249   4.166
10629SOL    HW132786   4.715   5.285   4.191
10629SOL    HW232787   4.612   5.159   4.209
10630SOL     OW32788   4.152   0.965   1.299
10630SOL    HW132789   4.092   1.041   1.325
10630SOL    HW232790   4.126   0.883   1.351
10631SOL     OW32791   3.494   5.307   2.135
10631SOL    HW132792   3.452   5.280   2.222
10631SOL    HW232793   3.437   5.274   2.060
10632SOL     OW32794   5.612   6.548   4.353
10632SOL    HW132795   5.534   6.583   4.405
10632SOL    HW232796   5.697   6.576   4.399
10633SOL     OW32797   2.485   3.084   0.301
10633SOL    HW132798   2.567   3.120   0.346
10633SOL    HW232799   2.477   3.123   0.209
10634SOL     OW32800   0.200   4.237   6.482
10634SOL    HW132801   0.266   4.207   6.412
10634SOL    HW232802   0.239   4.313   6.533
10635SOL     OW32803   3.075   5.971   6.352
10635SOL    HW132804   3.064   6.051   6.412
10635SOL    HW232805   3.168   5.936   6.360
10636SOL     OW32806   6.224   2.762   0.177
10636SOL    HW132807   6.130   2.760   0.144
10636SOL    HW232808   6.263   2.853   0.163
10637SOL     OW32809   2.527   0.589   6.345
10637SOL    HW132810   2.547   0.665   6.406
10637SOL    HW232811   2.539   0.618   6.250
10638SOL     OW32812   4.851   5.212   0.759
10638SOL    HW132813   4.877   5.121   0.790
10638SOL    HW232814   4.920   5.278   0.787
10639SOL     OW32815   0.119   4.909   1.610
10639SOL    HW132816   0.046   4.854   1.570
10639SOL    HW232817   0.204   4.856   1.613
10640SOL     OW32818   4.059   6.135   3.673
10640SOL    HW132819   4.001   6.138   3.592
10640SOL    HW232820   4.017   6.188   3.747
10641SOL     OW32821   0.811   1.609   2.821
10641SOL    HW132822   0.798   1.546   2.744
10641SOL    HW232823   0.905   1.643   2.820
10642SOL     OW32824   6.844   2.532   6.343
10642SOL    HW132825   6.764   2.545   6.402
10642SOL    HW232826   6.927   2.533   6.398
10643SOL     OW32827   2.423   5.056   5.899
10643SOL    HW132828   2.402   5.083   5.993
10643SOL    HW232829   2.442   4.958   5.896
10644SOL     OW32830   0.034   3.268   3.200
10644SOL    HW132831   0.007   3.176   3.174
10644SOL    HW232832   0.085   3.310   3.125
10645SOL     OW32833   2.290   2.269   3.205
10645SOL    HW132834   2.355   2.258   3.280
10645SOL    HW232835   2.340   2.278   3.119
10646SOL     OW32836   5.588   0.078   3.808
10646SOL    HW132837   5.526   0.119   3.741
10646SOL    HW232838   5.654   0.019   3.761
10647SOL     OW32839   3.534   5.245   5.071
10647SOL    HW132840   3.466   5.316   5.052
10647SOL    HW232841   3.584   5.225   4.987
10648SOL     OW32842   4.714   4.406   5.610
10648SOL    HW132843   4.653   4.333   5.578
10648SOL    HW232844   4.660   4.481   5.647
10649SOL     OW32845   6.479   3.348   2.965
10649SOL    HW132846   6.555   3.397   2.923
10649SOL    HW232847   6.492   3.347   3.064
10650SOL     OW32848   0.421   0.561   2.807
10650SOL    HW132849   0.341   0.502   2.799
10650SOL    HW232850   0.453   0.562   2.901
10651SOL     OW32851   2.857   5.486   5.961
10651SOL    HW132852   2.895   5.516   6.049
10651SOL    HW232853   2.785   5.549   5.933
10652SOL     OW32854   1.920   0.433   6.551
10652SOL    HW132855   1.842   0.457   6.609
10652SOL    HW232856   1.980   0.513   6.540
10653SOL     OW32857   5.301   5.733   4.409
10653SOL    HW132858   5.263   5.783   4.331
10653SOL    HW232859   5.400   5.726   4.400
10654SOL     OW32860   6.491   2.052   3.805
10654SOL    HW132861   6.508   2.072   3.708
10654SOL    HW232862   6.438   1.967   3.812
10655SOL     OW32863   0.070   4.671   0.757
10655SOL    HW132864   0.038   4.585   0.797
10655SOL    HW232865   0.141   4.710   0.816
10656SOL     OW32866   5.283   2.079   4.586
10656SOL    HW132867   5.185   2.096   4.573
10656SOL    HW232868   5.336   2.153   4.545
10657SOL     OW32869   4.962   0.472   5.115
10657SOL    HW132870   4.910   0.453   5.032
10657SOL    HW232871   4.950   0.568   5.140
10658SOL     OW32872   1.061   1.797   5.517
10658SOL    HW132873   0.976   1.757   5.482
10658SOL    HW232874   1.129   1.799   5.444
10659SOL     OW32875   0.487   5.793   0.852
10659SOL    HW132876   0.454   5.770   0.761
10659SOL    HW232877   0.473   5.716   0.914
10660SOL     OW32878   5.524   3.020   6.018
10660SOL    HW132879   5.451   2.958   6.048
10660SOL    HW232880   5.578   3.048   6.098
10661SOL     OW32881   3.278   5.196   5.365
10661SOL    HW132882   3.234   5.152   5.287
10661SOL    HW232883   3.306   5.289   5.339
10662SOL     OW32884   2.986   1.285   1.456
10662SOL    HW132885   2.934   1.290   1.370
10662SOL    HW232886   3.043   1.367   1.465
10663SOL     OW32887   0.694   2.465   3.685
10663SOL    HW132888   0.687   2.383   3.627
10663SOL    HW232889   0.603   2.488   3.720
10664SOL     OW32890   1.201   5.319   4.689
10664SOL    HW132891   1.158   5.261   4.620
10664SOL    HW232892   1.291   5.350   4.656
10665SOL     OW32893   3.365   2.850   0.227
10665SOL    HW132894   3.463   2.839   0.211
10665SOL    HW232895   3.325   2.906   0.154
10666SOL     OW32896   3.855   3.546   1.397
10666SOL    HW132897   3.832   3.549   1.300
10666SOL    HW232898   3.940   3.495   1.410
10667SOL     OW32899   5.709   3.036   4.155
10667SOL    HW132900   5.738   3.023   4.250
10667SOL    HW232901   5.610   3.039   4.151
10668SOL     OW32902   3.427   2.806   5.921
10668SOL    HW132903   3.381   2.717   5.923
10668SOL    HW232904   3.391   2.860   5.845
10669SOL     OW32905   6.193   1.822   1.212
10669SOL    HW132906   6.251   1.887   1.162
10669SOL    HW232907   6.097   1.844   1.196
10670SOL     OW32908   4.807   3.973   4.206
10670SOL    HW132909   4.755   4.058   4.197
10670SOL    HW232910   4.787   3.931   4.294
10671SOL     OW32911   1.597   3.388   4.921
10671SOL    HW132912   1.584   3.480   4.884
10671SOL    HW232913   1.592   3.390   5.020
10672SOL     OW32914   6.167   3.823   2.458
10672SOL    HW132915   6.165   3.777   2.546
10672SOL    HW232916   6.262   3.833   2.428
10673SOL     OW32917   2.373   1.248   1.114
10673SOL    HW132918   2.463   1.206   1.115
10673SOL    HW232919   2.313   1.197   1.053
10674SOL     OW32920   3.418   3.523   4.220
10674SOL    HW132921   3.469   3.598   4.177
10674SOL    HW232922   3.466   3.437   4.205
10675SOL     OW32923   3.647   6.642   5.502
10675SOL    HW132924   3.604   6.580   5.567
10675SOL    HW232925   3.650   6.734   5.540
10676SOL     OW32926   1.357   0.262   5.646
10676SOL    HW132927   1.288   0.313   5.697
10676SOL    HW232928   1.331   0.255   5.550
10677SOL     OW32929   0.464   1.831   6.784
10677SOL    HW132930   0.475   1.913   6.840
10677SOL    HW232931   0.415   1.854   6.700
10678SOL     OW32932   4.227   5.573   2.320
10678SOL    HW132933   4.209   5.641   2.392
10678SOL    HW232934   4.140   5.534   2.290
10679SOL     OW32935   4.930   3.985   0.189
10679SOL    HW132936   4.934   4.049   0.266
10679SOL    HW232937   4.872   3.907   0.213
10680SOL     OW32938   4.065   1.518   5.644
10680SOL    HW132939   4.077   1.612   5.612
10680SOL    HW232940   3.980   1.481   5.607
10681SOL     OW32941   2.187   3.184   5.368
10681SOL    HW132942   2.139   3.120   5.309
10681SOL    HW232943   2.265   3.139   5.411
10682SOL     OW32944   4.947   3.912   6.635
10682SOL    HW132945   4.862   3.873   6.598
10682SOL    HW232946   4.992   3.966   6.564
10683SOL     OW32947   2.734   0.488   3.559
10683SOL    HW132948   2.692   0.577   3.543
10683SOL    HW232949   2.833   0.495   3.548
10684SOL     OW32950   4.573   4.472   1.706
10684SOL    HW132951   4.545   4.562   1.675
10684SOL    HW232952   4.535   4.455   1.797
10685SOL     OW32953   0.748   6.574   2.027
10685SOL    HW132954   0.817   6.644   2.040
10685SOL    HW232955   0.792   6.485   2.013
10686SOL     OW32956   2.507   0.706   6.600
10686SOL    HW132957   2.489   0.640   6.673
10686SOL    HW232958   2.604   0.730   6.600
10687SOL     OW32959   0.679   3.556   3.450
10687SOL    HW132960   0.762   3.612   3.454
10687SOL    HW232961   0.662   3.529   3.355
10688SOL     OW32962   5.158   0.932   3.007
10688SOL    HW132963   5.093   0.913   3.081
10688SOL    HW232964   5.111   0.981   2.933
10689SOL     OW32965   0.615   6.976   2.372
10689SOL    HW132966   0.641   7.017   2.285
10689SOL    HW232967   0.698   6.952   2.423
10690SOL     OW32968   0.928   6.466   4.213
10690SOL    HW132969   0.870   6.417   4.279
10690SOL    HW232970   0.910   6.564   4.220
10691SOL     OW32971   4.068   0.110   2.204
10691SOL    HW132972   3.995   0.127   2.270
10691SOL    HW232973   4.147   0.167   2.227
10692SOL     OW32974   2.508   1.422   4.395
10692SOL    HW132975   2.529   1.504   4.448
10692SOL    HW232976   2.519   1.441   4.298
10693SOL     OW32977   1.401   5.482   6.678
10693SOL    HW132978   1.357   5.504   6.765
10693SOL    HW232979   1.495   5.516   6.680
10694SOL     OW32980   4.791   0.687   4.739
10694SOL    HW132981   4.879   0.730   4.757
10694SOL    HW232982   4.718   0.752   4.760
10695SOL     OW32983   5.347   4.607   2.160
10695SOL    HW132984   5.250   4.586   2.147
10695SOL    HW232985   5.402   4.554   2.096
10696SOL     OW32986   6.262   4.733   4.218
10696SOL    HW132987   6.336   4.789   4.181
10696SOL    HW232988   6.177   4.787   4.218
10697SOL     OW32989   2.598   5.269   4.909
10697SOL    HW132990   2.616   5.342   4.844
10697SOL    HW232991   2.499   5.262   4.924
10698SOL     OW32992   3.476   3.467   0.207
10698SOL    HW132993   3.570   3.464   0.239
10698SOL    HW232994   3.458   3.556   0.163
10699SOL     OW32995   3.597   2.380   0.784
10699SOL    HW132996   3.653   2.349   0.707
10699SOL    HW232997   3.501   2.358   0.766
10700SOL     OW32998   4.992   0.714   1.540
10700SOL    HW132999   5.053   0.636   1.531
10700SOL    HW233000   5.016   0.784   1.473
10701SOL     OW33001   3.040   0.035   6.535
10701SOL    HW133002   3.110   0.007   6.469
10701SOL    HW233003   3.084   0.078   6.614
10702SOL     OW33004   5.947   2.250   1.421
10702SOL    HW133005   6.034   2.216   1.385
10702SOL    HW233006   5.897   2.175   1.464
10703SOL     OW33007   0.729   2.410   5.841
10703SOL    HW133008   0.813   2.456   5.870
10703SOL    HW233009   0.656   2.430   5.906
10704SOL     OW33010   4.816   6.689   1.921
10704SOL    HW133011   4.728   6.729   1.894
10704SOL    HW233012   4.866   6.755   1.977
10705SOL     OW33013   5.537   4.113   1.101
10705SOL    HW133014   5.462   4.140   1.161
10705SOL    HW233015   5.565   4.019   1.123
10706SOL     OW33016   3.788   0.460   1.176
10706SOL    HW133017   3.847   0.385   1.206
10706SOL    HW233018   3.754   0.509   1.256
10707SOL     OW33019   5.335   0.165   3.944
10707SOL    HW133020   5.286   0.182   3.858
10707SOL    HW233021   5.431   0.144   3.924
10708SOL     OW33022   4.084   1.806   2.256
10708SOL    HW133023   4.160   1.746   2.230
10708SOL    HW233024   4.017   1.807   2.182
10709SOL     OW33025   6.114   4.552   3.387
10709SOL    HW133026   6.043   4.576   3.321
10709SOL    HW233027   6.204   4.570   3.347
10710SOL     OW33028   5.068   2.214   3.851
10710SOL    HW133029   5.148   2.275   3.849
10710SOL    HW233030   5.008   2.241   3.926
10711SOL     OW33031   3.695   6.941   1.781
10711SOL    HW133032   3.731   6.848   1.792
10711SOL    HW233033   3.738   7.001   1.848
10712SOL     OW33034   5.573   0.088   3.082
10712SOL    HW133035   5.634   0.143   3.025
10712SOL    HW233036   5.588   0.110   3.179
10713SOL     OW33037   1.540   4.428   1.624
10713SOL    HW133038   1.577   4.416   1.532
10713SOL    HW233039   1.441   4.446   1.618
10714SOL     OW33040   3.104   4.117   5.208
10714SOL    HW133041   3.057   4.196   5.248
10714SOL    HW233042   3.041   4.039   5.204
10715SOL     OW33043   6.226   0.977   1.736
10715SOL    HW133044   6.312   0.977   1.786
10715SOL    HW233045   6.244   0.989   1.638
10716SOL     OW33046   5.055   1.342   3.517
10716SOL    HW133047   5.126   1.402   3.480
10716SOL    HW233048   5.038   1.267   3.453
10717SOL     OW33049   2.035   2.510   6.727
10717SOL    HW133050   1.985   2.424   6.716
10717SOL    HW233051   2.075   2.515   6.818
10718SOL     OW33052   2.072   5.279   5.333
10718SOL    HW133053   1.998   5.219   5.302
10718SOL    HW233054   2.057   5.303   5.429
10719SOL     OW33055   6.426   5.769   4.069
10719SOL    HW133056   6.483   5.687   4.061
10719SOL    HW233057   6.468   5.844   4.018
10720SOL     OW33058   6.971   5.057   3.612
10720SOL    HW133059   6.939   4.986   3.550
10720SOL    HW233060   6.894   5.099   3.659
10721SOL     OW33061   5.378   3.812   5.612
10721SOL    HW133062   5.405   3.742   5.678
10721SOL    HW233063   5.284   3.843   5.632
10722SOL     OW33064   6.681   4.049   5.649
10722SOL    HW133065   6.768   4.063   5.602
10722SOL    HW233066   6.685   3.964   5.702
10723SOL     OW33067   6.071   0.185   0.735
10723SOL    HW133068   6.045   0.093   0.705
10723SOL    HW233069   6.146   0.179   0.800
10724SOL     OW33070   6.703   6.273   6.904
10724SOL    HW133071   6.781   6.278   6.966
10724SOL    HW233072   6.618   6.272   6.958
10725SOL     OW33073   2.309   6.103   5.532
10725SOL    HW133074   2.276   6.068   5.444
10725SOL    HW233075   2.408   6.096   5.536
10726SOL     OW33076   4.915   1.739   4.256
10726SOL    HW133077   4.854   1.777   4.325
10726SOL    HW233078   4.884   1.646   4.232
10727SOL     OW33079   1.731   6.188   5.418
10727SOL    HW133080   1.689   6.263   5.367
10727SOL    HW233081   1.783   6.129   5.355
10728SOL     OW33082   5.655   6.739   0.535
10728SOL    HW133083   5.586   6.809   0.555
10728SOL    HW233084   5.659   6.674   0.610
10729SOL     OW33085   6.563   2.951   1.565
10729SOL    HW133086   6.612   3.011   1.502
10729SOL    HW233087   6.494   3.004   1.614
10730SOL     OW33088   4.924   0.107   2.558
10730SOL    HW133089   4.896   0.053   2.479
10730SOL    HW233090   4.882   0.198   2.553
10731SOL     OW33091   4.700   0.495   0.941
10731SOL    HW133092   4.697   0.416   1.002
10731SOL    HW233093   4.738   0.574   0.990
10732SOL     OW33094   0.693   4.742   5.413
10732SOL    HW133095   0.683   4.762   5.511
10732SOL    HW233096   0.621   4.789   5.362
10733SOL     OW33097   6.618   2.653   0.070
10733SOL    HW133098   6.543   2.611   0.018
10733SOL    HW233099   6.580   2.713   0.140
10734SOL     OW33100   6.808   2.510   1.635
10734SOL    HW133101   6.882   2.445   1.652
10734SOL    HW233102   6.846   2.594   1.597
10735SOL     OW33103   0.487   4.016   2.814
10735SOL    HW133104   0.581   4.006   2.781
10735SOL    HW233105   0.427   4.038   2.737
10736SOL     OW33106   2.355   0.187   3.548
10736SOL    HW133107   2.340   0.188   3.449
10736SOL    HW233108   2.267   0.177   3.594
10737SOL     OW33109   6.892   2.085   1.668
10737SOL    HW133110   6.798   2.117   1.673
10737SOL    HW233111   6.911   2.054   1.575
10738SOL     OW33112   4.215   0.446   3.511
10738SOL    HW133113   4.266   0.374   3.465
10738SOL    HW233114   4.250   0.535   3.483
10739SOL     OW33115   1.958   1.822   1.272
10739SOL    HW133116   1.966   1.832   1.371
10739SOL    HW233117   2.048   1.797   1.234
10740SOL     OW33118   5.172   4.887   3.126
10740SOL    HW133119   5.197   4.899   3.223
10740SOL    HW233120   5.142   4.793   3.111
10741SOL     OW33121   3.878   0.363   3.059
10741SOL    HW133122   3.911   0.293   2.996
10741SOL    HW233123   3.887   0.330   3.153
10742SOL     OW33124   6.898   5.614   0.774
10742SOL    HW133125   6.826   5.545   0.777
10742SOL    HW233126   6.953   5.609   0.857
10743SOL     OW33127   2.397   1.690   4.690
10743SOL    HW133128   2.428   1.710   4.783
10743SOL    HW233129   2.471   1.706   4.625
10744SOL     OW33130   4.162   1.700   1.307
10744SOL    HW133131   4.138   1.699   1.211
10744SOL    HW233132   4.161   1.607   1.343
10745SOL     OW33133   6.847   5.763   5.884
10745SOL    HW133134   6.906   5.834   5.923
10745SOL    HW233135   6.904   5.688   5.850
10746SOL     OW33136   0.468   4.224   5.891
10746SOL    HW133137   0.563   4.251   5.874
10746SOL    HW233138   0.407   4.284   5.839
10747SOL     OW33139   3.417   1.487   4.424
10747SOL    HW133140   3.372   1.483   4.514
10747SOL    HW233141   3.463   1.400   4.406
10748SOL     OW33142   5.184   1.493   2.624
10748SOL    HW133143   5.248   1.559   2.584
10748SOL    HW233144   5.130   1.451   2.552
10749SOL     OW33145   2.369   6.901   6.187
10749SOL    HW133146   2.403   6.807   6.191
10749SOL    HW233147   2.357   6.927   6.092
10750SOL     OW33148   3.894   0.652   6.690
10750SOL    HW133149   3.940   0.739   6.673
10750SOL    HW233150   3.934   0.581   6.632
10751SOL     OW33151   2.696   4.918   4.119
10751SOL    HW133152   2.619   4.964   4.075
10751SOL    HW233153   2.661   4.849   4.183
10752SOL     OW33154   4.984   5.329   3.929
10752SOL    HW133155   5.083   5.328   3.923
10752SOL    HW233156   4.955   5.402   3.991
10753SOL     OW33157   6.797   3.241   4.597
10753SOL    HW133158   6.780   3.329   4.642
10753SOL    HW233159   6.724   3.177   4.621
10754SOL     OW33160   1.984   0.006   2.229
10754SOL    HW133161   1.957   0.095   2.192
10754SOL    HW233162   2.032   6.977   2.158
10755SOL     OW33163   6.609   5.919   1.992
10755SOL    HW133164   6.705   5.901   2.014
10755SOL    HW233165   6.596   5.912   1.893
10756SOL     OW33166   0.169   6.810   5.374
10756SOL    HW133167   0.218   6.755   5.306
10756SOL    HW233168   0.173   6.766   5.463
10757SOL     OW33169   2.742   3.246   1.064
10757SOL    HW133170   2.713   3.222   1.156
10757SOL    HW233171   2.791   3.333   1.065
10758SOL     OW33172   0.535   5.383   4.441
10758SOL    HW133173   0.616   5.384   4.383
10758SOL    HW233174   0.545   5.451   4.514
10759SOL     OW33175   0.291   2.826   6.691
10759SOL    HW133176   0.386   2.798   6.706
10759SOL    HW233177   0.288   2.897   6.621
10760SOL     OW33178   6.320   0.833   3.691
10760SOL    HW133179   6.294   0.736   3.695
10760SOL    HW233180   6.262   0.881   3.625
10761SOL     OW33181   2.797   5.133   5.288
10761SOL    HW133182   2.773   5.096   5.378
10761SOL    HW233183   2.714   5.147   5.234
10762SOL     OW33184   3.324   0.805   4.552
10762SOL    HW133185   3.255   0.747   4.508
10762SOL    HW233186   3.315   0.796   4.651
10763SOL     OW33187   4.297   6.454   3.419
10763SOL    HW133188   4.356   6.383   3.458
10763SOL    HW233189   4.332   6.544   3.446
10764SOL     OW33190   5.964   0.175   4.668
10764SOL    HW133191   6.048   0.178   4.613
10764SOL    HW233192   5.954   0.084   4.708
10765SOL     OW33193   5.684   3.617   1.088
10765SOL    HW133194   5.736   3.602   1.004
10765SOL    HW233195   5.650   3.529   1.122
10766SOL     OW33196   3.880   2.831   1.692
10766SOL    HW133197   3.812   2.899   1.667
10766SOL    HW233198   3.841   2.739   1.681
10767SOL     OW33199   3.730   1.121   1.728
10767SOL    HW133200   3.681   1.051   1.780
10767SOL    HW233201   3.695   1.212   1.752
10768SOL     OW33202   7.003   5.253   0.280
10768SOL    HW133203   6.957   5.342   0.287
10768SOL    HW233204   6.946   5.183   0.322
10769SOL     OW33205   1.677   3.907   6.001
10769SOL    HW133206   1.694   3.878   6.095
10769SOL    HW233207   1.720   3.996   5.984
10770SOL     OW33208   4.452   6.242   3.222
10770SOL    HW133209   4.513   6.194   3.286
10770SOL    HW233210   4.476   6.339   3.220
10771SOL     OW33211   2.569   1.192   3.438
10771SOL    HW133212   2.632   1.130   3.391
10771SOL    HW233213   2.565   1.169   3.535
10772SOL     OW33214   5.605   5.180   3.635
10772SOL    HW133215   5.625   5.278   3.629
10772SOL    HW233216   5.511   5.167   3.666
10773SOL     OW33217   5.104   4.897   3.892
10773SOL    HW133218   5.179   4.924   3.953
10773SOL    HW233219   5.141   4.877   3.801
10774SOL     OW33220   1.219   0.987   3.843
10774SOL    HW133221   1.182   1.014   3.754
10774SOL    HW233222   1.199   0.891   3.860
10775SOL     OW33223   0.719   4.050   2.137
10775SOL    HW133224   0.724   4.064   2.038
10775SOL    HW233225   0.646   4.107   2.175
10776SOL     OW33226   1.346   0.290   6.284
10776SOL    HW133227   1.311   0.227   6.214
10776SOL    HW233228   1.408   0.355   6.241
10777SOL     OW33229   3.167   6.085   1.386
10777SOL    HW133230   3.075   6.062   1.352
10777SOL    HW233231   3.168   6.180   1.416
10778SOL     OW33232   6.408   5.603   2.881
10778SOL    HW133233   6.402   5.689   2.932
10778SOL    HW233234   6.485   5.608   2.817
10779SOL     OW33235   5.477   2.582   3.412
10779SOL    HW133236   5.538   2.516   3.367
10779SOL    HW233237   5.442   2.647   3.345
10780SOL     OW33238   0.597   1.139   2.951
10780SOL    HW133239   0.671   1.106   3.009
10780SOL    HW233240   0.511   1.136   3.001
10781SOL     OW33241   3.634   0.308   4.353
10781SOL    HW133242   3.637   0.298   4.254
10781SOL    HW233243   3.550   0.356   4.379
10782SOL     OW33244   6.560   5.527   4.048
10782SOL    HW133245   6.653   5.490   4.043
10782SOL    HW233246   6.498   5.455   4.080
10783SOL     OW33247   6.727   2.130   2.892
10783SOL    HW133248   6.697   2.221   2.922
10783SOL    HW233249   6.685   2.109   2.804
10784SOL     OW33250   2.816   0.961   4.316
10784SOL    HW133251   2.731   0.915   4.342
10784SOL    HW233252   2.798   1.057   4.297
10785SOL     OW33253   0.942   3.862   6.695
10785SOL    HW133254   0.882   3.931   6.734
10785SOL    HW233255   0.928   3.857   6.596
10786SOL     OW33256   0.373   5.243   3.117
10786SOL    HW133257   0.447   5.258   3.052
10786SOL    HW233258   0.346   5.147   3.115
10787SOL     OW33259   1.861   2.565   5.690
10787SOL    HW133260   1.836   2.597   5.599
10787SOL    HW233261   1.863   2.643   5.753
10788SOL     OW33262   5.916   4.014   6.537
10788SOL    HW133263   5.996   4.040   6.591
10788SOL    HW233264   5.856   4.093   6.526
10789SOL     OW33265   6.588   1.310   0.157
10789SOL    HW133266   6.500   1.268   0.180
10789SOL    HW233267   6.652   1.240   0.127
10790SOL     OW33268   0.009   6.541   2.857
10790SOL    HW133269   0.046   6.459   2.811
10790SOL    HW233270   6.933   6.533   2.863
10791SOL     OW33271   0.266   6.190   3.065
10791SOL    HW133272   0.317   6.224   2.985
10791SOL    HW233273   0.299   6.236   3.147
10792SOL     OW33274   3.760   4.168   5.281
10792SOL    HW133275   3.701   4.248   5.271
10792SOL    HW233276   3.773   4.148   5.378
10793SOL     OW33277   5.658   3.442   4.778
10793SOL    HW133278   5.593   3.396   4.839
10793SOL    HW233279   5.608   3.493   4.708
10794SOL     OW33280   3.274   3.436   3.548
10794SOL    HW133281   3.249   3.520   3.499
10794SOL    HW233282   3.191   3.389   3.578
10795SOL     OW33283   0.595   4.559   3.384
10795SOL    HW133284   0.690   4.551   3.355
10795SOL    HW233285   0.565   4.654   3.375
10796SOL     OW33286   1.914   6.221   4.831
10796SOL    HW133287   1.952   6.168   4.756
10796SOL    HW233288   1.912   6.318   4.806
10797SOL     OW33289   3.855   2.591   0.462
10797SOL    HW133290   3.876   2.504   0.507
10797SOL    HW233291   3.853   2.664   0.529
10798SOL     OW33292   6.909   2.147   0.316
10798SOL    HW133293   6.859   2.172   0.234
10798SOL    HW233294   6.991   2.204   0.324
10799SOL     OW33295   4.145   1.396   1.862
10799SOL    HW133296   4.159   1.456   1.783
10799SOL    HW233297   4.232   1.355   1.889
10800SOL     OW33298   1.168   7.021   1.741
10800SOL    HW133299   1.229   6.944   1.760
10800SOL    HW233300   1.222   0.082   1.734
10801SOL     OW33301   1.556   0.602   0.998
10801SOL    HW133302   1.652   0.592   0.971
10801SOL    HW233303   1.512   0.670   0.939
10802SOL     OW33304   6.615   0.246   3.296
10802SOL    HW133305   6.685   0.264   3.365
10802SOL    HW233306   6.552   0.324   3.292
10803SOL     OW33307   2.567   5.198   6.364
10803SOL    HW133308   2.624   5.151   6.296
10803SOL    HW233309   2.493   5.137   6.393
10804SOL     OW33310   0.032   4.083   4.374
10804SOL    HW133311   0.027   4.102   4.276
10804SOL    HW233312   0.024   4.169   4.424
10805SOL     OW33313   6.773   1.554   5.536
10805SOL    HW133314   6.774   1.457   5.511
10805SOL    HW233315   6.782   1.563   5.635
10806SOL     OW33316   2.010   4.379   6.870
10806SOL    HW133317   2.059   4.329   6.799
10806SOL    HW233318   2.011   4.326   6.955
10807SOL     OW33319   3.426   6.816   4.494
10807SOL    HW133320   3.465   6.799   4.404
10807SOL    HW233321   3.491   6.788   4.565
10808SOL     OW33322   0.590   3.556   6.262
10808SOL    HW133323   0.621   3.479   6.207
10808SOL    HW233324   0.656   3.631   6.254
10809SOL     OW33325   2.122   6.547   4.685
10809SOL    HW133326   2.184   6.492   4.742
10809SOL    HW233327   2.032   6.549   4.728
10810SOL     OW33328   0.160   0.246   4.755
10810SOL    HW133329   0.129   0.328   4.708
10810SOL    HW233330   0.098   0.225   4.830
10811SOL     OW33331   4.923   4.927   4.959
10811SOL    HW133332   4.908   4.977   5.044
10811SOL    HW233333   4.965   4.987   4.892
10812SOL     OW33334   5.939   2.837   0.288
10812SOL    HW133335   5.889   2.923   0.277
10812SOL    HW233336   5.876   2.765   0.317
10813SOL     OW33337   0.185   4.362   6.032
10813SOL    HW133338   0.171   4.272   5.991
10813SOL    HW233339   0.101   4.415   6.023
10814SOL     OW33340   2.988   0.810   1.073
10814SOL    HW133341   2.923   0.742   1.106
10814SOL    HW233342   2.974   0.824   0.975
10815SOL     OW33343   5.473   0.940   4.758
10815SOL    HW133344   5.448   0.936   4.661
10815SOL    HW233345   5.493   0.848   4.791
10816SOL     OW33346   3.982   3.059   3.697
10816SOL    HW133347   3.968   3.084   3.793
10816SOL    HW233348   4.044   2.981   3.693
10817SOL     OW33349   1.985   6.298   3.339
10817SOL    HW133350   2.083   6.278   3.332
10817SOL    HW233351   1.952   6.270   3.429
10818SOL     OW33352   4.048   4.676   6.772
10818SOL    HW133353   4.145   4.700   6.765
10818SOL    HW233354   4.031   4.631   6.860
10819SOL     OW33355   6.436   6.064   5.933
10819SOL    HW133356   6.336   6.071   5.923
10819SOL    HW233357   6.473   6.011   5.857
10820SOL     OW33358   2.376   4.166   6.079
10820SOL    HW133359   2.300   4.159   6.144
10820SOL    HW233360   2.458   4.198   6.126
10821SOL     OW33361   4.804   5.474   3.105
10821SOL    HW133362   4.803   5.512   3.013
10821SOL    HW233363   4.747   5.530   3.165
10822SOL     OW33364   5.272   1.784   2.325
10822SOL    HW133365   5.206   1.859   2.320
10822SOL    HW233366   5.226   1.698   2.302
10823SOL     OW33367   5.820   6.753   2.046
10823SOL    HW133368   5.860   6.668   2.012
10823SOL    HW233369   5.868   6.781   2.130
10824SOL     OW33370   0.672   2.749   3.675
10824SOL    HW133371   0.657   2.658   3.637
10824SOL    HW233372   0.771   2.765   3.684
10825SOL     OW33373   0.535   2.260   0.413
10825SOL    HW133374   0.565   2.173   0.452
10825SOL    HW233375   0.526   2.251   0.314
10826SOL     OW33376   0.558   3.150   3.258
10826SOL    HW133377   0.629   3.219   3.275
10826SOL    HW233378   0.474   3.177   3.306
10827SOL     OW33379   6.752   3.498   4.685
10827SOL    HW133380   6.775   3.589   4.719
10827SOL    HW233381   6.674   3.504   4.623
10828SOL     OW33382   6.168   5.087   5.296
10828SOL    HW133383   6.224   5.025   5.351
10828SOL    HW233384   6.091   5.036   5.256
10829SOL     OW33385   3.978   2.995   5.178
10829SOL    HW133386   4.050   2.941   5.222
10829SOL    HW233387   4.007   3.018   5.084
10830SOL     OW33388   3.647   1.921   3.430
10830SOL    HW133389   3.694   1.893   3.347
10830SOL    HW233390   3.565   1.865   3.443
10831SOL     OW33391   4.003   0.758   3.572
10831SOL    HW133392   4.092   0.772   3.528
10831SOL    HW233393   3.964   0.671   3.541
10832SOL     OW33394   6.376   3.575   0.583
10832SOL    HW133395   6.358   3.581   0.485
10832SOL    HW233396   6.317   3.639   0.632
10833SOL     OW33397   0.507   1.025   6.596
10833SOL    HW133398   0.541   0.931   6.599
10833SOL    HW233399   0.580   1.088   6.623
10834SOL     OW33400   0.001   6.988   1.342
10834SOL    HW133401   0.010   6.889   1.333
10834SOL    HW233402   6.927   7.012   1.344
10835SOL     OW33403   0.124   2.246   5.846
10835SOL    HW133404   0.037   2.272   5.805
10835SOL    HW233405   0.187   2.217   5.774
10836SOL     OW33406   6.998   1.123   4.061
10836SOL    HW133407   0.019   1.139   3.973
10836SOL    HW233408   7.012   1.203   4.120
10837SOL     OW33409   0.541   2.948   2.613
10837SOL    HW133410   0.445   2.930   2.592
10837SOL    HW233411   0.565   2.906   2.700
10838SOL     OW33412   0.371   5.290   2.422
10838SOL    HW133413   0.446   5.225   2.430
10838SOL    HW233414   0.384   5.347   2.341
10839SOL     OW33415   5.133   2.323   1.228
10839SOL    HW133416   5.040   2.355   1.210
10839SOL    HW233417   5.182   2.314   1.142
10840SOL     OW33418   2.576   0.359   1.215
10840SOL    HW133419   2.673   0.358   1.190
10840SOL    HW233420   2.525   0.305   1.148
10841SOL     OW33421   2.186   5.371   4.701
10841SOL    HW133422   2.144   5.415   4.780
10841SOL    HW233423   2.168   5.273   4.704
10842SOL     OW33424   5.241   4.351   1.138
10842SOL    HW133425   5.333   4.346   1.098
10842SOL    HW233426   5.173   4.339   1.066
10843SOL     OW33427   2.318   2.003   1.556
10843SOL    HW133428   2.318   1.961   1.647
10843SOL    HW233429   2.302   2.101   1.565
10844SOL     OW33430   1.641   5.213   4.764
10844SOL    HW133431   1.724   5.157   4.758
10844SOL    HW233432   1.569   5.171   4.708
10845SOL     OW33433   4.313   0.149   4.868
10845SOL    HW133434   4.256   0.117   4.943
10845SOL    HW233435   4.256   0.192   4.798
10846SOL     OW33436   5.267   0.131   6.901
10846SOL    HW133437   5.309   0.118   6.991
10846SOL    HW233438   5.327   0.094   6.831
10847SOL     OW33439   2.592   1.004   6.269
10847SOL    HW133440   2.679   0.955   6.264
10847SOL    HW233441   2.589   1.075   6.199
10848SOL     OW33442   1.545   4.963   2.002
10848SOL    HW133443   1.534   5.050   2.050
10848SOL    HW233444   1.632   4.963   1.953
10849SOL     OW33445   2.206   6.876   4.185
10849SOL    HW133446   2.159   6.875   4.274
10849SOL    HW233447   2.179   6.957   4.134
10850SOL     OW33448   3.553   4.794   0.842
10850SOL    HW133449   3.553   4.808   0.941
10850SOL    HW233450   3.639   4.829   0.803
10851SOL     OW33451   1.875   4.715   0.432
10851SOL    HW133452   1.915   4.624   0.444
10851SOL    HW233453   1.847   4.726   0.336
10852SOL     OW33454   2.046   1.003   2.021
10852SOL    HW133455   2.110   0.930   1.995
10852SOL    HW233456   1.988   0.971   2.096
10853SOL     OW33457   2.878   1.654   5.970
10853SOL    HW133458   2.977   1.656   5.954
10853SOL    HW233459   2.859   1.605   6.054
10854SOL     OW33460   3.021   6.423   5.194
10854SOL    HW133461   2.958   6.430   5.272
10854SOL    HW233462   3.000   6.496   5.128
10855SOL     OW33463   3.534   1.175   6.681
10855SOL    HW133464   3.483   1.191   6.597
10855SOL    HW233465   3.592   1.094   6.670
10856SOL     OW33466   0.403   0.799   0.474
10856SOL    HW133467   0.435   0.731   0.540
10856SOL    HW233468   0.353   0.753   0.401
10857SOL     OW33469   6.595   2.413   2.280
10857SOL    HW133470   6.638   2.440   2.366
10857SOL    HW233471   6.578   2.494   2.224
10858SOL     OW33472   2.607   6.334   2.026
10858SOL    HW133473   2.631   6.311   1.931
10858SOL    HW233474   2.539   6.269   2.059
10859SOL     OW33475   1.628   5.463   3.552
10859SOL    HW133476   1.587   5.524   3.484
10859SOL    HW233477   1.556   5.410   3.597
10860SOL     OW33478   6.996   3.002   3.162
10860SOL    HW133479   6.996   2.933   3.089
10860SOL    HW233480   6.939   2.970   3.238
10861SOL     OW33481   3.948   3.281   5.121
10861SOL    HW133482   3.972   3.200   5.175
10861SOL    HW233483   3.850   3.278   5.099
10862SOL     OW33484   1.029   1.053   4.416
10862SOL    HW133485   1.049   1.051   4.318
10862SOL    HW233486   0.969   1.130   4.436
10863SOL     OW33487   3.086   6.093   4.369
10863SOL    HW133488   3.176   6.136   4.377
10863SOL    HW233489   3.082   6.013   4.429
10864SOL     OW33490   3.574   5.808   2.866
10864SOL    HW133491   3.552   5.828   2.962
10864SOL    HW233492   3.666   5.768   2.862
10865SOL     OW33493   6.389   1.776   6.072
10865SOL    HW133494   6.327   1.742   6.001
10865SOL    HW233495   6.403   1.705   6.141
10866SOL     OW33496   5.271   5.086   1.006
10866SOL    HW133497   5.359   5.056   1.042
10866SOL    HW233498   5.281   5.177   0.965
10867SOL     OW33499   3.310   1.991   0.233
10867SOL    HW133500   3.305   1.994   0.333
10867SOL    HW233501   3.401   2.020   0.203
10868SOL     OW33502   2.162   2.069   2.480
10868SOL    HW133503   2.187   2.115   2.395
10868SOL    HW233504   2.073   2.023   2.469
10869NA      NA33505   6.449   2.576   6.062
10870NA      NA33506   4.466   4.538   5.230
10871NA      NA33507   2.470   3.344   1.714
10872NA      NA33508   4.916   3.664   5.205
10873NA      NA33509   4.430   2.475   5.133
10874NA      NA33510   3.658   4.713   1.663
10875NA      NA33511   6.591   6.007   4.902
10876NA      NA33512   3.851   3.976   5.141
10877NA      NA33513   4.632   6.829   6.999
10878NA      NA33514   3.405   0.037   5.066
10879NA      NA33515   0.017   5.302   2.756
10880NA      NA33516   2.881   0.619   2.771
10881NA      NA33517   3.519   3.891   1.153
10882NA      NA33518   3.620   3.412   2.964
   7.02309   7.02309   7.02309
