Generated by trjconv : CNT in water t= 594.00000
33518
    1C        C    1   2.840   2.769   4.748
    1C        C    2   2.899   2.724   4.869
    1C        C    3   2.840   2.776   4.985
    1C        C    4   2.849   2.777   4.264
    1C        C    5   2.904   2.727   4.384
    1C        C    6   2.851   2.777   4.505
    1C        C    7   3.010   2.640   4.627
    1C        C    8   2.895   2.721   4.627
    1C        C    9   3.075   2.608   4.749
    1C        C   10   3.009   2.636   4.870
    1C        C   11   3.180   2.497   4.979
    1C        C   12   3.058   2.565   4.981
    1C        C   13   2.851   2.775   3.775
    1C        C   14   2.902   2.726   3.897
    1C        C   15   2.853   2.780   4.018
    1C        C   16   3.021   2.656   4.138
    1C        C   17   2.901   2.731   4.141
    1C        C   18   3.081   2.620   4.261
    1C        C   19   3.024   2.653   4.385
    1C        C   20   3.211   2.557   4.506
    1C        C   21   3.080   2.611   4.508
    1C        C   22   3.278   2.539   4.629
    1C        C   23   3.206   2.553   4.750
    1C        C   24   3.411   2.484   4.866
    1C        C   25   3.270   2.509   4.868
    1C        C   26   3.490   2.479   4.982
    1C        C   27   2.854   2.771   3.284
    1C        C   28   2.909   2.727   3.406
    1C        C   29   2.858   2.776   3.528
    1C        C   30   3.020   2.647   3.653
    1C        C   31   2.906   2.731   3.653
    1C        C   32   3.079   2.608   3.776
    1C        C   33   3.016   2.643   3.898
    1C        C   34   3.212   2.557   4.020
    1C        C   35   3.082   2.612   4.019
    1C        C   36   3.280   2.536   4.142
    1C        C   37   3.210   2.563   4.262
    1C        C   38   3.416   2.509   4.383
    1C        C   39   3.278   2.536   4.384
    1C        C   40   3.487   2.500   4.505
    1C        C   41   3.417   2.511   4.627
    1C        C   42   3.630   2.484   4.746
    1C        C   43   3.488   2.486   4.746
    1C        C   44   3.705   2.489   4.866
    1C        C   45   3.629   2.477   4.983
    1C        C   46   2.845   2.761   2.793
    1C        C   47   2.900   2.718   2.916
    1C        C   48   2.844   2.763   3.038
    1C        C   49   3.022   2.648   3.161
    1C        C   50   2.901   2.722   3.160
    1C        C   51   3.083   2.614   3.284
    1C        C   52   3.023   2.643   3.408
    1C        C   53   3.210   2.552   3.528
    1C        C   54   3.079   2.605   3.532
    1C        C   55   3.277   2.530   3.651
    1C        C   56   3.210   2.555   3.773
    1C        C   57   3.415   2.509   3.897
    1C        C   58   3.276   2.535   3.896
    1C        C   59   3.488   2.501   4.017
    1C        C   60   3.419   2.507   4.140
    1C        C   61   3.630   2.497   4.263
    1C        C   62   3.489   2.498   4.262
    1C        C   63   3.702   2.509   4.385
    1C        C   64   3.628   2.502   4.505
    1C        C   65   3.836   2.544   4.624
    1C        C   66   3.701   2.505   4.626
    1C        C   67   3.901   2.571   4.746
    1C        C   68   3.840   2.528   4.866
    1C        C   69   4.052   2.587   4.979
    1C        C   70   3.926   2.526   4.977
    1C        C   71   2.827   2.735   2.306
    1C        C   72   2.884   2.694   2.429
    1C        C   73   2.832   2.747   2.549
    1C        C   74   3.013   2.633   2.673
    1C        C   75   2.895   2.710   2.671
    1C        C   76   3.075   2.598   2.795
    1C        C   77   3.016   2.638   2.917
    1C        C   78   3.209   2.551   3.037
    1C        C   79   3.082   2.613   3.039
    1C        C   80   3.278   2.533   3.159
    1C        C   81   3.212   2.556   3.282
    1C        C   82   3.414   2.500   3.406
    1C        C   83   3.276   2.530   3.405
    1C        C   84   3.486   2.493   3.528
    1C        C   85   3.415   2.502   3.650
    1C        C   86   3.624   2.499   3.773
    1C        C   87   3.483   2.494   3.773
    1C        C   88   3.697   2.509   3.894
    1C        C   89   3.630   2.502   4.018
    1C        C   90   3.836   2.544   4.138
    1C        C   91   3.699   2.510   4.141
    1C        C   92   3.905   2.564   4.259
    1C        C   93   3.840   2.540   4.382
    1C        C   94   4.030   2.635   4.500
    1C        C   95   3.906   2.568   4.503
    1C        C   96   4.093   2.672   4.621
    1C        C   97   4.028   2.634   4.741
    1C        C   98   4.188   2.769   4.864
    1C        C   99   4.094   2.661   4.864
    1C        C  100   4.213   2.845   4.979
    1C        C  101   2.821   2.732   2.069
    1C        C  102   2.992   2.594   2.191
    1C        C  103   2.878   2.680   2.185
    1C        C  104   3.064   2.572   2.311
    1C        C  105   3.003   2.618   2.430
    1C        C  106   3.202   2.537   2.552
    1C        C  107   3.074   2.597   2.550
    1C        C  108   3.271   2.521   2.674
    1C        C  109   3.205   2.542   2.797
    1C        C  110   3.415   2.492   2.918
    1C        C  111   3.276   2.519   2.916
    1C        C  112   3.486   2.482   3.040
    1C        C  113   3.415   2.500   3.161
    1C        C  114   3.626   2.492   3.284
    1C        C  115   3.484   2.493   3.284
    1C        C  116   3.696   2.505   3.406
    1C        C  117   3.627   2.498   3.529
    1C        C  118   3.833   2.539   3.650
    1C        C  119   3.696   2.503   3.651
    1C        C  120   3.898   2.570   3.771
    1C        C  121   3.834   2.542   3.894
    1C        C  122   4.026   2.636   4.013
    1C        C  123   3.902   2.567   4.015
    1C        C  124   4.088   2.675   4.134
    1C        C  125   4.027   2.637   4.256
    1C        C  126   4.191   2.771   4.377
    1C        C  127   4.087   2.676   4.377
    1C        C  128   4.240   2.824   4.499
    1C        C  129   4.197   2.767   4.621
    1C        C  130   4.320   2.941   4.741
    1C        C  131   4.239   2.824   4.743
    1C        C  132   4.348   3.010   4.861
    1C        C  133   4.284   2.965   4.977
    1C        C  134   3.171   2.466   2.083
    1C        C  135   3.040   2.515   2.081
    1C        C  136   3.259   2.476   2.192
    1C        C  137   3.193   2.513   2.312
    1C        C  138   3.407   2.482   2.428
    1C        C  139   3.267   2.502   2.432
    1C        C  140   3.478   2.485   2.550
    1C        C  141   3.410   2.493   2.673
    1C        C  142   3.624   2.487   2.791
    1C        C  143   3.483   2.490   2.794
    1C        C  144   3.695   2.499   2.913
    1C        C  145   3.627   2.490   3.036
    1C        C  146   3.831   2.532   3.158
    1C        C  147   3.694   2.497   3.161
    1C        C  148   3.898   2.560   3.280
    1C        C  149   3.833   2.540   3.404
    1C        C  150   4.024   2.628   3.525
    1C        C  151   3.899   2.562   3.527
    1C        C  152   4.086   2.668   3.645
    1C        C  153   4.024   2.635   3.768
    1C        C  154   4.189   2.768   3.889
    1C        C  155   4.078   2.680   3.890
    1C        C  156   4.241   2.817   4.011
    1C        C  157   4.193   2.770   4.135
    1C        C  158   4.337   2.928   4.254
    1C        C  159   4.247   2.819   4.256
    1C        C  160   4.376   2.988   4.375
    1C        C  161   4.332   2.931   4.497
    1C        C  162   4.436   3.116   4.615
    1C        C  163   4.365   2.995   4.619
    1C        C  164   4.466   3.188   4.734
    1C        C  165   4.431   3.124   4.855
    1C        C  166   4.527   3.318   4.975
    1C        C  167   4.474   3.189   4.971
    1C        C  168   3.475   2.435   2.076
    1C        C  169   3.399   2.459   2.190
    1C        C  170   3.620   2.461   2.309
    1C        C  171   3.478   2.460   2.308
    1C        C  172   3.692   2.483   2.428
    1C        C  173   3.620   2.488   2.550
    1C        C  174   3.830   2.535   2.669
    1C        C  175   3.694   2.497   2.669
    1C        C  176   3.895   2.565   2.791
    1C        C  177   3.830   2.540   2.914
    1C        C  178   4.022   2.626   3.034
    1C        C  179   3.897   2.559   3.037
    1C        C  180   4.081   2.666   3.156
    1C        C  181   4.023   2.625   3.279
    1C        C  182   4.190   2.755   3.400
    1C        C  183   4.083   2.662   3.401
    1C        C  184   4.238   2.813   3.520
    1C        C  185   4.192   2.761   3.643
    1C        C  186   4.330   2.922   3.766
    1C        C  187   4.240   2.813   3.765
    1C        C  188   4.372   2.982   3.886
    1C        C  189   4.333   2.924   4.009
    1C        C  190   4.438   3.112   4.128
    1C        C  191   4.374   2.986   4.130
    1C        C  192   4.467   3.176   4.250
    1C        C  193   4.440   3.114   4.374
    1C        C  194   4.512   3.316   4.493
    1C        C  195   4.466   3.183   4.494
    1C        C  196   4.524   3.390   4.613
    1C        C  197   4.509   3.323   4.737
    1C        C  198   4.555   3.535   4.852
    1C        C  199   4.537   3.393   4.858
    1C        C  200   4.584   3.623   4.962
    1C        C  201   3.615   2.424   2.072
    1C        C  202   3.827   2.512   2.183
    1C        C  203   3.690   2.469   2.186
    1C        C  204   3.898   2.539   2.303
    1C        C  205   3.828   2.523   2.424
    1C        C  206   4.020   2.621   2.545
    1C        C  207   3.894   2.556   2.545
    1C        C  208   4.083   2.659   2.666
    1C        C  209   4.024   2.623   2.789
    1C        C  210   4.192   2.751   2.909
    1C        C  211   4.084   2.660   2.912
    1C        C  212   4.240   2.804   3.031
    1C        C  213   4.191   2.755   3.154
    1C        C  214   4.324   2.916   3.274
    1C        C  215   4.242   2.802   3.277
    1C        C  216   4.365   2.978   3.395
    1C        C  217   4.328   2.922   3.519
    1C        C  218   4.430   3.106   3.640
    1C        C  219   4.368   2.979   3.642
    1C        C  220   4.458   3.175   3.760
    1C        C  221   4.432   3.110   3.883
    1C        C  222   4.502   3.311   4.005
    1C        C  223   4.463   3.176   4.004
    1C        C  224   4.517   3.382   4.126
    1C        C  225   4.509   3.311   4.248
    1C        C  226   4.523   3.525   4.368
    1C        C  227   4.520   3.383   4.369
    1C        C  228   4.522   3.600   4.488
    1C        C  229   4.536   3.531   4.610
    1C        C  230   4.505   3.743   4.729
    1C        C  231   4.540   3.605   4.730
    1C        C  232   4.492   3.818   4.848
    1C        C  233   4.546   3.758   4.963
    1C        C  234   4.016   2.612   2.064
    1C        C  235   3.895   2.543   2.065
    1C        C  236   4.082   2.652   2.181
    1C        C  237   4.023   2.606   2.301
    1C        C  238   4.194   2.738   2.420
    1C        C  239   4.082   2.650   2.422
    1C        C  240   4.247   2.789   2.540
    1C        C  241   4.194   2.746   2.664
    1C        C  242   4.331   2.908   2.786
    1C        C  243   4.242   2.799   2.786
    1C        C  244   4.370   2.969   2.908
    1C        C  245   4.327   2.915   3.030
    1C        C  246   4.436   3.097   3.150
    1C        C  247   4.368   2.973   3.152
    1C        C  248   4.457   3.166   3.271
    1C        C  249   4.426   3.105   3.395
    1C        C  250   4.495   3.307   3.514
    1C        C  251   4.456   3.171   3.517
    1C        C  252   4.510   3.377   3.636
    1C        C  253   4.499   3.310   3.760
    1C        C  254   4.530   3.519   3.877
    1C        C  255   4.516   3.379   3.882
    1C        C  256   4.526   3.590   3.999
    1C        C  257   4.526   3.523   4.124
    1C        C  258   4.501   3.734   4.240
    1C        C  259   4.523   3.595   4.246
    1C        C  260   4.481   3.804   4.362
    1C        C  261   4.498   3.739   4.486
    1C        C  262   4.433   3.943   4.606
    1C        C  263   4.483   3.811   4.607
    1C        C  264   4.407   4.013   4.727
    1C        C  265   4.435   3.947   4.848
    1C        C  266   4.321   4.134   4.960
    1C        C  267   4.398   4.018   4.963
    1C        C  268   4.259   2.778   2.063
    1C        C  269   4.197   2.734   2.180
    1C        C  270   4.344   2.893   2.300
    1C        C  271   4.252   2.785   2.300
    1C        C  272   4.381   2.957   2.420
    1C        C  273   4.335   2.900   2.541
    1C        C  274   4.435   3.089   2.661
    1C        C  275   4.370   2.964   2.662
    1C        C  276   4.463   3.157   2.782
    1C        C  277   4.436   3.094   2.905
    1C        C  278   4.504   3.297   3.024
    1C        C  279   4.461   3.162   3.027
    1C        C  280   4.512   3.370   3.145
    1C        C  281   4.492   3.302   3.268
    1C        C  282   4.523   3.513   3.390
    1C        C  283   4.505   3.373   3.390
    1C        C  284   4.522   3.586   3.511
    1C        C  285   4.519   3.518   3.635
    1C        C  286   4.504   3.731   3.753
    1C        C  287   4.523   3.591   3.756
    1C        C  288   4.488   3.799   3.876
    1C        C  289   4.500   3.729   3.998
    1C        C  290   4.428   3.932   4.119
    1C        C  291   4.483   3.802   4.118
    1C        C  292   4.399   3.999   4.240
    1C        C  293   4.431   3.936   4.362
    1C        C  294   4.329   4.125   4.480
    1C        C  295   4.403   4.004   4.483
    1C        C  296   4.289   4.187   4.600
    1C        C  297   4.333   4.134   4.723
    1C        C  298   4.198   4.312   4.837
    1C        C  299   4.286   4.199   4.840
    1C        C  300   4.170   4.399   4.948
    1C        C  301   4.349   2.885   2.061
    1C        C  302   4.467   3.071   2.179
    1C        C  303   4.392   2.949   2.178
    1C        C  304   4.482   3.145   2.299
    1C        C  305   4.446   3.082   2.420
    1C        C  306   4.514   3.287   2.537
    1C        C  307   4.474   3.151   2.540
    1C        C  308   4.520   3.361   2.657
    1C        C  309   4.500   3.293   2.779
    1C        C  310   4.526   3.504   2.900
    1C        C  311   4.518   3.363   2.900
    1C        C  312   4.526   3.576   3.021
    1C        C  313   4.526   3.510   3.146
    1C        C  314   4.499   3.722   3.264
    1C        C  315   4.524   3.583   3.267
    1C        C  316   4.483   3.793   3.385
    1C        C  317   4.501   3.726   3.508
    1C        C  318   4.436   3.928   3.630
    1C        C  319   4.488   3.797   3.629
    1C        C  320   4.403   3.991   3.752
    1C        C  321   4.436   3.931   3.876
    1C        C  322   4.320   4.112   3.994
    1C        C  323   4.399   3.995   3.996
    1C        C  324   4.278   4.171   4.115
    1C        C  325   4.326   4.120   4.238
    1C        C  326   4.182   4.279   4.356
    1C        C  327   4.280   4.178   4.358
    1C        C  328   4.133   4.336   4.476
    1C        C  329   4.194   4.292   4.596
    1C        C  330   4.027   4.435   4.713
    1C        C  331   4.139   4.348   4.713
    1C        C  332   3.969   4.487   4.831
    1C        C  333   4.051   4.473   4.943
    1C        C  334   4.554   3.270   2.064
    1C        C  335   4.536   3.131   2.069
    1C        C  336   4.539   3.354   2.176
    1C        C  337   4.512   3.284   2.295
    1C        C  338   4.534   3.499   2.411
    1C        C  339   4.527   3.357   2.415
    1C        C  340   4.527   3.571   2.532
    1C        C  341   4.532   3.502   2.655
    1C        C  342   4.503   3.713   2.775
    1C        C  343   4.529   3.574   2.777
    1C        C  344   4.488   3.784   2.896
    1C        C  345   4.503   3.716   3.019
    1C        C  346   4.431   3.919   3.138
    1C        C  347   4.480   3.786   3.139
    1C        C  348   4.398   3.982   3.261
    1C        C  349   4.437   3.927   3.385
    1C        C  350   4.323   4.105   3.503
    1C        C  351   4.405   3.990   3.507
    1C        C  352   4.276   4.160   3.625
    1C        C  353   4.321   4.106   3.747
    1C        C  354   4.179   4.264   3.868
    1C        C  355   4.277   4.162   3.869
    1C        C  356   4.119   4.310   3.988
    1C        C  357   4.174   4.266   4.110
    1C        C  358   4.010   4.399   4.231
    1C        C  359   4.127   4.319   4.232
    1C        C  360   3.949   4.438   4.352
    1C        C  361   4.018   4.416   4.473
    1C        C  362   3.829   4.521   4.595
    1C        C  363   3.959   4.465   4.592
    1C        C  364   3.764   4.552   4.716
    1C        C  365   3.838   4.539   4.836
    1C        C  366   3.632   4.597   4.949
    1C        C  367   3.769   4.574   4.953
    1C        C  368   4.504   3.565   2.053
    1C        C  369   4.525   3.495   2.173
    1C        C  370   4.507   3.711   2.287
    1C        C  371   4.528   3.572   2.291
    1C        C  372   4.489   3.781   2.409
    1C        C  373   4.505   3.711   2.530
    1C        C  374   4.429   3.909   2.650
    1C        C  375   4.485   3.779   2.652
    1C        C  376   4.400   3.976   2.771
    1C        C  377   4.439   3.916   2.893
    1C        C  378   4.322   4.095   3.015
    1C        C  379   4.402   3.979   3.014
    1C        C  380   4.275   4.152   3.136
    1C        C  381   4.319   4.099   3.259
    1C        C  382   4.178   4.257   3.379
    1C        C  383   4.280   4.159   3.380
    1C        C  384   4.122   4.303   3.501
    1C        C  385   4.176   4.260   3.624
    1C        C  386   4.005   4.386   3.743
    1C        C  387   4.123   4.308   3.746
    1C        C  388   3.946   4.429   3.864
    1C        C  389   4.004   4.392   3.987
    1C        C  390   3.819   4.493   4.109
    1C        C  391   3.948   4.435   4.109
    1C        C  392   3.752   4.521   4.230
    1C        C  393   3.822   4.500   4.351
    1C        C  394   3.619   4.554   4.477
    1C        C  395   3.758   4.527   4.474
    1C        C  396   3.548   4.569   4.599
    1C        C  397   3.624   4.570   4.718
    1C        C  398   3.410   4.557   4.841
    1C        C  399   3.549   4.580   4.837
    1C        C  400   3.344   4.524   4.960
    1C        C  401   4.506   3.704   2.053
    1C        C  402   4.458   3.920   2.166
    1C        C  403   4.501   3.786   2.167
    1C        C  404   4.420   3.984   2.286
    1C        C  405   4.441   3.914   2.407
    1C        C  406   4.325   4.093   2.525
    1C        C  407   4.405   3.976   2.528
    1C        C  408   4.278   4.147   2.647
    1C        C  409   4.319   4.092   2.770
    1C        C  410   4.178   4.250   2.890
    1C        C  411   4.277   4.149   2.892
    1C        C  412   4.122   4.295   3.012
    1C        C  413   4.175   4.251   3.135
    1C        C  414   4.006   4.380   3.253
    1C        C  415   4.123   4.302   3.257
    1C        C  416   3.943   4.412   3.375
    1C        C  417   4.002   4.378   3.499
    1C        C  418   3.811   4.470   3.622
    1C        C  419   3.941   4.415   3.621
    1C        C  420   3.745   4.500   3.743
    1C        C  421   3.815   4.482   3.865
    1C        C  422   3.612   4.543   3.989
    1C        C  423   3.749   4.509   3.987
    1C        C  424   3.543   4.550   4.112
    1C        C  425   3.613   4.545   4.234
    1C        C  426   3.404   4.554   4.358
    1C        C  427   3.545   4.558   4.357
    1C        C  428   3.332   4.553   4.480
    1C        C  429   3.407   4.559   4.599
    1C        C  430   3.197   4.518   4.724
    1C        C  431   3.336   4.547   4.721
    1C        C  432   3.126   4.497   4.845
    1C        C  433   3.206   4.505   4.960
    1C        C  434   4.387   4.128   2.051
    1C        C  435   4.445   4.001   2.053
    1C        C  436   4.307   4.170   2.163
    1C        C  437   4.341   4.103   2.284
    1C        C  438   4.181   4.249   2.403
    1C        C  439   4.283   4.151   2.404
    1C        C  440   4.129   4.298   2.525
    1C        C  441   4.181   4.250   2.647
    1C        C  442   4.005   4.371   2.767
    1C        C  443   4.125   4.296   2.768
    1C        C  444   3.942   4.407   2.888
    1C        C  445   4.004   4.372   3.011
    1C        C  446   3.812   4.468   3.133
    1C        C  447   3.942   4.413   3.131
    1C        C  448   3.747   4.493   3.255
    1C        C  449   3.814   4.469   3.378
    1C        C  450   3.610   4.535   3.500
    1C        C  451   3.746   4.496   3.499
    1C        C  452   3.540   4.545   3.622
    1C        C  453   3.609   4.535   3.745
    1C        C  454   3.399   4.549   3.868
    1C        C  455   3.540   4.550   3.867
    1C        C  456   3.332   4.538   3.991
    1C        C  457   3.402   4.543   4.114
    1C        C  458   3.195   4.506   4.238
    1C        C  459   3.332   4.538   4.237
    1C        C  460   3.128   4.490   4.362
    1C        C  461   3.195   4.519   4.482
    1C        C  462   2.997   4.439   4.604
    1C        C  463   3.127   4.493   4.604
    1C        C  464   2.932   4.405   4.725
    1C        C  465   2.993   4.444   4.847
    1C        C  466   2.804   4.341   4.961
    1C        C  467   2.909   4.434   4.962
    1C        C  468   4.127   4.295   2.043
    1C        C  469   4.193   4.256   2.161
    1C        C  470   4.006   4.369   2.280
    1C        C  471   4.129   4.297   2.281
    1C        C  472   3.944   4.403   2.401
    1C        C  473   4.008   4.371   2.523
    1C        C  474   3.812   4.456   2.647
    1C        C  475   3.944   4.405   2.644
    1C        C  476   3.744   4.488   2.767
    1C        C  477   3.813   4.465   2.887
    1C        C  478   3.607   4.513   3.013
    1C        C  479   3.746   4.488   3.010
    1C        C  480   3.538   4.530   3.135
    1C        C  481   3.609   4.525   3.257
    1C        C  482   3.397   4.538   3.379
    1C        C  483   3.538   4.539   3.378
    1C        C  484   3.328   4.533   3.503
    1C        C  485   3.399   4.541   3.625
    1C        C  486   3.190   4.504   3.746
    1C        C  487   3.327   4.539   3.746
    1C        C  488   3.128   4.484   3.871
    1C        C  489   3.194   4.508   3.994
    1C        C  490   3.004   4.419   4.118
    1C        C  491   3.126   4.490   4.116
    1C        C  492   2.948   4.380   4.241
    1C        C  493   2.998   4.432   4.362
    1C        C  494   2.827   4.308   4.484
    1C        C  495   2.935   4.398   4.484
    1C        C  496   2.772   4.260   4.605
    1C        C  497   2.819   4.318   4.725
    1C        C  498   2.671   4.165   4.847
    1C        C  499   2.760   4.275   4.846
    1C        C  500   2.601   4.118   4.959
    1C        C  501   4.002   4.356   2.042
    1C        C  502   3.816   4.468   2.158
    1C        C  503   3.941   4.403   2.159
    1C        C  504   3.747   4.481   2.281
    1C        C  505   3.813   4.455   2.403
    1C        C  506   3.608   4.512   2.524
    1C        C  507   3.744   4.475   2.525
    1C        C  508   3.535   4.520   2.645
    1C        C  509   3.606   4.518   2.767
    1C        C  510   3.396   4.528   2.888
    1C        C  511   3.537   4.522   2.890
    1C        C  512   3.325   4.526   3.011
    1C        C  513   3.397   4.533   3.133
    1C        C  514   3.191   4.495   3.257
    1C        C  515   3.328   4.530   3.256
    1C        C  516   3.125   4.473   3.380
    1C        C  517   3.190   4.503   3.502
    1C        C  518   3.001   4.408   3.627
    1C        C  519   3.124   4.477   3.624
    1C        C  520   2.942   4.375   3.751
    1C        C  521   3.002   4.419   3.871
    1C        C  522   2.841   4.287   3.995
    1C        C  523   2.945   4.382   3.995
    1C        C  524   2.794   4.236   4.119
    1C        C  525   2.841   4.287   4.242
    1C        C  526   2.694   4.137   4.365
    1C        C  527   2.783   4.246   4.364
    1C        C  528   2.655   4.079   4.488
    1C        C  529   2.693   4.144   4.607
    1C        C  530   2.589   3.961   4.730
    1C        C  531   2.643   4.092   4.729
    1C        C  532   2.541   3.904   4.851
    1C        C  533   2.533   3.996   4.960
    1C        C  534   3.618   4.561   2.040
    1C        C  535   3.751   4.519   2.044
    1C        C  536   3.538   4.535   2.156
    1C        C  537   3.609   4.511   2.278
    1C        C  538   3.398   4.514   2.402
    1C        C  539   3.539   4.519   2.400
    1C        C  540   3.324   4.511   2.523
    1C        C  541   3.394   4.515   2.645
    1C        C  542   3.186   4.480   2.769
    1C        C  543   3.324   4.513   2.768
    1C        C  544   3.122   4.463   2.893
    1C        C  545   3.188   4.491   3.015
    1C        C  546   2.997   4.402   3.139
    1C        C  547   3.121   4.469   3.137
    1C        C  548   2.941   4.365   3.264
    1C        C  549   3.000   4.407   3.384
    1C        C  550   2.829   4.281   3.507
    1C        C  551   2.938   4.371   3.506
    1C        C  552   2.787   4.228   3.631
    1C        C  553   2.837   4.281   3.752
    1C        C  554   2.703   4.121   3.878
    1C        C  555   2.790   4.231   3.876
    1C        C  556   2.665   4.063   4.001
    1C        C  557   2.707   4.125   4.121
    1C        C  558   2.601   3.944   4.248
    1C        C  559   2.665   4.070   4.244
    1C        C  560   2.570   3.881   4.371
    1C        C  561   2.592   3.953   4.490
    1C        C  562   2.525   3.752   4.618
    1C        C  563   2.563   3.888   4.612
    1C        C  564   2.515   3.683   4.741
    1C        C  565   2.523   3.762   4.859
    1C        C  566   2.523   3.550   4.980
    1C        C  567   2.521   3.689   4.978
    1C        C  568   3.330   4.475   2.045
    1C        C  569   3.398   4.516   2.160
    1C        C  570   3.186   4.476   2.281
    1C        C  571   3.324   4.508   2.282
    1C        C  572   3.118   4.457   2.404
    1C        C  573   3.187   4.479   2.525
    1C        C  574   2.988   4.405   2.648
    1C        C  575   3.117   4.463   2.647
    1C        C  576   2.930   4.367   2.771
    1C        C  577   2.995   4.401   2.892
    1C        C  578   2.828   4.276   3.016
    1C        C  579   2.937   4.366   3.017
    1C        C  580   2.783   4.225   3.140
    1C        C  581   2.831   4.276   3.262
    1C        C  582   2.694   4.116   3.387
    1C        C  583   2.778   4.230   3.385
    1C        C  584   2.659   4.056   3.510
    1C        C  585   2.702   4.115   3.631
    1C        C  586   2.605   3.932   3.758
    1C        C  587   2.664   4.060   3.756
    1C        C  588   2.577   3.869   3.881
    1C        C  589   2.608   3.933   4.003
    1C        C  590   2.543   3.737   4.129
    1C        C  591   2.578   3.874   4.128
    1C        C  592   2.526   3.672   4.254
    1C        C  593   2.530   3.745   4.375
    1C        C  594   2.509   3.537   4.498
    1C        C  595   2.513   3.678   4.498
    1C        C  596   2.514   3.468   4.621
    1C        C  597   2.510   3.541   4.742
    1C        C  598   2.527   3.329   4.863
    1C        C  599   2.521   3.471   4.864
    1C        C  600   2.527   3.251   4.980
    1C        C  601   3.195   4.443   2.044
    1C        C  602   2.982   4.397   2.162
    1C        C  603   3.118   4.443   2.161
    1C        C  604   2.925   4.359   2.286
    1C        C  605   2.989   4.400   2.405
    1C        C  606   2.820   4.273   2.532
    1C        C  607   2.927   4.365   2.528
    1C        C  608   2.775   4.219   2.655
    1C        C  609   2.825   4.272   2.775
    1C        C  610   2.681   4.116   2.898
    1C        C  611   2.770   4.225   2.897
    1C        C  612   2.649   4.056   3.022
    1C        C  613   2.693   4.116   3.142
    1C        C  614   2.597   3.928   3.268
    1C        C  615   2.657   4.056   3.265
    1C        C  616   2.571   3.865   3.392
    1C        C  617   2.596   3.930   3.515
    1C        C  618   2.531   3.730   3.640
    1C        C  619   2.573   3.865   3.638
    1C        C  620   2.513   3.664   3.764
    1C        C  621   2.528   3.737   3.885
    1C        C  622   2.508   3.528   4.012
    1C        C  623   2.520   3.669   4.008
    1C        C  624   2.514   3.458   4.134
    1C        C  625   2.510   3.532   4.255
    1C        C  626   2.540   3.324   4.382
    1C        C  627   2.514   3.463   4.378
    1C        C  628   2.554   3.256   4.505
    1C        C  629   2.530   3.328   4.625
    1C        C  630   2.596   3.122   4.744
    1C        C  631   2.545   3.255   4.745
    1C        C  632   2.616   3.051   4.865
    1C        C  633   2.559   3.115   4.980
    1C        C  634   2.787   4.308   2.056
    1C        C  635   2.894   4.398   2.049
    1C        C  636   2.752   4.233   2.169
    1C        C  637   2.814   4.272   2.290
    1C        C  638   2.678   4.110   2.412
    1C        C  639   2.765   4.221   2.413
    1C        C  640   2.646   4.046   2.534
    1C        C  641   2.691   4.105   2.654
    1C        C  642   2.590   3.922   2.780
    1C        C  643   2.648   4.050   2.777
    1C        C  644   2.565   3.858   2.904
    1C        C  645   2.592   3.927   3.024
    1C        C  646   2.531   3.725   3.151
    1C        C  647   2.570   3.861   3.147
    1C        C  648   2.514   3.658   3.274
    1C        C  649   2.529   3.730   3.395
    1C        C  650   2.505   3.520   3.518
    1C        C  651   2.518   3.661   3.517
    1C        C  652   2.511   3.452   3.642
    1C        C  653   2.514   3.523   3.764
    1C        C  654   2.534   3.318   3.889
    1C        C  655   2.513   3.458   3.889
    1C        C  656   2.553   3.252   4.012
    1C        C  657   2.538   3.319   4.136
    1C        C  658   2.613   3.125   4.260
    1C        C  659   2.556   3.254   4.260
    1C        C  660   2.637   3.061   4.383
    1C        C  661   2.601   3.123   4.505
    1C        C  662   2.710   2.937   4.627
    1C        C  663   2.633   3.056   4.625
    1C        C  664   2.746   2.876   4.748
    1C        C  665   2.695   2.932   4.869
    1C        C  666   2.742   2.875   4.988
    1C        C  667   2.692   4.024   2.060
    1C        C  668   2.684   4.110   2.171
    1C        C  669   2.587   3.916   2.294
    1C        C  670   2.645   4.046   2.290
    1C        C  671   2.554   3.851   2.415
    1C        C  672   2.583   3.920   2.535
    1C        C  673   2.519   3.721   2.664
    1C        C  674   2.560   3.856   2.659
    1C        C  675   2.503   3.651   2.786
    1C        C  676   2.527   3.722   2.906
    1C        C  677   2.502   3.514   3.034
    1C        C  678   2.520   3.654   3.030
    1C        C  679   2.501   3.443   3.157
    1C        C  680   2.501   3.517   3.277
    1C        C  681   2.533   3.307   3.402
    1C        C  682   2.508   3.446   3.398
    1C        C  683   2.551   3.240   3.525
    1C        C  684   2.535   3.312   3.646
    1C        C  685   2.602   3.114   3.770
    1C        C  686   2.552   3.246   3.769
    1C        C  687   2.633   3.054   3.895
    1C        C  688   2.600   3.119   4.016
    1C        C  689   2.711   2.937   4.142
    1C        C  690   2.639   3.059   4.138
    1C        C  691   2.752   2.881   4.264
    1C        C  692   2.709   2.940   4.385
    1C        C  693   2.758   2.884   4.505
    1C        C  694   2.635   3.896   2.061
    1C        C  695   2.530   3.707   2.179
    1C        C  696   2.578   3.839   2.175
    1C        C  697   2.506   3.641   2.301
    1C        C  698   2.519   3.714   2.420
    1C        C  699   2.490   3.507   2.544
    1C        C  700   2.507   3.647   2.544
    1C        C  701   2.497   3.438   2.667
    1C        C  702   2.503   3.510   2.789
    1C        C  703   2.524   3.302   2.912
    1C        C  704   2.506   3.442   2.913
    1C        C  705   2.544   3.234   3.035
    1C        C  706   2.527   3.304   3.156
    1C        C  707   2.597   3.105   3.278
    1C        C  708   2.549   3.238   3.279
    1C        C  709   2.631   3.046   3.401
    1C        C  710   2.603   3.109   3.525
    1C        C  711   2.714   2.932   3.651
    1C        C  712   2.634   3.049   3.649
    1C        C  713   2.756   2.880   3.775
    1C        C  714   2.711   2.937   3.896
    1C        C  715   2.758   2.885   4.019
    1C        C  716   2.448   3.503   2.066
    1C        C  717   2.495   3.635   2.063
    1C        C  718   2.466   3.425   2.185
    1C        C  719   2.482   3.500   2.304
    1C        C  720   2.519   3.292   2.429
    1C        C  721   2.486   3.429   2.426
    1C        C  722   2.537   3.224   2.552
    1C        C  723   2.519   3.299   2.671
    1C        C  724   2.596   3.100   2.791
    1C        C  725   2.537   3.229   2.792
    1C        C  726   2.626   3.038   2.914
    1C        C  727   2.594   3.102   3.036
    1C        C  728   2.708   2.922   3.161
    1C        C  729   2.628   3.039   3.157
    1C        C  730   2.759   2.875   3.284
    1C        C  731   2.715   2.932   3.406
    1C        C  732   2.759   2.877   3.529
    1C        C  733   2.492   3.201   2.077
    1C        C  734   2.484   3.283   2.190
    1C        C  735   2.582   3.087   2.307
    1C        C  736   2.523   3.217   2.309
    1C        C  737   2.619   3.023   2.428
    1C        C  738   2.591   3.094   2.547
    1C        C  739   2.697   2.912   2.671
    1C        C  740   2.622   3.032   2.670
    1C        C  741   2.743   2.859   2.793
    1C        C  742   2.703   2.919   2.914
    1C        C  743   2.750   2.869   3.038
    1C        C  744   2.544   3.072   2.075
    1C        C  745   2.685   2.900   2.186
    1C        C  746   2.609   3.018   2.187
    1C        C  747   2.732   2.840   2.306
    1C        C  748   2.693   2.903   2.426
    1C        C  749   2.741   2.854   2.550
    1C        C  750   2.739   2.845   2.069
    1C        C  751   3.662   2.305   1.998
    1C        O  752   3.708   2.200   2.052
    1C        O  753   3.647   2.304   1.859
    1C        C  754   4.642   3.055   1.999
    1C        O  755   4.642   3.022   1.877
    1C        O  756   4.772   3.052   2.052
    1C        C  757   4.420   4.217   1.937
    1C        O  758   4.530   4.278   1.934
    1C        O  759   4.352   4.196   1.817
    1C        C  760   3.594   4.696   1.983
    1C        O  761   3.602   4.793   2.063
    1C        O  762   3.609   4.720   1.846
    1C        C  763   2.896   4.517   1.961
    1C        O  764   2.924   4.518   1.838
    1C        O  765   2.857   4.643   2.008
    1C        C  766   2.329   3.495   1.978
    1C        O  767   2.325   3.449   1.861
    1C        O  768   2.203   3.544   2.016
    1C        C  769   4.705   3.593   5.041
    1C        O  770   4.693   3.553   5.160
    1C        O  771   4.831   3.553   4.996
    1C        C  772   4.285   4.458   5.020
    1C        O  773   4.290   4.466   5.146
    1C        O  774   4.362   4.553   4.953
    1C        C  775   4.149   2.525   5.072
    1C        O  776   4.213   2.419   5.048
    1C        O  777   4.164   2.553   5.208
    1C        C  778   2.874   4.554   5.043
    1C        O  779   2.833   4.659   4.987
    1C        O  780   2.854   4.537   5.180
    1C        C  781   2.492   3.033   5.083
    1C        O  782   2.391   2.961   5.059
    1C        O  783   2.522   3.070   5.214
    1C        C  784   2.404   4.011   5.032
    1C        O  785   2.310   4.079   4.983
    1C        O  786   2.390   3.980   5.167
    1C        C  787   2.966   2.460   1.965
    1C        O  788   2.951   2.524   1.858
    1C        O  789   2.891   2.344   1.978
    1C        C  790   3.196   2.388   5.078
    1C        O  791   3.116   2.291   5.084
    1C        O  792   3.234   2.414   5.210
    1C        H  793   4.268   3.032   5.059
    1C        H  794   4.181   2.805   5.073
    1C        H  795   4.483   3.129   5.059
    1C        H  796   4.574   3.353   5.064
    1C        H  797   4.539   3.806   5.058
    1C        H  798   4.453   3.998   5.052
    1C        H  799   4.297   4.181   5.053
    1C        H  800   4.025   4.531   5.029
    1C        H  801   3.825   4.591   5.042
    1C        H  802   3.590   4.661   5.024
    1C        H  803   3.399   4.484   5.043
    1C        H  804   3.157   4.528   5.053
    1C        H  805   3.894   2.483   5.070
    1C        H  806   3.673   2.447   5.076
    1C        H  807   2.988   2.541   5.059
    1C        H  808   3.454   2.442   5.076
    1C        H  809   2.846   2.718   5.075
    1C        H  810   2.727   2.926   5.081
    1C        H  811   2.502   3.287   5.078
    1C        H  812   2.539   3.505   5.076
    1C        H  813   2.485   3.736   5.067
    1C        H  814   2.641   4.144   5.055
    1C        H  815   2.773   4.299   5.054
    1C        H  816   2.730   2.898   1.977
    1C        H  817   2.860   2.693   1.977
    1C        H  818   3.212   2.425   1.993
    1C        H  819   3.429   2.444   1.979
    1C        H  820   3.869   2.492   1.974
    1C        H  821   4.056   2.641   1.970
    1C        H  822   4.257   2.715   1.977
    1C        H  823   4.415   2.889   1.977
    1C        H  824   4.596   3.313   1.976
    1C        H  825   4.464   3.512   1.969
    1C        H  826   4.523   3.748   1.957
    1C        H  827   3.799   4.513   1.948
    1C        H  828   3.933   4.320   1.969
    1C        H  829   4.152   4.240   1.954
    1C        H  830   4.491   3.970   1.961
    1C        H  831   2.647   3.841   1.970
    1C        H  832   2.764   4.047   1.984
    1C        H  833   2.717   4.326   1.977
    1C        H  834   3.379   4.489   1.951
    1C        H  835   3.165   4.370   1.972
    1C        H  836   2.545   3.023   1.980
    1C        H  837   2.449   3.235   1.985
    1C        H  838   2.491   3.684   1.968
    2V3OU   H29  839   2.809   3.553   6.454
    2V3OU   C27  840   2.783   3.501   6.550
    2V3OU   H27  841   2.725   3.572   6.614
    2V3OU   H28  842   2.731   3.402   6.543
    2V3OU   O11  843   2.908   3.480   6.617
    2V3OU   C15  844   2.928   3.398   6.726
    2V3OU   C13  845   3.058   3.375   6.776
    2V3OU   C14  846   3.080   3.273   6.869
    2V3OU   C16  847   2.974   3.193   6.909
    2V3OU    H6  848   2.993   3.104   6.971
    2V3OU   C12  849   3.216   3.227   6.906
    2V3OU    O2  850   3.240   3.129   6.980
    2V3OU   C10  851   3.328   3.309   6.855
    2V3OU    C8  852   3.460   3.271   6.874
    2V3OU   O10  853   3.494   3.154   6.933
    2V3OU   H26  854   3.408   3.112   6.950
    2V3OU    C6  855   3.570   3.354   6.835
    2V3OU    C5  856   3.542   3.469   6.762
    2V3OU    C4  857   3.707   3.295   6.840
    2V3OU    H4  858   3.723   3.232   6.932
    2V3OU    H5  859   3.716   3.227   6.750
    2V3OU    C2  860   3.820   3.398   6.832
    2V3OU    O6  861   3.803   3.481   6.947
    2V3OU   H21  862   3.762   3.565   6.918
    2V3OU    C3  863   3.784   3.498   6.721
    2V3OU    H2  864   3.867   3.572   6.716
    2V3OU    H3  865   3.786   3.436   6.628
    2V3OU   C25  866   3.954   3.326   6.815
    2V3OU    O7  867   4.004   3.305   6.705
    2V3OU   C26  868   4.034   3.287   6.938
    2V3OU   H22  869   4.067   3.381   6.988
    2V3OU   H23  870   4.122   3.224   6.907
    2V3OU    O8  871   3.962   3.214   0.009
    2V3OU   H24  872   3.925   3.270   0.080
    2V3OU    C1  873   3.650   3.569   6.733
    2V3OU    H1  874   3.628   3.620   6.634
    2V3OU    O3  875   3.667   3.663   6.840
    2V3OU   C19  876   3.622   3.794   6.805
    2V3OU    H9  877   3.526   3.799   6.745
    2V3OU    O4  878   3.718   3.846   6.715
    2V3OU   C20  879   3.849   3.875   6.765
    2V3OU   H10  880   3.897   3.778   6.798
    2V3OU   C24  881   3.619   3.859   6.943
    2V3OU   H16  882   3.552   3.796   7.007
    2V3OU   H17  883   3.567   3.956   6.923
    2V3OU   C23  884   3.758   3.875   7.006
    2V3OU   H15  885   3.802   3.772   7.024
    2V3OU    N1  886   3.743   3.956   0.100
    2V3OU   H19  887   3.805   3.931   0.174
    2V3OU   H20  888   3.647   3.935   0.120
    2V3OU   C21  889   3.847   3.947   6.900
    2V3OU   H11  890   3.950   3.921   6.938
    2V3OU    O5  891   3.831   4.088   6.909
    2V3OU   H18  892   3.781   4.103   6.990
    2V3OU   C22  893   3.914   3.948   6.650
    2V3OU   H12  894   3.859   4.044   6.633
    2V3OU   H13  895   3.906   3.892   6.553
    2V3OU   H14  896   4.025   3.957   6.663
    2V3OU   C11  897   3.165   3.472   6.752
    2V3OU    O1  898   3.140   3.584   6.703
    2V3OU    C9  899   3.304   3.427   6.779
    2V3OU    C7  900   3.408   3.501   6.726
    2V3OU    O9  901   3.390   3.618   6.654
    2V3OU   H25  902   3.295   3.627   6.674
    2V3OU   C17  903   2.824   3.317   6.777
    2V3OU    H7  904   2.726   3.342   6.738
    2V3OU   C18  905   2.843   3.210   6.864
    2V3OU    H8  906   2.760   3.139   6.871
    3SOL     OW  907   2.545   3.308   5.508
    3SOL    HW1  908   2.513   3.248   5.435
    3SOL    HW2  909   2.534   3.403   5.479
    4SOL     OW  910   1.261   0.422   0.625
    4SOL    HW1  911   1.306   0.344   0.580
    4SOL    HW2  912   1.163   0.421   0.603
    5SOL     OW  913   3.448   1.706   0.342
    5SOL    HW1  914   3.461   1.789   0.397
    5SOL    HW2  915   3.351   1.680   0.343
    6SOL     OW  916   2.952   2.124   1.866
    6SOL    HW1  917   2.944   2.218   1.898
    6SOL    HW2  918   3.041   2.112   1.822
    7SOL     OW  919   1.843   2.858   4.539
    7SOL    HW1  920   1.850   2.958   4.533
    7SOL    HW2  921   1.827   2.820   4.448
    8SOL     OW  922   1.235   1.687   5.966
    8SOL    HW1  923   1.271   1.628   6.038
    8SOL    HW2  924   1.272   1.779   5.977
    9SOL     OW  925   1.857   2.353   5.388
    9SOL    HW1  926   1.921   2.277   5.397
    9SOL    HW2  927   1.843   2.395   5.478
   10SOL     OW  928   5.866   4.843   0.728
   10SOL    HW1  929   5.880   4.805   0.636
   10SOL    HW2  930   5.955   4.865   0.769
   11SOL     OW  931   3.210   1.095   1.016
   11SOL    HW1  932   3.302   1.113   0.981
   11SOL    HW2  933   3.167   1.022   0.962
   12SOL     OW  934   5.717   4.708   0.892
   12SOL    HW1  935   5.774   4.751   0.823
   12SOL    HW2  936   5.711   4.609   0.874
   13SOL     OW  937   4.542   6.193   1.855
   13SOL    HW1  938   4.476   6.218   1.784
   13SOL    HW2  939   4.623   6.251   1.846
   14SOL     OW  940   4.646   5.666   1.162
   14SOL    HW1  941   4.617   5.694   1.070
   14SOL    HW2  942   4.737   5.702   1.181
   15SOL     OW  943   0.193   0.391   0.067
   15SOL    HW1  944   0.146   0.303   0.076
   15SOL    HW2  945   0.188   0.422   6.997
   16SOL     OW  946   1.870   4.848   5.423
   16SOL    HW1  947   1.947   4.806   5.471
   16SOL    HW2  948   1.790   4.849   5.484
   17SOL     OW  949   0.349   2.095   4.270
   17SOL    HW1  950   0.353   2.148   4.354
   17SOL    HW2  951   0.437   2.100   4.223
   18SOL     OW  952   2.319   6.823   5.091
   18SOL    HW1  953   2.360   6.892   5.031
   18SOL    HW2  954   2.309   6.737   5.042
   19SOL     OW  955   4.155   5.911   3.402
   19SOL    HW1  956   4.138   5.819   3.366
   19SOL    HW2  957   4.074   5.942   3.452
   20SOL     OW  958   0.287   1.539   4.503
   20SOL    HW1  959   0.262   1.523   4.599
   20SOL    HW2  960   0.224   1.605   4.463
   21SOL     OW  961   2.152   3.201   2.137
   21SOL    HW1  962   2.168   3.121   2.080
   21SOL    HW2  963   2.215   3.199   2.216
   22SOL     OW  964   0.065   0.246   0.562
   22SOL    HW1  965   0.129   0.311   0.603
   22SOL    HW2  966   0.073   0.248   0.463
   23SOL     OW  967   0.668   5.170   0.500
   23SOL    HW1  968   0.611   5.208   0.572
   23SOL    HW2  969   0.615   5.105   0.446
   24SOL     OW  970   4.519   0.911   5.998
   24SOL    HW1  971   4.574   0.881   6.076
   24SOL    HW2  972   4.489   0.830   5.947
   25SOL     OW  973   2.221   0.564   5.713
   25SOL    HW1  974   2.303   0.615   5.690
   25SOL    HW2  975   2.187   0.517   5.631
   26SOL     OW  976   2.465   6.591   5.483
   26SOL    HW1  977   2.508   6.641   5.408
   26SOL    HW2  978   2.459   6.650   5.564
   27SOL     OW  979   0.213   0.150   1.856
   27SOL    HW1  980   0.169   0.133   1.944
   27SOL    HW2  981   0.259   0.239   1.858
   28SOL     OW  982   1.907   0.322   5.167
   28SOL    HW1  983   1.932   0.416   5.146
   28SOL    HW2  984   1.952   0.293   5.251
   29SOL     OW  985   5.420   0.496   2.080
   29SOL    HW1  986   5.444   0.419   2.140
   29SOL    HW2  987   5.321   0.510   2.083
   30SOL     OW  988   4.549   6.574   4.725
   30SOL    HW1  989   4.630   6.543   4.676
   30SOL    HW2  990   4.468   6.561   4.667
   31SOL     OW  991   6.031   4.077   4.355
   31SOL    HW1  992   6.091   4.156   4.367
   31SOL    HW2  993   5.951   4.086   4.415
   32SOL     OW  994   3.809   1.502   1.274
   32SOL    HW1  995   3.889   1.498   1.214
   32SOL    HW2  996   3.799   1.415   1.322
   33SOL     OW  997   1.700   4.767   5.203
   33SOL    HW1  998   1.730   4.852   5.159
   33SOL    HW2  999   1.756   4.749   5.283
   34SOL     OW 1000   2.426   7.019   5.535
   34SOL    HW1 1001   2.491   0.068   5.524
   34SOL    HW2 1002   2.335   0.023   5.507
   35SOL     OW 1003   0.937   3.274   4.819
   35SOL    HW1 1004   0.873   3.214   4.771
   35SOL    HW2 1005   1.031   3.252   4.790
   36SOL     OW 1006   5.486   1.214   4.886
   36SOL    HW1 1007   5.545   1.224   4.805
   36SOL    HW2 1008   5.424   1.292   4.890
   37SOL     OW 1009   1.151   5.807   3.741
   37SOL    HW1 1010   1.092   5.751   3.683
   37SOL    HW2 1011   1.159   5.765   3.831
   38SOL     OW 1012   0.852   3.626   2.090
   38SOL    HW1 1013   0.784   3.697   2.108
   38SOL    HW2 1014   0.874   3.625   1.993
   39SOL     OW 1015   6.351   5.357   1.472
   39SOL    HW1 1016   6.290   5.293   1.519
   39SOL    HW2 1017   6.315   5.376   1.381
   40SOL     OW 1018   4.309   0.493   5.532
   40SOL    HW1 1019   4.310   0.516   5.629
   40SOL    HW2 1020   4.217   0.508   5.496
   41SOL     OW 1021   0.519   3.727   0.972
   41SOL    HW1 1022   0.461   3.683   1.041
   41SOL    HW2 1023   0.586   3.660   0.939
   42SOL     OW 1024   2.631   3.765   1.033
   42SOL    HW1 1025   2.649   3.800   1.125
   42SOL    HW2 1026   2.660   3.832   0.965
   43SOL     OW 1027   5.083   0.681   3.306
   43SOL    HW1 1028   5.023   0.660   3.383
   43SOL    HW2 1029   5.160   0.736   3.337
   44SOL     OW 1030   6.862   0.974   6.672
   44SOL    HW1 1031   6.892   0.996   6.765
   44SOL    HW2 1032   6.814   1.052   6.633
   45SOL     OW 1033   1.920   3.708   4.788
   45SOL    HW1 1034   1.873   3.790   4.754
   45SOL    HW2 1035   1.905   3.701   4.887
   46SOL     OW 1036   0.828   5.940   4.721
   46SOL    HW1 1037   0.895   6.010   4.749
   46SOL    HW2 1038   0.785   5.901   4.802
   47SOL     OW 1039   0.755   4.048   6.150
   47SOL    HW1 1040   0.827   4.023   6.085
   47SOL    HW2 1041   0.709   4.131   6.118
   48SOL     OW 1042   0.832   3.993   0.216
   48SOL    HW1 1043   0.767   4.069   0.210
   48SOL    HW2 1044   0.819   3.932   0.138
   49SOL     OW 1045   3.741   0.234   6.828
   49SOL    HW1 1046   3.696   0.274   6.908
   49SOL    HW2 1047   3.837   0.217   6.849
   50SOL     OW 1048   4.948   1.908   5.775
   50SOL    HW1 1049   4.859   1.865   5.761
   50SOL    HW2 1050   4.996   1.862   5.849
   51SOL     OW 1051   0.884   6.874   1.628
   51SOL    HW1 1052   0.884   6.777   1.604
   51SOL    HW2 1053   0.791   6.910   1.623
   52SOL     OW 1054   4.895   3.203   2.747
   52SOL    HW1 1055   4.891   3.145   2.666
   52SOL    HW2 1056   4.941   3.289   2.725
   53SOL     OW 1057   4.164   6.350   1.181
   53SOL    HW1 1058   4.246   6.384   1.228
   53SOL    HW2 1059   4.084   6.399   1.215
   54SOL     OW 1060   1.063   1.229   6.414
   54SOL    HW1 1061   1.060   1.235   6.513
   54SOL    HW2 1062   1.052   1.133   6.386
   55SOL     OW 1063   2.651   3.617   6.219
   55SOL    HW1 1064   2.599   3.580   6.296
   55SOL    HW2 1065   2.725   3.555   6.195
   56SOL     OW 1066   2.159   2.335   6.902
   56SOL    HW1 1067   2.073   2.385   6.909
   56SOL    HW2 1068   2.178   2.314   6.806
   57SOL     OW 1069   3.941   6.166   1.785
   57SOL    HW1 1070   3.868   6.214   1.834
   57SOL    HW2 1071   4.005   6.126   1.850
   58SOL     OW 1072   0.622   0.458   0.300
   58SOL    HW1 1073   0.637   0.486   0.205
   58SOL    HW2 1074   0.527   0.478   0.326
   59SOL     OW 1075   4.685   3.941   6.924
   59SOL    HW1 1076   4.629   3.964   7.004
   59SOL    HW2 1077   4.780   3.968   6.941
   60SOL     OW 1078   6.180   2.439   2.399
   60SOL    HW1 1079   6.226   2.479   2.478
   60SOL    HW2 1080   6.233   2.360   2.367
   61SOL     OW 1081   1.048   4.894   2.625
   61SOL    HW1 1082   1.131   4.950   2.636
   61SOL    HW2 1083   0.970   4.942   2.665
   62SOL     OW 1084   5.188   3.977   2.926
   62SOL    HW1 1085   5.126   3.985   2.848
   62SOL    HW2 1086   5.184   3.884   2.963
   63SOL     OW 1087   4.584   0.082   5.719
   63SOL    HW1 1088   4.635   0.163   5.689
   63SOL    HW2 1089   4.495   0.080   5.674
   64SOL     OW 1090   2.236   1.609   6.760
   64SOL    HW1 1091   2.283   1.522   6.758
   64SOL    HW2 1092   2.199   1.625   6.852
   65SOL     OW 1093   0.339   5.346   5.195
   65SOL    HW1 1094   0.308   5.441   5.202
   65SOL    HW2 1095   0.423   5.342   5.142
   66SOL     OW 1096   4.414   1.567   1.167
   66SOL    HW1 1097   4.494   1.626   1.180
   66SOL    HW2 1098   4.444   1.472   1.158
   67SOL     OW 1099   0.190   3.005   3.052
   67SOL    HW1 1100   0.230   2.988   3.141
   67SOL    HW2 1101   0.195   2.922   2.996
   68SOL     OW 1102   7.012   1.286   5.714
   68SOL    HW1 1103   6.951   1.342   5.770
   68SOL    HW2 1104   6.959   1.212   5.671
   69SOL     OW 1105   1.764   0.816   6.033
   69SOL    HW1 1106   1.854   0.774   6.025
   69SOL    HW2 1107   1.774   0.911   6.062
   70SOL     OW 1108   4.936   5.171   2.863
   70SOL    HW1 1109   4.964   5.107   2.934
   70SOL    HW2 1110   5.015   5.223   2.831
   71SOL     OW 1111   5.463   1.303   5.567
   71SOL    HW1 1112   5.429   1.280   5.476
   71SOL    HW2 1113   5.501   1.395   5.567
   72SOL     OW 1114   6.731   2.059   2.437
   72SOL    HW1 1115   6.817   2.050   2.386
   72SOL    HW2 1116   6.656   2.074   2.373
   73SOL     OW 1117   2.318   1.204   0.572
   73SOL    HW1 1118   2.285   1.162   0.487
   73SOL    HW2 1119   2.376   1.282   0.550
   74SOL     OW 1120   3.029   0.840   0.352
   74SOL    HW1 1121   3.066   0.922   0.309
   74SOL    HW2 1122   2.948   0.863   0.405
   75SOL     OW 1123   3.000   3.452   1.344
   75SOL    HW1 1124   2.901   3.436   1.343
   75SOL    HW2 1125   3.018   3.543   1.382
   76SOL     OW 1126   3.351   5.042   6.253
   76SOL    HW1 1127   3.260   5.084   6.261
   76SOL    HW2 1128   3.418   5.111   6.226
   77SOL     OW 1129   0.361   4.414   5.472
   77SOL    HW1 1130   0.310   4.328   5.461
   77SOL    HW2 1131   0.401   4.418   5.563
   78SOL     OW 1132   4.698   1.407   0.830
   78SOL    HW1 1133   4.754   1.422   0.748
   78SOL    HW2 1134   4.707   1.486   0.891
   79SOL     OW 1135   1.911   4.925   4.177
   79SOL    HW1 1136   1.992   4.976   4.149
   79SOL    HW2 1137   1.913   4.911   4.276
   80SOL     OW 1138   4.592   1.954   5.165
   80SOL    HW1 1139   4.555   1.869   5.202
   80SOL    HW2 1140   4.634   1.936   5.076
   81SOL     OW 1141   1.896   5.102   2.738
   81SOL    HW1 1142   1.809   5.109   2.786
   81SOL    HW2 1143   1.972   5.117   2.802
   82SOL     OW 1144   2.649   0.135   0.986
   82SOL    HW1 1145   2.644   0.165   0.890
   82SOL    HW2 1146   2.623   0.039   0.992
   83SOL     OW 1147   5.955   2.124   3.882
   83SOL    HW1 1148   5.922   2.156   3.970
   83SOL    HW2 1149   5.977   2.203   3.824
   84SOL     OW 1150   5.389   2.004   3.041
   84SOL    HW1 1151   5.293   2.025   3.024
   84SOL    HW2 1152   5.446   2.045   2.970
   85SOL     OW 1153   2.344   5.259   2.787
   85SOL    HW1 1154   2.389   5.232   2.872
   85SOL    HW2 1155   2.388   5.212   2.710
   86SOL     OW 1156   4.759   1.151   5.501
   86SOL    HW1 1157   4.679   1.181   5.448
   86SOL    HW2 1158   4.748   1.056   5.528
   87SOL     OW 1159   2.978   2.091   6.780
   87SOL    HW1 1160   2.974   2.011   6.720
   87SOL    HW2 1161   2.970   2.062   6.875
   88SOL     OW 1162   1.300   1.968   0.014
   88SOL    HW1 1163   1.314   2.030   0.091
   88SOL    HW2 1164   1.231   2.006   6.978
   89SOL     OW 1165   4.050   4.197   5.855
   89SOL    HW1 1166   3.980   4.244   5.909
   89SOL    HW2 1167   4.073   4.253   5.775
   90SOL     OW 1168   0.019   3.950   2.175
   90SOL    HW1 1169   7.013   3.865   2.133
   90SOL    HW2 1170   6.966   4.003   2.206
   91SOL     OW 1171   5.347   4.836   0.906
   91SOL    HW1 1172   5.419   4.895   0.871
   91SOL    HW2 1173   5.384   4.745   0.924
   92SOL     OW 1174   6.706   6.232   6.802
   92SOL    HW1 1175   6.803   6.230   6.825
   92SOL    HW2 1176   6.694   6.207   6.706
   93SOL     OW 1177   2.915   3.296   2.339
   93SOL    HW1 1178   2.944   3.372   2.397
   93SOL    HW2 1179   2.846   3.328   2.274
   94SOL     OW 1180   3.746   1.162   4.450
   94SOL    HW1 1181   3.817   1.100   4.484
   94SOL    HW2 1182   3.664   1.152   4.505
   95SOL     OW 1183   0.490   6.726   4.018
   95SOL    HW1 1184   0.446   6.666   3.952
   95SOL    HW2 1185   0.445   6.815   4.017
   96SOL     OW 1186   0.632   6.862   0.690
   96SOL    HW1 1187   0.693   6.812   0.751
   96SOL    HW2 1188   0.538   6.832   0.705
   97SOL     OW 1189   3.857   4.931   4.730
   97SOL    HW1 1190   3.759   4.917   4.725
   97SOL    HW2 1191   3.893   4.888   4.813
   98SOL     OW 1192   6.680   1.822   5.228
   98SOL    HW1 1193   6.618   1.789   5.300
   98SOL    HW2 1194   6.774   1.801   5.253
   99SOL     OW 1195   5.315   4.602   5.001
   99SOL    HW1 1196   5.389   4.657   4.962
   99SOL    HW2 1197   5.352   4.540   5.070
  100SOL     OW 1198   1.863   1.947   5.374
  100SOL    HW1 1199   1.823   1.973   5.286
  100SOL    HW2 1200   1.791   1.939   5.442
  101SOL     OW 1201   5.244   2.501   2.492
  101SOL    HW1 1202   5.163   2.556   2.471
  101SOL    HW2 1203   5.326   2.559   2.486
  102SOL     OW 1204   4.912   6.818   0.620
  102SOL    HW1 1205   5.005   6.783   0.624
  102SOL    HW2 1206   4.889   6.866   0.705
  103SOL     OW 1207   2.450   2.321   1.235
  103SOL    HW1 1208   2.424   2.397   1.175
  103SOL    HW2 1209   2.549   2.307   1.231
  104SOL     OW 1210   0.920   3.889   1.975
  104SOL    HW1 1211   0.837   3.850   2.014
  104SOL    HW2 1212   0.896   3.967   1.917
  105SOL     OW 1213   0.370   1.785   4.679
  105SOL    HW1 1214   0.335   1.707   4.627
  105SOL    HW2 1215   0.294   1.846   4.703
  106SOL     OW 1216   5.604   2.814   1.074
  106SOL    HW1 1217   5.611   2.811   0.974
  106SOL    HW2 1218   5.612   2.721   1.110
  107SOL     OW 1219   4.887   0.264   2.257
  107SOL    HW1 1220   4.839   0.300   2.337
  107SOL    HW2 1221   4.975   0.226   2.285
  108SOL     OW 1222   4.190   1.028   4.779
  108SOL    HW1 1223   4.251   0.948   4.785
  108SOL    HW2 1224   4.150   1.045   4.869
  109SOL     OW 1225   2.141   1.601   4.456
  109SOL    HW1 1226   2.165   1.521   4.511
  109SOL    HW2 1227   2.078   1.659   4.507
  110SOL     OW 1228   4.348   4.928   5.499
  110SOL    HW1 1229   4.433   4.912   5.449
  110SOL    HW2 1230   4.356   5.012   5.553
  111SOL     OW 1231   6.910   3.562   0.418
  111SOL    HW1 1232   6.893   3.492   0.349
  111SOL    HW2 1233   6.999   3.545   0.461
  112SOL     OW 1234   3.357   6.388   4.979
  112SOL    HW1 1235   3.295   6.312   4.995
  112SOL    HW2 1236   3.406   6.410   5.063
  113SOL     OW 1237   1.265   4.794   2.287
  113SOL    HW1 1238   1.176   4.766   2.323
  113SOL    HW2 1239   1.271   4.769   2.190
  114SOL     OW 1240   6.518   2.005   1.713
  114SOL    HW1 1241   6.590   1.935   1.720
  114SOL    HW2 1242   6.440   1.978   1.769
  115SOL     OW 1243   4.720   0.280   3.516
  115SOL    HW1 1244   4.637   0.323   3.551
  115SOL    HW2 1245   4.698   0.190   3.478
  116SOL     OW 1246   6.132   5.715   6.570
  116SOL    HW1 1247   6.034   5.737   6.566
  116SOL    HW2 1248   6.143   5.617   6.588
  117SOL     OW 1249   1.909   1.824   0.292
  117SOL    HW1 1250   1.955   1.735   0.295
  117SOL    HW2 1251   1.963   1.888   0.238
  118SOL     OW 1252   1.393   2.808   1.561
  118SOL    HW1 1253   1.399   2.717   1.520
  118SOL    HW2 1254   1.401   2.801   1.660
  119SOL     OW 1255   5.109   5.318   4.119
  119SOL    HW1 1256   5.025   5.276   4.155
  119SOL    HW2 1257   5.148   5.379   4.188
  120SOL     OW 1258   5.055   1.033   4.038
  120SOL    HW1 1259   4.964   1.020   4.078
  120SOL    HW2 1260   5.050   1.026   3.939
  121SOL     OW 1261   6.793   5.171   5.763
  121SOL    HW1 1262   6.801   5.107   5.840
  121SOL    HW2 1263   6.746   5.126   5.687
  122SOL     OW 1264   0.364   5.630   5.732
  122SOL    HW1 1265   0.431   5.700   5.710
  122SOL    HW2 1266   0.324   5.594   5.647
  123SOL     OW 1267   0.807   1.924   0.975
  123SOL    HW1 1268   0.852   1.984   0.909
  123SOL    HW2 1269   0.732   1.876   0.929
  124SOL     OW 1270   1.647   3.437   6.807
  124SOL    HW1 1271   1.601   3.437   6.718
  124SOL    HW2 1272   1.595   3.493   6.872
  125SOL     OW 1273   4.010   3.669   1.854
  125SOL    HW1 1274   4.088   3.631   1.804
  125SOL    HW2 1275   3.940   3.598   1.865
  126SOL     OW 1276   3.756   3.361   5.295
  126SOL    HW1 1277   3.710   3.312   5.369
  126SOL    HW2 1278   3.742   3.459   5.306
  127SOL     OW 1279   0.066   4.417   6.338
  127SOL    HW1 1280   0.132   4.422   6.263
  127SOL    HW2 1281   0.111   4.384   6.420
  128SOL     OW 1282   4.765   4.212   6.527
  128SOL    HW1 1283   4.804   4.206   6.435
  128SOL    HW2 1284   4.696   4.140   6.538
  129SOL     OW 1285   1.012   5.306   2.657
  129SOL    HW1 1286   0.915   5.325   2.645
  129SOL    HW2 1287   1.050   5.270   2.571
  130SOL     OW 1288   6.374   4.040   5.155
  130SOL    HW1 1289   6.436   4.006   5.225
  130SOL    HW2 1290   6.422   4.041   5.067
  131SOL     OW 1291   0.372   2.809   1.610
  131SOL    HW1 1292   0.423   2.827   1.526
  131SOL    HW2 1293   0.434   2.810   1.688
  132SOL     OW 1294   3.554   3.736   1.835
  132SOL    HW1 1295   3.616   3.772   1.905
  132SOL    HW2 1296   3.539   3.639   1.851
  133SOL     OW 1297   4.588   4.417   5.976
  133SOL    HW1 1298   4.568   4.324   6.006
  133SOL    HW2 1299   4.510   4.453   5.924
  134SOL     OW 1300   0.550   2.059   6.774
  134SOL    HW1 1301   0.454   2.082   6.759
  134SOL    HW2 1302   0.595   2.044   6.686
  135SOL     OW 1303   4.448   4.786   4.223
  135SOL    HW1 1304   4.506   4.827   4.294
  135SOL    HW2 1305   4.366   4.747   4.266
  136SOL     OW 1306   3.309   6.436   6.476
  136SOL    HW1 1307   3.220   6.461   6.516
  136SOL    HW2 1308   3.360   6.380   6.541
  137SOL     OW 1309   1.941   4.159   0.153
  137SOL    HW1 1310   1.867   4.204   0.203
  137SOL    HW2 1311   1.953   4.202   0.064
  138SOL     OW 1312   0.152   6.604   1.926
  138SOL    HW1 1313   0.247   6.587   1.903
  138SOL    HW2 1314   0.092   6.558   1.861
  139SOL     OW 1315   1.137   7.004   1.049
  139SOL    HW1 1316   1.233   0.001   1.055
  139SOL    HW2 1317   1.127   6.908   1.020
  140SOL     OW 1318   2.837   0.380   3.302
  140SOL    HW1 1319   2.752   0.342   3.265
  140SOL    HW2 1320   2.911   0.368   3.236
  141SOL     OW 1321   2.329   2.508   0.651
  141SOL    HW1 1322   2.426   2.482   0.655
  141SOL    HW2 1323   2.322   2.608   0.652
  142SOL     OW 1324   1.538   4.358   6.252
  142SOL    HW1 1325   1.501   4.287   6.312
  142SOL    HW2 1326   1.579   4.430   6.308
  143SOL     OW 1327   4.363   6.073   2.055
  143SOL    HW1 1328   4.395   6.147   1.997
  143SOL    HW2 1329   4.441   6.029   2.100
  144SOL     OW 1330   2.508   4.854   3.227
  144SOL    HW1 1331   2.522   4.800   3.144
  144SOL    HW2 1332   2.595   4.891   3.258
  145SOL     OW 1333   5.969   6.442   2.428
  145SOL    HW1 1334   5.897   6.463   2.495
  145SOL    HW2 1335   5.946   6.485   2.341
  146SOL     OW 1336   6.168   1.562   4.487
  146SOL    HW1 1337   6.097   1.624   4.453
  146SOL    HW2 1338   6.215   1.520   4.410
  147SOL     OW 1339   5.920   6.633   5.651
  147SOL    HW1 1340   5.924   6.687   5.735
  147SOL    HW2 1341   5.988   6.560   5.655
  148SOL     OW 1342   1.961   0.468   3.874
  148SOL    HW1 1343   1.988   0.561   3.898
  148SOL    HW2 1344   1.941   0.463   3.776
  149SOL     OW 1345   2.123   1.985   5.051
  149SOL    HW1 1346   2.214   1.974   5.093
  149SOL    HW2 1347   2.118   2.075   5.007
  150SOL     OW 1348   5.232   3.494   4.314
  150SOL    HW1 1349   5.153   3.432   4.311
  150SOL    HW2 1350   5.218   3.561   4.386
  151SOL     OW 1351   6.555   2.593   1.908
  151SOL    HW1 1352   6.492   2.669   1.920
  151SOL    HW2 1353   6.635   2.623   1.856
  152SOL     OW 1354   6.295   1.610   0.219
  152SOL    HW1 1355   6.248   1.642   0.301
  152SOL    HW2 1356   6.292   1.681   0.149
  153SOL     OW 1357   1.562   1.813   3.646
  153SOL    HW1 1358   1.470   1.787   3.673
  153SOL    HW2 1359   1.585   1.769   3.559
  154SOL     OW 1360   0.018   2.240   3.144
  154SOL    HW1 1361   0.087   2.238   3.217
  154SOL    HW2 1362   0.052   2.191   3.064
  155SOL     OW 1363   6.062   5.508   3.310
  155SOL    HW1 1364   5.978   5.533   3.358
  155SOL    HW2 1365   6.039   5.458   3.226
  156SOL     OW 1366   4.274   6.993   1.019
  156SOL    HW1 1367   4.216   6.927   0.971
  156SOL    HW2 1368   4.343   6.945   1.072
  157SOL     OW 1369   5.812   1.516   0.533
  157SOL    HW1 1370   5.836   1.580   0.461
  157SOL    HW2 1371   5.769   1.435   0.493
  158SOL     OW 1372   1.114   2.675   5.668
  158SOL    HW1 1373   1.172   2.734   5.724
  158SOL    HW2 1374   1.018   2.691   5.693
  159SOL     OW 1375   0.410   5.050   6.524
  159SOL    HW1 1376   0.427   5.144   6.493
  159SOL    HW2 1377   0.476   5.026   6.595
  160SOL     OW 1378   4.308   6.943   1.828
  160SOL    HW1 1379   4.335   0.013   1.825
  160SOL    HW2 1380   4.210   6.936   1.847
  161SOL     OW 1381   5.287   6.411   1.364
  161SOL    HW1 1382   5.297   6.509   1.349
  161SOL    HW2 1383   5.213   6.376   1.306
  162SOL     OW 1384   4.149   0.077   5.068
  162SOL    HW1 1385   4.242   0.042   5.077
  162SOL    HW2 1386   4.124   0.127   5.151
  163SOL     OW 1387   1.891   4.284   3.004
  163SOL    HW1 1388   1.918   4.189   2.990
  163SOL    HW2 1389   1.837   4.316   2.925
  164SOL     OW 1390   1.946   3.112   2.262
  164SOL    HW1 1391   1.984   3.093   2.352
  164SOL    HW2 1392   2.017   3.153   2.204
  165SOL     OW 1393   0.258   6.057   5.261
  165SOL    HW1 1394   0.214   6.015   5.341
  165SOL    HW2 1395   0.190   6.104   5.206
  166SOL     OW 1396   0.471   5.546   4.265
  166SOL    HW1 1397   0.550   5.580   4.316
  166SOL    HW2 1398   0.485   5.450   4.242
  167SOL     OW 1399   0.192   1.385   3.200
  167SOL    HW1 1400   0.259   1.358   3.270
  167SOL    HW2 1401   0.222   1.470   3.157
  168SOL     OW 1402   3.460   4.155   4.700
  168SOL    HW1 1403   3.488   4.250   4.708
  168SOL    HW2 1404   3.466   4.125   4.605
  169SOL     OW 1405   4.695   3.003   6.016
  169SOL    HW1 1406   4.643   2.919   5.997
  169SOL    HW2 1407   4.788   2.993   5.982
  170SOL     OW 1408   5.706   5.314   2.777
  170SOL    HW1 1409   5.682   5.410   2.787
  170SOL    HW2 1410   5.805   5.305   2.769
  171SOL     OW 1411   3.825   2.854   1.018
  171SOL    HW1 1412   3.767   2.775   1.036
  171SOL    HW2 1413   3.776   2.919   0.960
  172SOL     OW 1414   2.052   0.399   0.224
  172SOL    HW1 1415   2.086   0.463   0.155
  172SOL    HW2 1416   2.061   0.306   0.190
  173SOL     OW 1417   5.565   0.952   5.051
  173SOL    HW1 1418   5.491   0.992   4.997
  173SOL    HW2 1419   5.530   0.925   5.141
  174SOL     OW 1420   6.117   5.327   3.597
  174SOL    HW1 1421   6.207   5.294   3.567
  174SOL    HW2 1422   6.128   5.414   3.645
  175SOL     OW 1423   0.506   5.183   2.100
  175SOL    HW1 1424   0.422   5.150   2.143
  175SOL    HW2 1425   0.485   5.258   2.038
  176SOL     OW 1426   5.881   3.702   1.017
  176SOL    HW1 1427   5.935   3.778   0.979
  176SOL    HW2 1428   5.908   3.617   0.973
  177SOL     OW 1429   5.492   2.291   3.681
  177SOL    HW1 1430   5.583   2.302   3.641
  177SOL    HW2 1431   5.434   2.369   3.656
  178SOL     OW 1432   0.973   5.541   4.684
  178SOL    HW1 1433   0.880   5.549   4.647
  178SOL    HW2 1434   1.030   5.492   4.618
  179SOL     OW 1435   3.071   4.111   1.856
  179SOL    HW1 1436   3.005   4.151   1.920
  179SOL    HW2 1437   3.105   4.182   1.795
  180SOL     OW 1438   5.251   0.243   5.503
  180SOL    HW1 1439   5.228   0.340   5.504
  180SOL    HW2 1440   5.195   0.195   5.570
  181SOL     OW 1441   3.102   5.741   5.569
  181SOL    HW1 1442   3.089   5.829   5.525
  181SOL    HW2 1443   3.013   5.696   5.582
  182SOL     OW 1444   3.391   2.594   5.289
  182SOL    HW1 1445   3.362   2.687   5.265
  182SOL    HW2 1446   3.339   2.528   5.236
  183SOL     OW 1447   1.982   0.436   2.746
  183SOL    HW1 1448   1.935   0.499   2.807
  183SOL    HW2 1449   1.991   0.478   2.656
  184SOL     OW 1450   5.596   6.283   3.787
  184SOL    HW1 1451   5.595   6.351   3.714
  184SOL    HW2 1452   5.624   6.326   3.873
  185SOL     OW 1453   0.550   5.995   5.228
  185SOL    HW1 1454   0.625   5.973   5.291
  185SOL    HW2 1455   0.470   6.025   5.281
  186SOL     OW 1456   3.662   4.908   0.305
  186SOL    HW1 1457   3.685   4.965   0.226
  186SOL    HW2 1458   3.675   4.812   0.282
  187SOL     OW 1459   3.963   5.601   0.454
  187SOL    HW1 1460   4.033   5.548   0.406
  187SOL    HW2 1461   3.958   5.692   0.414
  188SOL     OW 1462   1.473   4.260   3.689
  188SOL    HW1 1463   1.450   4.167   3.717
  188SOL    HW2 1464   1.511   4.260   3.597
  189SOL     OW 1465   6.835   3.567   5.910
  189SOL    HW1 1466   6.835   3.659   5.870
  189SOL    HW2 1467   6.741   3.531   5.909
  190SOL     OW 1468   6.318   6.000   0.228
  190SOL    HW1 1469   6.391   6.059   0.263
  190SOL    HW2 1470   6.277   6.041   0.147
  191SOL     OW 1471   2.091   3.767   6.351
  191SOL    HW1 1472   2.123   3.846   6.403
  191SOL    HW2 1473   2.063   3.695   6.414
  192SOL     OW 1474   0.942   6.410   0.312
  192SOL    HW1 1475   1.011   6.429   0.243
  192SOL    HW2 1476   0.861   6.370   0.269
  193SOL     OW 1477   2.720   0.269   1.927
  193SOL    HW1 1478   2.693   0.237   1.836
  193SOL    HW2 1479   2.638   0.285   1.982
  194SOL     OW 1480   4.374   6.573   3.383
  194SOL    HW1 1481   4.277   6.597   3.376
  194SOL    HW2 1482   4.406   6.596   3.475
  195SOL     OW 1483   3.492   0.671   0.912
  195SOL    HW1 1484   3.434   0.633   0.840
  195SOL    HW2 1485   3.438   0.685   0.995
  196SOL     OW 1486   3.811   3.000   1.462
  196SOL    HW1 1487   3.859   3.064   1.521
  196SOL    HW2 1488   3.726   3.041   1.429
  197SOL     OW 1489   0.903   6.779   1.256
  197SOL    HW1 1490   0.872   6.826   1.338
  197SOL    HW2 1491   0.836   6.791   1.183
  198SOL     OW 1492   6.243   0.661   5.279
  198SOL    HW1 1493   6.310   0.609   5.227
  198SOL    HW2 1494   6.272   0.756   5.286
  199SOL     OW 1495   1.374   0.378   3.009
  199SOL    HW1 1496   1.373   0.368   2.910
  199SOL    HW2 1497   1.467   0.400   3.039
  200SOL     OW 1498   1.754   3.406   3.175
  200SOL    HW1 1499   1.800   3.320   3.153
  200SOL    HW2 1500   1.756   3.422   3.273
  201SOL     OW 1501   5.487   1.065   6.740
  201SOL    HW1 1502   5.579   1.097   6.761
  201SOL    HW2 1503   5.459   1.101   6.652
  202SOL     OW 1504   3.752   0.632   2.818
  202SOL    HW1 1505   3.721   0.724   2.797
  202SOL    HW2 1506   3.716   0.604   2.907
  203SOL     OW 1507   5.895   2.822   1.405
  203SOL    HW1 1508   5.878   2.724   1.391
  203SOL    HW2 1509   5.813   2.873   1.380
  204SOL     OW 1510   2.489   5.943   0.672
  204SOL    HW1 1511   2.539   6.010   0.617
  204SOL    HW2 1512   2.400   5.924   0.630
  205SOL     OW 1513   4.824   0.714   0.197
  205SOL    HW1 1514   4.765   0.772   0.253
  205SOL    HW2 1515   4.824   0.748   0.103
  206SOL     OW 1516   0.218   5.641   2.101
  206SOL    HW1 1517   0.172   5.729   2.115
  206SOL    HW2 1518   0.159   5.579   2.051
  207SOL     OW 1519   6.602   2.857   6.051
  207SOL    HW1 1520   6.668   2.788   6.021
  207SOL    HW2 1521   6.517   2.812   6.078
  208SOL     OW 1522   5.092   3.039   1.320
  208SOL    HW1 1523   5.158   2.988   1.376
  208SOL    HW2 1524   5.023   3.080   1.380
  209SOL     OW 1525   6.242   0.617   4.047
  209SOL    HW1 1526   6.273   0.577   3.961
  209SOL    HW2 1527   6.251   0.717   4.043
  210SOL     OW 1528   5.277   3.099   6.839
  210SOL    HW1 1529   5.324   3.031   6.782
  210SOL    HW2 1530   5.309   3.190   6.814
  211SOL     OW 1531   6.891   5.017   2.467
  211SOL    HW1 1532   6.852   4.973   2.548
  211SOL    HW2 1533   6.979   5.059   2.491
  212SOL     OW 1534   0.675   5.254   5.526
  212SOL    HW1 1535   0.742   5.193   5.568
  212SOL    HW2 1536   0.625   5.302   5.598
  213SOL     OW 1537   4.648   2.459   1.532
  213SOL    HW1 1538   4.578   2.527   1.552
  213SOL    HW2 1539   4.739   2.497   1.550
  214SOL     OW 1540   6.771   5.939   3.855
  214SOL    HW1 1541   6.789   5.916   3.760
  214SOL    HW2 1542   6.672   5.942   3.871
  215SOL     OW 1543   3.662   2.858   3.185
  215SOL    HW1 1544   3.589   2.903   3.133
  215SOL    HW2 1545   3.735   2.831   3.122
  216SOL     OW 1546   3.991   6.665   4.840
  216SOL    HW1 1547   3.946   6.721   4.771
  216SOL    HW2 1548   4.035   6.725   4.907
  217SOL     OW 1549   6.294   2.075   4.758
  217SOL    HW1 1550   6.258   2.115   4.842
  217SOL    HW2 1551   6.371   2.015   4.780
  218SOL     OW 1552   2.596   5.056   5.427
  218SOL    HW1 1553   2.684   5.030   5.386
  218SOL    HW2 1554   2.542   5.106   5.359
  219SOL     OW 1555   3.316   6.626   6.751
  219SOL    HW1 1556   3.314   6.593   6.846
  219SOL    HW2 1557   3.408   6.614   6.714
  220SOL     OW 1558   1.358   4.977   0.240
  220SOL    HW1 1559   1.381   4.966   0.336
  220SOL    HW2 1560   1.351   4.887   0.197
  221SOL     OW 1561   6.206   4.591   4.690
  221SOL    HW1 1562   6.267   4.637   4.624
  221SOL    HW2 1563   6.197   4.647   4.772
  222SOL     OW 1564   0.973   0.186   4.764
  222SOL    HW1 1565   0.989   0.274   4.719
  222SOL    HW2 1566   0.884   0.188   4.811
  223SOL     OW 1567   5.754   6.023   1.641
  223SOL    HW1 1568   5.734   6.107   1.590
  223SOL    HW2 1569   5.842   6.033   1.688
  224SOL     OW 1570   5.702   4.240   2.259
  224SOL    HW1 1571   5.685   4.146   2.288
  224SOL    HW2 1572   5.647   4.302   2.314
  225SOL     OW 1573   4.341   6.215   0.949
  225SOL    HW1 1574   4.287   6.154   1.007
  225SOL    HW2 1575   4.304   6.308   0.955
  226SOL     OW 1576   1.226   5.319   3.059
  226SOL    HW1 1577   1.300   5.386   3.069
  226SOL    HW2 1578   1.263   5.227   3.072
  227SOL     OW 1579   1.295   3.612   3.278
  227SOL    HW1 1580   1.330   3.642   3.367
  227SOL    HW2 1581   1.276   3.514   3.281
  228SOL     OW 1582   3.606   5.623   3.468
  228SOL    HW1 1583   3.514   5.660   3.470
  228SOL    HW2 1584   3.605   5.527   3.496
  229SOL     OW 1585   5.675   6.674   2.038
  229SOL    HW1 1586   5.633   6.755   2.079
  229SOL    HW2 1587   5.661   6.675   1.939
  230SOL     OW 1588   1.289   4.659   4.883
  230SOL    HW1 1589   1.249   4.568   4.894
  230SOL    HW2 1590   1.387   4.650   4.864
  231SOL     OW 1591   0.080   2.182   6.850
  231SOL    HW1 1592   0.155   2.146   6.794
  231SOL    HW2 1593   0.066   2.279   6.828
  232SOL     OW 1594   2.120   3.153   0.331
  232SOL    HW1 1595   2.127   3.251   0.312
  232SOL    HW2 1596   2.118   3.139   0.430
  233SOL     OW 1597   3.663   0.447   0.616
  233SOL    HW1 1598   3.573   0.472   0.579
  233SOL    HW2 1599   3.710   0.388   0.550
  234SOL     OW 1600   1.930   5.340   0.730
  234SOL    HW1 1601   1.853   5.294   0.686
  234SOL    HW2 1602   2.003   5.273   0.746
  235SOL     OW 1603   4.527   2.952   5.488
  235SOL    HW1 1604   4.433   2.943   5.455
  235SOL    HW2 1605   4.589   2.906   5.424
  236SOL     OW 1606   6.930   6.995   6.574
  236SOL    HW1 1607   6.935   6.957   6.481
  236SOL    HW2 1608   6.855   6.952   6.623
  237SOL     OW 1609   5.987   0.458   2.654
  237SOL    HW1 1610   5.946   0.473   2.564
  237SOL    HW2 1611   6.063   0.521   2.667
  238SOL     OW 1612   0.186   1.910   3.512
  238SOL    HW1 1613   0.281   1.894   3.484
  238SOL    HW2 1614   0.159   1.841   3.580
  239SOL     OW 1615   6.201   4.668   6.524
  239SOL    HW1 1616   6.105   4.695   6.514
  239SOL    HW2 1617   6.206   4.577   6.565
  240SOL     OW 1618   6.932   2.853   4.178
  240SOL    HW1 1619   6.961   2.809   4.093
  240SOL    HW2 1620   7.009   2.855   4.242
  241SOL     OW 1621   6.008   2.880   4.236
  241SOL    HW1 1622   6.097   2.862   4.278
  241SOL    HW2 1623   5.965   2.793   4.211
  242SOL     OW 1624   2.142   2.473   2.877
  242SOL    HW1 1625   2.088   2.438   2.954
  242SOL    HW2 1626   2.239   2.454   2.893
  243SOL     OW 1627   5.470   1.381   6.148
  243SOL    HW1 1628   5.443   1.465   6.195
  243SOL    HW2 1629   5.532   1.403   6.073
  244SOL     OW 1630   1.684   0.817   5.786
  244SOL    HW1 1631   1.586   0.837   5.788
  244SOL    HW2 1632   1.718   0.806   5.879
  245SOL     OW 1633   5.123   1.823   4.797
  245SOL    HW1 1634   5.187   1.810   4.721
  245SOL    HW2 1635   5.068   1.740   4.808
  246SOL     OW 1636   5.139   3.983   4.569
  246SOL    HW1 1637   5.041   3.968   4.582
  246SOL    HW2 1638   5.167   4.064   4.620
  247SOL     OW 1639   1.513   0.410   2.757
  247SOL    HW1 1640   1.512   0.506   2.730
  247SOL    HW2 1641   1.583   0.396   2.827
  248SOL     OW 1642   6.630   2.860   3.148
  248SOL    HW1 1643   6.719   2.886   3.111
  248SOL    HW2 1644   6.561   2.927   3.119
  249SOL     OW 1645   1.943   6.357   4.696
  249SOL    HW1 1646   1.899   6.406   4.621
  249SOL    HW2 1647   2.030   6.319   4.665
  250SOL     OW 1648   6.009   2.403   0.321
  250SOL    HW1 1649   5.924   2.453   0.302
  250SOL    HW2 1650   5.992   2.305   0.312
  251SOL     OW 1651   2.333   6.885   3.039
  251SOL    HW1 1652   2.327   6.972   2.992
  251SOL    HW2 1653   2.404   6.829   2.996
  252SOL     OW 1654   6.613   3.266   6.806
  252SOL    HW1 1655   6.573   3.358   6.809
  252SOL    HW2 1656   6.676   3.259   6.729
  253SOL     OW 1657   2.121   4.720   5.616
  253SOL    HW1 1658   2.073   4.645   5.570
  253SOL    HW2 1659   2.110   4.711   5.715
  254SOL     OW 1660   5.048   3.484   6.976
  254SOL    HW1 1661   4.957   3.520   6.992
  254SOL    HW2 1662   5.065   3.406   0.011
  255SOL     OW 1663   4.204   2.077   1.904
  255SOL    HW1 1664   4.153   2.037   1.981
  255SOL    HW2 1665   4.142   2.132   1.848
  256SOL     OW 1666   0.407   6.395   0.836
  256SOL    HW1 1667   0.401   6.398   0.736
  256SOL    HW2 1668   0.359   6.314   0.870
  257SOL     OW 1669   2.680   6.202   6.539
  257SOL    HW1 1670   2.620   6.281   6.548
  257SOL    HW2 1671   2.683   6.152   6.625
  258SOL     OW 1672   4.717   5.032   4.119
  258SOL    HW1 1673   4.782   5.108   4.127
  258SOL    HW2 1674   4.730   4.968   4.194
  259SOL     OW 1675   6.754   1.382   2.258
  259SOL    HW1 1676   6.670   1.330   2.272
  259SOL    HW2 1677   6.810   1.376   2.340
  260SOL     OW 1678   6.279   6.832   6.051
  260SOL    HW1 1679   6.247   6.808   6.143
  260SOL    HW2 1680   6.229   6.912   6.018
  261SOL     OW 1681   6.943   1.042   3.171
  261SOL    HW1 1682   6.874   1.099   3.217
  261SOL    HW2 1683   6.968   0.966   3.231
  262SOL     OW 1684   1.715   5.537   0.796
  262SOL    HW1 1685   1.792   5.474   0.802
  262SOL    HW2 1686   1.631   5.486   0.781
  263SOL     OW 1687   0.939   4.826   5.159
  263SOL    HW1 1688   1.020   4.881   5.178
  263SOL    HW2 1689   0.862   4.859   5.213
  264SOL     OW 1690   4.392   4.327   0.673
  264SOL    HW1 1691   4.322   4.308   0.605
  264SOL    HW2 1692   4.355   4.314   0.765
  265SOL     OW 1693   3.812   5.674   4.386
  265SOL    HW1 1694   3.885   5.708   4.327
  265SOL    HW2 1695   3.748   5.748   4.406
  266SOL     OW 1696   4.721   3.364   6.846
  266SOL    HW1 1697   4.800   3.410   6.807
  266SOL    HW2 1698   4.665   3.430   6.896
  267SOL     OW 1699   2.956   2.001   6.254
  267SOL    HW1 1700   2.880   1.982   6.193
  267SOL    HW2 1701   2.922   2.040   6.339
  268SOL     OW 1702   1.509   4.324   2.846
  268SOL    HW1 1703   1.510   4.322   2.746
  268SOL    HW2 1704   1.471   4.411   2.877
  269SOL     OW 1705   2.717   1.330   5.242
  269SOL    HW1 1706   2.659   1.408   5.219
  269SOL    HW2 1707   2.808   1.362   5.268
  270SOL     OW 1708   5.586   5.612   4.815
  270SOL    HW1 1709   5.507   5.661   4.852
  270SOL    HW2 1710   5.607   5.649   4.724
  271SOL     OW 1711   2.734   0.531   7.002
  271SOL    HW1 1712   2.761   0.626   7.011
  271SOL    HW2 1713   2.763   0.497   6.912
  272SOL     OW 1714   5.911   3.968   6.704
  272SOL    HW1 1715   5.999   4.005   6.732
  272SOL    HW2 1716   5.850   4.043   6.676
  273SOL     OW 1717   0.353   5.774   4.119
  273SOL    HW1 1718   0.433   5.829   4.095
  273SOL    HW2 1719   0.382   5.689   4.163
  274SOL     OW 1720   5.235   2.913   2.594
  274SOL    HW1 1721   5.272   2.869   2.676
  274SOL    HW2 1722   5.308   2.965   2.549
  275SOL     OW 1723   5.739   5.167   5.743
  275SOL    HW1 1724   5.677   5.233   5.785
  275SOL    HW2 1725   5.691   5.116   5.672
  276SOL     OW 1726   0.266   0.233   4.563
  276SOL    HW1 1727   0.197   0.215   4.633
  276SOL    HW2 1728   0.349   0.269   4.607
  277SOL     OW 1729   4.152   3.425   5.899
  277SOL    HW1 1730   4.179   3.354   5.833
  277SOL    HW2 1731   4.115   3.382   5.981
  278SOL     OW 1732   6.092   5.182   1.987
  278SOL    HW1 1733   6.138   5.181   2.076
  278SOL    HW2 1734   5.993   5.171   2.000
  279SOL     OW 1735   6.580   3.391   3.916
  279SOL    HW1 1736   6.607   3.295   3.912
  279SOL    HW2 1737   6.633   3.438   3.986
  280SOL     OW 1738   4.236   1.063   2.178
  280SOL    HW1 1739   4.203   1.103   2.092
  280SOL    HW2 1740   4.223   1.129   2.252
  281SOL     OW 1741   5.411   5.188   6.371
  281SOL    HW1 1742   5.444   5.095   6.361
  281SOL    HW2 1743   5.418   5.217   6.466
  282SOL     OW 1744   0.895   1.789   6.927
  282SOL    HW1 1745   0.942   1.761   7.010
  282SOL    HW2 1746   0.877   1.888   6.930
  283SOL     OW 1747   6.135   3.895   3.080
  283SOL    HW1 1748   6.169   3.987   3.098
  283SOL    HW2 1749   6.122   3.883   2.982
  284SOL     OW 1750   5.593   0.275   2.617
  284SOL    HW1 1751   5.545   0.199   2.660
  284SOL    HW2 1752   5.644   0.325   2.687
  285SOL     OW 1753   5.434   5.879   6.230
  285SOL    HW1 1754   5.389   5.961   6.268
  285SOL    HW2 1755   5.516   5.859   6.282
  286SOL     OW 1756   3.361   5.690   5.533
  286SOL    HW1 1757   3.263   5.701   5.544
  286SOL    HW2 1758   3.398   5.767   5.481
  287SOL     OW 1759   4.589   6.725   0.551
  287SOL    HW1 1760   4.607   6.776   0.467
  287SOL    HW2 1761   4.674   6.683   0.584
  288SOL     OW 1762   3.681   0.734   0.201
  288SOL    HW1 1763   3.707   0.749   0.296
  288SOL    HW2 1764   3.761   0.702   0.149
  289SOL     OW 1765   6.068   5.210   5.009
  289SOL    HW1 1766   6.006   5.257   5.072
  289SOL    HW2 1767   6.117   5.277   4.954
  290SOL     OW 1768   2.807   1.092   4.585
  290SOL    HW1 1769   2.793   0.998   4.615
  290SOL    HW2 1770   2.776   1.102   4.490
  291SOL     OW 1771   5.742   1.281   5.004
  291SOL    HW1 1772   5.659   1.228   4.988
  291SOL    HW2 1773   5.819   1.239   4.956
  292SOL     OW 1774   2.519   0.810   4.329
  292SOL    HW1 1775   2.476   0.868   4.398
  292SOL    HW2 1776   2.605   0.851   4.299
  293SOL     OW 1777   5.584   0.673   3.007
  293SOL    HW1 1778   5.498   0.671   3.058
  293SOL    HW2 1779   5.660   0.681   3.071
  294SOL     OW 1780   6.742   1.152   6.258
  294SOL    HW1 1781   6.647   1.184   6.261
  294SOL    HW2 1782   6.767   1.131   6.164
  295SOL     OW 1783   0.884   0.630   5.446
  295SOL    HW1 1784   0.951   0.559   5.421
  295SOL    HW2 1785   0.896   0.710   5.388
  296SOL     OW 1786   0.165   1.556   6.845
  296SOL    HW1 1787   0.127   1.637   6.800
  296SOL    HW2 1788   0.248   1.528   6.799
  297SOL     OW 1789   5.031   4.406   3.164
  297SOL    HW1 1790   5.118   4.455   3.157
  297SOL    HW2 1791   4.971   4.455   3.227
  298SOL     OW 1792   3.896   6.165   5.326
  298SOL    HW1 1793   3.863   6.104   5.254
  298SOL    HW2 1794   3.828   6.235   5.344
  299SOL     OW 1795   6.784   1.460   6.381
  299SOL    HW1 1796   6.762   1.523   6.455
  299SOL    HW2 1797   6.877   1.425   6.393
  300SOL     OW 1798   4.329   6.876   4.408
  300SOL    HW1 1799   4.244   6.841   4.447
  300SOL    HW2 1800   4.350   6.965   4.450
  301SOL     OW 1801   6.822   6.347   5.522
  301SOL    HW1 1802   6.799   6.420   5.586
  301SOL    HW2 1803   6.916   6.318   5.537
  302SOL     OW 1804   0.799   6.110   2.567
  302SOL    HW1 1805   0.825   6.116   2.663
  302SOL    HW2 1806   0.714   6.057   2.559
  303SOL     OW 1807   4.218   5.479   2.352
  303SOL    HW1 1808   4.250   5.569   2.323
  303SOL    HW2 1809   4.273   5.408   2.308
  304SOL     OW 1810   1.468   1.339   5.317
  304SOL    HW1 1811   1.416   1.256   5.297
  304SOL    HW2 1812   1.425   1.418   5.272
  305SOL     OW 1813   3.425   1.192   0.875
  305SOL    HW1 1814   3.449   1.167   0.781
  305SOL    HW2 1815   3.443   1.289   0.889
  306SOL     OW 1816   0.452   6.483   2.513
  306SOL    HW1 1817   0.421   6.407   2.571
  306SOL    HW2 1818   0.549   6.472   2.492
  307SOL     OW 1819   3.634   3.036   4.553
  307SOL    HW1 1820   3.633   3.123   4.504
  307SOL    HW2 1821   3.710   3.035   4.618
  308SOL     OW 1822   6.589   2.962   0.336
  308SOL    HW1 1823   6.590   3.061   0.331
  308SOL    HW2 1824   6.510   2.926   0.287
  309SOL     OW 1825   1.837   5.180   0.139
  309SOL    HW1 1826   1.937   5.176   0.142
  309SOL    HW2 1827   1.808   5.275   0.153
  310SOL     OW 1828   4.518   5.977   5.442
  310SOL    HW1 1829   4.455   6.044   5.403
  310SOL    HW2 1830   4.525   5.992   5.541
  311SOL     OW 1831   1.565   6.168   2.055
  311SOL    HW1 1832   1.587   6.179   2.152
  311SOL    HW2 1833   1.521   6.079   2.040
  312SOL     OW 1834   3.479   0.424   4.492
  312SOL    HW1 1835   3.390   0.467   4.503
  312SOL    HW2 1836   3.548   0.494   4.475
  313SOL     OW 1837   2.950   3.699   3.473
  313SOL    HW1 1838   2.990   3.662   3.389
  313SOL    HW2 1839   2.894   3.779   3.450
  314SOL     OW 1840   1.971   4.504   6.210
  314SOL    HW1 1841   1.910   4.448   6.155
  314SOL    HW2 1842   2.066   4.477   6.194
  315SOL     OW 1843   6.047   0.142   3.892
  315SOL    HW1 1844   6.100   0.225   3.908
  315SOL    HW2 1845   5.970   0.139   3.956
  316SOL     OW 1846   3.850   1.048   4.806
  316SOL    HW1 1847   3.801   0.964   4.827
  316SOL    HW2 1848   3.899   1.038   4.720
  317SOL     OW 1849   0.411   1.305   1.887
  317SOL    HW1 1850   0.453   1.330   1.974
  317SOL    HW2 1851   0.482   1.278   1.822
  318SOL     OW 1852   0.717   1.673   3.927
  318SOL    HW1 1853   0.809   1.712   3.923
  318SOL    HW2 1854   0.712   1.607   4.001
  319SOL     OW 1855   0.269   1.716   1.788
  319SOL    HW1 1856   0.190   1.742   1.843
  319SOL    HW2 1857   0.257   1.622   1.755
  320SOL     OW 1858   4.833   0.776   6.549
  320SOL    HW1 1859   4.924   0.749   6.578
  320SOL    HW2 1860   4.795   0.841   6.615
  321SOL     OW 1861   4.142   3.322   1.021
  321SOL    HW1 1862   4.064   3.264   0.997
  321SOL    HW2 1863   4.188   3.352   0.938
  322SOL     OW 1864   3.102   1.354   0.508
  322SOL    HW1 1865   3.113   1.405   0.593
  322SOL    HW2 1866   3.192   1.330   0.471
  323SOL     OW 1867   0.174   4.108   1.807
  323SOL    HW1 1868   0.136   4.017   1.822
  323SOL    HW2 1869   0.241   4.104   1.732
  324SOL     OW 1870   6.950   0.768   3.631
  324SOL    HW1 1871   7.014   0.805   3.698
  324SOL    HW2 1872   6.878   0.835   3.613
  325SOL     OW 1873   6.940   2.722   0.279
  325SOL    HW1 1874   6.936   2.760   0.371
  325SOL    HW2 1875   6.870   2.765   0.221
  326SOL     OW 1876   5.872   6.081   5.991
  326SOL    HW1 1877   5.950   6.063   5.931
  326SOL    HW2 1878   5.822   6.161   5.957
  327SOL     OW 1879   3.855   6.218   6.684
  327SOL    HW1 1880   3.863   6.222   6.784
  327SOL    HW2 1881   3.792   6.145   6.658
  328SOL     OW 1882   2.626   4.795   3.709
  328SOL    HW1 1883   2.690   4.758   3.642
  328SOL    HW2 1884   2.639   4.749   3.797
  329SOL     OW 1885   2.934   3.597   2.903
  329SOL    HW1 1886   2.921   3.646   2.817
  329SOL    HW2 1887   3.022   3.550   2.901
  330SOL     OW 1888   2.169   3.410   6.534
  330SOL    HW1 1889   2.155   3.361   6.619
  330SOL    HW2 1890   2.102   3.484   6.526
  331SOL     OW 1891   4.867   5.743   4.509
  331SOL    HW1 1892   4.859   5.738   4.409
  331SOL    HW2 1893   4.910   5.830   4.534
  332SOL     OW 1894   6.091   2.164   3.074
  332SOL    HW1 1895   6.106   2.115   3.159
  332SOL    HW2 1896   6.018   2.231   3.086
  333SOL     OW 1897   2.810   6.020   4.317
  333SOL    HW1 1898   2.813   6.039   4.415
  333SOL    HW2 1899   2.846   5.928   4.300
  334SOL     OW 1900   3.587   3.378   3.663
  334SOL    HW1 1901   3.554   3.471   3.679
  334SOL    HW2 1902   3.680   3.369   3.699
  335SOL     OW 1903   4.570   1.296   6.795
  335SOL    HW1 1904   4.514   1.379   6.806
  335SOL    HW2 1905   4.512   1.221   6.765
  336SOL     OW 1906   3.564   1.721   4.696
  336SOL    HW1 1907   3.651   1.760   4.726
  336SOL    HW2 1908   3.522   1.671   4.772
  337SOL     OW 1909   1.116   1.884   5.623
  337SOL    HW1 1910   1.150   1.946   5.694
  337SOL    HW2 1911   1.040   1.927   5.575
  338SOL     OW 1912   4.831   2.005   1.704
  338SOL    HW1 1913   4.786   2.029   1.790
  338SOL    HW2 1914   4.789   1.922   1.667
  339SOL     OW 1915   3.203   4.732   6.057
  339SOL    HW1 1916   3.170   4.727   5.962
  339SOL    HW2 1917   3.170   4.816   6.100
  340SOL     OW 1918   5.456   4.879   4.680
  340SOL    HW1 1919   5.460   4.948   4.607
  340SOL    HW2 1920   5.509   4.799   4.652
  341SOL     OW 1921   5.765   0.531   1.583
  341SOL    HW1 1922   5.703   0.602   1.552
  341SOL    HW2 1923   5.842   0.573   1.632
  342SOL     OW 1924   4.527   0.529   1.215
  342SOL    HW1 1925   4.536   0.627   1.232
  342SOL    HW2 1926   4.502   0.513   1.120
  343SOL     OW 1927   5.972   0.586   1.954
  343SOL    HW1 1928   5.976   0.645   2.035
  343SOL    HW2 1929   5.974   0.642   1.872
  344SOL     OW 1930   6.248   3.008   1.825
  344SOL    HW1 1931   6.314   2.951   1.776
  344SOL    HW2 1932   6.156   2.968   1.814
  345SOL     OW 1933   0.127   3.331   3.167
  345SOL    HW1 1934   0.048   3.325   3.228
  345SOL    HW2 1935   0.101   3.305   3.075
  346SOL     OW 1936   0.615   0.876   3.346
  346SOL    HW1 1937   0.672   0.942   3.297
  346SOL    HW2 1938   0.587   0.804   3.283
  347SOL     OW 1939   2.046   3.961   1.549
  347SOL    HW1 1940   2.009   3.870   1.570
  347SOL    HW2 1941   2.003   3.996   1.466
  348SOL     OW 1942   6.247   4.646   1.052
  348SOL    HW1 1943   6.218   4.564   1.004
  348SOL    HW2 1944   6.207   4.726   1.009
  349SOL     OW 1945   6.061   5.446   6.660
  349SOL    HW1 1946   6.060   5.350   6.632
  349SOL    HW2 1947   6.029   5.453   6.755
  350SOL     OW 1948   2.833   0.381   0.516
  350SOL    HW1 1949   2.814   0.386   0.418
  350SOL    HW2 1950   2.759   0.331   0.562
  351SOL     OW 1951   4.177   4.021   0.837
  351SOL    HW1 1952   4.250   3.969   0.879
  351SOL    HW2 1953   4.193   4.119   0.850
  352SOL     OW 1954   3.580   0.893   2.806
  352SOL    HW1 1955   3.524   0.810   2.810
  352SOL    HW2 1956   3.551   0.955   2.879
  353SOL     OW 1957   2.377   6.582   0.601
  353SOL    HW1 1958   2.308   6.589   0.673
  353SOL    HW2 1959   2.468   6.586   0.643
  354SOL     OW 1960   2.997   2.416   0.771
  354SOL    HW1 1961   2.934   2.353   0.725
  354SOL    HW2 1962   3.008   2.387   0.866
  355SOL     OW 1963   0.107   2.251   2.506
  355SOL    HW1 1964   0.131   2.290   2.595
  355SOL    HW2 1965   0.011   2.270   2.487
  356SOL     OW 1966   2.705   6.795   5.575
  356SOL    HW1 1967   2.617   6.775   5.618
  356SOL    HW2 1968   2.769   6.720   5.593
  357SOL     OW 1969   6.317   5.952   4.659
  357SOL    HW1 1970   6.282   6.032   4.610
  357SOL    HW2 1971   6.258   5.933   4.737
  358SOL     OW 1972   3.418   6.310   6.701
  358SOL    HW1 1973   3.494   6.266   6.749
  358SOL    HW2 1974   3.336   6.255   6.712
  359SOL     OW 1975   1.977   2.283   0.923
  359SOL    HW1 1976   1.951   2.215   0.854
  359SOL    HW2 1977   2.047   2.245   0.983
  360SOL     OW 1978   1.750   4.712   2.884
  360SOL    HW1 1979   1.689   4.739   2.810
  360SOL    HW2 1980   1.810   4.639   2.854
  361SOL     OW 1981   6.221   2.882   2.702
  361SOL    HW1 1982   6.165   2.950   2.656
  361SOL    HW2 1983   6.162   2.818   2.752
  362SOL     OW 1984   3.912   3.066   3.092
  362SOL    HW1 1985   3.847   3.116   3.150
  362SOL    HW2 1986   3.870   3.048   3.003
  363SOL     OW 1987   4.593   5.789   1.824
  363SOL    HW1 1988   4.580   5.746   1.735
  363SOL    HW2 1989   4.640   5.877   1.813
  364SOL     OW 1990   1.002   1.034   6.864
  364SOL    HW1 1991   1.019   0.947   6.817
  364SOL    HW2 1992   0.969   1.016   6.957
  365SOL     OW 1993   4.980   0.230   3.563
  365SOL    HW1 1994   5.011   0.137   3.583
  365SOL    HW2 1995   4.882   0.229   3.545
  366SOL     OW 1996   5.731   1.003   0.149
  366SOL    HW1 1997   5.776   1.085   0.113
  366SOL    HW2 1998   5.791   0.924   0.137
  367SOL     OW 1999   6.527   6.423   6.851
  367SOL    HW1 2000   6.579   6.337   6.848
  367SOL    HW2 2001   6.430   6.402   6.862
  368SOL     OW 2002   2.651   1.112   5.076
  368SOL    HW1 2003   2.687   1.186   5.132
  368SOL    HW2 2004   2.614   1.149   4.991
  369SOL     OW 2005   4.973   3.803   6.553
  369SOL    HW1 2006   4.885   3.831   6.515
  369SOL    HW2 2007   5.021   3.746   6.486
  370SOL     OW 2008   1.399   1.798   3.968
  370SOL    HW1 2009   1.331   1.864   3.936
  370SOL    HW2 2010   1.486   1.844   3.982
  371SOL     OW 2011   3.029   5.084   0.921
  371SOL    HW1 2012   3.094   5.016   0.888
  371SOL    HW2 2013   2.969   5.112   0.845
  372SOL     OW 2014   2.492   5.765   6.147
  372SOL    HW1 2015   2.464   5.680   6.192
  372SOL    HW2 2016   2.570   5.804   6.196
  373SOL     OW 2017   5.505   4.448   2.617
  373SOL    HW1 2018   5.542   4.371   2.669
  373SOL    HW2 2019   5.572   4.522   2.614
  374SOL     OW 2020   2.223   2.995   1.980
  374SOL    HW1 2021   2.245   2.914   2.033
  374SOL    HW2 2022   2.178   2.967   1.895
  375SOL     OW 2023   0.058   5.185   4.317
  375SOL    HW1 2024   6.984   5.193   4.318
  375SOL    HW2 2025   0.099   5.276   4.314
  376SOL     OW 2026   5.332   6.858   3.631
  376SOL    HW1 2027   5.306   6.952   3.613
  376SOL    HW2 2028   5.266   6.796   3.589
  377SOL     OW 2029   2.600   3.237   6.367
  377SOL    HW1 2030   2.561   3.207   6.280
  377SOL    HW2 2031   2.553   3.320   6.398
  378SOL     OW 2032   4.222   1.025   1.216
  378SOL    HW1 2033   4.292   1.082   1.260
  378SOL    HW2 2034   4.263   0.976   1.140
  379SOL     OW 2035   3.038   3.764   0.921
  379SOL    HW1 2036   3.053   3.730   1.013
  379SOL    HW2 2037   3.055   3.690   0.855
  380SOL     OW 2038   5.285   1.780   6.601
  380SOL    HW1 2039   5.290   1.852   6.671
  380SOL    HW2 2040   5.198   1.731   6.611
  381SOL     OW 2041   0.273   3.438   2.343
  381SOL    HW1 2042   0.323   3.408   2.424
  381SOL    HW2 2043   0.271   3.363   2.276
  382SOL     OW 2044   5.853   0.132   0.616
  382SOL    HW1 2045   5.915   0.107   0.542
  382SOL    HW2 2046   5.836   0.052   0.674
  383SOL     OW 2047   5.435   2.768   1.454
  383SOL    HW1 2048   5.484   2.725   1.378
  383SOL    HW2 2049   5.466   2.862   1.465
  384SOL     OW 2050   1.420   2.863   4.353
  384SOL    HW1 2051   1.392   2.829   4.443
  384SOL    HW2 2052   1.384   2.803   4.282
  385SOL     OW 2053   4.699   2.962   0.058
  385SOL    HW1 2054   4.783   3.014   0.040
  385SOL    HW2 2055   4.640   3.015   0.119
  386SOL     OW 2056   3.167   6.223   5.702
  386SOL    HW1 2057   3.171   6.134   5.748
  386SOL    HW2 2058   3.224   6.289   5.751
  387SOL     OW 2059   1.600   6.646   3.594
  387SOL    HW1 2060   1.687   6.618   3.553
  387SOL    HW2 2061   1.560   6.568   3.642
  388SOL     OW 2062   1.833   5.596   5.895
  388SOL    HW1 2063   1.764   5.528   5.918
  388SOL    HW2 2064   1.891   5.562   5.820
  389SOL     OW 2065   3.979   2.140   6.903
  389SOL    HW1 2066   3.903   2.167   6.845
  389SOL    HW2 2067   4.052   2.100   6.847
  390SOL     OW 2068   3.572   1.519   3.878
  390SOL    HW1 2069   3.503   1.484   3.815
  390SOL    HW2 2070   3.663   1.504   3.840
  391SOL     OW 2071   0.504   0.945   0.474
  391SOL    HW1 2072   0.535   0.910   0.386
  391SOL    HW2 2073   0.487   1.043   0.467
  392SOL     OW 2074   4.300   5.428   4.228
  392SOL    HW1 2075   4.266   5.512   4.186
  392SOL    HW2 2076   4.293   5.353   4.163
  393SOL     OW 2077   5.792   2.657   5.318
  393SOL    HW1 2078   5.831   2.572   5.353
  393SOL    HW2 2079   5.694   2.659   5.338
  394SOL     OW 2080   2.366   1.373   6.798
  394SOL    HW1 2081   2.443   1.434   6.822
  394SOL    HW2 2082   2.394   1.278   6.812
  395SOL     OW 2083   0.223   2.864   0.855
  395SOL    HW1 2084   0.239   2.768   0.880
  395SOL    HW2 2085   0.222   2.920   0.937
  396SOL     OW 2086   4.108   2.430   5.667
  396SOL    HW1 2087   4.166   2.506   5.639
  396SOL    HW2 2088   4.165   2.356   5.704
  397SOL     OW 2089   4.922   6.945   6.665
  397SOL    HW1 2090   4.838   6.943   6.610
  397SOL    HW2 2091   4.905   6.898   6.752
  398SOL     OW 2092   5.750   4.040   2.588
  398SOL    HW1 2093   5.698   4.042   2.503
  398SOL    HW2 2094   5.841   4.077   2.573
  399SOL     OW 2095   2.176   5.795   1.315
  399SOL    HW1 2096   2.246   5.728   1.291
  399SOL    HW2 2097   2.167   5.800   1.414
  400SOL     OW 2098   2.326   4.688   5.947
  400SOL    HW1 2099   2.352   4.717   6.039
  400SOL    HW2 2100   2.353   4.593   5.933
  401SOL     OW 2101   6.456   1.153   1.282
  401SOL    HW1 2102   6.442   1.066   1.328
  401SOL    HW2 2103   6.374   1.210   1.292
  402SOL     OW 2104   0.545   5.530   0.678
  402SOL    HW1 2105   0.572   5.526   0.582
  402SOL    HW2 2106   0.497   5.616   0.696
  403SOL     OW 2107   5.482   4.266   0.414
  403SOL    HW1 2108   5.526   4.178   0.395
  403SOL    HW2 2109   5.467   4.275   0.513
  404SOL     OW 2110   6.454   5.774   4.482
  404SOL    HW1 2111   6.389   5.836   4.525
  404SOL    HW2 2112   6.531   5.826   4.445
  405SOL     OW 2113   1.434   1.637   1.338
  405SOL    HW1 2114   1.421   1.558   1.398
  405SOL    HW2 2115   1.457   1.717   1.392
  406SOL     OW 2116   0.927   2.757   3.826
  406SOL    HW1 2117   0.926   2.672   3.773
  406SOL    HW2 2118   1.021   2.787   3.839
  407SOL     OW 2119   3.116   2.111   3.835
  407SOL    HW1 2120   3.161   2.068   3.913
  407SOL    HW2 2121   3.185   2.139   3.768
  408SOL     OW 2122   2.566   0.101   4.077
  408SOL    HW1 2123   2.531   0.118   4.169
  408SOL    HW2 2124   2.661   0.070   4.083
  409SOL     OW 2125   0.494   5.309   4.787
  409SOL    HW1 2126   0.408   5.343   4.824
  409SOL    HW2 2127   0.557   5.286   4.862
  410SOL     OW 2128   2.340   6.612   6.504
  410SOL    HW1 2129   2.267   6.608   6.436
  410SOL    HW2 2130   2.384   6.702   6.500
  411SOL     OW 2131   0.301   4.496   5.881
  411SOL    HW1 2132   0.286   4.594   5.862
  411SOL    HW2 2133   0.328   4.485   5.977
  412SOL     OW 2134   3.700   6.126   3.511
  412SOL    HW1 2135   3.732   6.212   3.472
  412SOL    HW2 2136   3.623   6.091   3.457
  413SOL     OW 2137   2.351   0.547   1.598
  413SOL    HW1 2138   2.373   0.588   1.510
  413SOL    HW2 2139   2.415   0.579   1.668
  414SOL     OW 2140   4.614   4.766   0.685
  414SOL    HW1 2141   4.556   4.844   0.659
  414SOL    HW2 2142   4.659   4.786   0.772
  415SOL     OW 2143   3.583   6.614   3.021
  415SOL    HW1 2144   3.599   6.641   2.926
  415SOL    HW2 2145   3.566   6.696   3.076
  416SOL     OW 2146   3.681   5.751   0.344
  416SOL    HW1 2147   3.769   5.798   0.345
  416SOL    HW2 2148   3.644   5.748   0.437
  417SOL     OW 2149   5.675   5.074   1.468
  417SOL    HW1 2150   5.587   5.030   1.482
  417SOL    HW2 2151   5.661   5.166   1.431
  418SOL     OW 2152   0.354   5.028   6.230
  418SOL    HW1 2153   0.441   5.070   6.202
  418SOL    HW2 2154   0.372   4.942   6.278
  419SOL     OW 2155   5.175   5.512   6.211
  419SOL    HW1 2156   5.097   5.557   6.255
  419SOL    HW2 2157   5.199   5.430   6.262
  420SOL     OW 2158   5.723   3.645   7.018
  420SOL    HW1 2159   5.629   3.670   0.017
  420SOL    HW2 2160   5.775   3.728   6.998
  421SOL     OW 2161   1.422   6.342   6.067
  421SOL    HW1 2162   1.341   6.397   6.048
  421SOL    HW2 2163   1.420   6.259   6.012
  422SOL     OW 2164   6.267   3.759   0.373
  422SOL    HW1 2165   6.275   3.733   0.276
  422SOL    HW2 2166   6.212   3.691   0.421
  423SOL     OW 2167   1.278   3.335   5.908
  423SOL    HW1 2168   1.218   3.401   5.864
  423SOL    HW2 2169   1.223   3.271   5.961
  424SOL     OW 2170   2.133   4.286   5.955
  424SOL    HW1 2171   2.221   4.307   5.997
  424SOL    HW2 2172   2.137   4.196   5.912
  425SOL     OW 2173   2.589   0.710   0.590
  425SOL    HW1 2174   2.505   0.716   0.643
  425SOL    HW2 2175   2.568   0.685   0.496
  426SOL     OW 2176   0.933   3.298   6.656
  426SOL    HW1 2177   0.910   3.339   6.744
  426SOL    HW2 2178   0.991   3.218   6.671
  427SOL     OW 2179   4.055   3.179   0.332
  427SOL    HW1 2180   3.991   3.245   0.293
  427SOL    HW2 2181   4.140   3.180   0.280
  428SOL     OW 2182   3.474   1.145   4.545
  428SOL    HW1 2183   3.446   1.222   4.602
  428SOL    HW2 2184   3.401   1.122   4.481
  429SOL     OW 2185   3.774   5.905   6.899
  429SOL    HW1 2186   3.754   5.847   6.978
  429SOL    HW2 2187   3.831   5.982   6.928
  430SOL     OW 2188   2.841   0.886   4.341
  430SOL    HW1 2189   2.870   0.958   4.278
  430SOL    HW2 2190   2.889   0.897   4.428
  431SOL     OW 2191   3.509   0.844   5.841
  431SOL    HW1 2192   3.547   0.753   5.825
  431SOL    HW2 2193   3.578   0.903   5.881
  432SOL     OW 2194   6.580   1.120   1.053
  432SOL    HW1 2195   6.535   1.114   1.143
  432SOL    HW2 2196   6.560   1.209   1.012
  433SOL     OW 2197   3.929   6.406   4.935
  433SOL    HW1 2198   3.958   6.498   4.907
  433SOL    HW2 2199   3.920   6.348   4.854
  434SOL     OW 2200   6.880   3.764   0.701
  434SOL    HW1 2201   6.888   3.769   0.800
  434SOL    HW2 2202   6.965   3.727   0.663
  435SOL     OW 2203   3.695   3.299   0.463
  435SOL    HW1 2204   3.717   3.217   0.517
  435SOL    HW2 2205   3.596   3.314   0.465
  436SOL     OW 2206   2.512   1.405   0.960
  436SOL    HW1 2207   2.545   1.431   1.051
  436SOL    HW2 2208   2.589   1.372   0.905
  437SOL     OW 2209   6.174   6.581   6.358
  437SOL    HW1 2210   6.273   6.567   6.359
  437SOL    HW2 2211   6.129   6.492   6.353
  438SOL     OW 2212   1.145   3.449   1.294
  438SOL    HW1 2213   1.230   3.397   1.287
  438SOL    HW2 2214   1.070   3.387   1.315
  439SOL     OW 2215   6.219   4.932   1.969
  439SOL    HW1 2216   6.177   4.917   1.879
  439SOL    HW2 2217   6.191   5.021   2.004
  440SOL     OW 2218   1.145   3.196   2.647
  440SOL    HW1 2219   1.167   3.276   2.592
  440SOL    HW2 2220   1.212   3.187   2.721
  441SOL     OW 2221   6.834   1.747   2.940
  441SOL    HW1 2222   6.844   1.791   2.851
  441SOL    HW2 2223   6.923   1.743   2.986
  442SOL     OW 2224   1.403   4.970   6.729
  442SOL    HW1 2225   1.492   4.996   6.690
  442SOL    HW2 2226   1.401   4.994   6.826
  443SOL     OW 2227   0.219   5.678   5.936
  443SOL    HW1 2228   0.190   5.774   5.932
  443SOL    HW2 2229   0.289   5.661   5.866
  444SOL     OW 2230   5.627   3.012   6.554
  444SOL    HW1 2231   5.688   3.032   6.476
  444SOL    HW2 2232   5.676   2.956   6.621
  445SOL     OW 2233   1.754   3.976   3.101
  445SOL    HW1 2234   1.743   3.882   3.069
  445SOL    HW2 2235   1.666   4.010   3.135
  446SOL     OW 2236   1.566   5.342   4.775
  446SOL    HW1 2237   1.664   5.330   4.756
  446SOL    HW2 2238   1.550   5.335   4.873
  447SOL     OW 2239   0.807   5.956   0.565
  447SOL    HW1 2240   0.748   5.876   0.567
  447SOL    HW2 2241   0.783   6.017   0.641
  448SOL     OW 2242   4.663   0.906   5.394
  448SOL    HW1 2243   4.569   0.939   5.384
  448SOL    HW2 2244   4.668   0.847   5.475
  449SOL     OW 2245   6.387   0.728   4.421
  449SOL    HW1 2246   6.301   0.773   4.445
  449SOL    HW2 2247   6.398   0.646   4.477
  450SOL     OW 2248   0.236   5.705   3.051
  450SOL    HW1 2249   0.249   5.695   3.149
  450SOL    HW2 2250   0.248   5.615   3.007
  451SOL     OW 2251   5.696   3.693   4.242
  451SOL    HW1 2252   5.638   3.613   4.256
  451SOL    HW2 2253   5.790   3.664   4.223
  452SOL     OW 2254   6.137   4.776   6.040
  452SOL    HW1 2255   6.045   4.741   6.057
  452SOL    HW2 2256   6.173   4.816   6.124
  453SOL     OW 2257   3.962   1.669   6.126
  453SOL    HW1 2258   3.968   1.761   6.165
  453SOL    HW2 2259   3.892   1.616   6.175
  454SOL     OW 2260   0.465   5.958   0.006
  454SOL    HW1 2261   0.399   6.023   6.994
  454SOL    HW2 2262   0.425   5.914   0.087
  455SOL     OW 2263   5.519   2.125   4.998
  455SOL    HW1 2264   5.560   2.178   4.923
  455SOL    HW2 2265   5.422   2.110   4.978
  456SOL     OW 2266   4.280   5.977   1.067
  456SOL    HW1 2267   4.313   5.890   1.102
  456SOL    HW2 2268   4.206   6.011   1.125
  457SOL     OW 2269   0.527   4.215   1.859
  457SOL    HW1 2270   0.491   4.264   1.780
  457SOL    HW2 2271   0.494   4.258   1.943
  458SOL     OW 2272   1.065   6.934   5.734
  458SOL    HW1 2273   1.139   6.873   5.706
  458SOL    HW2 2274   1.022   6.898   5.817
  459SOL     OW 2275   1.820   0.965   3.503
  459SOL    HW1 2276   1.864   0.876   3.493
  459SOL    HW2 2277   1.722   0.956   3.484
  460SOL     OW 2278   6.659   2.271   3.046
  460SOL    HW1 2279   6.579   2.287   3.105
  460SOL    HW2 2280   6.734   2.330   3.075
  461SOL     OW 2281   5.160   4.729   6.095
  461SOL    HW1 2282   5.249   4.742   6.138
  461SOL    HW2 2283   5.160   4.770   6.004
  462SOL     OW 2284   3.658   2.443   0.145
  462SOL    HW1 2285   3.600   2.367   0.114
  462SOL    HW2 2286   3.732   2.458   0.079
  463SOL     OW 2287   6.340   6.180   1.144
  463SOL    HW1 2288   6.345   6.107   1.213
  463SOL    HW2 2289   6.292   6.146   1.063
  464SOL     OW 2290   1.719   1.899   5.729
  464SOL    HW1 2291   1.785   1.853   5.669
  464SOL    HW2 2292   1.752   1.990   5.752
  465SOL     OW 2293   0.632   3.537   5.849
  465SOL    HW1 2294   0.695   3.502   5.780
  465SOL    HW2 2295   0.549   3.481   5.850
  466SOL     OW 2296   1.732   0.531   3.379
  466SOL    HW1 2297   1.672   0.466   3.426
  466SOL    HW2 2298   1.786   0.483   3.310
  467SOL     OW 2299   1.762   1.389   4.987
  467SOL    HW1 2300   1.786   1.350   4.898
  467SOL    HW2 2301   1.751   1.489   4.978
  468SOL     OW 2302   3.678   4.160   3.377
  468SOL    HW1 2303   3.612   4.108   3.431
  468SOL    HW2 2304   3.655   4.152   3.280
  469SOL     OW 2305   3.416   0.240   6.513
  469SOL    HW1 2306   3.490   0.284   6.563
  469SOL    HW2 2307   3.406   0.282   6.423
  470SOL     OW 2308   4.169   6.839   2.832
  470SOL    HW1 2309   4.239   6.810   2.897
  470SOL    HW2 2310   4.156   6.938   2.841
  471SOL     OW 2311   2.691   2.375   3.737
  471SOL    HW1 2312   2.737   2.405   3.821
  471SOL    HW2 2313   2.758   2.333   3.676
  472SOL     OW 2314   3.549   4.267   5.187
  472SOL    HW1 2315   3.646   4.266   5.212
  472SOL    HW2 2316   3.532   4.196   5.118
  473SOL     OW 2317   0.384   4.913   4.214
  473SOL    HW1 2318   0.360   4.993   4.160
  473SOL    HW2 2319   0.361   4.930   4.310
  474SOL     OW 2320   5.266   5.306   5.235
  474SOL    HW1 2321   5.195   5.353   5.182
  474SOL    HW2 2322   5.310   5.372   5.297
  475SOL     OW 2323   2.739   6.834   6.998
  475SOL    HW1 2324   2.680   6.802   0.047
  475SOL    HW2 2325   2.770   6.927   7.017
  476SOL     OW 2326   6.696   5.749   2.818
  476SOL    HW1 2327   6.754   5.668   2.827
  476SOL    HW2 2328   6.635   5.738   2.739
  477SOL     OW 2329   1.620   4.685   3.759
  477SOL    HW1 2330   1.664   4.771   3.732
  477SOL    HW2 2331   1.679   4.609   3.733
  478SOL     OW 2332   1.439   5.012   3.714
  478SOL    HW1 2333   1.537   5.021   3.730
  478SOL    HW2 2334   1.400   4.950   3.783
  479SOL     OW 2335   4.306   1.714   2.117
  479SOL    HW1 2336   4.271   1.775   2.188
  479SOL    HW2 2337   4.260   1.626   2.123
  480SOL     OW 2338   1.709   6.381   3.921
  480SOL    HW1 2339   1.744   6.314   3.986
  480SOL    HW2 2340   1.778   6.399   3.851
  481SOL     OW 2341   1.878   0.438   0.635
  481SOL    HW1 2342   1.917   0.467   0.722
  481SOL    HW2 2343   1.883   0.339   0.627
  482SOL     OW 2344   5.539   5.817   1.045
  482SOL    HW1 2345   5.597   5.768   0.980
  482SOL    HW2 2346   5.452   5.770   1.054
  483SOL     OW 2347   5.058   1.510   3.367
  483SOL    HW1 2348   5.013   1.579   3.311
  483SOL    HW2 2349   5.034   1.419   3.333
  484SOL     OW 2350   6.177   1.894   3.633
  484SOL    HW1 2351   6.258   1.952   3.632
  484SOL    HW2 2352   6.102   1.941   3.585
  485SOL     OW 2353   2.655   6.105   0.547
  485SOL    HW1 2354   2.750   6.073   0.552
  485SOL    HW2 2355   2.652   6.193   0.501
  486SOL     OW 2356   6.194   0.585   5.919
  486SOL    HW1 2357   6.241   0.500   5.896
  486SOL    HW2 2358   6.104   0.585   5.876
  487SOL     OW 2359   6.607   2.309   6.863
  487SOL    HW1 2360   6.644   2.250   6.935
  487SOL    HW2 2361   6.513   2.333   6.885
  488SOL     OW 2362   1.049   4.707   3.528
  488SOL    HW1 2363   1.063   4.614   3.495
  488SOL    HW2 2364   1.048   4.770   3.450
  489SOL     OW 2365   3.487   4.988   6.481
  489SOL    HW1 2366   3.415   4.997   6.412
  489SOL    HW2 2367   3.512   5.079   6.515
  490SOL     OW 2368   5.011   0.905   4.564
  490SOL    HW1 2369   5.012   0.984   4.625
  490SOL    HW2 2370   4.917   0.874   4.550
  491SOL     OW 2371   0.457   3.351   3.654
  491SOL    HW1 2372   0.409   3.328   3.739
  491SOL    HW2 2373   0.498   3.269   3.615
  492SOL     OW 2374   1.719   1.596   4.623
  492SOL    HW1 2375   1.783   1.537   4.573
  492SOL    HW2 2376   1.727   1.690   4.591
  493SOL     OW 2377   5.785   3.833   4.848
  493SOL    HW1 2378   5.736   3.760   4.895
  493SOL    HW2 2379   5.720   3.888   4.796
  494SOL     OW 2380   5.670   0.725   6.482
  494SOL    HW1 2381   5.644   0.696   6.574
  494SOL    HW2 2382   5.758   0.772   6.485
  495SOL     OW 2383   5.902   4.543   0.162
  495SOL    HW1 2384   5.997   4.512   0.165
  495SOL    HW2 2385   5.896   4.635   0.202
  496SOL     OW 2386   6.079   3.446   3.094
  496SOL    HW1 2387   6.136   3.393   3.157
  496SOL    HW2 2388   6.037   3.385   3.027
  497SOL     OW 2389   4.362   0.199   4.245
  497SOL    HW1 2390   4.456   0.195   4.210
  497SOL    HW2 2391   4.303   0.141   4.188
  498SOL     OW 2392   1.590   3.384   1.231
  498SOL    HW1 2393   1.654   3.461   1.244
  498SOL    HW2 2394   1.593   3.355   1.136
  499SOL     OW 2395   3.773   1.743   5.471
  499SOL    HW1 2396   3.819   1.755   5.383
  499SOL    HW2 2397   3.804   1.814   5.535
  500SOL     OW 2398   1.149   4.602   2.767
  500SOL    HW1 2399   1.116   4.681   2.716
  500SOL    HW2 2400   1.072   4.558   2.815
  501SOL     OW 2401   1.107   4.902   6.128
  501SOL    HW1 2402   1.066   4.875   6.041
  501SOL    HW2 2403   1.176   4.834   6.154
  502SOL     OW 2404   2.421   5.069   5.831
  502SOL    HW1 2405   2.404   5.039   5.925
  502SOL    HW2 2406   2.458   5.162   5.831
  503SOL     OW 2407   6.802   5.351   4.430
  503SOL    HW1 2408   6.791   5.423   4.497
  503SOL    HW2 2409   6.836   5.268   4.475
  504SOL     OW 2410   1.464   5.025   4.452
  504SOL    HW1 2411   1.552   5.069   4.434
  504SOL    HW2 2412   1.435   4.975   4.370
  505SOL     OW 2413   3.502   6.484   4.258
  505SOL    HW1 2414   3.424   6.497   4.319
  505SOL    HW2 2415   3.489   6.401   4.204
  506SOL     OW 2416   2.152   3.499   0.762
  506SOL    HW1 2417   2.159   3.446   0.677
  506SOL    HW2 2418   2.160   3.437   0.840
  507SOL     OW 2419   4.012   1.768   4.099
  507SOL    HW1 2420   4.103   1.728   4.109
  507SOL    HW2 2421   3.982   1.803   4.188
  508SOL     OW 2422   5.690   5.320   4.555
  508SOL    HW1 2423   5.775   5.373   4.555
  508SOL    HW2 2424   5.624   5.362   4.492
  509SOL     OW 2425   4.666   3.229   1.717
  509SOL    HW1 2426   4.648   3.163   1.790
  509SOL    HW2 2427   4.716   3.183   1.643
  510SOL     OW 2428   1.051   3.688   4.288
  510SOL    HW1 2429   1.107   3.749   4.344
  510SOL    HW2 2430   1.104   3.657   4.208
  511SOL     OW 2431   0.270   6.286   1.671
  511SOL    HW1 2432   0.194   6.271   1.608
  511SOL    HW2 2433   0.355   6.259   1.626
  512SOL     OW 2434   2.168   3.974   5.859
  512SOL    HW1 2435   2.226   3.909   5.907
  512SOL    HW2 2436   2.084   3.928   5.829
  513SOL     OW 2437   0.600   5.556   4.851
  513SOL    HW1 2438   0.539   5.479   4.831
  513SOL    HW2 2439   0.678   5.552   4.788
  514SOL     OW 2440   5.257   1.783   3.755
  514SOL    HW1 2441   5.178   1.826   3.800
  514SOL    HW2 2442   5.305   1.851   3.699
  515SOL     OW 2443   2.984   5.962   0.084
  515SOL    HW1 2444   2.956   5.867   0.091
  515SOL    HW2 2445   3.083   5.969   0.097
  516SOL     OW 2446   1.912   5.021   3.490
  516SOL    HW1 2447   1.994   4.998   3.542
  516SOL    HW2 2448   1.868   4.937   3.458
  517SOL     OW 2449   4.800   0.047   5.881
  517SOL    HW1 2450   4.787   0.108   5.959
  517SOL    HW2 2451   4.719   0.050   5.822
  518SOL     OW 2452   2.148   1.620   7.011
  518SOL    HW1 2453   2.078   1.683   6.977
  518SOL    HW2 2454   2.103   1.545   0.033
  519SOL     OW 2455   0.789   6.824   0.300
  519SOL    HW1 2456   0.730   6.887   0.350
  519SOL    HW2 2457   0.802   6.858   0.207
  520SOL     OW 2458   6.271   4.481   5.108
  520SOL    HW1 2459   6.351   4.449   5.157
  520SOL    HW2 2460   6.213   4.403   5.083
  521SOL     OW 2461   6.541   0.845   0.346
  521SOL    HW1 2462   6.453   0.861   0.300
  521SOL    HW2 2463   6.542   0.753   0.385
  522SOL     OW 2464   3.309   4.114   5.501
  522SOL    HW1 2465   3.212   4.109   5.523
  522SOL    HW2 2466   3.332   4.043   5.434
  523SOL     OW 2467   6.507   7.001   3.256
  523SOL    HW1 2468   6.478   0.041   3.325
  523SOL    HW2 2469   6.580   6.943   3.292
  524SOL     OW 2470   3.980   0.490   4.474
  524SOL    HW1 2471   3.990   0.495   4.573
  524SOL    HW2 2472   4.069   0.471   4.432
  525SOL     OW 2473   3.624   2.922   6.795
  525SOL    HW1 2474   3.641   2.938   6.892
  525SOL    HW2 2475   3.607   3.009   6.750
  526SOL     OW 2476   4.781   0.205   4.466
  526SOL    HW1 2477   4.703   0.268   4.466
  526SOL    HW2 2478   4.862   0.254   4.434
  527SOL     OW 2479   0.953   1.457   6.935
  527SOL    HW1 2480   0.888   1.499   6.997
  527SOL    HW2 2481   0.950   1.357   6.946
  528SOL     OW 2482   1.451   2.029   6.404
  528SOL    HW1 2483   1.359   2.068   6.397
  528SOL    HW2 2484   1.513   2.097   6.442
  529SOL     OW 2485   0.137   5.236   4.602
  529SOL    HW1 2486   0.076   5.275   4.671
  529SOL    HW2 2487   0.174   5.310   4.545
  530SOL     OW 2488   0.030   3.138   5.343
  530SOL    HW1 2489   6.958   3.146   5.360
  530SOL    HW2 2490   0.047   3.133   5.245
  531SOL     OW 2491   0.184   6.745   0.294
  531SOL    HW1 2492   0.120   6.692   0.237
  531SOL    HW2 2493   0.194   6.836   0.255
  532SOL     OW 2494   2.174   1.431   5.707
  532SOL    HW1 2495   2.142   1.521   5.676
  532SOL    HW2 2496   2.271   1.436   5.727
  533SOL     OW 2497   4.540   0.589   5.455
  533SOL    HW1 2498   4.447   0.556   5.471
  533SOL    HW2 2499   4.597   0.570   5.535
  534SOL     OW 2500   2.396   5.642   3.469
  534SOL    HW1 2501   2.313   5.592   3.494
  534SOL    HW2 2502   2.372   5.712   3.401
  535SOL     OW 2503   0.019   3.770   2.515
  535SOL    HW1 2504   7.009   3.688   2.472
  535SOL    HW2 2505   0.106   3.795   2.473
  536SOL     OW 2506   1.808   6.181   1.201
  536SOL    HW1 2507   1.792   6.266   1.251
  536SOL    HW2 2508   1.894   6.140   1.231
  537SOL     OW 2509   2.555   0.260   3.312
  537SOL    HW1 2510   2.478   0.258   3.376
  537SOL    HW2 2511   2.537   0.195   3.238
  538SOL     OW 2512   1.547   5.339   3.803
  538SOL    HW1 2513   1.530   5.257   3.857
  538SOL    HW2 2514   1.466   5.360   3.748
  539SOL     OW 2515   1.461   5.179   1.363
  539SOL    HW1 2516   1.509   5.117   1.426
  539SOL    HW2 2517   1.521   5.200   1.286
  540SOL     OW 2518   3.068   2.662   0.678
  540SOL    HW1 2519   3.043   2.728   0.749
  540SOL    HW2 2520   3.040   2.570   0.706
  541SOL     OW 2521   5.257   5.994   5.190
  541SOL    HW1 2522   5.175   5.978   5.135
  541SOL    HW2 2523   5.331   6.024   5.130
  542SOL     OW 2524   6.001   0.032   6.253
  542SOL    HW1 2525   5.922   7.004   6.225
  542SOL    HW2 2526   5.973   0.101   6.320
  543SOL     OW 2527   6.607   0.161   2.629
  543SOL    HW1 2528   6.666   0.191   2.555
  543SOL    HW2 2529   6.533   0.104   2.592
  544SOL     OW 2530   0.687   5.429   0.870
  544SOL    HW1 2531   0.779   5.468   0.878
  544SOL    HW2 2532   0.636   5.479   0.800
  545SOL     OW 2533   2.900   1.865   3.925
  545SOL    HW1 2534   2.988   1.896   3.961
  545SOL    HW2 2535   2.826   1.897   3.984
  546SOL     OW 2536   1.289   2.494   6.962
  546SOL    HW1 2537   1.267   2.587   6.933
  546SOL    HW2 2538   1.291   2.433   6.882
  547SOL     OW 2539   3.317   2.209   0.500
  547SOL    HW1 2540   3.313   2.229   0.598
  547SOL    HW2 2541   3.378   2.274   0.455
  548SOL     OW 2542   3.055   3.600   5.878
  548SOL    HW1 2543   2.985   3.583   5.948
  548SOL    HW2 2544   3.092   3.513   5.846
  549SOL     OW 2545   6.900   4.719   1.417
  549SOL    HW1 2546   6.933   4.742   1.509
  549SOL    HW2 2547   6.804   4.691   1.422
  550SOL     OW 2548   6.550   4.212   1.130
  550SOL    HW1 2549   6.512   4.259   1.050
  550SOL    HW2 2550   6.609   4.137   1.100
  551SOL     OW 2551   0.748   0.262   0.428
  551SOL    HW1 2552   0.695   0.329   0.376
  551SOL    HW2 2553   0.697   0.176   0.435
  552SOL     OW 2554   4.314   5.197   0.435
  552SOL    HW1 2555   4.257   5.114   0.436
  552SOL    HW2 2556   4.346   5.216   0.528
  553SOL     OW 2557   0.946   2.546   1.306
  553SOL    HW1 2558   1.039   2.508   1.298
  553SOL    HW2 2559   0.951   2.642   1.331
  554SOL     OW 2560   4.398   5.485   4.866
  554SOL    HW1 2561   4.396   5.452   4.960
  554SOL    HW2 2562   4.347   5.423   4.807
  555SOL     OW 2563   2.041   4.121   5.592
  555SOL    HW1 2564   1.976   4.149   5.521
  555SOL    HW2 2565   2.085   4.202   5.631
  556SOL     OW 2566   6.399   3.800   3.365
  556SOL    HW1 2567   6.346   3.734   3.312
  556SOL    HW2 2568   6.336   3.861   3.413
  557SOL     OW 2569   6.233   5.478   5.747
  557SOL    HW1 2570   6.310   5.527   5.706
  557SOL    HW2 2571   6.253   5.460   5.844
  558SOL     OW 2572   3.594   3.914   5.661
  558SOL    HW1 2573   3.577   3.856   5.741
  558SOL    HW2 2574   3.599   3.857   5.579
  559SOL     OW 2575   5.032   5.069   6.585
  559SOL    HW1 2576   5.062   5.076   6.680
  559SOL    HW2 2577   4.966   4.995   6.575
  560SOL     OW 2578   4.790   6.551   0.576
  560SOL    HW1 2579   4.820   6.458   0.598
  560SOL    HW2 2580   4.869   6.612   0.574
  561SOL     OW 2581   4.581   6.852   2.749
  561SOL    HW1 2582   4.533   6.810   2.827
  561SOL    HW2 2583   4.527   6.929   2.715
  562SOL     OW 2584   5.475   0.482   1.329
  562SOL    HW1 2585   5.551   0.508   1.387
  562SOL    HW2 2586   5.470   0.544   1.250
  563SOL     OW 2587   2.904   0.432   5.029
  563SOL    HW1 2588   2.966   0.392   4.962
  563SOL    HW2 2589   2.945   0.514   5.068
  564SOL     OW 2590   0.674   1.260   5.476
  564SOL    HW1 2591   0.745   1.223   5.416
  564SOL    HW2 2592   0.695   1.356   5.496
  565SOL     OW 2593   4.393   3.354   5.677
  565SOL    HW1 2594   4.390   3.262   5.638
  565SOL    HW2 2595   4.423   3.419   5.607
  566SOL     OW 2596   6.840   4.322   2.407
  566SOL    HW1 2597   6.832   4.236   2.357
  566SOL    HW2 2598   6.831   4.399   2.344
  567SOL     OW 2599   3.836   3.609   6.190
  567SOL    HW1 2600   3.799   3.519   6.167
  567SOL    HW2 2601   3.878   3.649   6.109
  568SOL     OW 2602   2.693   1.313   6.073
  568SOL    HW1 2603   2.728   1.300   6.166
  568SOL    HW2 2604   2.641   1.232   6.045
  569SOL     OW 2605   2.151   3.890   6.648
  569SOL    HW1 2606   2.180   3.971   6.700
  569SOL    HW2 2607   2.159   3.809   6.706
  570SOL     OW 2608   0.777   5.210   6.422
  570SOL    HW1 2609   0.703   5.264   6.462
  570SOL    HW2 2610   0.862   5.227   6.473
  571SOL     OW 2611   4.623   5.968   2.532
  571SOL    HW1 2612   4.605   5.878   2.493
  571SOL    HW2 2613   4.666   6.026   2.464
  572SOL     OW 2614   1.888   4.351   3.947
  572SOL    HW1 2615   1.803   4.366   3.896
  572SOL    HW2 2616   1.874   4.376   4.042
  573SOL     OW 2617   4.341   2.318   6.935
  573SOL    HW1 2618   4.427   2.307   6.985
  573SOL    HW2 2619   4.351   2.387   6.864
  574SOL     OW 2620   2.743   2.236   3.311
  574SOL    HW1 2621   2.728   2.147   3.268
  574SOL    HW2 2622   2.833   2.237   3.354
  575SOL     OW 2623   4.559   2.453   5.836
  575SOL    HW1 2624   4.497   2.481   5.909
  575SOL    HW2 2625   4.573   2.354   5.840
  576SOL     OW 2626   0.370   3.647   3.687
  576SOL    HW1 2627   0.278   3.676   3.660
  576SOL    HW2 2628   0.388   3.556   3.650
  577SOL     OW 2629   3.640   1.917   3.251
  577SOL    HW1 2630   3.602   1.832   3.214
  577SOL    HW2 2631   3.568   1.986   3.259
  578SOL     OW 2632   6.991   3.460   4.802
  578SOL    HW1 2633   6.954   3.543   4.844
  578SOL    HW2 2634   0.059   3.445   4.834
  579SOL     OW 2635   3.983   3.752   1.016
  579SOL    HW1 2636   3.949   3.779   0.925
  579SOL    HW2 2637   3.986   3.653   1.022
  580SOL     OW 2638   0.006   0.142   0.032
  580SOL    HW1 2639   6.989   0.227   0.001
  580SOL    HW2 2640   6.980   0.064   7.024
  581SOL     OW 2641   3.867   3.113   3.614
  581SOL    HW1 2642   3.783   3.073   3.651
  581SOL    HW2 2643   3.891   3.067   3.529
  582SOL     OW 2644   0.107   3.702   0.599
  582SOL    HW1 2645   0.111   3.602   0.596
  582SOL    HW2 2646   0.198   3.738   0.622
  583SOL     OW 2647   3.101   6.939   6.719
  583SOL    HW1 2648   3.141   6.980   6.637
  583SOL    HW2 2649   3.026   6.878   6.692
  584SOL     OW 2650   1.846   5.308   4.749
  584SOL    HW1 2651   1.898   5.295   4.664
  584SOL    HW2 2652   1.900   5.272   4.826
  585SOL     OW 2653   5.555   1.841   5.503
  585SOL    HW1 2654   5.577   1.926   5.551
  585SOL    HW2 2655   5.455   1.833   5.495
  586SOL     OW 2656   3.491   5.336   1.124
  586SOL    HW1 2657   3.532   5.422   1.154
  586SOL    HW2 2658   3.534   5.307   1.038
  587SOL     OW 2659   2.629   2.751   6.503
  587SOL    HW1 2660   2.531   2.768   6.505
  587SOL    HW2 2661   2.678   2.837   6.489
  588SOL     OW 2662   2.239   0.466   1.965
  588SOL    HW1 2663   2.338   0.478   1.957
  588SOL    HW2 2664   2.220   0.384   2.019
  589SOL     OW 2665   4.752   5.370   2.001
  589SOL    HW1 2666   4.735   5.328   2.090
  589SOL    HW2 2667   4.711   5.313   1.930
  590SOL     OW 2668   0.523   4.523   1.875
  590SOL    HW1 2669   0.619   4.504   1.895
  590SOL    HW2 2670   0.465   4.463   1.930
  591SOL     OW 2671   2.467   0.492   3.037
  591SOL    HW1 2672   2.550   0.491   2.982
  591SOL    HW2 2673   2.489   0.477   3.133
  592SOL     OW 2674   5.208   0.204   6.521
  592SOL    HW1 2675   5.161   0.169   6.601
  592SOL    HW2 2676   5.278   0.270   6.549
  593SOL     OW 2677   0.488   0.875   4.407
  593SOL    HW1 2678   0.422   0.879   4.482
  593SOL    HW2 2679   0.439   0.864   4.321
  594SOL     OW 2680   5.075   2.271   1.336
  594SOL    HW1 2681   5.007   2.242   1.403
  594SOL    HW2 2682   5.029   2.300   1.251
  595SOL     OW 2683   2.698   6.750   3.677
  595SOL    HW1 2684   2.628   6.724   3.743
  595SOL    HW2 2685   2.770   6.681   3.675
  596SOL     OW 2686   0.772   4.742   2.863
  596SOL    HW1 2687   0.687   4.723   2.814
  596SOL    HW2 2688   0.830   4.661   2.860
  597SOL     OW 2689   4.614   1.912   5.499
  597SOL    HW1 2690   4.665   1.842   5.551
  597SOL    HW2 2691   4.517   1.891   5.502
  598SOL     OW 2692   3.784   3.836   1.688
  598SOL    HW1 2693   3.855   3.876   1.746
  598SOL    HW2 2694   3.719   3.785   1.745
  599SOL     OW 2695   6.263   5.656   3.371
  599SOL    HW1 2696   6.247   5.661   3.470
  599SOL    HW2 2697   6.193   5.597   3.330
  600SOL     OW 2698   3.203   1.941   0.334
  600SOL    HW1 2699   3.255   2.008   0.387
  600SOL    HW2 2700   3.119   1.918   0.382
  601SOL     OW 2701   1.320   4.886   1.597
  601SOL    HW1 2702   1.289   4.954   1.531
  601SOL    HW2 2703   1.310   4.794   1.558
  602SOL     OW 2704   0.083   1.252   2.736
  602SOL    HW1 2705   0.079   1.162   2.692
  602SOL    HW2 2706   0.090   1.240   2.835
  603SOL     OW 2707   4.300   1.650   3.075
  603SOL    HW1 2708   4.203   1.649   3.099
  603SOL    HW2 2709   4.326   1.741   3.044
  604SOL     OW 2710   1.897   2.991   5.887
  604SOL    HW1 2711   1.973   3.038   5.844
  604SOL    HW2 2712   1.838   3.057   5.933
  605SOL     OW 2713   5.248   0.089   4.448
  605SOL    HW1 2714   5.279   0.172   4.402
  605SOL    HW2 2715   5.303   0.011   4.417
  606SOL     OW 2716   2.120   6.867   2.197
  606SOL    HW1 2717   2.173   6.783   2.212
  606SOL    HW2 2718   2.165   6.923   2.127
  607SOL     OW 2719   3.627   6.716   4.439
  607SOL    HW1 2720   3.553   6.770   4.478
  607SOL    HW2 2721   3.589   6.645   4.380
  608SOL     OW 2722   6.532   2.778   0.895
  608SOL    HW1 2723   6.620   2.822   0.882
  608SOL    HW2 2724   6.467   2.843   0.934
  609SOL     OW 2725   3.541   4.088   4.956
  609SOL    HW1 2726   3.485   4.118   4.878
  609SOL    HW2 2727   3.638   4.093   4.931
  610SOL     OW 2728   6.874   2.226   5.333
  610SOL    HW1 2729   6.929   2.229   5.416
  610SOL    HW2 2730   6.791   2.173   5.350
  611SOL     OW 2731   6.639   0.066   0.465
  611SOL    HW1 2732   6.605   0.064   0.371
  611SOL    HW2 2733   6.631   0.160   0.500
  612SOL     OW 2734   1.859   4.297   6.621
  612SOL    HW1 2735   1.853   4.220   6.558
  612SOL    HW2 2736   1.788   4.289   6.691
  613SOL     OW 2737   3.892   1.491   6.731
  613SOL    HW1 2738   3.988   1.466   6.727
  613SOL    HW2 2739   3.851   1.452   6.814
  614SOL     OW 2740   4.936   2.815   0.562
  614SOL    HW1 2741   4.963   2.754   0.488
  614SOL    HW2 2742   4.965   2.909   0.540
  615SOL     OW 2743   5.776   5.327   1.093
  615SOL    HW1 2744   5.792   5.425   1.103
  615SOL    HW2 2745   5.780   5.302   0.996
  616SOL     OW 2746   5.178   1.163   4.814
  616SOL    HW1 2747   5.214   1.228   4.880
  616SOL    HW2 2748   5.183   1.202   4.722
  617SOL     OW 2749   6.197   0.330   5.024
  617SOL    HW1 2750   6.241   0.241   5.039
  617SOL    HW2 2751   6.107   0.330   5.068
  618SOL     OW 2752   5.359   4.323   0.959
  618SOL    HW1 2753   5.371   4.338   0.861
  618SOL    HW2 2754   5.287   4.255   0.974
  619SOL     OW 2755   1.297   0.088   0.106
  619SOL    HW1 2756   1.310   0.179   0.068
  619SOL    HW2 2757   1.250   0.094   0.194
  620SOL     OW 2758   4.546   1.969   1.431
  620SOL    HW1 2759   4.639   1.938   1.409
  620SOL    HW2 2760   4.539   1.988   1.528
  621SOL     OW 2761   1.843   6.548   6.245
  621SOL    HW1 2762   1.795   6.517   6.163
  621SOL    HW2 2763   1.808   6.498   6.325
  622SOL     OW 2764   0.636   2.731   5.731
  622SOL    HW1 2765   0.540   2.747   5.756
  622SOL    HW2 2766   0.684   2.818   5.727
  623SOL     OW 2767   6.174   1.195   2.870
  623SOL    HW1 2768   6.250   1.147   2.914
  623SOL    HW2 2769   6.088   1.152   2.896
  624SOL     OW 2770   5.947   0.436   5.899
  624SOL    HW1 2771   5.874   0.431   5.831
  624SOL    HW2 2772   5.910   0.468   5.986
  625SOL     OW 2773   3.364   0.732   1.140
  625SOL    HW1 2774   3.267   0.753   1.128
  625SOL    HW2 2775   3.393   0.759   1.232
  626SOL     OW 2776   0.073   0.174   3.976
  626SOL    HW1 2777   0.076   0.162   3.877
  626SOL    HW2 2778   0.036   0.265   3.997
  627SOL     OW 2779   6.271   4.174   5.897
  627SOL    HW1 2780   6.326   4.155   5.816
  627SOL    HW2 2781   6.230   4.266   5.889
  628SOL     OW 2782   3.443   4.484   6.925
  628SOL    HW1 2783   3.424   4.521   7.016
  628SOL    HW2 2784   3.500   4.548   6.874
  629SOL     OW 2785   2.172   6.868   6.993
  629SOL    HW1 2786   2.116   6.870   6.910
  629SOL    HW2 2787   2.268   6.879   6.970
  630SOL     OW 2788   6.611   1.941   0.251
  630SOL    HW1 2789   6.626   1.851   0.210
  630SOL    HW2 2790   6.696   1.973   0.293
  631SOL     OW 2791   1.663   4.035   2.170
  631SOL    HW1 2792   1.646   3.947   2.126
  631SOL    HW2 2793   1.760   4.045   2.190
  632SOL     OW 2794   3.785   5.009   1.138
  632SOL    HW1 2795   3.858   4.991   1.072
  632SOL    HW2 2796   3.797   4.950   1.218
  633SOL     OW 2797   1.518   5.931   6.592
  633SOL    HW1 2798   1.463   5.851   6.616
  633SOL    HW2 2799   1.472   5.982   6.519
  634SOL     OW 2800   2.079   3.664   5.421
  634SOL    HW1 2801   2.079   3.725   5.342
  634SOL    HW2 2802   2.163   3.610   5.421
  635SOL     OW 2803   0.340   5.827   6.658
  635SOL    HW1 2804   0.282   5.882   6.599
  635SOL    HW2 2805   0.435   5.858   6.650
  636SOL     OW 2806   1.334   2.173   4.985
  636SOL    HW1 2807   1.265   2.243   5.006
  636SOL    HW2 2808   1.381   2.197   4.900
  637SOL     OW 2809   6.163   1.276   1.423
  637SOL    HW1 2810   6.199   1.204   1.482
  637SOL    HW2 2811   6.091   1.326   1.471
  638SOL     OW 2812   0.086   3.954   5.323
  638SOL    HW1 2813   0.157   3.973   5.255
  638SOL    HW2 2814   0.126   3.909   5.402
  639SOL     OW 2815   6.110   3.329   0.928
  639SOL    HW1 2816   6.200   3.367   0.948
  639SOL    HW2 2817   6.051   3.339   1.008
  640SOL     OW 2818   6.275   4.054   2.766
  640SOL    HW1 2819   6.235   3.965   2.789
  640SOL    HW2 2820   6.203   4.123   2.761
  641SOL     OW 2821   2.534   5.909   4.268
  641SOL    HW1 2822   2.545   5.865   4.179
  641SOL    HW2 2823   2.610   5.885   4.328
  642SOL     OW 2824   0.982   5.274   4.161
  642SOL    HW1 2825   1.056   5.254   4.224
  642SOL    HW2 2826   0.905   5.313   4.212
  643SOL     OW 2827   4.009   4.740   0.021
  643SOL    HW1 2828   3.948   4.665   7.022
  643SOL    HW2 2829   4.076   4.708   0.087
  644SOL     OW 2830   5.397   0.654   4.703
  644SOL    HW1 2831   5.437   0.679   4.790
  644SOL    HW2 2832   5.422   0.559   4.681
  645SOL     OW 2833   3.867   6.174   2.516
  645SOL    HW1 2834   3.928   6.244   2.479
  645SOL    HW2 2835   3.902   6.142   2.604
  646SOL     OW 2836   3.465   0.878   5.284
  646SOL    HW1 2837   3.513   0.855   5.368
  646SOL    HW2 2838   3.420   0.796   5.248
  647SOL     OW 2839   1.878   2.184   6.628
  647SOL    HW1 2840   1.858   2.282   6.626
  647SOL    HW2 2841   1.799   2.135   6.665
  648SOL     OW 2842   5.098   2.466   3.908
  648SOL    HW1 2843   5.177   2.519   3.939
  648SOL    HW2 2844   5.069   2.402   3.980
  649SOL     OW 2845   3.628   6.242   1.226
  649SOL    HW1 2846   3.548   6.300   1.243
  649SOL    HW2 2847   3.677   6.276   1.146
  650SOL     OW 2848   2.275   3.693   1.664
  650SOL    HW1 2849   2.208   3.708   1.736
  650SOL    HW2 2850   2.324   3.778   1.644
  651SOL     OW 2851   0.138   1.712   3.222
  651SOL    HW1 2852   0.094   1.750   3.303
  651SOL    HW2 2853   0.226   1.670   3.248
  652SOL     OW 2854   3.789   6.136   0.830
  652SOL    HW1 2855   3.826   6.069   0.766
  652SOL    HW2 2856   3.741   6.088   0.904
  653SOL     OW 2857   1.679   0.363   2.972
  653SOL    HW1 2858   1.653   0.458   2.991
  653SOL    HW2 2859   1.775   0.350   2.995
  654SOL     OW 2860   1.346   0.304   6.247
  654SOL    HW1 2861   1.250   0.276   6.241
  654SOL    HW2 2862   1.399   0.256   6.176
  655SOL     OW 2863   1.404   3.949   1.840
  655SOL    HW1 2864   1.366   3.875   1.895
  655SOL    HW2 2865   1.410   3.920   1.744
  656SOL     OW 2866   2.253   0.809   0.236
  656SOL    HW1 2867   2.226   0.737   0.171
  656SOL    HW2 2868   2.263   0.770   0.327
  657SOL     OW 2869   3.344   3.187   4.191
  657SOL    HW1 2870   3.359   3.286   4.188
  657SOL    HW2 2871   3.246   3.168   4.197
  658SOL     OW 2872   2.628   0.112   5.249
  658SOL    HW1 2873   2.612   0.024   5.292
  658SOL    HW2 2874   2.575   0.183   5.297
  659SOL     OW 2875   1.853   4.641   6.787
  659SOL    HW1 2876   1.887   4.548   6.783
  659SOL    HW2 2877   1.759   4.641   6.822
  660SOL     OW 2878   5.549   3.334   2.500
  660SOL    HW1 2879   5.492   3.310   2.579
  660SOL    HW2 2880   5.632   3.277   2.500
  661SOL     OW 2881   4.604   5.522   4.173
  661SOL    HW1 2882   4.526   5.561   4.223
  661SOL    HW2 2883   4.576   5.504   4.078
  662SOL     OW 2884   6.868   3.030   0.323
  662SOL    HW1 2885   6.814   2.948   0.340
  662SOL    HW2 2886   6.898   3.031   0.228
  663SOL     OW 2887   1.768   4.363   6.082
  663SOL    HW1 2888   1.710   4.323   6.152
  663SOL    HW2 2889   1.741   4.328   5.992
  664SOL     OW 2890   2.403   0.084   5.897
  664SOL    HW1 2891   2.396   0.174   5.853
  664SOL    HW2 2892   2.327   0.073   5.961
  665SOL     OW 2893   2.452   4.513   3.669
  665SOL    HW1 2894   2.518   4.510   3.594
  665SOL    HW2 2895   2.372   4.566   3.641
  666SOL     OW 2896   3.146   0.586   0.074
  666SOL    HW1 2897   3.099   0.547   7.021
  666SOL    HW2 2898   3.081   0.598   0.149
  667SOL     OW 2899   2.167   3.248   2.414
  667SOL    HW1 2900   2.150   3.344   2.435
  667SOL    HW2 2901   2.115   3.190   2.477
  668SOL     OW 2902   5.252   6.818   0.399
  668SOL    HW1 2903   5.163   6.775   0.415
  668SOL    HW2 2904   5.323   6.748   0.394
  669SOL     OW 2905   6.299   5.810   2.095
  669SOL    HW1 2906   6.394   5.781   2.093
  669SOL    HW2 2907   6.260   5.804   2.003
  670SOL     OW 2908   3.596   4.119   3.126
  670SOL    HW1 2909   3.510   4.082   3.162
  670SOL    HW2 2910   3.608   4.088   3.032
  671SOL     OW 2911   1.404   0.330   0.005
  671SOL    HW1 2912   1.458   0.379   0.073
  671SOL    HW2 2913   1.367   0.395   6.965
  672SOL     OW 2914   0.382   2.404   2.932
  672SOL    HW1 2915   0.309   2.452   2.982
  672SOL    HW2 2916   0.413   2.460   2.855
  673SOL     OW 2917   4.913   0.680   6.311
  673SOL    HW1 2918   4.932   0.584   6.330
  673SOL    HW2 2919   4.862   0.720   6.387
  674SOL     OW 2920   6.621   2.790   4.148
  674SOL    HW1 2921   6.579   2.880   4.164
  674SOL    HW2 2922   6.721   2.799   4.149
  675SOL     OW 2923   5.904   6.983   3.742
  675SOL    HW1 2924   5.937   0.032   3.798
  675SOL    HW2 2925   5.822   6.943   3.784
  676SOL     OW 2926   3.131   4.655   5.497
  676SOL    HW1 2927   3.073   4.671   5.416
  676SOL    HW2 2928   3.094   4.578   5.549
  677SOL     OW 2929   5.148   6.465   0.597
  677SOL    HW1 2930   5.217   6.417   0.544
  677SOL    HW2 2931   5.179   6.558   0.615
  678SOL     OW 2932   1.839   0.125   6.416
  678SOL    HW1 2933   1.817   0.209   6.465
  678SOL    HW2 2934   1.824   0.138   6.318
  679SOL     OW 2935   0.372   6.941   2.736
  679SOL    HW1 2936   0.311   6.973   2.808
  679SOL    HW2 2937   0.352   6.990   2.651
  680SOL     OW 2938   6.285   3.327   3.706
  680SOL    HW1 2939   6.291   3.251   3.771
  680SOL    HW2 2940   6.189   3.356   3.698
  681SOL     OW 2941   0.687   5.302   3.352
  681SOL    HW1 2942   0.721   5.345   3.436
  681SOL    HW2 2943   0.749   5.229   3.324
  682SOL     OW 2944   0.619   6.998   5.416
  682SOL    HW1 2945   0.669   0.057   5.403
  682SOL    HW2 2946   0.634   6.937   5.338
  683SOL     OW 2947   5.144   1.733   1.702
  683SOL    HW1 2948   5.084   1.785   1.762
  683SOL    HW2 2949   5.108   1.640   1.691
  684SOL     OW 2950   6.664   5.469   6.481
  684SOL    HW1 2951   6.649   5.482   6.578
  684SOL    HW2 2952   6.604   5.530   6.429
  685SOL     OW 2953   6.070   0.524   4.860
  685SOL    HW1 2954   6.053   0.614   4.900
  685SOL    HW2 2955   6.127   0.471   4.923
  686SOL     OW 2956   5.610   4.208   0.798
  686SOL    HW1 2957   5.606   4.123   0.850
  686SOL    HW2 2958   5.519   4.231   0.764
  687SOL     OW 2959   5.146   3.231   0.020
  687SOL    HW1 2960   5.203   3.170   6.990
  687SOL    HW2 2961   5.199   3.261   0.099
  688SOL     OW 2962   0.246   2.690   4.968
  688SOL    HW1 2963   0.214   2.677   5.063
  688SOL    HW2 2964   0.229   2.784   4.940
  689SOL     OW 2965   5.532   4.880   4.311
  689SOL    HW1 2966   5.517   4.787   4.344
  689SOL    HW2 2967   5.474   4.943   4.363
  690SOL     OW 2968   0.085   2.567   4.343
  690SOL    HW1 2969   0.124   2.660   4.345
  690SOL    HW2 2970   0.032   2.551   4.426
  691SOL     OW 2971   1.410   2.964   6.628
  691SOL    HW1 2972   1.437   2.926   6.716
  691SOL    HW2 2973   1.345   2.903   6.583
  692SOL     OW 2974   2.591   0.481   4.246
  692SOL    HW1 2975   2.626   0.518   4.160
  692SOL    HW2 2976   2.508   0.529   4.272
  693SOL     OW 2977   5.908   1.365   3.068
  693SOL    HW1 2978   5.822   1.314   3.072
  693SOL    HW2 2979   5.954   1.361   3.156
  694SOL     OW 2980   1.216   0.607   2.548
  694SOL    HW1 2981   1.144   0.561   2.496
  694SOL    HW2 2982   1.301   0.603   2.497
  695SOL     OW 2983   4.431   5.890   6.484
  695SOL    HW1 2984   4.380   5.809   6.452
  695SOL    HW2 2985   4.397   5.917   6.574
  696SOL     OW 2986   5.510   6.118   2.476
  696SOL    HW1 2987   5.448   6.093   2.402
  696SOL    HW2 2988   5.529   6.037   2.532
  697SOL     OW 2989   1.393   4.294   3.261
  697SOL    HW1 2990   1.464   4.327   3.323
  697SOL    HW2 2991   1.429   4.290   3.168
  698SOL     OW 2992   4.791   6.893   4.003
  698SOL    HW1 2993   4.783   6.894   4.103
  698SOL    HW2 2994   4.883   6.923   3.977
  699SOL     OW 2995   2.077   5.768   6.455
  699SOL    HW1 2996   2.095   5.694   6.390
  699SOL    HW2 2997   2.009   5.831   6.416
  700SOL     OW 2998   1.324   2.558   4.878
  700SOL    HW1 2999   1.356   2.648   4.906
  700SOL    HW2 3000   1.377   2.527   4.799
  701SOL     OW 3001   0.822   4.965   6.242
  701SOL    HW1 3002   0.828   4.980   6.341
  701SOL    HW2 3003   0.909   4.926   6.210
  702SOL     OW 3004   5.663   6.248   5.871
  702SOL    HW1 3005   5.576   6.223   5.914
  702SOL    HW2 3006   5.659   6.227   5.773
  703SOL     OW 3007   6.235   3.696   6.145
  703SOL    HW1 3008   6.270   3.645   6.066
  703SOL    HW2 3009   6.155   3.649   6.183
  704SOL     OW 3010   2.228   0.268   2.190
  704SOL    HW1 3011   2.282   0.320   2.256
  704SOL    HW2 3012   2.214   0.175   2.225
  705SOL     OW 3013   1.351   1.898   4.590
  705SOL    HW1 3014   1.447   1.899   4.561
  705SOL    HW2 3015   1.329   1.809   4.630
  706SOL     OW 3016   5.866   3.439   3.298
  706SOL    HW1 3017   5.899   3.410   3.208
  706SOL    HW2 3018   5.773   3.405   3.313
  707SOL     OW 3019   4.879   3.199   3.021
  707SOL    HW1 3020   4.844   3.205   2.927
  707SOL    HW2 3021   4.866   3.287   3.066
  708SOL     OW 3022   5.340   0.968   1.917
  708SOL    HW1 3023   5.263   0.910   1.944
  708SOL    HW2 3024   5.334   0.988   1.819
  709SOL     OW 3025   1.603   3.568   6.230
  709SOL    HW1 3026   1.553   3.508   6.291
  709SOL    HW2 3027   1.635   3.649   6.280
  710SOL     OW 3028   3.240   3.671   3.948
  710SOL    HW1 3029   3.248   3.632   3.857
  710SOL    HW2 3030   3.154   3.722   3.955
  711SOL     OW 3031   1.608   1.035   3.838
  711SOL    HW1 3032   1.634   1.090   3.758
  711SOL    HW2 3033   1.509   1.031   3.845
  712SOL     OW 3034   0.229   4.960   3.920
  712SOL    HW1 3035   0.298   4.945   3.849
  712SOL    HW2 3036   0.257   5.036   3.978
  713SOL     OW 3037   2.351   3.773   5.617
  713SOL    HW1 3038   2.336   3.846   5.550
  713SOL    HW2 3039   2.437   3.789   5.665
  714SOL     OW 3040   4.972   5.011   4.476
  714SOL    HW1 3041   5.010   4.924   4.445
  714SOL    HW2 3042   4.886   4.993   4.524
  715SOL     OW 3043   6.728   0.339   5.764
  715SOL    HW1 3044   6.780   0.370   5.843
  715SOL    HW2 3045   6.662   0.410   5.737
  716SOL     OW 3046   6.329   5.691   0.215
  716SOL    HW1 3047   6.284   5.778   0.194
  716SOL    HW2 3048   6.270   5.615   0.187
  717SOL     OW 3049   5.881   3.062   5.541
  717SOL    HW1 3050   5.884   3.072   5.641
  717SOL    HW2 3051   5.814   3.126   5.503
  718SOL     OW 3052   3.622   3.430   0.762
  718SOL    HW1 3053   3.693   3.447   0.694
  718SOL    HW2 3054   3.532   3.449   0.722
  719SOL     OW 3055   6.847   4.288   0.141
  719SOL    HW1 3056   6.854   4.190   0.162
  719SOL    HW2 3057   6.913   4.338   0.197
  720SOL     OW 3058   4.062   0.997   5.607
  720SOL    HW1 3059   4.143   0.959   5.563
  720SOL    HW2 3060   4.039   1.084   5.565
  721SOL     OW 3061   1.878   0.587   5.057
  721SOL    HW1 3062   1.909   0.678   5.086
  721SOL    HW2 3063   1.795   0.597   5.001
  722SOL     OW 3064   4.522   1.703   5.178
  722SOL    HW1 3065   4.430   1.678   5.147
  722SOL    HW2 3066   4.586   1.697   5.101
  723SOL     OW 3067   0.159   3.618   1.802
  723SOL    HW1 3068   0.247   3.610   1.847
  723SOL    HW2 3069   0.092   3.560   1.848
  724SOL     OW 3070   0.522   2.717   4.339
  724SOL    HW1 3071   0.457   2.703   4.264
  724SOL    HW2 3072   0.490   2.666   4.419
  725SOL     OW 3073   2.390   5.192   2.196
  725SOL    HW1 3074   2.431   5.219   2.109
  725SOL    HW2 3075   2.365   5.095   2.193
  726SOL     OW 3076   5.225   5.911   0.314
  726SOL    HW1 3077   5.322   5.924   0.294
  726SOL    HW2 3078   5.186   5.844   0.251
  727SOL     OW 3079   1.225   4.877   4.624
  727SOL    HW1 3080   1.196   4.885   4.719
  727SOL    HW2 3081   1.316   4.917   4.613
  728SOL     OW 3082   6.539   2.061   6.301
  728SOL    HW1 3083   6.505   1.985   6.245
  728SOL    HW2 3084   6.472   2.082   6.373
  729SOL     OW 3085   4.018   1.243   0.578
  729SOL    HW1 3086   3.971   1.331   0.576
  729SOL    HW2 3087   3.952   1.169   0.566
  730SOL     OW 3088   6.080   0.929   3.809
  730SOL    HW1 3089   6.092   0.925   3.710
  730SOL    HW2 3090   6.017   0.857   3.838
  731SOL     OW 3091   0.495   2.073   3.472
  731SOL    HW1 3092   0.501   2.020   3.556
  731SOL    HW2 3093   0.505   2.012   3.393
  732SOL     OW 3094   0.264   4.528   4.033
  732SOL    HW1 3095   0.265   4.512   3.934
  732SOL    HW2 3096   0.262   4.440   4.081
  733SOL     OW 3097   5.354   4.526   4.635
  733SOL    HW1 3098   5.419   4.602   4.647
  733SOL    HW2 3099   5.374   4.455   4.702
  734SOL     OW 3100   0.929   0.177   0.241
  734SOL    HW1 3101   0.854   0.196   0.305
  734SOL    HW2 3102   0.919   0.234   0.160
  735SOL     OW 3103   3.331   4.463   0.251
  735SOL    HW1 3104   3.276   4.412   0.185
  735SOL    HW2 3105   3.418   4.415   0.266
  736SOL     OW 3106   5.567   1.792   2.113
  736SOL    HW1 3107   5.527   1.763   2.200
  736SOL    HW2 3108   5.617   1.716   2.072
  737SOL     OW 3109   5.179   3.981   0.272
  737SOL    HW1 3110   5.140   3.917   0.205
  737SOL    HW2 3111   5.106   4.020   0.327
  738SOL     OW 3112   6.875   3.429   4.236
  738SOL    HW1 3113   6.969   3.398   4.254
  738SOL    HW2 3114   6.863   3.520   4.275
  739SOL     OW 3115   4.666   5.864   6.345
  739SOL    HW1 3116   4.585   5.878   6.402
  739SOL    HW2 3117   4.746   5.851   6.403
  740SOL     OW 3118   5.871   6.852   0.523
  740SOL    HW1 3119   5.834   6.861   0.615
  740SOL    HW2 3120   5.954   6.796   0.525
  741SOL     OW 3121   1.521   0.548   3.821
  741SOL    HW1 3122   1.451   0.478   3.837
  741SOL    HW2 3123   1.585   0.550   3.898
  742SOL     OW 3124   1.183   6.034   2.195
  742SOL    HW1 3125   1.096   6.032   2.245
  742SOL    HW2 3126   1.258   6.029   2.260
  743SOL     OW 3127   1.457   3.058   2.402
  743SOL    HW1 3128   1.432   3.043   2.306
  743SOL    HW2 3129   1.384   3.023   2.461
  744SOL     OW 3130   6.766   5.092   0.930
  744SOL    HW1 3131   6.843   5.077   0.992
  744SOL    HW2 3132   6.798   5.089   0.835
  745SOL     OW 3133   1.163   6.888   1.557
  745SOL    HW1 3134   1.198   6.868   1.466
  745SOL    HW2 3135   1.083   6.949   1.549
  746SOL     OW 3136   2.976   6.986   3.294
  746SOL    HW1 3137   3.072   6.980   3.265
  746SOL    HW2 3138   2.922   6.919   3.243
  747SOL     OW 3139   0.348   4.083   0.424
  747SOL    HW1 3140   0.424   4.067   0.486
  747SOL    HW2 3141   0.262   4.057   0.469
  748SOL     OW 3142   3.461   4.012   3.503
  748SOL    HW1 3143   3.372   3.977   3.472
  748SOL    HW2 3144   3.508   3.940   3.554
  749SOL     OW 3145   4.717   3.119   5.591
  749SOL    HW1 3146   4.642   3.078   5.540
  749SOL    HW2 3147   4.738   3.209   5.554
  750SOL     OW 3148   2.939   3.109   1.893
  750SOL    HW1 3149   2.842   3.133   1.886
  750SOL    HW2 3150   2.989   3.187   1.931
  751SOL     OW 3151   5.680   1.311   0.434
  751SOL    HW1 3152   5.582   1.310   0.415
  751SOL    HW2 3153   5.711   1.218   0.455
  752SOL     OW 3154   4.396   0.631   2.192
  752SOL    HW1 3155   4.387   0.576   2.275
  752SOL    HW2 3156   4.335   0.709   2.197
  753SOL     OW 3157   3.229   1.766   1.801
  753SOL    HW1 3158   3.169   1.694   1.836
  753SOL    HW2 3159   3.216   1.775   1.702
  754SOL     OW 3160   5.208   5.055   6.802
  754SOL    HW1 3161   5.153   5.137   6.819
  754SOL    HW2 3162   5.293   5.081   6.758
  755SOL     OW 3163   5.875   4.964   2.441
  755SOL    HW1 3164   5.796   5.021   2.419
  755SOL    HW2 3165   5.886   4.894   2.371
  756SOL     OW 3166   2.511   6.800   4.669
  756SOL    HW1 3167   2.482   6.782   4.575
  756SOL    HW2 3168   2.434   6.831   4.723
  757SOL     OW 3169   0.140   1.038   4.315
  757SOL    HW1 3170   0.213   1.094   4.275
  757SOL    HW2 3171   0.062   1.096   4.337
  758SOL     OW 3172   4.057   1.907   0.246
  758SOL    HW1 3173   4.148   1.869   0.265
  758SOL    HW2 3174   3.992   1.833   0.231
  759SOL     OW 3175   2.209   0.388   0.972
  759SOL    HW1 3176   2.202   0.332   1.055
  759SOL    HW2 3177   2.305   0.412   0.956
  760SOL     OW 3178   4.872   1.296   5.733
  760SOL    HW1 3179   4.864   1.246   5.819
  760SOL    HW2 3180   4.867   1.232   5.656
  761SOL     OW 3181   5.146   0.648   6.676
  761SOL    HW1 3182   5.075   0.675   6.742
  761SOL    HW2 3183   5.155   0.720   6.607
  762SOL     OW 3184   2.431   4.517   4.790
  762SOL    HW1 3185   2.360   4.450   4.811
  762SOL    HW2 3186   2.502   4.513   4.861
  763SOL     OW 3187   0.611   4.394   1.180
  763SOL    HW1 3188   0.623   4.493   1.185
  763SOL    HW2 3189   0.533   4.371   1.123
  764SOL     OW 3190   6.026   1.350   2.371
  764SOL    HW1 3191   6.051   1.285   2.442
  764SOL    HW2 3192   6.059   1.317   2.283
  765SOL     OW 3193   1.080   6.304   2.905
  765SOL    HW1 3194   1.112   6.330   2.996
  765SOL    HW2 3195   1.133   6.226   2.872
  766SOL     OW 3196   0.334   5.884   0.233
  766SOL    HW1 3197   0.291   5.819   0.294
  766SOL    HW2 3198   0.316   5.977   0.265
  767SOL     OW 3199   5.614   6.409   1.257
  767SOL    HW1 3200   5.620   6.320   1.303
  767SOL    HW2 3201   5.548   6.467   1.305
  768SOL     OW 3202   2.710   6.285   4.940
  768SOL    HW1 3203   2.756   6.196   4.939
  768SOL    HW2 3204   2.622   6.278   4.893
  769SOL     OW 3205   3.467   0.563   0.165
  769SOL    HW1 3206   3.381   0.615   0.166
  769SOL    HW2 3207   3.544   0.626   0.166
  770SOL     OW 3208   4.056   5.208   5.339
  770SOL    HW1 3209   3.957   5.212   5.351
  770SOL    HW2 3210   4.083   5.113   5.320
  771SOL     OW 3211   0.401   6.923   4.672
  771SOL    HW1 3212   0.311   6.925   4.629
  771SOL    HW2 3213   0.460   6.991   4.629
  772SOL     OW 3214   0.699   3.098   6.299
  772SOL    HW1 3215   0.750   3.051   6.371
  772SOL    HW2 3216   0.660   3.183   6.335
  773SOL     OW 3217   0.206   3.255   2.179
  773SOL    HW1 3218   0.229   3.195   2.103
  773SOL    HW2 3219   0.113   3.236   2.210
  774SOL     OW 3220   1.504   1.445   1.888
  774SOL    HW1 3221   1.426   1.494   1.848
  774SOL    HW2 3222   1.585   1.459   1.830
  775SOL     OW 3223   1.930   2.595   4.180
  775SOL    HW1 3224   2.015   2.631   4.220
  775SOL    HW2 3225   1.870   2.563   4.253
  776SOL     OW 3226   2.289   1.299   4.982
  776SOL    HW1 3227   2.260   1.385   5.024
  776SOL    HW2 3228   2.286   1.226   5.051
  777SOL     OW 3229   4.565   0.516   6.729
  777SOL    HW1 3230   4.649   0.513   6.783
  777SOL    HW2 3231   4.587   0.532   6.633
  778SOL     OW 3232   5.117   5.923   5.413
  778SOL    HW1 3233   5.079   5.842   5.369
  778SOL    HW2 3234   5.177   5.971   5.348
  779SOL     OW 3235   0.751   0.061   2.536
  779SOL    HW1 3236   0.733   6.989   2.527
  779SOL    HW2 3237   0.681   0.112   2.486
  780SOL     OW 3238   6.137   2.418   5.156
  780SOL    HW1 3239   6.047   2.381   5.177
  780SOL    HW2 3240   6.128   2.514   5.127
  781SOL     OW 3241   1.106   3.918   0.244
  781SOL    HW1 3242   1.016   3.950   0.274
  781SOL    HW2 3243   1.152   3.873   0.320
  782SOL     OW 3244   0.192   5.233   0.514
  782SOL    HW1 3245   0.255   5.157   0.503
  782SOL    HW2 3246   0.198   5.268   0.608
  783SOL     OW 3247   1.302   5.615   0.734
  783SOL    HW1 3248   1.370   5.665   0.787
  783SOL    HW2 3249   1.215   5.615   0.783
  784SOL     OW 3250   5.232   5.628   3.023
  784SOL    HW1 3251   5.232   5.648   3.121
  784SOL    HW2 3252   5.155   5.675   2.979
  785SOL     OW 3253   6.467   2.642   3.291
  785SOL    HW1 3254   6.518   2.725   3.270
  785SOL    HW2 3255   6.379   2.645   3.244
  786SOL     OW 3256   6.194   6.797   1.376
  786SOL    HW1 3257   6.246   6.745   1.309
  786SOL    HW2 3258   6.230   6.778   1.468
  787SOL     OW 3259   4.443   0.913   5.672
  787SOL    HW1 3260   4.436   1.012   5.678
  787SOL    HW2 3261   4.415   0.873   5.760
  788SOL     OW 3262   6.301   5.006   3.215
  788SOL    HW1 3263   6.232   4.934   3.226
  788SOL    HW2 3264   6.390   4.963   3.202
  789SOL     OW 3265   6.041   2.722   0.306
  789SOL    HW1 3266   6.059   2.773   0.390
  789SOL    HW2 3267   6.097   2.639   0.305
  790SOL     OW 3268   2.831   0.617   4.284
  790SOL    HW1 3269   2.739   0.589   4.312
  790SOL    HW2 3270   2.847   0.711   4.312
  791SOL     OW 3271   3.440   1.160   3.739
  791SOL    HW1 3272   3.492   1.155   3.825
  791SOL    HW2 3273   3.475   1.093   3.675
  792SOL     OW 3274   4.994   0.701   3.890
  792SOL    HW1 3275   4.965   0.779   3.835
  792SOL    HW2 3276   4.964   0.616   3.847
  793SOL     OW 3277   0.623   6.591   6.631
  793SOL    HW1 3278   0.613   6.538   6.716
  793SOL    HW2 3279   0.533   6.628   6.605
  794SOL     OW 3280   3.647   5.109   4.901
  794SOL    HW1 3281   3.735   5.122   4.946
  794SOL    HW2 3282   3.575   5.102   4.970
  795SOL     OW 3283   4.915   5.409   0.024
  795SOL    HW1 3284   4.977   5.442   0.096
  795SOL    HW2 3285   4.896   5.483   6.986
  796SOL     OW 3286   1.350   1.868   6.187
  796SOL    HW1 3287   1.403   1.905   6.263
  796SOL    HW2 3288   1.373   1.918   6.103
  797SOL     OW 3289   6.164   3.348   5.645
  797SOL    HW1 3290   6.235   3.365   5.576
  797SOL    HW2 3291   6.187   3.266   5.697
  798SOL     OW 3292   6.129   0.296   4.236
  798SOL    HW1 3293   6.213   0.349   4.223
  798SOL    HW2 3294   6.153   0.199   4.245
  799SOL     OW 3295   6.608   4.101   4.077
  799SOL    HW1 3296   6.545   4.179   4.075
  799SOL    HW2 3297   6.558   4.018   4.103
  800SOL     OW 3298   0.473   2.715   2.253
  800SOL    HW1 3299   0.410   2.649   2.294
  800SOL    HW2 3300   0.559   2.669   2.232
  801SOL     OW 3301   0.084   3.790   3.547
  801SOL    HW1 3302   0.138   3.872   3.531
  801SOL    HW2 3303   0.021   3.776   3.471
  802SOL     OW 3304   6.646   0.769   0.637
  802SOL    HW1 3305   6.564   0.711   0.635
  802SOL    HW2 3306   6.649   0.820   0.723
  803SOL     OW 3307   2.297   6.428   4.515
  803SOL    HW1 3308   2.270   6.361   4.585
  803SOL    HW2 3309   2.275   6.520   4.548
  804SOL     OW 3310   5.674   5.687   0.815
  804SOL    HW1 3311   5.764   5.676   0.773
  804SOL    HW2 3312   5.611   5.618   0.779
  805SOL     OW 3313   2.356   2.204   6.278
  805SOL    HW1 3314   2.420   2.262   6.327
  805SOL    HW2 3315   2.316   2.136   6.340
  806SOL     OW 3316   4.056   6.492   0.048
  806SOL    HW1 3317   4.043   6.398   0.082
  806SOL    HW2 3318   4.023   6.557   0.116
  807SOL     OW 3319   6.761   0.892   3.035
  807SOL    HW1 3320   6.673   0.929   3.005
  807SOL    HW2 3321   6.822   0.967   3.060
  808SOL     OW 3322   5.621   3.967   5.144
  808SOL    HW1 3323   5.649   3.947   5.238
  808SOL    HW2 3324   5.604   3.882   5.095
  809SOL     OW 3325   7.010   5.776   5.630
  809SOL    HW1 3326   6.979   5.683   5.608
  809SOL    HW2 3327   0.071   5.771   5.679
  810SOL     OW 3328   5.552   5.013   5.935
  810SOL    HW1 3329   5.532   4.952   5.859
  810SOL    HW2 3330   5.648   5.007   5.959
  811SOL     OW 3331   2.855   4.810   2.585
  811SOL    HW1 3332   2.876   4.906   2.605
  811SOL    HW2 3333   2.937   4.766   2.548
  812SOL     OW 3334   6.947   0.278   2.910
  812SOL    HW1 3335   6.873   0.346   2.903
  812SOL    HW2 3336   7.023   0.317   2.961
  813SOL     OW 3337   5.122   4.661   2.080
  813SOL    HW1 3338   5.068   4.616   2.008
  813SOL    HW2 3339   5.100   4.759   2.081
  814SOL     OW 3340   5.370   5.097   1.712
  814SOL    HW1 3341   5.358   5.074   1.615
  814SOL    HW2 3342   5.361   5.014   1.767
  815SOL     OW 3343   1.029   1.264   1.067
  815SOL    HW1 3344   0.967   1.281   1.143
  815SOL    HW2 3345   1.068   1.173   1.077
  816SOL     OW 3346   6.225   0.524   1.144
  816SOL    HW1 3347   6.172   0.455   1.096
  816SOL    HW2 3348   6.221   0.611   1.094
  817SOL     OW 3349   0.371   2.255   2.419
  817SOL    HW1 3350   0.276   2.251   2.448
  817SOL    HW2 3351   0.387   2.188   2.347
  818SOL     OW 3352   5.501   1.855   3.245
  818SOL    HW1 3353   5.524   1.769   3.199
  818SOL    HW2 3354   5.455   1.915   3.180
  819SOL     OW 3355   0.364   4.937   2.839
  819SOL    HW1 3356   0.429   4.974   2.905
  819SOL    HW2 3357   0.305   5.011   2.806
  820SOL     OW 3358   2.467   3.216   5.849
  820SOL    HW1 3359   2.558   3.234   5.812
  820SOL    HW2 3360   2.400   3.273   5.802
  821SOL     OW 3361   1.339   4.239   0.460
  821SOL    HW1 3362   1.394   4.316   0.429
  821SOL    HW2 3363   1.356   4.223   0.557
  822SOL     OW 3364   0.728   3.304   5.534
  822SOL    HW1 3365   0.649   3.345   5.489
  822SOL    HW2 3366   0.812   3.350   5.504
  823SOL     OW 3367   4.653   4.127   1.434
  823SOL    HW1 3368   4.636   4.105   1.530
  823SOL    HW2 3369   4.748   4.156   1.423
  824SOL     OW 3370   6.420   3.792   6.492
  824SOL    HW1 3371   6.510   3.824   6.463
  824SOL    HW2 3372   6.349   3.856   6.461
  825SOL     OW 3373   2.460   2.927   1.449
  825SOL    HW1 3374   2.443   3.022   1.472
  825SOL    HW2 3375   2.556   2.905   1.466
  826SOL     OW 3376   1.374   1.508   6.744
  826SOL    HW1 3377   1.426   1.552   6.818
  826SOL    HW2 3378   1.371   1.569   6.665
  827SOL     OW 3379   4.008   4.351   0.991
  827SOL    HW1 3380   4.045   4.425   0.934
  827SOL    HW2 3381   3.948   4.293   0.936
  828SOL     OW 3382   5.822   1.642   5.505
  828SOL    HW1 3383   5.795   1.737   5.490
  828SOL    HW2 3384   5.825   1.594   5.418
  829SOL     OW 3385   4.371   4.432   5.743
  829SOL    HW1 3386   4.375   4.338   5.711
  829SOL    HW2 3387   4.281   4.471   5.721
  830SOL     OW 3388   4.354   3.564   6.583
  830SOL    HW1 3389   4.301   3.628   6.526
  830SOL    HW2 3390   4.298   3.483   6.602
  831SOL     OW 3391   5.267   2.275   5.617
  831SOL    HW1 3392   5.258   2.253   5.519
  831SOL    HW2 3393   5.194   2.230   5.668
  832SOL     OW 3394   3.248   1.571   5.694
  832SOL    HW1 3395   3.238   1.509   5.772
  832SOL    HW2 3396   3.169   1.633   5.691
  833SOL     OW 3397   1.232   0.653   5.196
  833SOL    HW1 3398   1.156   0.589   5.204
  833SOL    HW2 3399   1.310   0.607   5.154
  834SOL     OW 3400   3.047   4.685   5.831
  834SOL    HW1 3401   3.026   4.760   5.768
  834SOL    HW2 3402   2.974   4.675   5.898
  835SOL     OW 3403   3.807   1.688   2.817
  835SOL    HW1 3404   3.741   1.746   2.865
  835SOL    HW2 3405   3.832   1.611   2.876
  836SOL     OW 3406   2.046   1.296   5.491
  836SOL    HW1 3407   2.100   1.226   5.444
  836SOL    HW2 3408   2.102   1.339   5.562
  837SOL     OW 3409   4.098   1.438   4.263
  837SOL    HW1 3410   4.181   1.434   4.206
  837SOL    HW2 3411   4.017   1.434   4.204
  838SOL     OW 3412   0.464   6.160   2.275
  838SOL    HW1 3413   0.466   6.217   2.357
  838SOL    HW2 3414   0.412   6.207   2.203
  839SOL     OW 3415   2.054   1.886   2.151
  839SOL    HW1 3416   2.015   1.884   2.059
  839SOL    HW2 3417   2.043   1.796   2.194
  840SOL     OW 3418   2.048   0.659   4.817
  840SOL    HW1 3419   2.011   0.633   4.907
  840SOL    HW2 3420   2.038   0.757   4.804
  841SOL     OW 3421   0.016   3.196   0.455
  841SOL    HW1 3422   6.998   3.218   0.542
  841SOL    HW2 3423   6.984   3.133   0.403
  842SOL     OW 3424   3.876   5.081   4.325
  842SOL    HW1 3425   3.843   5.054   4.234
  842SOL    HW2 3426   3.798   5.092   4.386
  843SOL     OW 3427   0.053   2.958   1.092
  843SOL    HW1 3428   6.993   3.005   1.070
  843SOL    HW2 3429   0.034   2.860   1.106
  844SOL     OW 3430   5.559   4.425   6.255
  844SOL    HW1 3431   5.566   4.327   6.271
  844SOL    HW2 3432   5.463   4.453   6.257
  845SOL     OW 3433   2.201   5.004   5.671
  845SOL    HW1 3434   2.278   5.031   5.729
  845SOL    HW2 3435   2.199   4.905   5.661
  846SOL     OW 3436   5.145   1.843   0.070
  846SOL    HW1 3437   5.192   1.909   0.012
  846SOL    HW2 3438   5.132   1.882   0.161
  847SOL     OW 3439   5.169   4.011   1.831
  847SOL    HW1 3440   5.202   3.919   1.851
  847SOL    HW2 3441   5.157   4.062   1.916
  848SOL     OW 3442   5.641   7.000   5.852
  848SOL    HW1 3443   5.712   6.983   5.784
  848SOL    HW2 3444   5.557   0.003   5.806
  849SOL     OW 3445   1.011   0.145   3.466
  849SOL    HW1 3446   1.065   0.229   3.457
  849SOL    HW2 3447   1.061   0.079   3.523
  850SOL     OW 3448   2.872   0.884   2.786
  850SOL    HW1 3449   2.931   0.857   2.711
  850SOL    HW2 3450   2.918   0.868   2.873
  851SOL     OW 3451   6.609   1.557   6.182
  851SOL    HW1 3452   6.515   1.572   6.212
  851SOL    HW2 3453   6.659   1.507   6.253
  852SOL     OW 3454   3.665   5.084   4.499
  852SOL    HW1 3455   3.627   5.009   4.552
  852SOL    HW2 3456   3.674   5.165   4.557
  853SOL     OW 3457   1.078   3.981   0.966
  853SOL    HW1 3458   1.071   3.905   0.901
  853SOL    HW2 3459   1.109   3.946   1.055
  854SOL     OW 3460   6.759   4.479   1.002
  854SOL    HW1 3461   6.791   4.435   0.918
  854SOL    HW2 3462   6.659   4.478   1.004
  855SOL     OW 3463   4.739   0.345   0.417
  855SOL    HW1 3464   4.649   0.304   0.431
  855SOL    HW2 3465   4.810   0.284   0.451
  856SOL     OW 3466   1.879   1.041   5.271
  856SOL    HW1 3467   1.849   1.131   5.239
  856SOL    HW2 3468   1.959   1.051   5.329
  857SOL     OW 3469   6.521   4.662   2.505
  857SOL    HW1 3470   6.482   4.575   2.535
  857SOL    HW2 3471   6.608   4.678   2.552
  858SOL     OW 3472   3.819   3.467   1.860
  858SOL    HW1 3473   3.721   3.480   1.872
  858SOL    HW2 3474   3.839   3.369   1.854
  859SOL     OW 3475   6.448   3.888   1.490
  859SOL    HW1 3476   6.538   3.875   1.531
  859SOL    HW2 3477   6.433   3.985   1.472
  860SOL     OW 3478   1.629   4.016   6.194
  860SOL    HW1 3479   1.602   4.012   6.097
  860SOL    HW2 3480   1.554   4.052   6.248
  861SOL     OW 3481   4.364   4.784   6.325
  861SOL    HW1 3482   4.436   4.752   6.265
  861SOL    HW2 3483   4.278   4.736   6.303
  862SOL     OW 3484   4.231   4.720   3.845
  862SOL    HW1 3485   4.207   4.685   3.755
  862SOL    HW2 3486   4.266   4.813   3.836
  863SOL     OW 3487   6.871   3.104   1.412
  863SOL    HW1 3488   6.796   3.156   1.451
  863SOL    HW2 3489   6.834   3.030   1.355
  864SOL     OW 3490   1.223   6.642   1.635
  864SOL    HW1 3491   1.181   6.731   1.615
  864SOL    HW2 3492   1.210   6.620   1.731
  865SOL     OW 3493   1.035   1.428   3.866
  865SOL    HW1 3494   0.937   1.431   3.886
  865SOL    HW2 3495   1.087   1.427   3.952
  866SOL     OW 3496   3.954   1.008   1.798
  866SOL    HW1 3497   3.992   0.947   1.867
  866SOL    HW2 3498   3.903   1.081   1.843
  867SOL     OW 3499   3.248   1.590   6.536
  867SOL    HW1 3500   3.156   1.573   6.502
  867SOL    HW2 3501   3.305   1.509   6.523
  868SOL     OW 3502   4.666   1.933   3.517
  868SOL    HW1 3503   4.726   2.008   3.488
  868SOL    HW2 3504   4.597   1.918   3.446
  869SOL     OW 3505   6.345   3.475   1.016
  869SOL    HW1 3506   6.408   3.429   0.954
  869SOL    HW2 3507   6.389   3.555   1.056
  870SOL     OW 3508   6.088   1.712   0.825
  870SOL    HW1 3509   6.175   1.741   0.786
  870SOL    HW2 3510   6.095   1.616   0.854
  871SOL     OW 3511   0.270   4.338   0.817
  871SOL    HW1 3512   0.230   4.378   0.734
  871SOL    HW2 3513   0.200   4.290   0.868
  872SOL     OW 3514   6.343   1.712   1.962
  872SOL    HW1 3515   6.369   1.803   1.930
  872SOL    HW2 3516   6.253   1.688   1.925
  873SOL     OW 3517   4.217   0.045   4.064
  873SOL    HW1 3518   4.209   7.023   3.977
  873SOL    HW2 3519   4.163   7.023   4.134
  874SOL     OW 3520   1.219   3.464   6.207
  874SOL    HW1 3521   1.282   3.542   6.203
  874SOL    HW2 3522   1.223   3.422   6.298
  875SOL     OW 3523   6.136   6.042   6.775
  875SOL    HW1 3524   6.165   6.093   6.694
  875SOL    HW2 3525   6.172   6.087   6.857
  876SOL     OW 3526   2.638   2.373   1.928
  876SOL    HW1 3527   2.732   2.353   1.957
  876SOL    HW2 3528   2.639   2.446   1.861
  877SOL     OW 3529   6.204   5.485   6.029
  877SOL    HW1 3530   6.112   5.449   6.015
  877SOL    HW2 3531   6.217   5.510   6.125
  878SOL     OW 3532   4.498   3.048   1.277
  878SOL    HW1 3533   4.450   3.007   1.200
  878SOL    HW2 3534   4.432   3.076   1.347
  879SOL     OW 3535   5.230   3.116   3.278
  879SOL    HW1 3536   5.200   3.156   3.192
  879SOL    HW2 3537   5.329   3.098   3.274
  880SOL     OW 3538   4.084   0.005   1.248
  880SOL    HW1 3539   4.116   6.947   1.202
  880SOL    HW2 3540   4.117   0.085   1.197
  881SOL     OW 3541   4.685   5.562   3.284
  881SOL    HW1 3542   4.620   5.636   3.296
  881SOL    HW2 3543   4.667   5.489   3.351
  882SOL     OW 3544   0.809   2.315   5.117
  882SOL    HW1 3545   0.830   2.408   5.088
  882SOL    HW2 3546   0.738   2.277   5.058
  883SOL     OW 3547   3.005   4.951   6.908
  883SOL    HW1 3548   2.992   4.870   6.850
  883SOL    HW2 3549   3.099   4.955   6.940
  884SOL     OW 3550   4.501   4.334   1.360
  884SOL    HW1 3551   4.456   4.366   1.444
  884SOL    HW2 3552   4.562   4.258   1.382
  885SOL     OW 3553   4.007   5.749   6.702
  885SOL    HW1 3554   3.939   5.775   6.770
  885SOL    HW2 3555   3.991   5.801   6.618
  886SOL     OW 3556   3.775   2.572   6.464
  886SOL    HW1 3557   3.723   2.501   6.511
  886SOL    HW2 3558   3.756   2.661   6.507
  887SOL     OW 3559   6.279   6.373   4.731
  887SOL    HW1 3560   6.235   6.343   4.816
  887SOL    HW2 3561   6.346   6.444   4.751
  888SOL     OW 3562   6.303   1.311   3.858
  888SOL    HW1 3563   6.261   1.250   3.791
  888SOL    HW2 3564   6.251   1.396   3.862
  889SOL     OW 3565   0.497   0.343   4.664
  889SOL    HW1 3566   0.526   0.339   4.759
  889SOL    HW2 3567   0.563   0.295   4.607
  890SOL     OW 3568   2.707   3.439   0.494
  890SOL    HW1 3569   2.643   3.375   0.537
  890SOL    HW2 3570   2.714   3.417   0.396
  891SOL     OW 3571   6.637   3.003   5.560
  891SOL    HW1 3572   6.639   2.914   5.513
  891SOL    HW2 3573   6.689   2.997   5.645
  892SOL     OW 3574   2.509   4.541   1.805
  892SOL    HW1 3575   2.487   4.615   1.743
  892SOL    HW2 3576   2.553   4.578   1.887
  893SOL     OW 3577   2.078   0.654   1.752
  893SOL    HW1 3578   2.095   0.752   1.743
  893SOL    HW2 3579   2.157   0.603   1.719
  894SOL     OW 3580   1.184   5.306   3.920
  894SOL    HW1 3581   1.246   5.360   3.862
  894SOL    HW2 3582   1.238   5.247   3.980
  895SOL     OW 3583   2.656   1.143   4.350
  895SOL    HW1 3584   2.658   1.143   4.250
  895SOL    HW2 3585   2.586   1.207   4.382
  896SOL     OW 3586   4.471   0.227   3.073
  896SOL    HW1 3587   4.437   0.305   3.126
  896SOL    HW2 3588   4.516   0.260   2.990
  897SOL     OW 3589   6.392   1.021   6.815
  897SOL    HW1 3590   6.415   1.071   6.899
  897SOL    HW2 3591   6.472   0.969   6.785
  898SOL     OW 3592   5.529   5.792   3.328
  898SOL    HW1 3593   5.496   5.851   3.402
  898SOL    HW2 3594   5.481   5.705   3.331
  899SOL     OW 3595   1.739   4.547   0.153
  899SOL    HW1 3596   1.834   4.542   0.183
  899SOL    HW2 3597   1.729   4.502   0.065
  900SOL     OW 3598   0.111   5.822   3.413
  900SOL    HW1 3599   0.148   5.730   3.430
  900SOL    HW2 3600   0.013   5.815   3.394
  901SOL     OW 3601   6.268   2.112   3.392
  901SOL    HW1 3602   6.347   2.081   3.445
  901SOL    HW2 3603   6.223   2.034   3.349
  902SOL     OW 3604   1.650   5.690   6.953
  902SOL    HW1 3605   1.731   5.675   7.010
  902SOL    HW2 3606   1.674   5.747   6.874
  903SOL     OW 3607   1.368   4.705   6.735
  903SOL    HW1 3608   1.353   4.804   6.729
  903SOL    HW2 3609   1.337   4.662   6.651
  904SOL     OW 3610   1.261   2.322   4.356
  904SOL    HW1 3611   1.198   2.314   4.433
  904SOL    HW2 3612   1.222   2.278   4.275
  905SOL     OW 3613   6.585   3.739   3.580
  905SOL    HW1 3614   6.588   3.642   3.604
  905SOL    HW2 3615   6.537   3.750   3.493
  906SOL     OW 3616   0.070   3.384   5.533
  906SOL    HW1 3617   0.046   3.288   5.542
  906SOL    HW2 3618   0.162   3.392   5.494
  907SOL     OW 3619   6.758   4.508   2.913
  907SOL    HW1 3620   6.820   4.434   2.941
  907SOL    HW2 3621   6.705   4.478   2.833
  908SOL     OW 3622   2.374   1.140   3.169
  908SOL    HW1 3623   2.275   1.154   3.159
  908SOL    HW2 3624   2.420   1.228   3.178
  909SOL     OW 3625   2.931   6.691   2.357
  909SOL    HW1 3626   2.869   6.679   2.280
  909SOL    HW2 3627   2.889   6.752   2.424
  910SOL     OW 3628   1.494   0.732   1.899
  910SOL    HW1 3629   1.479   0.686   1.811
  910SOL    HW2 3630   1.478   0.667   1.973
  911SOL     OW 3631   1.183   2.756   1.185
  911SOL    HW1 3632   1.254   2.719   1.125
  911SOL    HW2 3633   1.097   2.764   1.134
  912SOL     OW 3634   2.568   0.742   1.208
  912SOL    HW1 3635   2.607   0.669   1.152
  912SOL    HW2 3636   2.541   0.819   1.149
  913SOL     OW 3637   2.375   0.781   1.821
  913SOL    HW1 3638   2.285   0.752   1.851
  913SOL    HW2 3639   2.442   0.763   1.894
  914SOL     OW 3640   3.329   4.944   2.595
  914SOL    HW1 3641   3.404   4.924   2.657
  914SOL    HW2 3642   3.243   4.914   2.636
  915SOL     OW 3643   3.520   1.988   1.508
  915SOL    HW1 3644   3.444   2.043   1.542
  915SOL    HW2 3645   3.594   1.987   1.576
  916SOL     OW 3646   0.048   3.936   2.763
  916SOL    HW1 3647   0.030   4.028   2.728
  916SOL    HW2 3648   0.055   3.871   2.688
  917SOL     OW 3649   4.293   0.584   5.002
  917SOL    HW1 3650   4.356   0.617   4.933
  917SOL    HW2 3651   4.204   0.565   4.959
  918SOL     OW 3652   0.308   2.409   5.111
  918SOL    HW1 3653   0.376   2.369   5.173
  918SOL    HW2 3654   0.217   2.374   5.134
  919SOL     OW 3655   0.916   0.209   0.835
  919SOL    HW1 3656   0.876   0.167   0.916
  919SOL    HW2 3657   0.921   0.308   0.848
  920SOL     OW 3658   1.185   1.783   2.779
  920SOL    HW1 3659   1.120   1.808   2.707
  920SOL    HW2 3660   1.271   1.830   2.764
  921SOL     OW 3661   4.262   4.332   0.170
  921SOL    HW1 3662   4.228   4.243   0.200
  921SOL    HW2 3663   4.188   4.384   0.127
  922SOL     OW 3664   2.427   5.727   6.591
  922SOL    HW1 3665   2.396   5.802   6.533
  922SOL    HW2 3666   2.373   5.646   6.572
  923SOL     OW 3667   3.715   1.017   0.188
  923SOL    HW1 3668   3.672   1.058   0.268
  923SOL    HW2 3669   3.718   0.917   0.199
  924SOL     OW 3670   5.031   5.188   1.429
  924SOL    HW1 3671   4.989   5.275   1.405
  924SOL    HW2 3672   5.129   5.192   1.412
  925SOL     OW 3673   5.532   2.338   1.886
  925SOL    HW1 3674   5.618   2.384   1.863
  925SOL    HW2 3675   5.476   2.328   1.803
  926SOL     OW 3676   4.550   5.667   1.578
  926SOL    HW1 3677   4.586   5.600   1.514
  926SOL    HW2 3678   4.473   5.716   1.535
  927SOL     OW 3679   5.256   5.268   5.660
  927SOL    HW1 3680   5.180   5.332   5.651
  927SOL    HW2 3681   5.274   5.251   5.756
  928SOL     OW 3682   6.399   1.287   2.127
  928SOL    HW1 3683   6.343   1.369   2.136
  928SOL    HW2 3684   6.421   1.272   2.031
  929SOL     OW 3685   6.509   2.110   2.821
  929SOL    HW1 3686   6.499   2.053   2.739
  929SOL    HW2 3687   6.604   2.136   2.832
  930SOL     OW 3688   5.957   4.187   2.519
  930SOL    HW1 3689   5.941   4.284   2.502
  930SOL    HW2 3690   6.035   4.156   2.465
  931SOL     OW 3691   0.201   2.647   0.568
  931SOL    HW1 3692   0.253   2.666   0.485
  931SOL    HW2 3693   0.135   2.721   0.583
  932SOL     OW 3694   4.175   6.512   0.496
  932SOL    HW1 3695   4.158   6.608   0.474
  932SOL    HW2 3696   4.273   6.498   0.513
  933SOL     OW 3697   0.710   0.056   3.130
  933SOL    HW1 3698   0.793   0.036   3.181
  933SOL    HW2 3699   0.672   6.996   3.094
  934SOL     OW 3700   4.409   1.725   4.847
  934SOL    HW1 3701   4.427   1.626   4.845
  934SOL    HW2 3702   4.343   1.745   4.919
  935SOL     OW 3703   0.848   3.972   4.296
  935SOL    HW1 3704   0.921   4.028   4.334
  935SOL    HW2 3705   0.870   3.948   4.202
  936SOL     OW 3706   1.109   0.984   1.093
  936SOL    HW1 3707   1.196   0.954   1.054
  936SOL    HW2 3708   1.075   0.914   1.156
  937SOL     OW 3709   4.742   1.605   3.151
  937SOL    HW1 3710   4.742   1.676   3.081
  937SOL    HW2 3711   4.822   1.545   3.138
  938SOL     OW 3712   0.528   0.918   6.028
  938SOL    HW1 3713   0.563   0.838   5.979
  938SOL    HW2 3714   0.431   0.903   6.049
  939SOL     OW 3715   0.229   1.105   4.703
  939SOL    HW1 3716   0.154   1.082   4.640
  939SOL    HW2 3717   0.229   1.040   4.779
  940SOL     OW 3718   6.130   6.984   3.605
  940SOL    HW1 3719   6.170   0.050   3.608
  940SOL    HW2 3720   6.042   6.985   3.652
  941SOL     OW 3721   6.085   2.674   4.690
  941SOL    HW1 3722   6.135   2.606   4.636
  941SOL    HW2 3723   5.989   2.675   4.663
  942SOL     OW 3724   4.228   6.670   6.120
  942SOL    HW1 3725   4.167   6.592   6.133
  942SOL    HW2 3726   4.209   6.739   6.190
  943SOL     OW 3727   4.995   2.178   6.669
  943SOL    HW1 3728   5.095   2.175   6.668
  943SOL    HW2 3729   4.961   2.205   6.579
  944SOL     OW 3730   5.237   4.621   3.965
  944SOL    HW1 3731   5.205   4.531   3.935
  944SOL    HW2 3732   5.171   4.660   4.030
  945SOL     OW 3733   6.525   3.030   6.499
  945SOL    HW1 3734   6.555   3.017   6.405
  945SOL    HW2 3735   6.433   2.995   6.510
  946SOL     OW 3736   5.950   3.044   6.194
  946SOL    HW1 3737   6.011   3.097   6.136
  946SOL    HW2 3738   5.901   2.977   6.138
  947SOL     OW 3739   1.700   1.902   6.309
  947SOL    HW1 3740   1.613   1.927   6.352
  947SOL    HW2 3741   1.685   1.886   6.212
  948SOL     OW 3742   3.575   1.610   1.341
  948SOL    HW1 3743   3.586   1.636   1.437
  948SOL    HW2 3744   3.657   1.560   1.311
  949SOL     OW 3745   5.144   4.905   5.874
  949SOL    HW1 3746   5.127   4.977   5.942
  949SOL    HW2 3747   5.080   4.914   5.798
  950SOL     OW 3748   3.910   5.193   0.587
  950SOL    HW1 3749   3.943   5.272   0.639
  950SOL    HW2 3750   3.817   5.212   0.554
  951SOL     OW 3751   0.402   3.663   2.984
  951SOL    HW1 3752   0.355   3.639   3.069
  951SOL    HW2 3753   0.357   3.743   2.943
  952SOL     OW 3754   4.147   1.320   0.998
  952SOL    HW1 3755   4.119   1.368   0.915
  952SOL    HW2 3756   4.137   1.381   1.077
  953SOL     OW 3757   4.513   6.511   5.894
  953SOL    HW1 3758   4.431   6.559   5.863
  953SOL    HW2 3759   4.533   6.537   5.989
  954SOL     OW 3760   6.767   6.434   1.525
  954SOL    HW1 3761   6.777   6.384   1.439
  954SOL    HW2 3762   6.721   6.375   1.592
  955SOL     OW 3763   1.288   6.801   3.938
  955SOL    HW1 3764   1.246   6.780   4.026
  955SOL    HW2 3765   1.282   6.721   3.878
  956SOL     OW 3766   1.807   2.935   1.080
  956SOL    HW1 3767   1.723   2.983   1.053
  956SOL    HW2 3768   1.809   2.845   1.036
  957SOL     OW 3769   2.686   6.266   4.213
  957SOL    HW1 3770   2.664   6.317   4.297
  957SOL    HW2 3771   2.663   6.169   4.226
  958SOL     OW 3772   4.241   2.062   6.834
  958SOL    HW1 3773   4.338   2.046   6.813
  958SOL    HW2 3774   4.232   2.147   6.886
  959SOL     OW 3775   1.559   4.101   0.354
  959SOL    HW1 3776   1.559   4.041   0.273
  959SOL    HW2 3777   1.464   4.124   0.378
  960SOL     OW 3778   1.748   3.833   5.499
  960SOL    HW1 3779   1.831   3.866   5.455
  960SOL    HW2 3780   1.770   3.755   5.557
  961SOL     OW 3781   3.750   6.562   6.417
  961SOL    HW1 3782   3.792   6.651   6.396
  961SOL    HW2 3783   3.821   6.499   6.449
  962SOL     OW 3784   0.334   0.556   4.011
  962SOL    HW1 3785   0.424   0.595   4.032
  962SOL    HW2 3786   0.273   0.627   3.977
  963SOL     OW 3787   5.755   0.106   3.347
  963SOL    HW1 3788   5.668   0.071   3.313
  963SOL    HW2 3789   5.819   0.029   3.359
  964SOL     OW 3790   5.977   4.257   1.899
  964SOL    HW1 3791   5.988   4.173   1.846
  964SOL    HW2 3792   5.902   4.311   1.859
  965SOL     OW 3793   1.734   2.429   0.177
  965SOL    HW1 3794   1.726   2.342   0.129
  965SOL    HW2 3795   1.796   2.489   0.126
  966SOL     OW 3796   5.169   2.269   2.000
  966SOL    HW1 3797   5.176   2.200   1.928
  966SOL    HW2 3798   5.153   2.223   2.088
  967SOL     OW 3799   0.679   5.765   2.919
  967SOL    HW1 3800   0.684   5.839   2.987
  967SOL    HW2 3801   0.599   5.779   2.861
  968SOL     OW 3802   0.353   4.138   1.039
  968SOL    HW1 3803   0.262   4.098   1.043
  968SOL    HW2 3804   0.348   4.229   0.998
  969SOL     OW 3805   3.243   6.897   6.485
  969SOL    HW1 3806   3.333   6.939   6.469
  969SOL    HW2 3807   3.254   6.797   6.491
  970SOL     OW 3808   5.284   3.865   6.219
  970SOL    HW1 3809   5.244   3.818   6.140
  970SOL    HW2 3810   5.383   3.846   6.222
  971SOL     OW 3811   0.654   1.657   6.865
  971SOL    HW1 3812   0.740   1.696   6.895
  971SOL    HW2 3813   0.578   1.712   6.899
  972SOL     OW 3814   3.624   0.038   6.354
  972SOL    HW1 3815   3.591   7.001   6.425
  972SOL    HW2 3816   3.564   0.118   6.351
  973SOL     OW 3817   6.614   3.293   6.223
  973SOL    HW1 3818   6.630   3.379   6.173
  973SOL    HW2 3819   6.535   3.305   6.283
  974SOL     OW 3820   2.324   0.598   4.162
  974SOL    HW1 3821   2.276   0.618   4.248
  974SOL    HW2 3822   2.313   0.675   4.099
  975SOL     OW 3823   2.956   6.532   4.140
  975SOL    HW1 3824   3.041   6.552   4.091
  975SOL    HW2 3825   2.920   6.443   4.113
  976SOL     OW 3826   0.274   5.470   4.882
  976SOL    HW1 3827   0.204   5.446   4.949
  976SOL    HW2 3828   0.305   5.564   4.897
  977SOL     OW 3829   0.458   2.038   1.986
  977SOL    HW1 3830   0.423   2.076   1.901
  977SOL    HW2 3831   0.385   1.988   2.033
  978SOL     OW 3832   6.047   2.689   3.750
  978SOL    HW1 3833   6.019   2.784   3.756
  978SOL    HW2 3834   6.139   2.683   3.712
  979SOL     OW 3835   5.591   1.436   2.651
  979SOL    HW1 3836   5.663   1.413   2.585
  979SOL    HW2 3837   5.527   1.360   2.659
  980SOL     OW 3838   6.169   6.114   5.353
  980SOL    HW1 3839   6.199   6.200   5.394
  980SOL    HW2 3840   6.171   6.041   5.421
  981SOL     OW 3841   6.324   3.208   6.918
  981SOL    HW1 3842   6.319   3.289   6.860
  981SOL    HW2 3843   6.293   3.128   6.866
  982SOL     OW 3844   1.612   4.625   6.877
  982SOL    HW1 3845   1.589   4.528   6.888
  982SOL    HW2 3846   1.541   4.670   6.822
  983SOL     OW 3847   5.722   1.478   3.751
  983SOL    HW1 3848   5.712   1.499   3.848
  983SOL    HW2 3849   5.764   1.556   3.704
  984SOL     OW 3850   4.863   3.278   5.001
  984SOL    HW1 3851   4.828   3.239   5.086
  984SOL    HW2 3852   4.862   3.378   5.007
  985SOL     OW 3853   1.951   4.034   0.542
  985SOL    HW1 3854   1.868   4.042   0.598
  985SOL    HW2 3855   2.028   4.007   0.601
  986SOL     OW 3856   5.843   4.733   4.745
  986SOL    HW1 3857   5.823   4.653   4.801
  986SOL    HW2 3858   5.896   4.799   4.799
  987SOL     OW 3859   2.484   1.255   2.820
  987SOL    HW1 3860   2.402   1.290   2.774
  987SOL    HW2 3861   2.494   1.298   2.909
  988SOL     OW 3862   3.717   3.509   1.401
  988SOL    HW1 3863   3.745   3.592   1.353
  988SOL    HW2 3864   3.628   3.523   1.443
  989SOL     OW 3865   1.238   1.014   5.482
  989SOL    HW1 3866   1.281   0.923   5.486
  989SOL    HW2 3867   1.262   1.066   5.564
  990SOL     OW 3868   4.114   6.018   1.955
  990SOL    HW1 3869   4.059   5.994   2.035
  990SOL    HW2 3870   4.209   6.035   1.983
  991SOL     OW 3871   6.148   1.690   6.185
  991SOL    HW1 3872   6.153   1.788   6.165
  991SOL    HW2 3873   6.066   1.672   6.240
  992SOL     OW 3874   0.262   2.371   0.232
  992SOL    HW1 3875   0.210   2.456   0.218
  992SOL    HW2 3876   0.256   2.343   0.327
  993SOL     OW 3877   3.840   6.756   4.223
  993SOL    HW1 3878   3.835   6.670   4.171
  993SOL    HW2 3879   3.792   6.745   4.310
  994SOL     OW 3880   3.170   3.957   3.739
  994SOL    HW1 3881   3.141   3.932   3.832
  994SOL    HW2 3882   3.206   3.877   3.693
  995SOL     OW 3883   1.627   1.653   5.129
  995SOL    HW1 3884   1.680   1.653   5.214
  995SOL    HW2 3885   1.687   1.673   5.052
  996SOL     OW 3886   2.497   3.182   0.845
  996SOL    HW1 3887   2.439   3.160   0.924
  996SOL    HW2 3888   2.593   3.165   0.868
  997SOL     OW 3889   6.712   1.314   0.572
  997SOL    HW1 3890   6.627   1.308   0.623
  997SOL    HW2 3891   6.702   1.267   0.484
  998SOL     OW 3892   4.456   6.775   3.822
  998SOL    HW1 3893   4.449   6.865   3.864
  998SOL    HW2 3894   4.521   6.719   3.874
  999SOL     OW 3895   0.139   4.651   6.556
  999SOL    HW1 3896   0.083   4.719   6.509
  999SOL    HW2 3897   0.080   4.586   6.603
 1000SOL     OW 3898   3.787   1.909   5.689
 1000SOL    HW1 3899   3.713   1.910   5.756
 1000SOL    HW2 3900   3.860   1.848   5.720
 1001SOL     OW 3901   5.131   0.695   4.678
 1001SOL    HW1 3902   5.224   0.684   4.714
 1001SOL    HW2 3903   5.123   0.784   4.633
 1002SOL     OW 3904   0.336   1.408   0.358
 1002SOL    HW1 3905   0.247   1.394   0.314
 1002SOL    HW2 3906   0.321   1.438   0.453
 1003SOL     OW 3907   4.678   5.224   2.236
 1003SOL    HW1 3908   4.641   5.214   2.328
 1003SOL    HW2 3909   4.718   5.137   2.206
 1004SOL     OW 3910   6.012   5.845   6.935
 1004SOL    HW1 3911   6.026   5.908   6.859
 1004SOL    HW2 3912   5.954   5.889   7.004
 1005SOL     OW 3913   5.152   6.396   2.772
 1005SOL    HW1 3914   5.139   6.302   2.740
 1005SOL    HW2 3915   5.130   6.401   2.870
 1006SOL     OW 3916   1.868   5.768   0.061
 1006SOL    HW1 3917   1.835   5.802   0.149
 1006SOL    HW2 3918   1.951   5.715   0.074
 1007SOL     OW 3919   5.899   2.192   2.854
 1007SOL    HW1 3920   5.853   2.132   2.919
 1007SOL    HW2 3921   5.988   2.153   2.830
 1008SOL     OW 3922   3.451   1.242   5.364
 1008SOL    HW1 3923   3.389   1.302   5.415
 1008SOL    HW2 3924   3.501   1.296   5.296
 1009SOL     OW 3925   3.530   6.225   5.665
 1009SOL    HW1 3926   3.486   6.298   5.716
 1009SOL    HW2 3927   3.628   6.226   5.683
 1010SOL     OW 3928   5.032   6.287   5.933
 1010SOL    HW1 3929   5.020   6.288   5.833
 1010SOL    HW2 3930   5.022   6.194   5.967
 1011SOL     OW 3931   2.493   5.073   4.668
 1011SOL    HW1 3932   2.542   5.049   4.752
 1011SOL    HW2 3933   2.410   5.017   4.661
 1012SOL     OW 3934   2.958   5.997   0.637
 1012SOL    HW1 3935   2.887   5.931   0.662
 1012SOL    HW2 3936   3.039   5.948   0.604
 1013SOL     OW 3937   0.997   0.324   0.530
 1013SOL    HW1 3938   0.910   0.310   0.483
 1013SOL    HW2 3939   1.046   0.237   0.539
 1014SOL     OW 3940   6.009   6.502   6.769
 1014SOL    HW1 3941   5.956   6.508   6.854
 1014SOL    HW2 3942   6.102   6.473   6.791
 1015SOL     OW 3943   2.507   0.099   4.703
 1015SOL    HW1 3944   2.504   0.181   4.760
 1015SOL    HW2 3945   2.572   0.112   4.628
 1016SOL     OW 3946   4.216   3.519   1.739
 1016SOL    HW1 3947   4.155   3.475   1.673
 1016SOL    HW2 3948   4.296   3.461   1.755
 1017SOL     OW 3949   4.994   6.748   6.303
 1017SOL    HW1 3950   4.948   6.721   6.388
 1017SOL    HW2 3951   4.926   6.763   6.231
 1018SOL     OW 3952   1.189   1.954   1.420
 1018SOL    HW1 3953   1.125   1.893   1.374
 1018SOL    HW2 3954   1.278   1.908   1.430
 1019SOL     OW 3955   5.851   0.336   0.251
 1019SOL    HW1 3956   5.768   0.360   0.202
 1019SOL    HW2 3957   5.931   0.356   0.193
 1020SOL     OW 3958   3.867   1.686   1.520
 1020SOL    HW1 3959   3.887   1.649   1.611
 1020SOL    HW2 3960   3.871   1.613   1.452
 1021SOL     OW 3961   5.249   1.535   1.405
 1021SOL    HW1 3962   5.179   1.495   1.464
 1021SOL    HW2 3963   5.248   1.634   1.414
 1022SOL     OW 3964   2.739   3.638   7.011
 1022SOL    HW1 3965   2.701   3.697   0.056
 1022SOL    HW2 3966   2.818   3.683   6.969
 1023SOL     OW 3967   6.776   1.113   4.203
 1023SOL    HW1 3968   6.801   1.078   4.293
 1023SOL    HW2 3969   6.859   1.130   4.150
 1024SOL     OW 3970   6.513   2.523   4.227
 1024SOL    HW1 3971   6.533   2.611   4.184
 1024SOL    HW2 3972   6.567   2.451   4.183
 1025SOL     OW 3973   2.265   4.248   1.596
 1025SOL    HW1 3974   2.302   4.178   1.536
 1025SOL    HW2 3975   2.332   4.321   1.609
 1026SOL     OW 3976   0.433   3.310   6.855
 1026SOL    HW1 3977   0.430   3.277   6.950
 1026SOL    HW2 3978   0.399   3.404   6.852
 1027SOL     OW 3979   2.028   4.809   1.255
 1027SOL    HW1 3980   2.089   4.803   1.334
 1027SOL    HW2 3981   1.951   4.870   1.277
 1028SOL     OW 3982   0.452   4.891   0.099
 1028SOL    HW1 3983   0.523   4.826   0.073
 1028SOL    HW2 3984   0.486   4.984   0.088
 1029SOL     OW 3985   3.814   0.372   4.810
 1029SOL    HW1 3986   3.866   0.304   4.759
 1029SOL    HW2 3987   3.717   0.366   4.786
 1030SOL     OW 3988   4.257   4.765   4.843
 1030SOL    HW1 3989   4.221   4.722   4.760
 1030SOL    HW2 3990   4.274   4.695   4.912
 1031SOL     OW 3991   2.570   5.913   0.942
 1031SOL    HW1 3992   2.536   5.931   0.850
 1031SOL    HW2 3993   2.564   5.997   0.997
 1032SOL     OW 3994   1.066   2.574   4.907
 1032SOL    HW1 3995   1.165   2.590   4.915
 1032SOL    HW2 3996   1.040   2.571   4.811
 1033SOL     OW 3997   2.803   0.085   2.144
 1033SOL    HW1 3998   2.887   0.106   2.096
 1033SOL    HW2 3999   2.726   0.131   2.100
 1034SOL     OW 4000   0.251   5.201   2.813
 1034SOL    HW1 4001   0.336   5.239   2.776
 1034SOL    HW2 4002   0.221   5.257   2.890
 1035SOL     OW 4003   2.971   2.237   3.444
 1035SOL    HW1 4004   2.964   2.259   3.541
 1035SOL    HW2 4005   3.029   2.156   3.432
 1036SOL     OW 4006   4.721   6.412   6.709
 1036SOL    HW1 4007   4.809   6.451   6.736
 1036SOL    HW2 4008   4.723   6.313   6.723
 1037SOL     OW 4009   3.777   1.149   5.751
 1037SOL    HW1 4010   3.855   1.193   5.706
 1037SOL    HW2 4011   3.699   1.149   5.689
 1038SOL     OW 4012   3.285   1.914   4.805
 1038SOL    HW1 4013   3.263   1.824   4.843
 1038SOL    HW2 4014   3.307   1.977   4.880
 1039SOL     OW 4015   5.259   1.962   1.911
 1039SOL    HW1 4016   5.295   1.869   1.899
 1039SOL    HW2 4017   5.273   1.991   2.006
 1040SOL     OW 4018   6.388   5.060   4.889
 1040SOL    HW1 4019   6.467   5.100   4.936
 1040SOL    HW2 4020   6.360   5.120   4.814
 1041SOL     OW 4021   1.515   6.785   4.434
 1041SOL    HW1 4022   1.553   6.843   4.362
 1041SOL    HW2 4023   1.524   6.689   4.408
 1042SOL     OW 4024   4.269   4.679   0.145
 1042SOL    HW1 4025   4.296   4.737   0.069
 1042SOL    HW2 4026   4.339   4.684   0.217
 1043SOL     OW 4027   4.733   0.252   6.105
 1043SOL    HW1 4028   4.683   0.168   6.123
 1043SOL    HW2 4029   4.736   0.308   6.188
 1044SOL     OW 4030   4.052   3.162   4.125
 1044SOL    HW1 4031   4.014   3.117   4.043
 1044SOL    HW2 4032   4.007   3.125   4.206
 1045SOL     OW 4033   1.805   1.508   2.579
 1045SOL    HW1 4034   1.876   1.471   2.639
 1045SOL    HW2 4035   1.731   1.442   2.570
 1046SOL     OW 4036   2.862   1.098   2.161
 1046SOL    HW1 4037   2.779   1.145   2.132
 1046SOL    HW2 4038   2.857   1.076   2.258
 1047SOL     OW 4039   0.286   6.189   2.554
 1047SOL    HW1 4040   0.253   6.224   2.641
 1047SOL    HW2 4041   0.325   6.098   2.568
 1048SOL     OW 4042   0.275   3.993   5.133
 1048SOL    HW1 4043   0.307   3.930   5.063
 1048SOL    HW2 4044   0.353   4.029   5.184
 1049SOL     OW 4045   0.814   3.930   5.518
 1049SOL    HW1 4046   0.812   3.903   5.422
 1049SOL    HW2 4047   0.738   3.887   5.566
 1050SOL     OW 4048   3.121   0.680   1.720
 1050SOL    HW1 4049   3.071   0.609   1.672
 1050SOL    HW2 4050   3.132   0.759   1.660
 1051SOL     OW 4051   5.162   3.212   1.931
 1051SOL    HW1 4052   5.196   3.305   1.948
 1051SOL    HW2 4053   5.069   3.217   1.894
 1052SOL     OW 4054   2.286   6.323   3.788
 1052SOL    HW1 4055   2.276   6.364   3.878
 1052SOL    HW2 4056   2.366   6.362   3.742
 1053SOL     OW 4057   3.537   5.807   3.150
 1053SOL    HW1 4058   3.443   5.785   3.174
 1053SOL    HW2 4059   3.558   5.900   3.179
 1054SOL     OW 4060   3.255   6.092   5.432
 1054SOL    HW1 4061   3.319   6.037   5.486
 1054SOL    HW2 4062   3.161   6.068   5.459
 1055SOL     OW 4063   3.175   4.896   4.763
 1055SOL    HW1 4064   3.166   4.831   4.687
 1055SOL    HW2 4065   3.203   4.847   4.845
 1056SOL     OW 4066   2.881   6.195   0.318
 1056SOL    HW1 4067   2.978   6.216   0.324
 1056SOL    HW2 4068   2.863   6.146   0.233
 1057SOL     OW 4069   3.674   3.987   1.303
 1057SOL    HW1 4070   3.701   3.891   1.303
 1057SOL    HW2 4071   3.685   4.025   1.211
 1058SOL     OW 4072   2.428   0.621   2.287
 1058SOL    HW1 4073   2.407   0.533   2.330
 1058SOL    HW2 4074   2.437   0.691   2.358
 1059SOL     OW 4075   3.871   0.460   0.267
 1059SOL    HW1 4076   3.939   0.532   0.279
 1059SOL    HW2 4077   3.863   0.407   0.352
 1060SOL     OW 4078   3.642   1.701   4.290
 1060SOL    HW1 4079   3.564   1.722   4.230
 1060SOL    HW2 4080   3.630   1.609   4.327
 1061SOL     OW 4081   2.739   5.272   1.250
 1061SOL    HW1 4082   2.646   5.238   1.232
 1061SOL    HW2 4083   2.739   5.325   1.335
 1062SOL     OW 4084   5.845   4.255   5.256
 1062SOL    HW1 4085   5.866   4.202   5.173
 1062SOL    HW2 4086   5.809   4.344   5.230
 1063SOL     OW 4087   4.324   1.999   6.042
 1063SOL    HW1 4088   4.225   1.989   6.051
 1063SOL    HW2 4089   4.366   1.991   6.132
 1064SOL     OW 4090   0.645   3.038   2.337
 1064SOL    HW1 4091   0.548   3.031   2.314
 1064SOL    HW2 4092   0.693   2.956   2.304
 1065SOL     OW 4093   3.934   5.854   0.337
 1065SOL    HW1 4094   3.957   5.940   0.383
 1065SOL    HW2 4095   4.012   5.824   0.282
 1066SOL     OW 4096   5.381   6.352   3.327
 1066SOL    HW1 4097   5.296   6.392   3.293
 1066SOL    HW2 4098   5.371   6.332   3.425
 1067SOL     OW 4099   3.421   4.489   0.894
 1067SOL    HW1 4100   3.447   4.566   0.836
 1067SOL    HW2 4101   3.322   4.473   0.886
 1068SOL     OW 4102   1.186   5.036   2.196
 1068SOL    HW1 4103   1.197   4.945   2.237
 1068SOL    HW2 4104   1.168   5.027   2.098
 1069SOL     OW 4105   4.034   3.608   2.882
 1069SOL    HW1 4106   4.022   3.703   2.908
 1069SOL    HW2 4107   3.967   3.583   2.812
 1070SOL     OW 4108   1.223   6.197   0.075
 1070SOL    HW1 4109   1.322   6.191   0.071
 1070SOL    HW2 4110   1.191   6.178   0.168
 1071SOL     OW 4111   4.461   5.174   3.884
 1071SOL    HW1 4112   4.384   5.134   3.834
 1071SOL    HW2 4113   4.519   5.101   3.920
 1072SOL     OW 4114   4.184   5.025   3.477
 1072SOL    HW1 4115   4.130   5.109   3.464
 1072SOL    HW2 4116   4.251   5.017   3.404
 1073SOL     OW 4117   2.835   5.660   4.030
 1073SOL    HW1 4118   2.849   5.619   3.940
 1073SOL    HW2 4119   2.919   5.707   4.059
 1074SOL     OW 4120   2.592   5.203   4.064
 1074SOL    HW1 4121   2.495   5.226   4.053
 1074SOL    HW2 4122   2.601   5.126   4.127
 1075SOL     OW 4123   1.054   4.325   3.027
 1075SOL    HW1 4124   1.098   4.395   3.084
 1075SOL    HW2 4125   1.106   4.240   3.033
 1076SOL     OW 4126   4.841   3.935   3.659
 1076SOL    HW1 4127   4.898   3.998   3.606
 1076SOL    HW2 4128   4.745   3.959   3.646
 1077SOL     OW 4129   3.933   0.624   2.185
 1077SOL    HW1 4130   3.870   0.579   2.248
 1077SOL    HW2 4131   3.973   0.704   2.229
 1078SOL     OW 4132   6.334   2.368   1.881
 1078SOL    HW1 4133   6.380   2.457   1.887
 1078SOL    HW2 4134   6.283   2.352   1.965
 1079SOL     OW 4135   1.700   5.148   3.146
 1079SOL    HW1 4136   1.724   5.056   3.116
 1079SOL    HW2 4137   1.739   5.165   3.237
 1080SOL     OW 4138   2.203   5.317   4.329
 1080SOL    HW1 4139   2.224   5.384   4.258
 1080SOL    HW2 4140   2.287   5.271   4.357
 1081SOL     OW 4141   1.361   0.682   0.661
 1081SOL    HW1 4142   1.301   0.739   0.717
 1081SOL    HW2 4143   1.312   0.600   0.633
 1082SOL     OW 4144   2.234   0.887   1.277
 1082SOL    HW1 4145   2.269   0.797   1.300
 1082SOL    HW2 4146   2.282   0.956   1.332
 1083SOL     OW 4147   3.531   4.132   2.080
 1083SOL    HW1 4148   3.513   4.137   1.982
 1083SOL    HW2 4149   3.556   4.222   2.114
 1084SOL     OW 4150   5.756   4.219   1.597
 1084SOL    HW1 4151   5.674   4.276   1.592
 1084SOL    HW2 4152   5.750   4.158   1.676
 1085SOL     OW 4153   1.519   6.296   3.596
 1085SOL    HW1 4154   1.516   6.277   3.498
 1085SOL    HW2 4155   1.585   6.235   3.640
 1086SOL     OW 4156   2.893   6.406   2.645
 1086SOL    HW1 4157   2.874   6.314   2.609
 1086SOL    HW2 4158   2.921   6.399   2.741
 1087SOL     OW 4159   3.645   3.179   5.502
 1087SOL    HW1 4160   3.653   3.116   5.425
 1087SOL    HW2 4161   3.549   3.191   5.527
 1088SOL     OW 4162   6.652   5.293   2.278
 1088SOL    HW1 4163   6.737   5.245   2.259
 1088SOL    HW2 4164   6.602   5.308   2.193
 1089SOL     OW 4165   0.143   0.594   3.545
 1089SOL    HW1 4166   0.121   0.513   3.599
 1089SOL    HW2 4167   0.067   0.659   3.551
 1090SOL     OW 4168   3.277   1.978   6.843
 1090SOL    HW1 4169   3.217   2.045   6.799
 1090SOL    HW2 4170   3.245   1.959   6.936
 1091SOL     OW 4171   1.448   2.042   6.002
 1091SOL    HW1 4172   1.461   1.996   5.914
 1091SOL    HW2 4173   1.536   2.073   6.037
 1092SOL     OW 4174   2.822   4.784   0.789
 1092SOL    HW1 4175   2.802   4.729   0.708
 1092SOL    HW2 4176   2.919   4.807   0.790
 1093SOL     OW 4177   6.815   1.670   1.559
 1093SOL    HW1 4178   6.815   1.606   1.482
 1093SOL    HW2 4179   6.721   1.685   1.590
 1094SOL     OW 4180   0.561   6.138   2.833
 1094SOL    HW1 4181   0.520   6.086   2.907
 1094SOL    HW2 4182   0.574   6.233   2.862
 1095SOL     OW 4183   1.776   2.941   5.012
 1095SOL    HW1 4184   1.716   2.888   4.953
 1095SOL    HW2 4185   1.821   2.880   5.077
 1096SOL     OW 4186   3.565   2.830   2.404
 1096SOL    HW1 4187   3.618   2.753   2.368
 1096SOL    HW2 4188   3.609   2.915   2.378
 1097SOL     OW 4189   3.148   5.059   5.889
 1097SOL    HW1 4190   3.248   5.064   5.890
 1097SOL    HW2 4191   3.112   5.095   5.974
 1098SOL     OW 4192   2.649   0.299   2.493
 1098SOL    HW1 4193   2.737   0.268   2.532
 1098SOL    HW2 4194   2.663   0.382   2.440
 1099SOL     OW 4195   3.285   0.579   2.120
 1099SOL    HW1 4196   3.236   0.527   2.050
 1099SOL    HW2 4197   3.247   0.559   2.210
 1100SOL     OW 4198   0.125   0.624   0.178
 1100SOL    HW1 4199   0.153   0.530   0.162
 1100SOL    HW2 4200   0.189   0.667   0.243
 1101SOL     OW 4201   5.763   4.451   0.760
 1101SOL    HW1 4202   5.722   4.370   0.802
 1101SOL    HW2 4203   5.858   4.431   0.735
 1102SOL     OW 4204   6.915   4.527   4.268
 1102SOL    HW1 4205   7.011   4.500   4.260
 1102SOL    HW2 4206   6.860   4.449   4.297
 1103SOL     OW 4207   0.962   2.849   6.396
 1103SOL    HW1 4208   0.917   2.926   6.441
 1103SOL    HW2 4209   0.905   2.767   6.405
 1104SOL     OW 4210   3.036   5.096   5.651
 1104SOL    HW1 4211   3.067   5.071   5.743
 1104SOL    HW2 4212   3.108   5.145   5.603
 1105SOL     OW 4213   3.880   5.812   0.868
 1105SOL    HW1 4214   3.839   5.820   0.959
 1105SOL    HW2 4215   3.808   5.820   0.798
 1106SOL     OW 4216   1.244   2.540   6.497
 1106SOL    HW1 4217   1.173   2.470   6.491
 1106SOL    HW2 4218   1.236   2.603   6.419
 1107SOL     OW 4219   6.761   6.705   1.514
 1107SOL    HW1 4220   6.756   6.605   1.519
 1107SOL    HW2 4221   6.834   6.738   1.574
 1108SOL     OW 4222   1.284   1.075   6.768
 1108SOL    HW1 4223   1.186   1.062   6.782
 1108SOL    HW2 4224   1.307   1.171   6.781
 1109SOL     OW 4225   3.927   1.396   3.367
 1109SOL    HW1 4226   4.022   1.399   3.398
 1109SOL    HW2 4227   3.889   1.489   3.366
 1110SOL     OW 4228   3.830   3.559   3.171
 1110SOL    HW1 4229   3.795   3.648   3.143
 1110SOL    HW2 4230   3.811   3.544   3.268
 1111SOL     OW 4231   3.969   0.309   6.605
 1111SOL    HW1 4232   3.920   0.222   6.600
 1111SOL    HW2 4233   3.933   0.371   6.536
 1112SOL     OW 4234   0.467   1.403   2.856
 1112SOL    HW1 4235   0.405   1.412   2.778
 1112SOL    HW2 4236   0.559   1.381   2.823
 1113SOL     OW 4237   0.755   5.103   2.038
 1113SOL    HW1 4238   0.794   5.046   2.110
 1113SOL    HW2 4239   0.661   5.129   2.063
 1114SOL     OW 4240   5.683   0.848   5.515
 1114SOL    HW1 4241   5.779   0.865   5.493
 1114SOL    HW2 4242   5.670   0.753   5.542
 1115SOL     OW 4243   1.666   4.800   0.479
 1115SOL    HW1 4244   1.674   4.774   0.383
 1115SOL    HW2 4245   1.671   4.718   0.536
 1116SOL     OW 4246   3.032   6.900   6.044
 1116SOL    HW1 4247   3.129   6.889   6.021
 1116SOL    HW2 4248   3.022   6.898   6.144
 1117SOL     OW 4249   3.138   2.547   0.403
 1117SOL    HW1 4250   3.123   2.588   0.493
 1117SOL    HW2 4251   3.233   2.516   0.395
 1118SOL     OW 4252   2.016   2.064   1.271
 1118SOL    HW1 4253   1.991   2.104   1.358
 1118SOL    HW2 4254   1.963   1.980   1.256
 1119SOL     OW 4255   3.477   3.647   3.423
 1119SOL    HW1 4256   3.574   3.625   3.413
 1119SOL    HW2 4257   3.439   3.672   3.334
 1120SOL     OW 4258   3.162   1.278   3.238
 1120SOL    HW1 4259   3.072   1.248   3.205
 1120SOL    HW2 4260   3.150   1.341   3.315
 1121SOL     OW 4261   5.098   3.821   2.517
 1121SOL    HW1 4262   5.022   3.827   2.453
 1121SOL    HW2 4263   5.174   3.879   2.485
 1122SOL     OW 4264   4.858   4.806   6.854
 1122SOL    HW1 4265   4.892   4.730   6.909
 1122SOL    HW2 4266   4.911   4.889   6.875
 1123SOL     OW 4267   4.265   0.451   1.997
 1123SOL    HW1 4268   4.165   0.456   1.997
 1123SOL    HW2 4269   4.301   0.500   2.076
 1124SOL     OW 4270   2.603   5.167   3.364
 1124SOL    HW1 4271   2.617   5.177   3.462
 1124SOL    HW2 4272   2.672   5.221   3.314
 1125SOL     OW 4273   3.400   4.525   5.570
 1125SOL    HW1 4274   3.457   4.450   5.538
 1125SOL    HW2 4275   3.348   4.563   5.493
 1126SOL     OW 4276   6.173   0.436   2.071
 1126SOL    HW1 4277   6.182   0.470   2.164
 1126SOL    HW2 4278   6.093   0.478   2.028
 1127SOL     OW 4279   2.824   5.708   5.961
 1127SOL    HW1 4280   2.838   5.714   6.060
 1127SOL    HW2 4281   2.849   5.795   5.918
 1128SOL     OW 4282   2.647   1.291   5.515
 1128SOL    HW1 4283   2.564   1.241   5.540
 1128SOL    HW2 4284   2.660   1.286   5.416
 1129SOL     OW 4285   4.372   5.981   6.751
 1129SOL    HW1 4286   4.331   5.890   6.764
 1129SOL    HW2 4287   4.308   6.051   6.784
 1130SOL     OW 4288   1.288   4.705   5.550
 1130SOL    HW1 4289   1.302   4.610   5.579
 1130SOL    HW2 4290   1.263   4.761   5.630
 1131SOL     OW 4291   1.421   4.429   5.889
 1131SOL    HW1 4292   1.342   4.467   5.842
 1131SOL    HW2 4293   1.419   4.458   5.985
 1132SOL     OW 4294   5.249   6.800   4.575
 1132SOL    HW1 4295   5.173   6.751   4.533
 1132SOL    HW2 4296   5.333   6.747   4.564
 1133SOL     OW 4297   0.137   1.767   0.234
 1133SOL    HW1 4298   0.039   1.755   0.247
 1133SOL    HW2 4299   0.153   1.820   0.151
 1134SOL     OW 4300   0.023   3.825   6.049
 1134SOL    HW1 4301   0.065   3.737   6.072
 1134SOL    HW2 4302   0.072   3.866   5.972
 1135SOL     OW 4303   6.734   2.093   4.139
 1135SOL    HW1 4304   6.758   2.018   4.077
 1135SOL    HW2 4305   6.649   2.070   4.187
 1136SOL     OW 4306   4.180   5.704   3.805
 1136SOL    HW1 4307   4.227   5.781   3.761
 1136SOL    HW2 4308   4.084   5.703   3.777
 1137SOL     OW 4309   0.668   0.777   6.588
 1137SOL    HW1 4310   0.669   0.819   6.679
 1137SOL    HW2 4311   0.609   0.831   6.527
 1138SOL     OW 4312   0.786   2.242   5.676
 1138SOL    HW1 4313   0.836   2.326   5.699
 1138SOL    HW2 4314   0.818   2.168   5.734
 1139SOL     OW 4315   0.379   0.346   2.967
 1139SOL    HW1 4316   0.442   0.322   3.041
 1139SOL    HW2 4317   0.285   0.346   3.002
 1140SOL     OW 4318   4.173   1.873   3.259
 1140SOL    HW1 4319   4.219   1.906   3.177
 1140SOL    HW2 4320   4.080   1.910   3.261
 1141SOL     OW 4321   0.519   7.023   5.878
 1141SOL    HW1 4322   0.548   6.948   5.818
 1141SOL    HW2 4323   0.567   7.016   5.965
 1142SOL     OW 4324   5.518   6.685   5.795
 1142SOL    HW1 4325   5.428   6.653   5.769
 1142SOL    HW2 4326   5.510   6.776   5.838
 1143SOL     OW 4327   5.543   2.597   1.226
 1143SOL    HW1 4328   5.468   2.565   1.169
 1143SOL    HW2 4329   5.595   2.519   1.260
 1144SOL     OW 4330   1.016   6.563   4.839
 1144SOL    HW1 4331   1.107   6.552   4.800
 1144SOL    HW2 4332   0.948   6.563   4.766
 1145SOL     OW 4333   3.109   5.059   5.099
 1145SOL    HW1 4334   3.142   5.132   5.158
 1145SOL    HW2 4335   3.164   4.976   5.113
 1146SOL     OW 4336   5.771   2.318   2.210
 1146SOL    HW1 4337   5.690   2.376   2.214
 1146SOL    HW2 4338   5.744   2.222   2.202
 1147SOL     OW 4339   6.616   3.897   2.858
 1147SOL    HW1 4340   6.686   3.846   2.908
 1147SOL    HW2 4341   6.647   3.990   2.842
 1148SOL     OW 4342   6.036   6.555   5.978
 1148SOL    HW1 4343   6.026   6.497   5.897
 1148SOL    HW2 4344   6.122   6.533   6.025
 1149SOL     OW 4345   5.006   3.401   2.594
 1149SOL    HW1 4346   5.095   3.439   2.569
 1149SOL    HW2 4347   4.947   3.400   2.513
 1150SOL     OW 4348   3.001   5.641   5.209
 1150SOL    HW1 4349   2.934   5.662   5.138
 1150SOL    HW2 4350   2.954   5.618   5.294
 1151SOL     OW 4351   1.715   5.769   0.571
 1151SOL    HW1 4352   1.701   5.815   0.659
 1151SOL    HW2 4353   1.764   5.683   0.585
 1152SOL     OW 4354   6.424   1.102   3.523
 1152SOL    HW1 4355   6.504   1.158   3.541
 1152SOL    HW2 4356   6.452   1.016   3.480
 1153SOL     OW 4357   0.966   4.579   2.170
 1153SOL    HW1 4358   1.024   4.637   2.113
 1153SOL    HW2 4359   1.023   4.514   2.221
 1154SOL     OW 4360   1.492   3.364   2.123
 1154SOL    HW1 4361   1.520   3.347   2.029
 1154SOL    HW2 4362   1.523   3.455   2.151
 1155SOL     OW 4363   5.097   0.866   2.083
 1155SOL    HW1 4364   5.095   0.931   2.159
 1155SOL    HW2 4365   5.014   0.811   2.084
 1156SOL     OW 4366   3.031   1.486   4.067
 1156SOL    HW1 4367   2.999   1.530   4.151
 1156SOL    HW2 4368   3.108   1.538   4.030
 1157SOL     OW 4369   1.991   3.624   3.351
 1157SOL    HW1 4370   2.060   3.642   3.420
 1157SOL    HW2 4371   1.943   3.710   3.329
 1158SOL     OW 4372   4.792   5.542   5.194
 1158SOL    HW1 4373   4.739   5.622   5.164
 1158SOL    HW2 4374   4.729   5.471   5.225
 1159SOL     OW 4375   6.383   4.198   3.243
 1159SOL    HW1 4376   6.377   4.135   3.165
 1159SOL    HW2 4377   6.424   4.150   3.320
 1160SOL     OW 4378   3.245   2.188   1.430
 1160SOL    HW1 4379   3.186   2.183   1.510
 1160SOL    HW2 4380   3.325   2.245   1.451
 1161SOL     OW 4381   4.213   1.214   2.607
 1161SOL    HW1 4382   4.265   1.244   2.687
 1161SOL    HW2 4383   4.237   1.119   2.586
 1162SOL     OW 4384   3.599   4.632   1.387
 1162SOL    HW1 4385   3.634   4.616   1.294
 1162SOL    HW2 4386   3.518   4.691   1.383
 1163SOL     OW 4387   4.557   6.659   3.585
 1163SOL    HW1 4388   4.655   6.666   3.603
 1163SOL    HW2 4389   4.507   6.719   3.648
 1164SOL     OW 4390   6.790   4.014   4.739
 1164SOL    HW1 4391   6.713   4.077   4.738
 1164SOL    HW2 4392   6.845   4.028   4.657
 1165SOL     OW 4393   0.122   5.140   2.568
 1165SOL    HW1 4394   0.172   5.178   2.490
 1165SOL    HW2 4395   0.183   5.135   2.647
 1166SOL     OW 4396   3.264   1.380   5.500
 1166SOL    HW1 4397   3.235   1.310   5.566
 1166SOL    HW2 4398   3.241   1.470   5.536
 1167SOL     OW 4399   4.598   1.445   5.688
 1167SOL    HW1 4400   4.688   1.403   5.684
 1167SOL    HW2 4401   4.571   1.474   5.596
 1168SOL     OW 4402   5.779   1.441   4.109
 1168SOL    HW1 4403   5.696   1.394   4.137
 1168SOL    HW2 4404   5.765   1.540   4.116
 1169SOL     OW 4405   2.145   2.508   0.884
 1169SOL    HW1 4406   2.089   2.425   0.891
 1169SOL    HW2 4407   2.197   2.506   0.799
 1170SOL     OW 4408   2.675   1.209   1.681
 1170SOL    HW1 4409   2.721   1.231   1.767
 1170SOL    HW2 4410   2.737   1.228   1.605
 1171SOL     OW 4411   4.965   0.643   0.822
 1171SOL    HW1 4412   4.923   0.626   0.911
 1171SOL    HW2 4413   4.906   0.609   0.749
 1172SOL     OW 4414   3.587   3.546   5.719
 1172SOL    HW1 4415   3.646   3.500   5.786
 1172SOL    HW2 4416   3.538   3.621   5.764
 1173SOL     OW 4417   5.287   5.723   0.559
 1173SOL    HW1 4418   5.250   5.755   0.646
 1173SOL    HW2 4419   5.310   5.802   0.502
 1174SOL     OW 4420   3.996   6.513   6.194
 1174SOL    HW1 4421   3.970   6.461   6.112
 1174SOL    HW2 4422   3.995   6.452   6.273
 1175SOL     OW 4423   6.959   5.477   5.231
 1175SOL    HW1 4424   6.867   5.463   5.196
 1175SOL    HW2 4425   7.025   5.437   5.167
 1176SOL     OW 4426   6.393   3.009   1.408
 1176SOL    HW1 4427   6.309   2.970   1.372
 1176SOL    HW2 4428   6.452   2.936   1.442
 1177SOL     OW 4429   0.006   3.205   5.090
 1177SOL    HW1 4430   6.933   3.196   5.095
 1177SOL    HW2 4431   0.034   3.293   5.129
 1178SOL     OW 4432   4.670   4.664   2.180
 1178SOL    HW1 4433   4.666   4.661   2.080
 1178SOL    HW2 4434   4.764   4.642   2.209
 1179SOL     OW 4435   1.662   5.362   6.261
 1179SOL    HW1 4436   1.626   5.384   6.170
 1179SOL    HW2 4437   1.622   5.277   6.293
 1180SOL     OW 4438   2.152   1.444   4.067
 1180SOL    HW1 4439   2.193   1.384   3.998
 1180SOL    HW2 4440   2.216   1.518   4.088
 1181SOL     OW 4441   0.980   4.175   1.850
 1181SOL    HW1 4442   1.068   4.144   1.814
 1181SOL    HW2 4443   0.982   4.274   1.863
 1182SOL     OW 4444   6.768   4.005   3.866
 1182SOL    HW1 4445   6.689   4.057   3.900
 1182SOL    HW2 4446   6.839   4.003   3.937
 1183SOL     OW 4447   4.063   6.045   0.457
 1183SOL    HW1 4448   4.158   6.013   0.453
 1183SOL    HW2 4449   4.061   6.142   0.480
 1184SOL     OW 4450   4.262   3.297   6.634
 1184SOL    HW1 4451   4.305   3.206   6.637
 1184SOL    HW2 4452   4.166   3.289   6.658
 1185SOL     OW 4453   3.578   1.170   6.474
 1185SOL    HW1 4454   3.639   1.163   6.553
 1185SOL    HW2 4455   3.631   1.186   6.391
 1186SOL     OW 4456   4.003   6.378   5.187
 1186SOL    HW1 4457   3.959   6.311   5.247
 1186SOL    HW2 4458   3.959   6.376   5.097
 1187SOL     OW 4459   0.479   2.592   4.597
 1187SOL    HW1 4460   0.467   2.537   4.680
 1187SOL    HW2 4461   0.543   2.667   4.616
 1188SOL     OW 4462   2.374   1.088   5.168
 1188SOL    HW1 4463   2.472   1.101   5.154
 1188SOL    HW2 4464   2.346   1.001   5.127
 1189SOL     OW 4465   1.392   1.013   1.376
 1189SOL    HW1 4466   1.389   1.111   1.357
 1189SOL    HW2 4467   1.326   0.991   1.447
 1190SOL     OW 4468   2.672   6.421   1.276
 1190SOL    HW1 4469   2.689   6.442   1.373
 1190SOL    HW2 4470   2.760   6.411   1.229
 1191SOL     OW 4471   1.746   4.030   1.844
 1191SOL    HW1 4472   1.652   4.054   1.868
 1191SOL    HW2 4473   1.808   4.099   1.880
 1192SOL     OW 4474   3.768   5.898   2.439
 1192SOL    HW1 4475   3.838   5.836   2.474
 1192SOL    HW2 4476   3.801   5.992   2.447
 1193SOL     OW 4477   3.798   2.164   3.798
 1193SOL    HW1 4478   3.752   2.111   3.870
 1193SOL    HW2 4479   3.750   2.151   3.711
 1194SOL     OW 4480   6.567   2.736   2.255
 1194SOL    HW1 4481   6.564   2.827   2.297
 1194SOL    HW2 4482   6.508   2.734   2.174
 1195SOL     OW 4483   4.617   0.643   6.476
 1195SOL    HW1 4484   4.544   0.710   6.460
 1195SOL    HW2 4485   4.702   0.692   6.499
 1196SOL     OW 4486   1.479   5.863   3.613
 1196SOL    HW1 4487   1.456   5.770   3.641
 1196SOL    HW2 4488   1.398   5.908   3.575
 1197SOL     OW 4489   3.789   5.040   0.121
 1197SOL    HW1 4490   3.858   4.968   0.130
 1197SOL    HW2 4491   3.814   5.100   0.044
 1198SOL     OW 4492   3.181   1.627   3.501
 1198SOL    HW1 4493   3.228   1.592   3.582
 1198SOL    HW2 4494   3.151   1.721   3.518
 1199SOL     OW 4495   3.370   4.138   3.819
 1199SOL    HW1 4496   3.301   4.089   3.766
 1199SOL    HW2 4497   3.461   4.121   3.779
 1200SOL     OW 4498   4.727   4.131   1.089
 1200SOL    HW1 4499   4.643   4.091   1.124
 1200SOL    HW2 4500   4.780   4.061   1.041
 1201SOL     OW 4501   1.977   1.463   5.303
 1201SOL    HW1 4502   1.902   1.413   5.260
 1201SOL    HW2 4503   2.023   1.404   5.370
 1202SOL     OW 4504   5.585   6.281   4.280
 1202SOL    HW1 4505   5.523   6.215   4.236
 1202SOL    HW2 4506   5.659   6.231   4.325
 1203SOL     OW 4507   4.913   0.423   1.577
 1203SOL    HW1 4508   4.907   0.518   1.610
 1203SOL    HW2 4509   4.960   0.367   1.646
 1204SOL     OW 4510   2.973   0.559   0.301
 1204SOL    HW1 4511   2.896   0.503   0.273
 1204SOL    HW2 4512   2.950   0.656   0.289
 1205SOL     OW 4513   1.213   2.748   6.288
 1205SOL    HW1 4514   1.118   2.775   6.296
 1205SOL    HW2 4515   1.272   2.829   6.294
 1206SOL     OW 4516   6.254   2.044   5.699
 1206SOL    HW1 4517   6.339   2.023   5.748
 1206SOL    HW2 4518   6.269   2.035   5.601
 1207SOL     OW 4519   6.055   6.094   5.731
 1207SOL    HW1 4520   6.045   5.994   5.732
 1207SOL    HW2 4521   6.145   6.118   5.694
 1208SOL     OW 4522   3.857   3.970   3.490
 1208SOL    HW1 4523   3.813   3.990   3.577
 1208SOL    HW2 4524   3.822   4.033   3.420
 1209SOL     OW 4525   0.427   3.573   4.575
 1209SOL    HW1 4526   0.361   3.642   4.545
 1209SOL    HW2 4527   0.488   3.613   4.643
 1210SOL     OW 4528   2.529   0.166   4.344
 1210SOL    HW1 4529   2.489   0.254   4.317
 1210SOL    HW2 4530   2.606   0.182   4.406
 1211SOL     OW 4531   6.894   3.876   3.378
 1211SOL    HW1 4532   6.876   3.959   3.325
 1211SOL    HW2 4533   6.834   3.873   3.458
 1212SOL     OW 4534   1.080   3.677   2.647
 1212SOL    HW1 4535   1.159   3.700   2.704
 1212SOL    HW2 4536   1.110   3.643   2.558
 1213SOL     OW 4537   6.695   3.792   5.024
 1213SOL    HW1 4538   6.729   3.823   5.113
 1213SOL    HW2 4539   6.633   3.861   4.986
 1214SOL     OW 4540   0.721   2.103   0.657
 1214SOL    HW1 4541   0.791   2.132   0.593
 1214SOL    HW2 4542   0.758   2.034   0.719
 1215SOL     OW 4543   1.187   0.255   1.842
 1215SOL    HW1 4544   1.099   0.212   1.861
 1215SOL    HW2 4545   1.248   0.190   1.798
 1216SOL     OW 4546   1.782   6.867   0.768
 1216SOL    HW1 4547   1.729   6.943   0.805
 1216SOL    HW2 4548   1.794   6.879   0.670
 1217SOL     OW 4549   1.151   2.614   3.350
 1217SOL    HW1 4550   1.163   2.702   3.303
 1217SOL    HW2 4551   1.056   2.582   3.338
 1218SOL     OW 4552   6.810   4.630   3.911
 1218SOL    HW1 4553   6.845   4.662   3.999
 1218SOL    HW2 4554   6.732   4.569   3.925
 1219SOL     OW 4555   1.608   5.678   3.086
 1219SOL    HW1 4556   1.704   5.703   3.072
 1219SOL    HW2 4557   1.596   5.581   3.068
 1220SOL     OW 4558   6.076   4.850   3.072
 1220SOL    HW1 4559   5.980   4.856   3.044
 1220SOL    HW2 4560   6.127   4.927   3.033
 1221SOL     OW 4561   4.756   5.177   0.380
 1221SOL    HW1 4562   4.779   5.210   0.471
 1221SOL    HW2 4563   4.838   5.145   0.334
 1222SOL     OW 4564   0.006   4.779   1.044
 1222SOL    HW1 4565   0.050   4.724   1.116
 1222SOL    HW2 4566   6.940   4.806   1.074
 1223SOL     OW 4567   1.178   4.062   5.301
 1223SOL    HW1 4568   1.187   4.137   5.235
 1223SOL    HW2 4569   1.122   4.092   5.378
 1224SOL     OW 4570   4.173   5.118   2.041
 1224SOL    HW1 4571   4.144   5.109   1.946
 1224SOL    HW2 4572   4.096   5.102   2.101
 1225SOL     OW 4573   5.251   1.962   6.393
 1225SOL    HW1 4574   5.270   1.885   6.454
 1225SOL    HW2 4575   5.155   1.961   6.366
 1226SOL     OW 4576   5.948   5.310   1.324
 1226SOL    HW1 4577   5.889   5.328   1.245
 1226SOL    HW2 4578   5.892   5.288   1.403
 1227SOL     OW 4579   6.308   4.434   0.501
 1227SOL    HW1 4580   6.244   4.491   0.450
 1227SOL    HW2 4581   6.399   4.474   0.496
 1228SOL     OW 4582   4.232   3.831   5.287
 1228SOL    HW1 4583   4.158   3.817   5.222
 1228SOL    HW2 4584   4.209   3.788   5.375
 1229SOL     OW 4585   1.501   5.593   1.870
 1229SOL    HW1 4586   1.466   5.500   1.887
 1229SOL    HW2 4587   1.552   5.624   1.950
 1230SOL     OW 4588   5.690   4.473   0.410
 1230SOL    HW1 4589   5.660   4.525   0.331
 1230SOL    HW2 4590   5.658   4.379   0.403
 1231SOL     OW 4591   2.197   0.727   0.941
 1231SOL    HW1 4592   2.197   0.680   1.029
 1231SOL    HW2 4593   2.216   0.825   0.955
 1232SOL     OW 4594   2.086   1.953   5.830
 1232SOL    HW1 4595   2.177   1.978   5.796
 1232SOL    HW2 4596   2.057   1.867   5.788
 1233SOL     OW 4597   0.084   5.337   5.048
 1233SOL    HW1 4598   0.158   5.268   5.045
 1233SOL    HW2 4599   0.025   5.326   4.968
 1234SOL     OW 4600   0.006   4.576   5.102
 1234SOL    HW1 4601   6.977   4.623   5.172
 1234SOL    HW2 4602   0.025   4.483   5.133
 1235SOL     OW 4603   6.515   4.918   0.114
 1235SOL    HW1 4604   6.437   4.923   0.051
 1235SOL    HW2 4605   6.587   4.980   0.083
 1236SOL     OW 4606   0.087   1.218   3.014
 1236SOL    HW1 4607   0.123   1.278   3.086
 1236SOL    HW2 4608   0.013   1.162   3.052
 1237SOL     OW 4609   0.639   0.425   5.615
 1237SOL    HW1 4610   0.646   0.518   5.651
 1237SOL    HW2 4611   0.603   0.365   5.686
 1238SOL     OW 4612   0.386   0.633   4.286
 1238SOL    HW1 4613   0.427   0.542   4.288
 1238SOL    HW2 4614   0.421   0.687   4.363
 1239SOL     OW 4615   4.415   5.206   3.289
 1239SOL    HW1 4616   4.360   5.126   3.263
 1239SOL    HW2 4617   4.511   5.178   3.299
 1240SOL     OW 4618   1.068   3.987   2.219
 1240SOL    HW1 4619   1.128   4.060   2.185
 1240SOL    HW2 4620   1.013   3.951   2.144
 1241SOL     OW 4621   3.247   5.825   6.223
 1241SOL    HW1 4622   3.179   5.836   6.295
 1241SOL    HW2 4623   3.202   5.796   6.138
 1242SOL     OW 4624   2.237   5.895   0.570
 1242SOL    HW1 4625   2.145   5.931   0.590
 1242SOL    HW2 4626   2.231   5.798   0.547
 1243SOL     OW 4627   0.963   4.662   4.418
 1243SOL    HW1 4628   1.007   4.595   4.477
 1243SOL    HW2 4629   0.999   4.753   4.438
 1244SOL     OW 4630   5.936   6.278   4.830
 1244SOL    HW1 4631   6.014   6.224   4.863
 1244SOL    HW2 4632   5.945   6.372   4.863
 1245SOL     OW 4633   3.826   6.717   1.489
 1245SOL    HW1 4634   3.796   6.662   1.411
 1245SOL    HW2 4635   3.858   6.806   1.457
 1246SOL     OW 4636   4.940   1.958   2.849
 1246SOL    HW1 4637   4.984   2.030   2.903
 1246SOL    HW2 4638   5.007   1.888   2.826
 1247SOL     OW 4639   4.549   6.215   2.905
 1247SOL    HW1 4640   4.537   6.158   2.986
 1247SOL    HW2 4641   4.647   6.232   2.890
 1248SOL     OW 4642   0.368   0.802   5.141
 1248SOL    HW1 4643   0.325   0.850   5.065
 1248SOL    HW2 4644   0.343   0.706   5.139
 1249SOL     OW 4645   6.263   6.998   0.281
 1249SOL    HW1 4646   6.180   0.024   0.301
 1249SOL    HW2 4647   6.243   6.930   0.210
 1250SOL     OW 4648   0.703   4.534   5.107
 1250SOL    HW1 4649   0.632   4.573   5.165
 1250SOL    HW2 4650   0.703   4.435   5.117
 1251SOL     OW 4651   1.912   0.228   3.372
 1251SOL    HW1 4652   1.830   0.172   3.383
 1251SOL    HW2 4653   1.993   0.171   3.387
 1252SOL     OW 4654   3.300   4.835   6.643
 1252SOL    HW1 4655   3.396   4.854   6.666
 1252SOL    HW2 4656   3.265   4.764   6.703
 1253SOL     OW 4657   3.019   5.511   0.544
 1253SOL    HW1 4658   2.969   5.486   0.627
 1253SOL    HW2 4659   2.954   5.531   0.471
 1254SOL     OW 4660   6.503   1.067   4.075
 1254SOL    HW1 4661   6.439   1.126   4.123
 1254SOL    HW2 4662   6.597   1.090   4.101
 1255SOL     OW 4663   5.684   2.055   6.563
 1255SOL    HW1 4664   5.696   1.974   6.506
 1255SOL    HW2 4665   5.605   2.107   6.533
 1256SOL     OW 4666   6.725   6.254   6.208
 1256SOL    HW1 4667   6.743   6.158   6.189
 1256SOL    HW2 4668   6.785   6.311   6.152
 1257SOL     OW 4669   6.797   6.563   1.989
 1257SOL    HW1 4670   6.769   6.475   2.028
 1257SOL    HW2 4671   6.830   6.550   1.896
 1258SOL     OW 4672   5.138   5.265   6.403
 1258SOL    HW1 4673   5.088   5.206   6.467
 1258SOL    HW2 4674   5.232   5.231   6.393
 1259SOL     OW 4675   5.852   6.852   4.617
 1259SOL    HW1 4676   5.891   6.760   4.619
 1259SOL    HW2 4677   5.772   6.856   4.676
 1260SOL     OW 4678   3.204   0.340   0.823
 1260SOL    HW1 4679   3.126   0.278   0.816
 1260SOL    HW2 4680   3.289   0.286   0.824
 1261SOL     OW 4681   1.135   3.582   5.152
 1261SOL    HW1 4682   1.041   3.598   5.184
 1261SOL    HW2 4683   1.196   3.574   5.230
 1262SOL     OW 4684   4.845   6.634   0.209
 1262SOL    HW1 4685   4.891   6.587   0.133
 1262SOL    HW2 4686   4.747   6.633   0.194
 1263SOL     OW 4687   0.067   1.177   1.089
 1263SOL    HW1 4688   0.097   1.110   1.020
 1263SOL    HW2 4689   7.009   1.221   1.058
 1264SOL     OW 4690   5.979   2.605   4.188
 1264SOL    HW1 4691   6.037   2.605   4.269
 1264SOL    HW2 4692   5.984   2.516   4.143
 1265SOL     OW 4693   6.095   6.006   3.724
 1265SOL    HW1 4694   6.059   6.003   3.817
 1265SOL    HW2 4695   6.036   6.065   3.667
 1266SOL     OW 4696   2.425   0.963   4.528
 1266SOL    HW1 4697   2.328   0.938   4.524
 1266SOL    HW2 4698   2.437   1.057   4.493
 1267SOL     OW 4699   6.932   4.516   1.957
 1267SOL    HW1 4700   7.021   4.518   1.911
 1267SOL    HW2 4701   6.893   4.425   1.950
 1268SOL     OW 4702   6.247   4.804   6.301
 1268SOL    HW1 4703   6.345   4.810   6.285
 1268SOL    HW2 4704   6.230   4.745   6.381
 1269SOL     OW 4705   1.059   3.814   5.645
 1269SOL    HW1 4706   0.969   3.841   5.610
 1269SOL    HW2 4707   1.124   3.888   5.631
 1270SOL     OW 4708   1.281   2.582   3.770
 1270SOL    HW1 4709   1.343   2.555   3.844
 1270SOL    HW2 4710   1.210   2.513   3.760
 1271SOL     OW 4711   5.041   4.648   2.815
 1271SOL    HW1 4712   5.131   4.690   2.825
 1271SOL    HW2 4713   5.044   4.555   2.851
 1272SOL     OW 4714   5.774   0.274   1.056
 1272SOL    HW1 4715   5.681   0.306   1.042
 1272SOL    HW2 4716   5.774   0.174   1.069
 1273SOL     OW 4717   2.412   6.148   4.295
 1273SOL    HW1 4718   2.454   6.063   4.262
 1273SOL    HW2 4719   2.366   6.194   4.219
 1274SOL     OW 4720   5.789   2.451   1.636
 1274SOL    HW1 4721   5.741   2.365   1.622
 1274SOL    HW2 4722   5.839   2.449   1.723
 1275SOL     OW 4723   3.450   1.419   3.381
 1275SOL    HW1 4724   3.451   1.478   3.300
 1275SOL    HW2 4725   3.474   1.326   3.356
 1276SOL     OW 4726   5.173   6.553   3.258
 1276SOL    HW1 4727   5.158   6.529   3.163
 1276SOL    HW2 4728   5.089   6.537   3.311
 1277SOL     OW 4729   0.498   1.997   5.180
 1277SOL    HW1 4730   0.436   1.919   5.170
 1277SOL    HW2 4731   0.566   1.977   5.250
 1278SOL     OW 4732   2.538   1.682   4.554
 1278SOL    HW1 4733   2.549   1.779   4.576
 1278SOL    HW2 4734   2.508   1.633   4.636
 1279SOL     OW 4735   1.757   4.534   0.561
 1279SOL    HW1 4736   1.809   4.570   0.639
 1279SOL    HW2 4737   1.791   4.442   0.539
 1280SOL     OW 4738   0.700   6.642   2.976
 1280SOL    HW1 4739   0.687   6.722   2.918
 1280SOL    HW2 4740   0.796   6.637   3.005
 1281SOL     OW 4741   1.265   6.149   4.029
 1281SOL    HW1 4742   1.187   6.093   4.054
 1281SOL    HW2 4743   1.258   6.176   3.933
 1282SOL     OW 4744   1.718   6.875   2.401
 1282SOL    HW1 4745   1.814   6.848   2.402
 1282SOL    HW2 4746   1.689   6.898   2.494
 1283SOL     OW 4747   5.506   4.674   5.315
 1283SOL    HW1 4748   5.603   4.683   5.334
 1283SOL    HW2 4749   5.473   4.755   5.266
 1284SOL     OW 4750   2.604   2.449   2.778
 1284SOL    HW1 4751   2.676   2.441   2.847
 1284SOL    HW2 4752   2.642   2.429   2.687
 1285SOL     OW 4753   6.238   2.580   5.503
 1285SOL    HW1 4754   6.178   2.637   5.447
 1285SOL    HW2 4755   6.190   2.553   5.586
 1286SOL     OW 4756   5.089   5.467   1.031
 1286SOL    HW1 4757   5.106   5.429   1.122
 1286SOL    HW2 4758   5.046   5.398   0.974
 1287SOL     OW 4759   5.951   3.473   6.038
 1287SOL    HW1 4760   5.988   3.510   5.953
 1287SOL    HW2 4761   5.973   3.534   6.114
 1288SOL     OW 4762   6.834   3.055   3.111
 1288SOL    HW1 4763   6.845   3.130   3.046
 1288SOL    HW2 4764   6.820   3.091   3.203
 1289SOL     OW 4765   0.503   5.076   3.019
 1289SOL    HW1 4766   0.462   5.147   3.076
 1289SOL    HW2 4767   0.576   5.116   2.964
 1290SOL     OW 4768   0.006   0.224   2.113
 1290SOL    HW1 4769   0.042   0.273   2.193
 1290SOL    HW2 4770   6.950   0.270   2.080
 1291SOL     OW 4771   1.871   5.404   1.613
 1291SOL    HW1 4772   1.937   5.467   1.654
 1291SOL    HW2 4773   1.893   5.390   1.516
 1292SOL     OW 4774   1.530   0.005   0.211
 1292SOL    HW1 4775   1.569   6.949   0.167
 1292SOL    HW2 4776   1.449   0.034   0.160
 1293SOL     OW 4777   6.791   1.294   6.836
 1293SOL    HW1 4778   6.758   1.251   6.752
 1293SOL    HW2 4779   6.887   1.319   6.824
 1294SOL     OW 4780   0.524   1.732   4.129
 1294SOL    HW1 4781   0.487   1.645   4.097
 1294SOL    HW2 4782   0.584   1.715   4.208
 1295SOL     OW 4783   4.999   4.049   0.478
 1295SOL    HW1 4784   4.959   4.040   0.569
 1295SOL    HW2 4785   4.975   4.138   0.440
 1296SOL     OW 4786   3.700   0.760   0.468
 1296SOL    HW1 4787   3.603   0.754   0.491
 1296SOL    HW2 4788   3.755   0.742   0.549
 1297SOL     OW 4789   5.411   0.737   5.999
 1297SOL    HW1 4790   5.329   0.685   6.022
 1297SOL    HW2 4791   5.452   0.773   6.083
 1298SOL     OW 4792   6.045   2.708   2.848
 1298SOL    HW1 4793   6.067   2.613   2.870
 1298SOL    HW2 4794   5.949   2.714   2.821
 1299SOL     OW 4795   1.499   4.379   4.422
 1299SOL    HW1 4796   1.413   4.418   4.388
 1299SOL    HW2 4797   1.552   4.344   4.345
 1300SOL     OW 4798   3.630   3.391   3.040
 1300SOL    HW1 4799   3.586   3.318   2.988
 1300SOL    HW2 4800   3.635   3.473   2.983
 1301SOL     OW 4801   0.583   0.686   1.780
 1301SOL    HW1 4802   0.491   0.688   1.819
 1301SOL    HW2 4803   0.596   0.765   1.721
 1302SOL     OW 4804   2.863   5.383   5.757
 1302SOL    HW1 4805   2.811   5.453   5.806
 1302SOL    HW2 4806   2.805   5.343   5.686
 1303SOL     OW 4807   2.837   6.976   1.677
 1303SOL    HW1 4808   2.792   0.030   1.715
 1303SOL    HW2 4809   2.935   6.991   1.671
 1304SOL     OW 4810   3.590   0.822   5.513
 1304SOL    HW1 4811   3.538   0.757   5.569
 1304SOL    HW2 4812   3.674   0.847   5.561
 1305SOL     OW 4813   5.988   6.315   4.392
 1305SOL    HW1 4814   5.939   6.321   4.479
 1305SOL    HW2 4815   5.966   6.229   4.347
 1306SOL     OW 4816   1.313   5.435   3.720
 1306SOL    HW1 4817   1.360   5.523   3.727
 1306SOL    HW2 4818   1.257   5.434   3.637
 1307SOL     OW 4819   1.288   0.703   5.469
 1307SOL    HW1 4820   1.229   0.640   5.519
 1307SOL    HW2 4821   1.285   0.681   5.371
 1308SOL     OW 4822   4.244   6.569   3.736
 1308SOL    HW1 4823   4.238   6.489   3.797
 1308SOL    HW2 4824   4.313   6.632   3.771
 1309SOL     OW 4825   6.518   3.043   4.079
 1309SOL    HW1 4826   6.434   3.096   4.091
 1309SOL    HW2 4827   6.569   3.078   4.001
 1310SOL     OW 4828   5.048   3.977   5.987
 1310SOL    HW1 4829   5.142   3.998   6.013
 1310SOL    HW2 4830   5.031   3.879   6.000
 1311SOL     OW 4831   5.548   4.634   0.195
 1311SOL    HW1 4832   5.498   4.710   0.153
 1311SOL    HW2 4833   5.605   4.589   0.127
 1312SOL     OW 4834   6.303   1.543   2.168
 1312SOL    HW1 4835   6.342   1.620   2.119
 1312SOL    HW2 4836   6.354   1.527   2.252
 1313SOL     OW 4837   4.167   5.099   4.999
 1313SOL    HW1 4838   4.219   5.118   5.082
 1313SOL    HW2 4839   4.230   5.084   4.923
 1314SOL     OW 4840   0.032   1.415   6.415
 1314SOL    HW1 4841   0.037   1.316   6.425
 1314SOL    HW2 4842   0.125   1.452   6.405
 1315SOL     OW 4843   1.058   7.006   3.928
 1315SOL    HW1 4844   1.090   0.059   3.876
 1315SOL    HW2 4845   1.134   6.967   3.981
 1316SOL     OW 4846   3.373   5.751   4.125
 1316SOL    HW1 4847   3.427   5.668   4.144
 1316SOL    HW2 4848   3.336   5.787   4.210
 1317SOL     OW 4849   0.498   3.550   3.313
 1317SOL    HW1 4850   0.539   3.488   3.246
 1317SOL    HW2 4851   0.406   3.576   3.281
 1318SOL     OW 4852   0.741   6.809   2.528
 1318SOL    HW1 4853   0.643   6.789   2.527
 1318SOL    HW2 4854   0.791   6.735   2.483
 1319SOL     OW 4855   0.178   6.496   0.940
 1319SOL    HW1 4856   0.206   6.503   1.036
 1319SOL    HW2 4857   0.250   6.450   0.888
 1320SOL     OW 4858   6.339   4.771   5.338
 1320SOL    HW1 4859   6.384   4.684   5.320
 1320SOL    HW2 4860   6.336   4.826   5.254
 1321SOL     OW 4861   3.537   1.097   1.315
 1321SOL    HW1 4862   3.578   1.080   1.226
 1321SOL    HW2 4863   3.490   1.185   1.314
 1322SOL     OW 4864   5.216   1.020   6.172
 1322SOL    HW1 4865   5.303   0.975   6.153
 1322SOL    HW2 4866   5.194   1.012   6.269
 1323SOL     OW 4867   6.750   0.360   4.430
 1323SOL    HW1 4868   6.728   0.457   4.436
 1323SOL    HW2 4869   6.671   0.309   4.397
 1324SOL     OW 4870   1.535   2.357   0.689
 1324SOL    HW1 4871   1.560   2.264   0.663
 1324SOL    HW2 4872   1.556   2.420   0.613
 1325SOL     OW 4873   4.664   5.362   3.516
 1325SOL    HW1 4874   4.699   5.269   3.523
 1325SOL    HW2 4875   4.577   5.369   3.565
 1326SOL     OW 4876   5.245   4.128   4.215
 1326SOL    HW1 4877   5.187   4.055   4.251
 1326SOL    HW2 4878   5.187   4.199   4.174
 1327SOL     OW 4879   3.298   6.278   3.611
 1327SOL    HW1 4880   3.204   6.270   3.644
 1327SOL    HW2 4881   3.361   6.248   3.684
 1328SOL     OW 4882   2.641   1.742   1.859
 1328SOL    HW1 4883   2.580   1.758   1.781
 1328SOL    HW2 4884   2.642   1.822   1.919
 1329SOL     OW 4885   0.824   5.951   1.700
 1329SOL    HW1 4886   0.788   5.898   1.623
 1329SOL    HW2 4887   0.879   6.027   1.665
 1330SOL     OW 4888   6.323   6.398   1.539
 1330SOL    HW1 4889   6.261   6.470   1.572
 1330SOL    HW2 4890   6.397   6.440   1.486
 1331SOL     OW 4891   0.700   1.991   1.492
 1331SOL    HW1 4892   0.707   2.026   1.398
 1331SOL    HW2 4893   0.791   1.990   1.533
 1332SOL     OW 4894   4.337   1.823   0.300
 1332SOL    HW1 4895   4.332   1.740   0.356
 1332SOL    HW2 4896   4.379   1.801   0.212
 1333SOL     OW 4897   4.076   3.534   5.350
 1333SOL    HW1 4898   4.098   3.586   5.432
 1333SOL    HW2 4899   4.058   3.438   5.375
 1334SOL     OW 4900   2.059   3.452   3.868
 1334SOL    HW1 4901   2.055   3.551   3.884
 1334SOL    HW2 4902   2.072   3.435   3.770
 1335SOL     OW 4903   1.997   5.813   3.468
 1335SOL    HW1 4904   1.982   5.828   3.565
 1335SOL    HW2 4905   2.092   5.785   3.453
 1336SOL     OW 4906   0.089   6.622   4.518
 1336SOL    HW1 4907   0.175   6.574   4.500
 1336SOL    HW2 4908   0.103   6.720   4.509
 1337SOL     OW 4909   2.652   0.008   6.778
 1337SOL    HW1 4910   2.648   0.066   6.860
 1337SOL    HW2 4911   2.688   0.061   6.701
 1338SOL     OW 4912   3.933   4.370   0.617
 1338SOL    HW1 4913   3.925   4.455   0.668
 1338SOL    HW2 4914   3.877   4.299   0.661
 1339SOL     OW 4915   0.429   4.241   6.429
 1339SOL    HW1 4916   0.427   4.169   6.498
 1339SOL    HW2 4917   0.412   4.329   6.472
 1340SOL     OW 4918   2.584   1.857   5.860
 1340SOL    HW1 4919   2.614   1.847   5.764
 1340SOL    HW2 4920   2.582   1.767   5.903
 1341SOL     OW 4921   4.999   1.602   3.874
 1341SOL    HW1 4922   5.019   1.585   3.777
 1341SOL    HW2 4923   5.011   1.700   3.893
 1342SOL     OW 4924   0.677   5.749   0.446
 1342SOL    HW1 4925   0.669   5.824   0.381
 1342SOL    HW2 4926   0.691   5.663   0.396
 1343SOL     OW 4927   3.178   5.890   3.202
 1343SOL    HW1 4928   3.146   5.835   3.279
 1343SOL    HW2 4929   3.101   5.937   3.160
 1344SOL     OW 4930   4.576   1.316   2.301
 1344SOL    HW1 4931   4.515   1.238   2.287
 1344SOL    HW2 4932   4.526   1.389   2.348
 1345SOL     OW 4933   6.298   5.432   1.881
 1345SOL    HW1 4934   6.245   5.488   1.817
 1345SOL    HW2 4935   6.343   5.358   1.832
 1346SOL     OW 4936   6.541   1.714   3.125
 1346SOL    HW1 4937   6.511   1.809   3.135
 1346SOL    HW2 4938   6.538   1.688   3.028
 1347SOL     OW 4939   4.071   0.824   3.656
 1347SOL    HW1 4940   4.036   0.918   3.648
 1347SOL    HW2 4941   4.009   0.771   3.714
 1348SOL     OW 4942   5.367   6.608   5.002
 1348SOL    HW1 4943   5.411   6.689   5.041
 1348SOL    HW2 4944   5.437   6.547   4.965
 1349SOL     OW 4945   5.397   1.324   6.471
 1349SOL    HW1 4946   5.487   1.285   6.492
 1349SOL    HW2 4947   5.405   1.424   6.464
 1350SOL     OW 4948   4.177   1.541   4.526
 1350SOL    HW1 4949   4.212   1.469   4.587
 1350SOL    HW2 4950   4.153   1.501   4.438
 1351SOL     OW 4951   1.208   1.576   4.438
 1351SOL    HW1 4952   1.179   1.481   4.430
 1351SOL    HW2 4953   1.207   1.603   4.534
 1352SOL     OW 4954   1.347   6.366   4.596
 1352SOL    HW1 4955   1.285   6.301   4.553
 1352SOL    HW2 4956   1.368   6.336   4.689
 1353SOL     OW 4957   2.898   3.176   6.038
 1353SOL    HW1 4958   2.994   3.198   6.049
 1353SOL    HW2 4959   2.888   3.104   5.970
 1354SOL     OW 4960   0.368   6.417   6.795
 1354SOL    HW1 4961   0.322   6.505   6.797
 1354SOL    HW2 4962   0.454   6.423   6.847
 1355SOL     OW 4963   4.989   3.400   0.282
 1355SOL    HW1 4964   4.896   3.371   0.306
 1355SOL    HW2 4965   4.988   3.496   0.257
 1356SOL     OW 4966   4.049   3.312   2.659
 1356SOL    HW1 4967   4.010   3.249   2.591
 1356SOL    HW2 4968   4.065   3.401   2.616
 1357SOL     OW 4969   4.041   2.417   6.070
 1357SOL    HW1 4970   3.965   2.465   6.115
 1357SOL    HW2 4971   4.017   2.321   6.058
 1358SOL     OW 4972   2.075   3.160   4.735
 1358SOL    HW1 4973   2.106   3.108   4.815
 1358SOL    HW2 4974   2.142   3.232   4.715
 1359SOL     OW 4975   1.053   1.567   6.638
 1359SOL    HW1 4976   1.045   1.591   6.735
 1359SOL    HW2 4977   1.132   1.613   6.599
 1360SOL     OW 4978   2.947   3.661   4.753
 1360SOL    HW1 4979   2.852   3.633   4.738
 1360SOL    HW2 4980   2.971   3.647   4.849
 1361SOL     OW 4981   1.408   6.191   1.405
 1361SOL    HW1 4982   1.308   6.188   1.393
 1361SOL    HW2 4983   1.443   6.277   1.368
 1362SOL     OW 4984   3.726   0.973   5.985
 1362SOL    HW1 4985   3.770   1.043   5.928
 1362SOL    HW2 4986   3.658   1.017   6.044
 1363SOL     OW 4987   6.416   5.743   1.118
 1363SOL    HW1 4988   6.339   5.770   1.060
 1363SOL    HW2 4989   6.430   5.644   1.112
 1364SOL     OW 4990   1.287   3.218   1.058
 1364SOL    HW1 4991   1.320   3.172   0.976
 1364SOL    HW2 4992   1.229   3.155   1.110
 1365SOL     OW 4993   1.676   3.043   6.289
 1365SOL    HW1 4994   1.657   2.946   6.274
 1365SOL    HW2 4995   1.685   3.089   6.200
 1366SOL     OW 4996   4.247   1.202   1.948
 1366SOL    HW1 4997   4.239   1.112   1.906
 1366SOL    HW2 4998   4.316   1.256   1.899
 1367SOL     OW 4999   1.559   0.266   4.072
 1367SOL    HW1 5000   1.482   0.204   4.090
 1367SOL    HW2 5001   1.620   0.225   4.004
 1368SOL     OW 5002   2.100   5.771   4.914
 1368SOL    HW1 5003   2.077   5.866   4.930
 1368SOL    HW2 5004   2.041   5.712   4.970
 1369SOL     OW 5005   2.606   5.720   3.287
 1369SOL    HW1 5006   2.649   5.642   3.242
 1369SOL    HW2 5007   2.539   5.688   3.353
 1370SOL     OW 5008   6.435   3.006   2.989
 1370SOL    HW1 5009   6.483   2.962   2.913
 1370SOL    HW2 5010   6.346   3.039   2.957
 1371SOL     OW 5011   6.477   1.861   6.759
 1371SOL    HW1 5012   6.428   1.838   6.676
 1371SOL    HW2 5013   6.575   1.867   6.740
 1372SOL     OW 5014   4.991   1.959   2.345
 1372SOL    HW1 5015   5.025   2.022   2.415
 1372SOL    HW2 5016   4.898   1.984   2.320
 1373SOL     OW 5017   4.289   2.694   1.037
 1373SOL    HW1 5018   4.254   2.678   1.129
 1373SOL    HW2 5019   4.370   2.752   1.041
 1374SOL     OW 5020   3.378   3.482   4.129
 1374SOL    HW1 5021   3.344   3.504   4.221
 1374SOL    HW2 5022   3.336   3.543   4.063
 1375SOL     OW 5023   6.394   3.900   5.504
 1375SOL    HW1 5024   6.350   3.825   5.454
 1375SOL    HW2 5025   6.340   3.984   5.492
 1376SOL     OW 5026   2.907   4.621   6.387
 1376SOL    HW1 5027   3.004   4.601   6.372
 1376SOL    HW2 5028   2.897   4.716   6.416
 1377SOL     OW 5029   1.072   2.028   3.753
 1377SOL    HW1 5030   1.128   2.055   3.674
 1377SOL    HW2 5031   0.978   2.060   3.740
 1378SOL     OW 5032   5.014   2.650   3.716
 1378SOL    HW1 5033   4.974   2.581   3.655
 1378SOL    HW2 5034   5.030   2.608   3.806
 1379SOL     OW 5035   5.372   5.287   6.638
 1379SOL    HW1 5036   5.442   5.222   6.665
 1379SOL    HW2 5037   5.415   5.374   6.614
 1380SOL     OW 5038   6.915   6.859   3.877
 1380SOL    HW1 5039   6.842   6.810   3.925
 1380SOL    HW2 5040   6.972   6.907   3.944
 1381SOL     OW 5041   6.896   2.706   6.352
 1381SOL    HW1 5042   6.879   2.620   6.305
 1381SOL    HW2 5043   6.831   2.775   6.320
 1382SOL     OW 5044   4.598   2.228   5.558
 1382SOL    HW1 5045   4.615   2.243   5.655
 1382SOL    HW2 5046   4.588   2.130   5.541
 1383SOL     OW 5047   5.395   0.029   0.407
 1383SOL    HW1 5048   5.351   6.965   0.412
 1383SOL    HW2 5049   5.398   0.070   0.498
 1384SOL     OW 5050   5.723   1.927   2.381
 1384SOL    HW1 5051   5.771   1.977   2.453
 1384SOL    HW2 5052   5.740   1.970   2.293
 1385SOL     OW 5053   6.746   6.798   2.120
 1385SOL    HW1 5054   6.766   6.711   2.076
 1385SOL    HW2 5055   6.815   6.866   2.095
 1386SOL     OW 5056   1.690   0.578   4.025
 1386SOL    HW1 5057   1.618   0.525   4.071
 1386SOL    HW2 5058   1.773   0.523   4.019
 1387SOL     OW 5059   1.199   5.481   1.633
 1387SOL    HW1 5060   1.202   5.565   1.687
 1387SOL    HW2 5061   1.279   5.478   1.572
 1388SOL     OW 5062   6.309   0.631   1.391
 1388SOL    HW1 5063   6.396   0.581   1.391
 1388SOL    HW2 5064   6.256   0.606   1.310
 1389SOL     OW 5065   6.648   0.375   0.874
 1389SOL    HW1 5066   6.625   0.303   0.939
 1389SOL    HW2 5067   6.733   0.351   0.827
 1390SOL     OW 5068   1.461   1.302   4.378
 1390SOL    HW1 5069   1.518   1.384   4.375
 1390SOL    HW2 5070   1.422   1.284   4.288
 1391SOL     OW 5071   0.740   3.590   4.057
 1391SOL    HW1 5072   0.654   3.641   4.051
 1391SOL    HW2 5073   0.776   3.597   4.150
 1392SOL     OW 5074   5.220   5.551   3.825
 1392SOL    HW1 5075   5.227   5.451   3.828
 1392SOL    HW2 5076   5.308   5.589   3.797
 1393SOL     OW 5077   3.569   4.573   6.706
 1393SOL    HW1 5078   3.531   4.533   6.622
 1393SOL    HW2 5079   3.580   4.672   6.693
 1394SOL     OW 5080   1.089   6.823   6.503
 1394SOL    HW1 5081   1.022   6.826   6.578
 1394SOL    HW2 5082   1.094   6.913   6.460
 1395SOL     OW 5083   4.075   5.177   6.645
 1395SOL    HW1 5084   4.115   5.097   6.601
 1395SOL    HW2 5085   3.981   5.189   6.614
 1396SOL     OW 5086   4.894   5.915   2.676
 1396SOL    HW1 5087   4.917   5.819   2.665
 1396SOL    HW2 5088   4.812   5.936   2.623
 1397SOL     OW 5089   5.793   5.971   4.619
 1397SOL    HW1 5090   5.736   5.889   4.621
 1397SOL    HW2 5091   5.889   5.944   4.621
 1398SOL     OW 5092   1.671   6.958   5.376
 1398SOL    HW1 5093   1.752   6.994   5.421
 1398SOL    HW2 5094   1.618   0.007   5.336
 1399SOL     OW 5095   2.768   5.524   2.447
 1399SOL    HW1 5096   2.802   5.600   2.503
 1399SOL    HW2 5097   2.751   5.557   2.354
 1400SOL     OW 5098   1.532   0.738   3.635
 1400SOL    HW1 5099   1.476   0.687   3.570
 1400SOL    HW2 5100   1.569   0.675   3.704
 1401SOL     OW 5101   6.934   2.155   4.324
 1401SOL    HW1 5102   6.969   2.240   4.285
 1401SOL    HW2 5103   6.855   2.124   4.272
 1402SOL     OW 5104   5.367   2.483   0.022
 1402SOL    HW1 5105   5.336   2.480   0.117
 1402SOL    HW2 5106   5.361   2.577   7.014
 1403SOL     OW 5107   3.813   1.187   2.018
 1403SOL    HW1 5108   3.887   1.252   1.998
 1403SOL    HW2 5109   3.814   1.166   2.116
 1404SOL     OW 5110   4.747   1.294   6.440
 1404SOL    HW1 5111   4.686   1.333   6.372
 1404SOL    HW2 5112   4.756   1.358   6.517
 1405SOL     OW 5113   3.518   2.754   0.523
 1405SOL    HW1 5114   3.509   2.771   0.424
 1405SOL    HW2 5115   3.610   2.780   0.552
 1406SOL     OW 5116   0.879   3.377   1.801
 1406SOL    HW1 5117   0.834   3.357   1.888
 1406SOL    HW2 5118   0.864   3.473   1.778
 1407SOL     OW 5119   6.875   2.307   2.466
 1407SOL    HW1 5120   6.822   2.223   2.479
 1407SOL    HW2 5121   6.889   2.323   2.369
 1408SOL     OW 5122   6.726   4.414   6.750
 1408SOL    HW1 5123   6.672   4.330   6.742
 1408SOL    HW2 5124   6.664   4.491   6.767
 1409SOL     OW 5125   6.967   1.290   3.826
 1409SOL    HW1 5126   0.040   1.279   3.821
 1409SOL    HW2 5127   6.939   1.365   3.765
 1410SOL     OW 5128   0.309   1.875   6.580
 1410SOL    HW1 5129   0.382   1.822   6.625
 1410SOL    HW2 5130   0.292   1.838   6.489
 1411SOL     OW 5131   1.822   1.429   1.312
 1411SOL    HW1 5132   1.840   1.380   1.227
 1411SOL    HW2 5133   1.791   1.522   1.292
 1412SOL     OW 5134   2.029   2.028   0.753
 1412SOL    HW1 5135   2.073   1.939   0.736
 1412SOL    HW2 5136   2.059   2.093   0.684
 1413SOL     OW 5137   3.251   6.963   3.247
 1413SOL    HW1 5138   3.278   0.022   3.201
 1413SOL    HW2 5139   3.331   6.921   3.290
 1414SOL     OW 5140   1.666   0.670   2.715
 1414SOL    HW1 5141   1.593   0.702   2.776
 1414SOL    HW2 5142   1.655   0.712   2.625
 1415SOL     OW 5143   5.516   6.714   4.543
 1415SOL    HW1 5144   5.557   6.766   4.618
 1415SOL    HW2 5145   5.583   6.650   4.506
 1416SOL     OW 5146   4.719   5.732   3.852
 1416SOL    HW1 5147   4.816   5.727   3.877
 1416SOL    HW2 5148   4.681   5.640   3.848
 1417SOL     OW 5149   3.387   3.184   5.623
 1417SOL    HW1 5150   3.365   3.087   5.634
 1417SOL    HW2 5151   3.416   3.222   5.710
 1418SOL     OW 5152   3.426   4.129   4.071
 1418SOL    HW1 5153   3.363   4.188   4.122
 1418SOL    HW2 5154   3.393   4.116   3.978
 1419SOL     OW 5155   3.339   5.948   3.837
 1419SOL    HW1 5156   3.414   6.012   3.822
 1419SOL    HW2 5157   3.373   5.855   3.826
 1420SOL     OW 5158   0.335   6.841   3.173
 1420SOL    HW1 5159   0.307   6.752   3.210
 1420SOL    HW2 5160   0.310   6.913   3.238
 1421SOL     OW 5161   3.377   1.140   3.275
 1421SOL    HW1 5162   3.362   1.045   3.251
 1421SOL    HW2 5163   3.290   1.189   3.276
 1422SOL     OW 5164   2.771   5.642   0.472
 1422SOL    HW1 5165   2.717   5.559   0.462
 1422SOL    HW2 5166   2.766   5.674   0.567
 1423SOL     OW 5167   4.625   0.379   2.319
 1423SOL    HW1 5168   4.623   0.282   2.340
 1423SOL    HW2 5169   4.590   0.432   2.396
 1424SOL     OW 5170   6.491   5.394   2.057
 1424SOL    HW1 5171   6.419   5.426   1.995
 1424SOL    HW2 5172   6.557   5.339   2.005
 1425SOL     OW 5173   2.111   0.293   4.062
 1425SOL    HW1 5174   2.109   0.296   3.962
 1425SOL    HW2 5175   2.062   0.212   4.094
 1426SOL     OW 5176   1.728   1.279   5.987
 1426SOL    HW1 5177   1.804   1.318   5.935
 1426SOL    HW2 5178   1.752   1.273   6.084
 1427SOL     OW 5179   4.927   2.690   6.403
 1427SOL    HW1 5180   4.929   2.758   6.477
 1427SOL    HW2 5181   4.961   2.732   6.319
 1428SOL     OW 5182   5.446   0.635   1.126
 1428SOL    HW1 5183   5.405   0.722   1.098
 1428SOL    HW2 5184   5.540   0.630   1.093
 1429SOL     OW 5185   5.322   5.810   1.254
 1429SOL    HW1 5186   5.222   5.818   1.250
 1429SOL    HW2 5187   5.363   5.900   1.244
 1430SOL     OW 5188   2.963   5.093   2.654
 1430SOL    HW1 5189   3.034   5.111   2.722
 1430SOL    HW2 5190   2.974   5.155   2.577
 1431SOL     OW 5191   2.227   1.086   0.365
 1431SOL    HW1 5192   2.242   0.996   0.324
 1431SOL    HW2 5193   2.140   1.085   0.415
 1432SOL     OW 5194   3.061   6.661   1.533
 1432SOL    HW1 5195   3.089   6.588   1.595
 1432SOL    HW2 5196   3.084   6.749   1.573
 1433SOL     OW 5197   5.051   6.745   3.533
 1433SOL    HW1 5198   4.976   6.798   3.573
 1433SOL    HW2 5199   5.027   6.719   3.440
 1434SOL     OW 5200   0.631   1.117   5.126
 1434SOL    HW1 5201   0.554   1.062   5.159
 1434SOL    HW2 5202   0.707   1.056   5.101
 1435SOL     OW 5203   6.825   2.278   3.658
 1435SOL    HW1 5204   6.739   2.272   3.708
 1435SOL    HW2 5205   6.824   2.211   3.583
 1436SOL     OW 5206   5.358   3.317   1.423
 1436SOL    HW1 5207   5.287   3.380   1.391
 1436SOL    HW2 5208   5.336   3.288   1.516
 1437SOL     OW 5209   4.589   0.529   2.586
 1437SOL    HW1 5210   4.534   0.610   2.605
 1437SOL    HW2 5211   4.674   0.556   2.539
 1438SOL     OW 5212   2.755   6.729   2.142
 1438SOL    HW1 5213   2.786   6.810   2.092
 1438SOL    HW2 5214   2.657   6.715   2.127
 1439SOL     OW 5215   0.571   5.540   2.638
 1439SOL    HW1 5216   0.657   5.549   2.687
 1439SOL    HW2 5217   0.582   5.478   2.560
 1440SOL     OW 5218   2.484   2.683   1.247
 1440SOL    HW1 5219   2.513   2.768   1.291
 1440SOL    HW2 5220   2.404   2.646   1.295
 1441SOL     OW 5221   5.056   6.305   6.708
 1441SOL    HW1 5222   4.990   6.265   6.645
 1441SOL    HW2 5223   5.037   6.403   6.720
 1442SOL     OW 5224   4.940   5.683   1.528
 1442SOL    HW1 5225   4.985   5.677   1.617
 1442SOL    HW2 5226   4.867   5.615   1.523
 1443SOL     OW 5227   0.055   2.648   2.346
 1443SOL    HW1 5228   0.055   2.554   2.313
 1443SOL    HW2 5229   6.992   2.670   2.385
 1444SOL     OW 5230   0.674   0.052   4.923
 1444SOL    HW1 5231   0.613   7.000   4.941
 1444SOL    HW2 5232   0.769   0.023   4.931
 1445SOL     OW 5233   0.835   2.325   1.168
 1445SOL    HW1 5234   0.763   2.340   1.100
 1445SOL    HW2 5235   0.849   2.408   1.222
 1446SOL     OW 5236   6.003   5.327   1.774
 1446SOL    HW1 5237   6.038   5.308   1.865
 1446SOL    HW2 5238   6.049   5.269   1.707
 1447SOL     OW 5239   0.175   6.737   3.877
 1447SOL    HW1 5240   0.208   6.819   3.829
 1447SOL    HW2 5241   0.083   6.754   3.911
 1448SOL     OW 5242   1.747   0.801   5.418
 1448SOL    HW1 5243   1.729   0.878   5.357
 1448SOL    HW2 5244   1.695   0.812   5.503
 1449SOL     OW 5245   1.814   3.334   2.157
 1449SOL    HW1 5246   1.714   3.329   2.166
 1449SOL    HW2 5247   1.855   3.259   2.209
 1450SOL     OW 5248   3.116   2.047   2.482
 1450SOL    HW1 5249   3.146   2.059   2.387
 1450SOL    HW2 5250   3.192   2.068   2.543
 1451SOL     OW 5251   4.190   1.761   2.617
 1451SOL    HW1 5252   4.266   1.723   2.670
 1451SOL    HW2 5253   4.127   1.688   2.592
 1452SOL     OW 5254   4.255   2.978   5.385
 1452SOL    HW1 5255   4.238   2.893   5.336
 1452SOL    HW2 5256   4.172   3.006   5.433
 1453SOL     OW 5257   1.802   3.163   4.842
 1453SOL    HW1 5258   1.791   3.085   4.904
 1453SOL    HW2 5259   1.894   3.163   4.804
 1454SOL     OW 5260   3.225   2.104   2.238
 1454SOL    HW1 5261   3.240   2.022   2.183
 1454SOL    HW2 5262   3.186   2.176   2.180
 1455SOL     OW 5263   6.927   5.909   2.685
 1455SOL    HW1 5264   6.930   6.002   2.723
 1455SOL    HW2 5265   6.832   5.882   2.669
 1456SOL     OW 5266   6.262   6.319   3.629
 1456SOL    HW1 5267   6.243   6.408   3.669
 1456SOL    HW2 5268   6.291   6.256   3.701
 1457SOL     OW 5269   1.101   5.393   5.661
 1457SOL    HW1 5270   1.077   5.466   5.597
 1457SOL    HW2 5271   1.063   5.413   5.751
 1458SOL     OW 5272   7.023   5.750   4.744
 1458SOL    HW1 5273   0.016   5.709   4.833
 1458SOL    HW2 5274   7.013   5.849   4.754
 1459SOL     OW 5275   0.026   6.158   5.456
 1459SOL    HW1 5276   6.958   6.164   5.422
 1459SOL    HW2 5277   0.086   6.215   5.400
 1460SOL     OW 5278   1.585   6.485   4.906
 1460SOL    HW1 5279   1.612   6.389   4.911
 1460SOL    HW2 5280   1.655   6.542   4.950
 1461SOL     OW 5281   5.922   3.775   3.441
 1461SOL    HW1 5282   5.918   3.689   3.390
 1461SOL    HW2 5283   5.941   3.756   3.537
 1462SOL     OW 5284   1.111   1.984   2.081
 1462SOL    HW1 5285   1.109   1.954   2.176
 1462SOL    HW2 5286   1.063   1.917   2.024
 1463SOL     OW 5287   2.136   4.685   6.837
 1463SOL    HW1 5288   2.202   4.638   6.779
 1463SOL    HW2 5289   2.046   4.642   6.827
 1464SOL     OW 5290   0.995   4.133   5.519
 1464SOL    HW1 5291   0.923   4.064   5.527
 1464SOL    HW2 5292   0.955   4.221   5.493
 1465SOL     OW 5293   1.643   3.056   5.388
 1465SOL    HW1 5294   1.644   3.038   5.486
 1465SOL    HW2 5295   1.702   2.990   5.341
 1466SOL     OW 5296   5.466   1.199   2.643
 1466SOL    HW1 5297   5.488   1.156   2.556
 1466SOL    HW2 5298   5.413   1.136   2.699
 1467SOL     OW 5299   0.478   0.533   3.708
 1467SOL    HW1 5300   0.547   0.494   3.769
 1467SOL    HW2 5301   0.476   0.632   3.719
 1468SOL     OW 5302   3.575   6.691   4.099
 1468SOL    HW1 5303   3.555   6.624   4.170
 1468SOL    HW2 5304   3.611   6.645   4.017
 1469SOL     OW 5305   5.189   4.656   3.253
 1469SOL    HW1 5306   5.117   4.718   3.284
 1469SOL    HW2 5307   5.243   4.624   3.331
 1470SOL     OW 5308   6.127   1.643   1.800
 1470SOL    HW1 5309   6.082   1.727   1.770
 1470SOL    HW2 5310   6.072   1.598   1.870
 1471SOL     OW 5311   5.125   6.307   0.310
 1471SOL    HW1 5312   5.103   6.242   0.382
 1471SOL    HW2 5313   5.073   6.285   0.227
 1472SOL     OW 5314   2.441   0.546   6.914
 1472SOL    HW1 5315   2.449   0.625   6.853
 1472SOL    HW2 5316   2.531   0.510   6.934
 1473SOL     OW 5317   1.585   5.836   3.320
 1473SOL    HW1 5318   1.631   5.802   3.402
 1473SOL    HW2 5319   1.600   5.773   3.245
 1474SOL     OW 5320   1.547   4.446   1.551
 1474SOL    HW1 5321   1.493   4.362   1.548
 1474SOL    HW2 5322   1.517   4.508   1.479
 1475SOL     OW 5323   6.725   6.904   6.378
 1475SOL    HW1 5324   6.654   6.836   6.396
 1475SOL    HW2 5325   6.780   6.874   6.300
 1476SOL     OW 5326   6.281   0.253   6.733
 1476SOL    HW1 5327   6.326   0.235   6.645
 1476SOL    HW2 5328   6.236   0.169   6.765
 1477SOL     OW 5329   3.563   4.173   1.819
 1477SOL    HW1 5330   3.660   4.181   1.799
 1477SOL    HW2 5331   3.510   4.225   1.752
 1478SOL     OW 5332   4.173   3.665   6.381
 1478SOL    HW1 5333   4.092   3.613   6.410
 1478SOL    HW2 5334   4.213   3.622   6.301
 1479SOL     OW 5335   4.323   4.678   1.070
 1479SOL    HW1 5336   4.281   4.634   0.990
 1479SOL    HW2 5337   4.305   4.777   1.066
 1480SOL     OW 5338   2.731   1.965   3.676
 1480SOL    HW1 5339   2.646   2.015   3.656
 1480SOL    HW2 5340   2.709   1.870   3.696
 1481SOL     OW 5341   4.089   1.619   5.569
 1481SOL    HW1 5342   4.040   1.615   5.656
 1481SOL    HW2 5343   4.153   1.696   5.571
 1482SOL     OW 5344   6.837   1.278   1.063
 1482SOL    HW1 5345   6.783   1.226   1.130
 1482SOL    HW2 5346   6.777   1.341   1.014
 1483SOL     OW 5347   6.323   6.191   0.489
 1483SOL    HW1 5348   6.402   6.133   0.465
 1483SOL    HW2 5349   6.354   6.270   0.542
 1484SOL     OW 5350   3.386   6.407   5.782
 1484SOL    HW1 5351   3.388   6.499   5.743
 1484SOL    HW2 5352   3.420   6.410   5.876
 1485SOL     OW 5353   5.253   3.880   3.363
 1485SOL    HW1 5354   5.157   3.859   3.384
 1485SOL    HW2 5355   5.306   3.795   3.366
 1486SOL     OW 5356   6.238   6.174   4.509
 1486SOL    HW1 5357   6.260   6.230   4.589
 1486SOL    HW2 5358   6.233   6.232   4.428
 1487SOL     OW 5359   5.923   0.251   6.410
 1487SOL    HW1 5360   5.946   0.266   6.506
 1487SOL    HW2 5361   5.881   0.334   6.373
 1488SOL     OW 5362   6.821   2.678   2.416
 1488SOL    HW1 5363   6.815   2.655   2.513
 1488SOL    HW2 5364   6.730   2.672   2.375
 1489SOL     OW 5365   3.316   5.379   6.936
 1489SOL    HW1 5366   3.394   5.426   6.977
 1489SOL    HW2 5367   3.346   5.329   6.855
 1490SOL     OW 5368   5.936   2.784   2.145
 1490SOL    HW1 5369   5.968   2.827   2.060
 1490SOL    HW2 5370   6.015   2.751   2.197
 1491SOL     OW 5371   5.561   3.737   4.621
 1491SOL    HW1 5372   5.488   3.724   4.555
 1491SOL    HW2 5373   5.629   3.800   4.583
 1492SOL     OW 5374   1.404   2.757   1.814
 1492SOL    HW1 5375   1.328   2.800   1.863
 1492SOL    HW2 5376   1.388   2.659   1.808
 1493SOL     OW 5377   6.384   2.046   6.533
 1493SOL    HW1 5378   6.360   1.950   6.522
 1493SOL    HW2 5379   6.303   2.097   6.565
 1494SOL     OW 5380   1.751   3.229   6.477
 1494SOL    HW1 5381   1.843   3.246   6.442
 1494SOL    HW2 5382   1.705   3.161   6.420
 1495SOL     OW 5383   6.111   3.837   4.200
 1495SOL    HW1 5384   6.063   3.758   4.238
 1495SOL    HW2 5385   6.086   3.919   4.251
 1496SOL     OW 5386   6.851   5.716   5.940
 1496SOL    HW1 5387   6.840   5.710   5.841
 1496SOL    HW2 5388   6.766   5.750   5.981
 1497SOL     OW 5389   4.685   2.572   2.712
 1497SOL    HW1 5390   4.641   2.580   2.623
 1497SOL    HW2 5391   4.721   2.661   2.740
 1498SOL     OW 5392   3.756   4.123   0.731
 1498SOL    HW1 5393   3.697   4.061   0.782
 1498SOL    HW2 5394   3.754   4.100   0.634
 1499SOL     OW 5395   1.242   4.451   4.321
 1499SOL    HW1 5396   1.231   4.377   4.255
 1499SOL    HW2 5397   1.178   4.525   4.299
 1500SOL     OW 5398   2.651   5.860   1.517
 1500SOL    HW1 5399   2.655   5.787   1.585
 1500SOL    HW2 5400   2.597   5.937   1.553
 1501SOL     OW 5401   5.490   1.457   1.487
 1501SOL    HW1 5402   5.396   1.467   1.453
 1501SOL    HW2 5403   5.553   1.503   1.424
 1502SOL     OW 5404   0.727   6.479   6.110
 1502SOL    HW1 5405   0.716   6.525   6.198
 1502SOL    HW2 5406   0.755   6.384   6.125
 1503SOL     OW 5407   6.302   6.155   2.382
 1503SOL    HW1 5408   6.207   6.152   2.352
 1503SOL    HW2 5409   6.317   6.085   2.451
 1504SOL     OW 5410   1.539   0.243   3.715
 1504SOL    HW1 5411   1.603   0.275   3.784
 1504SOL    HW2 5412   1.521   0.145   3.728
 1505SOL     OW 5413   6.781   4.381   4.934
 1505SOL    HW1 5414   6.877   4.354   4.928
 1505SOL    HW2 5415   6.766   4.462   4.879
 1506SOL     OW 5416   1.167   1.239   0.591
 1506SOL    HW1 5417   1.213   1.155   0.565
 1506SOL    HW2 5418   1.233   1.314   0.596
 1507SOL     OW 5419   2.243   2.358   3.846
 1507SOL    HW1 5420   2.306   2.435   3.859
 1507SOL    HW2 5421   2.267   2.310   3.761
 1508SOL     OW 5422   1.634   0.700   1.159
 1508SOL    HW1 5423   1.539   0.709   1.129
 1508SOL    HW2 5424   1.653   0.769   1.229
 1509SOL     OW 5425   4.097   0.730   4.803
 1509SOL    HW1 5426   4.007   0.690   4.785
 1509SOL    HW2 5427   4.152   0.727   4.720
 1510SOL     OW 5428   2.504   6.837   5.308
 1510SOL    HW1 5429   2.454   6.808   5.227
 1510SOL    HW2 5430   2.440   6.850   5.384
 1511SOL     OW 5431   3.819   4.275   5.222
 1511SOL    HW1 5432   3.870   4.355   5.192
 1511SOL    HW2 5433   3.881   4.198   5.235
 1512SOL     OW 5434   5.166   6.752   1.003
 1512SOL    HW1 5435   5.250   6.795   1.034
 1512SOL    HW2 5436   5.090   6.816   1.014
 1513SOL     OW 5437   2.991   6.341   5.497
 1513SOL    HW1 5438   3.060   6.306   5.560
 1513SOL    HW2 5439   3.036   6.384   5.419
 1514SOL     OW 5440   3.004   1.460   0.146
 1514SOL    HW1 5441   3.014   1.449   0.047
 1514SOL    HW2 5442   2.989   1.371   0.188
 1515SOL     OW 5443   3.566   0.557   1.342
 1515SOL    HW1 5444   3.518   0.604   1.417
 1515SOL    HW2 5445   3.647   0.609   1.315
 1516SOL     OW 5446   0.381   6.743   6.554
 1516SOL    HW1 5447   0.324   6.812   6.509
 1516SOL    HW2 5448   0.328   6.659   6.567
 1517SOL     OW 5449   2.243   6.043   2.486
 1517SOL    HW1 5450   2.224   5.948   2.457
 1517SOL    HW2 5451   2.301   6.087   2.418
 1518SOL     OW 5452   2.440   2.184   6.627
 1518SOL    HW1 5453   2.415   2.220   6.717
 1518SOL    HW2 5454   2.539   2.190   6.616
 1519SOL     OW 5455   0.740   4.430   6.815
 1519SOL    HW1 5456   0.674   4.355   6.821
 1519SOL    HW2 5457   0.694   4.513   6.783
 1520SOL     OW 5458   0.329   0.023   3.354
 1520SOL    HW1 5459   0.387   0.043   3.433
 1520SOL    HW2 5460   0.235   0.048   3.374
 1521SOL     OW 5461   2.615   4.794   0.132
 1521SOL    HW1 5462   2.659   4.704   0.123
 1521SOL    HW2 5463   2.560   4.813   0.051
 1522SOL     OW 5464   6.294   6.143   4.125
 1522SOL    HW1 5465   6.262   6.050   4.140
 1522SOL    HW2 5466   6.220   6.198   4.088
 1523SOL     OW 5467   2.615   6.745   0.228
 1523SOL    HW1 5468   2.686   6.737   0.297
 1523SOL    HW2 5469   2.608   6.660   0.176
 1524SOL     OW 5470   1.772   2.097   4.519
 1524SOL    HW1 5471   1.713   2.022   4.488
 1524SOL    HW2 5472   1.860   2.093   4.472
 1525SOL     OW 5473   6.248   4.029   0.302
 1525SOL    HW1 5474   6.243   3.932   0.327
 1525SOL    HW2 5475   6.281   4.082   0.380
 1526SOL     OW 5476   0.805   1.271   2.247
 1526SOL    HW1 5477   0.813   1.326   2.330
 1526SOL    HW2 5478   0.894   1.235   2.221
 1527SOL     OW 5479   4.982   1.373   4.620
 1527SOL    HW1 5480   4.909   1.317   4.578
 1527SOL    HW2 5481   5.068   1.354   4.574
 1528SOL     OW 5482   3.029   3.069   2.246
 1528SOL    HW1 5483   2.960   3.133   2.280
 1528SOL    HW2 5484   2.986   2.980   2.229
 1529SOL     OW 5485   4.276   0.767   5.844
 1529SOL    HW1 5486   4.238   0.700   5.780
 1529SOL    HW2 5487   4.205   0.795   5.908
 1530SOL     OW 5488   2.463   6.754   2.099
 1530SOL    HW1 5489   2.398   6.711   2.036
 1530SOL    HW2 5490   2.482   6.848   2.069
 1531SOL     OW 5491   5.779   6.253   4.597
 1531SOL    HW1 5492   5.777   6.155   4.580
 1531SOL    HW2 5493   5.817   6.270   4.688
 1532SOL     OW 5494   3.078   5.656   2.361
 1532SOL    HW1 5495   3.014   5.605   2.304
 1532SOL    HW2 5496   3.171   5.623   2.345
 1533SOL     OW 5497   5.324   6.043   1.617
 1533SOL    HW1 5498   5.397   5.993   1.571
 1533SOL    HW2 5499   5.326   6.021   1.715
 1534SOL     OW 5500   2.788   5.173   6.488
 1534SOL    HW1 5501   2.693   5.186   6.517
 1534SOL    HW2 5502   2.801   5.078   6.459
 1535SOL     OW 5503   5.048   4.983   3.547
 1535SOL    HW1 5504   5.100   5.068   3.550
 1535SOL    HW2 5505   5.084   4.919   3.615
 1536SOL     OW 5506   3.902   4.822   6.430
 1536SOL    HW1 5507   3.908   4.823   6.530
 1536SOL    HW2 5508   3.973   4.762   6.393
 1537SOL     OW 5509   2.731   6.072   2.075
 1537SOL    HW1 5510   2.799   6.072   2.147
 1537SOL    HW2 5511   2.746   6.150   2.014
 1538SOL     OW 5512   2.585   1.676   0.628
 1538SOL    HW1 5513   2.675   1.700   0.592
 1538SOL    HW2 5514   2.581   1.577   0.643
 1539SOL     OW 5515   0.038   3.059   0.766
 1539SOL    HW1 5516   0.082   2.980   0.808
 1539SOL    HW2 5517   7.010   3.108   0.834
 1540SOL     OW 5518   3.855   5.393   3.597
 1540SOL    HW1 5519   3.861   5.491   3.613
 1540SOL    HW2 5520   3.762   5.370   3.569
 1541SOL     OW 5521   4.647   2.611   5.633
 1541SOL    HW1 5522   4.620   2.564   5.548
 1541SOL    HW2 5523   4.613   2.559   5.711
 1542SOL     OW 5524   0.895   4.495   2.839
 1542SOL    HW1 5525   0.949   4.432   2.895
 1542SOL    HW2 5526   0.802   4.460   2.830
 1543SOL     OW 5527   4.022   4.932   1.034
 1543SOL    HW1 5528   4.116   4.928   1.069
 1543SOL    HW2 5529   4.024   4.949   0.936
 1544SOL     OW 5530   3.614   2.862   3.467
 1544SOL    HW1 5531   3.634   2.815   3.381
 1544SOL    HW2 5532   3.574   2.952   3.447
 1545SOL     OW 5533   6.291   4.479   0.776
 1545SOL    HW1 5534   6.206   4.460   0.827
 1545SOL    HW2 5535   6.294   4.424   0.694
 1546SOL     OW 5536   6.566   6.346   5.583
 1546SOL    HW1 5537   6.650   6.353   5.530
 1546SOL    HW2 5538   6.489   6.331   5.522
 1547SOL     OW 5539   1.440   2.623   6.741
 1547SOL    HW1 5540   1.356   2.634   6.688
 1547SOL    HW2 5541   1.442   2.690   6.815
 1548SOL     OW 5542   6.844   2.434   0.352
 1548SOL    HW1 5543   6.870   2.517   0.303
 1548SOL    HW2 5544   6.823   2.361   0.287
 1549SOL     OW 5545   4.781   0.228   3.979
 1549SOL    HW1 5546   4.880   0.218   3.989
 1549SOL    HW2 5547   4.755   0.324   3.991
 1550SOL     OW 5548   3.144   3.870   4.773
 1550SOL    HW1 5549   3.073   3.807   4.742
 1550SOL    HW2 5550   3.130   3.892   4.870
 1551SOL     OW 5551   0.119   5.165   5.971
 1551SOL    HW1 5552   0.137   5.112   5.888
 1551SOL    HW2 5553   0.190   5.234   5.983
 1552SOL     OW 5554   2.440   4.135   1.339
 1552SOL    HW1 5555   2.429   4.074   1.261
 1552SOL    HW2 5556   2.494   4.090   1.410
 1553SOL     OW 5557   1.274   2.469   5.832
 1553SOL    HW1 5558   1.230   2.509   5.751
 1553SOL    HW2 5559   1.224   2.387   5.860
 1554SOL     OW 5560   4.228   2.011   3.572
 1554SOL    HW1 5561   4.197   1.961   3.491
 1554SOL    HW2 5562   4.180   2.098   3.578
 1555SOL     OW 5563   6.305   4.405   5.472
 1555SOL    HW1 5564   6.307   4.310   5.442
 1555SOL    HW2 5565   6.220   4.448   5.441
 1556SOL     OW 5566   2.213   1.105   5.397
 1556SOL    HW1 5567   2.183   1.011   5.416
 1556SOL    HW2 5568   2.276   1.105   5.319
 1557SOL     OW 5569   1.595   1.482   6.086
 1557SOL    HW1 5570   1.526   1.447   6.150
 1557SOL    HW2 5571   1.634   1.405   6.035
 1558SOL     OW 5572   6.824   7.002   4.399
 1558SOL    HW1 5573   6.765   6.933   4.357
 1558SOL    HW2 5574   6.827   6.986   4.498
 1559SOL     OW 5575   1.524   1.100   6.336
 1559SOL    HW1 5576   1.502   1.072   6.242
 1559SOL    HW2 5577   1.620   1.128   6.341
 1560SOL     OW 5578   0.062   0.156   1.434
 1560SOL    HW1 5579   0.097   0.088   1.499
 1560SOL    HW2 5580   0.039   0.240   1.483
 1561SOL     OW 5581   5.932   6.378   1.763
 1561SOL    HW1 5582   6.006   6.433   1.724
 1561SOL    HW2 5583   5.956   6.351   1.857
 1562SOL     OW 5584   5.734   7.001   4.384
 1562SOL    HW1 5585   5.766   0.068   4.402
 1562SOL    HW2 5586   5.784   6.937   4.443
 1563SOL     OW 5587   2.484   7.014   6.152
 1563SOL    HW1 5588   2.500   6.919   6.179
 1563SOL    HW2 5589   2.437   7.018   6.064
 1564SOL     OW 5590   1.568   2.643   2.766
 1564SOL    HW1 5591   1.628   2.634   2.846
 1564SOL    HW2 5592   1.483   2.689   2.793
 1565SOL     OW 5593   6.217   4.233   1.575
 1565SOL    HW1 5594   6.276   4.254   1.652
 1565SOL    HW2 5595   6.264   4.172   1.512
 1566SOL     OW 5596   5.937   4.153   2.139
 1566SOL    HW1 5597   5.860   4.189   2.190
 1566SOL    HW2 5598   5.935   4.190   2.046
 1567SOL     OW 5599   6.864   5.522   5.698
 1567SOL    HW1 5600   6.936   5.461   5.732
 1567SOL    HW2 5601   6.779   5.470   5.686
 1568SOL     OW 5602   0.360   6.192   1.216
 1568SOL    HW1 5603   0.431   6.170   1.149
 1568SOL    HW2 5604   0.270   6.182   1.174
 1569SOL     OW 5605   3.853   5.621   4.721
 1569SOL    HW1 5606   3.773   5.603   4.664
 1569SOL    HW2 5607   3.891   5.711   4.698
 1570SOL     OW 5608   2.719   2.392   1.272
 1570SOL    HW1 5609   2.716   2.418   1.176
 1570SOL    HW2 5610   2.775   2.310   1.283
 1571SOL     OW 5611   0.497   2.938   6.278
 1571SOL    HW1 5612   0.541   2.852   6.250
 1571SOL    HW2 5613   0.564   3.012   6.277
 1572SOL     OW 5614   0.613   5.820   4.601
 1572SOL    HW1 5615   0.699   5.871   4.595
 1572SOL    HW2 5616   0.538   5.883   4.619
 1573SOL     OW 5617   4.377   0.653   6.870
 1573SOL    HW1 5618   4.438   0.596   6.815
 1573SOL    HW2 5619   4.431   0.723   6.917
 1574SOL     OW 5620   4.889   3.424   2.349
 1574SOL    HW1 5621   4.958   3.452   2.283
 1574SOL    HW2 5622   4.806   3.396   2.300
 1575SOL     OW 5623   3.476   2.650   0.179
 1575SOL    HW1 5624   3.462   2.689   0.088
 1575SOL    HW2 5625   3.544   2.576   0.173
 1576SOL     OW 5626   5.871   5.162   3.149
 1576SOL    HW1 5627   5.788   5.206   3.183
 1576SOL    HW2 5628   5.927   5.133   3.227
 1577SOL     OW 5629   1.925   0.753   0.718
 1577SOL    HW1 5630   1.946   0.656   0.732
 1577SOL    HW2 5631   1.931   0.801   0.805
 1578SOL     OW 5632   5.622   6.493   4.958
 1578SOL    HW1 5633   5.615   6.418   4.892
 1578SOL    HW2 5634   5.658   6.574   4.912
 1579SOL     OW 5635   6.560   1.524   3.300
 1579SOL    HW1 5636   6.539   1.596   3.235
 1579SOL    HW2 5637   6.530   1.436   3.264
 1580SOL     OW 5638   2.964   3.867   5.713
 1580SOL    HW1 5639   2.879   3.828   5.749
 1580SOL    HW2 5640   3.042   3.822   5.756
 1581SOL     OW 5641   6.042   3.378   4.124
 1581SOL    HW1 5642   6.117   3.394   4.061
 1581SOL    HW2 5643   6.012   3.282   4.117
 1582SOL     OW 5644   6.158   6.271   3.936
 1582SOL    HW1 5645   6.075   6.308   3.978
 1582SOL    HW2 5646   6.210   6.346   3.896
 1583SOL     OW 5647   2.812   3.105   0.947
 1583SOL    HW1 5648   2.795   3.075   1.041
 1583SOL    HW2 5649   2.844   3.200   0.948
 1584SOL     OW 5650   1.491   6.748   6.667
 1584SOL    HW1 5651   1.427   6.714   6.598
 1584SOL    HW2 5652   1.561   6.803   6.622
 1585SOL     OW 5653   5.890   1.155   5.737
 1585SOL    HW1 5654   5.840   1.200   5.664
 1585SOL    HW2 5655   5.908   1.060   5.711
 1586SOL     OW 5656   4.057   3.293   2.930
 1586SOL    HW1 5657   4.078   3.283   2.832
 1586SOL    HW2 5658   3.995   3.220   2.958
 1587SOL     OW 5659   1.796   6.931   5.678
 1587SOL    HW1 5660   1.837   6.993   5.612
 1587SOL    HW2 5661   1.831   6.951   5.769
 1588SOL     OW 5662   0.335   3.778   0.728
 1588SOL    HW1 5663   0.358   3.752   0.822
 1588SOL    HW2 5664   0.322   3.877   0.724
 1589SOL     OW 5665   5.278   5.098   2.581
 1589SOL    HW1 5666   5.344   5.023   2.577
 1589SOL    HW2 5667   5.197   5.074   2.527
 1590SOL     OW 5668   2.469   6.192   4.800
 1590SOL    HW1 5669   2.405   6.118   4.821
 1590SOL    HW2 5670   2.489   6.193   4.702
 1591SOL     OW 5671   2.193   3.680   0.458
 1591SOL    HW1 5672   2.281   3.727   0.449
 1591SOL    HW2 5673   2.119   3.748   0.462
 1592SOL     OW 5674   3.747   3.499   4.343
 1592SOL    HW1 5675   3.693   3.582   4.358
 1592SOL    HW2 5676   3.778   3.496   4.248
 1593SOL     OW 5677   0.983   4.773   3.912
 1593SOL    HW1 5678   0.945   4.735   3.827
 1593SOL    HW2 5679   0.908   4.792   3.976
 1594SOL     OW 5680   0.452   5.302   2.692
 1594SOL    HW1 5681   0.480   5.397   2.704
 1594SOL    HW2 5682   0.478   5.271   2.600
 1595SOL     OW 5683   6.965   3.676   4.999
 1595SOL    HW1 5684   6.878   3.699   5.042
 1595SOL    HW2 5685   7.010   3.760   4.968
 1596SOL     OW 5686   3.567   5.350   6.499
 1596SOL    HW1 5687   3.574   5.405   6.416
 1596SOL    HW2 5688   3.480   5.370   6.545
 1597SOL     OW 5689   2.107   6.574   1.319
 1597SOL    HW1 5690   2.205   6.553   1.310
 1597SOL    HW2 5691   2.088   6.661   1.273
 1598SOL     OW 5692   6.735   5.592   1.878
 1598SOL    HW1 5693   6.705   5.520   1.814
 1598SOL    HW2 5694   6.767   5.671   1.827
 1599SOL     OW 5695   3.424   5.265   0.220
 1599SOL    HW1 5696   3.326   5.244   0.221
 1599SOL    HW2 5697   3.443   5.335   0.289
 1600SOL     OW 5698   3.481   1.589   4.912
 1600SOL    HW1 5699   3.457   1.496   4.942
 1600SOL    HW2 5700   3.401   1.648   4.919
 1601SOL     OW 5701   1.538   5.495   5.158
 1601SOL    HW1 5702   1.548   5.542   5.070
 1601SOL    HW2 5703   1.489   5.555   5.222
 1602SOL     OW 5704   0.022   3.281   1.680
 1602SOL    HW1 5705   0.100   3.247   1.626
 1602SOL    HW2 5706   7.004   3.356   1.631
 1603SOL     OW 5707   5.788   7.024   1.104
 1603SOL    HW1 5708   5.720   6.955   1.128
 1603SOL    HW2 5709   5.871   7.009   1.157
 1604SOL     OW 5710   1.073   5.112   3.733
 1604SOL    HW1 5711   1.114   5.160   3.810
 1604SOL    HW2 5712   1.132   5.036   3.705
 1605SOL     OW 5713   5.052   5.306   2.009
 1605SOL    HW1 5714   5.055   5.305   2.109
 1605SOL    HW2 5715   4.968   5.350   1.978
 1606SOL     OW 5716   6.300   5.141   4.629
 1606SOL    HW1 5717   6.343   5.074   4.569
 1606SOL    HW2 5718   6.296   5.230   4.582
 1607SOL     OW 5719   6.032   3.607   1.526
 1607SOL    HW1 5720   6.042   3.517   1.569
 1607SOL    HW2 5721   5.940   3.614   1.486
 1608SOL     OW 5722   2.035   6.881   0.902
 1608SOL    HW1 5723   1.947   6.865   0.858
 1608SOL    HW2 5724   2.021   6.905   0.998
 1609SOL     OW 5725   6.349   2.414   5.329
 1609SOL    HW1 5726   6.317   2.486   5.391
 1609SOL    HW2 5727   6.282   2.398   5.257
 1610SOL     OW 5728   4.303   7.003   3.485
 1610SOL    HW1 5729   4.261   6.915   3.503
 1610SOL    HW2 5730   4.324   0.022   3.572
 1611SOL     OW 5731   4.320   3.758   1.377
 1611SOL    HW1 5732   4.334   3.659   1.373
 1611SOL    HW2 5733   4.274   3.788   1.293
 1612SOL     OW 5734   3.189   0.023   4.462
 1612SOL    HW1 5735   3.230   6.959   4.450
 1612SOL    HW2 5736   3.208   0.080   4.381
 1613SOL     OW 5737   2.430   0.158   1.358
 1613SOL    HW1 5738   2.402   0.157   1.454
 1613SOL    HW2 5739   2.445   0.064   1.327
 1614SOL     OW 5740   6.520   1.931   5.808
 1614SOL    HW1 5741   6.602   1.911   5.753
 1614SOL    HW2 5742   6.475   1.845   5.832
 1615SOL     OW 5743   6.714   5.666   5.182
 1615SOL    HW1 5744   6.642   5.626   5.126
 1615SOL    HW2 5745   6.697   5.646   5.278
 1616SOL     OW 5746   2.266   2.401   4.863
 1616SOL    HW1 5747   2.224   2.479   4.817
 1616SOL    HW2 5748   2.200   2.326   4.869
 1617SOL     OW 5749   2.949   0.555   2.587
 1617SOL    HW1 5750   2.870   0.591   2.537
 1617SOL    HW2 5751   2.918   0.517   2.674
 1618SOL     OW 5752   5.277   2.736   2.006
 1618SOL    HW1 5753   5.204   2.736   2.074
 1618SOL    HW2 5754   5.286   2.827   1.966
 1619SOL     OW 5755   1.905   3.127   4.520
 1619SOL    HW1 5756   1.884   3.222   4.498
 1619SOL    HW2 5757   1.969   3.124   4.597
 1620SOL     OW 5758   3.756   5.773   1.519
 1620SOL    HW1 5759   3.727   5.714   1.595
 1620SOL    HW2 5760   3.742   5.869   1.544
 1621SOL     OW 5761   2.818   2.642   1.335
 1621SOL    HW1 5762   2.765   2.564   1.301
 1621SOL    HW2 5763   2.913   2.615   1.347
 1622SOL     OW 5764   2.226   2.765   5.414
 1622SOL    HW1 5765   2.278   2.687   5.450
 1622SOL    HW2 5766   2.131   2.737   5.400
 1623SOL     OW 5767   2.352   2.229   4.340
 1623SOL    HW1 5768   2.312   2.273   4.260
 1623SOL    HW2 5769   2.367   2.297   4.412
 1624SOL     OW 5770   2.033   0.802   0.449
 1624SOL    HW1 5771   1.999   0.868   0.516
 1624SOL    HW2 5772   1.957   0.767   0.394
 1625SOL     OW 5773   1.435   0.007   0.882
 1625SOL    HW1 5774   1.358   0.070   0.888
 1625SOL    HW2 5775   1.474   7.020   0.973
 1626SOL     OW 5776   2.560   3.969   6.104
 1626SOL    HW1 5777   2.617   3.980   6.185
 1626SOL    HW2 5778   2.464   3.966   6.131
 1627SOL     OW 5779   5.000   4.384   2.892
 1627SOL    HW1 5780   5.013   4.358   2.988
 1627SOL    HW2 5781   5.086   4.372   2.843
 1628SOL     OW 5782   3.825   3.310   0.226
 1628SOL    HW1 5783   3.796   3.310   0.322
 1628SOL    HW2 5784   3.746   3.297   0.167
 1629SOL     OW 5785   2.005   2.488   3.202
 1629SOL    HW1 5786   1.947   2.570   3.209
 1629SOL    HW2 5787   2.099   2.512   3.224
 1630SOL     OW 5788   5.920   4.313   4.159
 1630SOL    HW1 5789   5.850   4.242   4.152
 1630SOL    HW2 5790   5.909   4.378   4.083
 1631SOL     OW 5791   0.968   0.992   5.592
 1631SOL    HW1 5792   1.064   1.018   5.582
 1631SOL    HW2 5793   0.935   0.954   5.506
 1632SOL     OW 5794   3.916   6.764   6.444
 1632SOL    HW1 5795   3.988   6.742   6.509
 1632SOL    HW2 5796   3.934   6.853   6.402
 1633SOL     OW 5797   6.761   4.140   2.838
 1633SOL    HW1 5798   6.846   4.192   2.843
 1633SOL    HW2 5799   6.683   4.202   2.848
 1634SOL     OW 5800   3.919   0.621   1.295
 1634SOL    HW1 5801   3.857   0.674   1.236
 1634SOL    HW2 5802   3.930   0.529   1.257
 1635SOL     OW 5803   2.291   4.098   3.953
 1635SOL    HW1 5804   2.329   4.137   3.870
 1635SOL    HW2 5805   2.219   4.032   3.930
 1636SOL     OW 5806   2.203   6.800   0.681
 1636SOL    HW1 5807   2.298   6.830   0.691
 1636SOL    HW2 5808   2.153   6.817   0.766
 1637SOL     OW 5809   0.905   3.140   2.007
 1637SOL    HW1 5810   0.872   3.217   2.063
 1637SOL    HW2 5811   0.956   3.076   2.065
 1638SOL     OW 5812   0.516   2.373   5.796
 1638SOL    HW1 5813   0.520   2.301   5.726
 1638SOL    HW2 5814   0.608   2.403   5.819
 1639SOL     OW 5815   3.410   5.205   3.381
 1639SOL    HW1 5816   3.311   5.204   3.393
 1639SOL    HW2 5817   3.450   5.125   3.425
 1640SOL     OW 5818   5.663   6.779   0.953
 1640SOL    HW1 5819   5.626   6.712   0.889
 1640SOL    HW2 5820   5.716   6.847   0.903
 1641SOL     OW 5821   6.411   2.639   4.497
 1641SOL    HW1 5822   6.464   2.601   4.421
 1641SOL    HW2 5823   6.472   2.694   4.555
 1642SOL     OW 5824   0.623   2.457   1.023
 1642SOL    HW1 5825   0.564   2.507   0.959
 1642SOL    HW2 5826   0.596   2.479   1.117
 1643SOL     OW 5827   4.650   0.230   5.363
 1643SOL    HW1 5828   4.627   0.320   5.327
 1643SOL    HW2 5829   4.566   0.182   5.388
 1644SOL     OW 5830   3.778   1.515   0.898
 1644SOL    HW1 5831   3.774   1.590   0.833
 1644SOL    HW2 5832   3.703   1.524   0.964
 1645SOL     OW 5833   2.306   5.623   5.774
 1645SOL    HW1 5834   2.331   5.581   5.687
 1645SOL    HW2 5835   2.242   5.699   5.758
 1646SOL     OW 5836   2.909   3.302   0.615
 1646SOL    HW1 5837   3.003   3.323   0.588
 1646SOL    HW2 5838   2.846   3.365   0.570
 1647SOL     OW 5839   6.200   2.646   2.228
 1647SOL    HW1 5840   6.281   2.701   2.250
 1647SOL    HW2 5841   6.209   2.556   2.270
 1648SOL     OW 5842   2.670   0.534   3.983
 1648SOL    HW1 5843   2.706   0.446   3.953
 1648SOL    HW2 5844   2.607   0.571   3.914
 1649SOL     OW 5845   2.862   0.511   4.637
 1649SOL    HW1 5846   2.893   0.456   4.559
 1649SOL    HW2 5847   2.935   0.574   4.664
 1650SOL     OW 5848   2.708   6.672   4.521
 1650SOL    HW1 5849   2.709   6.724   4.606
 1650SOL    HW2 5850   2.620   6.683   4.476
 1651SOL     OW 5851   1.486   6.824   2.262
 1651SOL    HW1 5852   1.573   6.857   2.300
 1651SOL    HW2 5853   1.447   6.755   2.323
 1652SOL     OW 5854   3.929   3.148   1.003
 1652SOL    HW1 5855   3.957   3.069   1.057
 1652SOL    HW2 5856   3.829   3.150   0.996
 1653SOL     OW 5857   1.069   4.386   0.755
 1653SOL    HW1 5858   1.012   4.429   0.685
 1653SOL    HW2 5859   1.138   4.329   0.712
 1654SOL     OW 5860   0.768   2.311   3.974
 1654SOL    HW1 5861   0.701   2.258   3.923
 1654SOL    HW2 5862   0.721   2.382   4.027
 1655SOL     OW 5863   4.260   4.229   5.308
 1655SOL    HW1 5864   4.319   4.217   5.388
 1655SOL    HW2 5865   4.281   4.317   5.265
 1656SOL     OW 5866   7.005   3.191   2.293
 1656SOL    HW1 5867   6.920   3.153   2.257
 1656SOL    HW2 5868   6.988   3.229   2.384
 1657SOL     OW 5869   0.854   0.556   5.952
 1657SOL    HW1 5870   0.834   0.471   6.001
 1657SOL    HW2 5871   0.778   0.578   5.891
 1658SOL     OW 5872   6.005   7.001   3.330
 1658SOL    HW1 5873   6.066   6.991   3.252
 1658SOL    HW2 5874   6.057   6.993   3.415
 1659SOL     OW 5875   6.080   2.775   6.158
 1659SOL    HW1 5876   6.037   2.848   6.210
 1659SOL    HW2 5877   6.043   2.687   6.187
 1660SOL     OW 5878   2.413   5.602   3.905
 1660SOL    HW1 5879   2.318   5.606   3.873
 1660SOL    HW2 5880   2.475   5.605   3.827
 1661SOL     OW 5881   2.556   0.994   3.390
 1661SOL    HW1 5882   2.487   1.066   3.397
 1661SOL    HW2 5883   2.570   0.970   3.294
 1662SOL     OW 5884   0.359   1.592   3.830
 1662SOL    HW1 5885   0.382   1.679   3.875
 1662SOL    HW2 5886   0.363   1.518   3.898
 1663SOL     OW 5887   1.003   0.458   3.234
 1663SOL    HW1 5888   0.906   0.474   3.219
 1663SOL    HW2 5889   1.039   0.402   3.159
 1664SOL     OW 5890   1.677   5.987   3.977
 1664SOL    HW1 5891   1.614   5.995   4.055
 1664SOL    HW2 5892   1.710   5.893   3.971
 1665SOL     OW 5893   0.250   1.191   4.077
 1665SOL    HW1 5894   0.228   1.209   3.981
 1665SOL    HW2 5895   0.259   1.278   4.126
 1666SOL     OW 5896   6.282   1.937   0.310
 1666SOL    HW1 5897   6.227   1.899   0.236
 1666SOL    HW2 5898   6.320   2.025   0.281
 1667SOL     OW 5899   6.406   0.005   0.913
 1667SOL    HW1 5900   6.476   0.051   0.968
 1667SOL    HW2 5901   6.445   6.948   0.873
 1668SOL     OW 5902   2.314   6.934   4.780
 1668SOL    HW1 5903   2.375   7.000   4.736
 1668SOL    HW2 5904   2.219   6.955   4.757
 1669SOL     OW 5905   4.939   5.600   6.325
 1669SOL    HW1 5906   4.895   5.541   6.393
 1669SOL    HW2 5907   4.886   5.599   6.240
 1670SOL     OW 5908   6.741   3.661   6.670
 1670SOL    HW1 5909   6.758   3.756   6.645
 1670SOL    HW2 5910   6.784   3.641   6.758
 1671SOL     OW 5911   6.486   4.156   1.432
 1671SOL    HW1 5912   6.464   4.195   1.343
 1671SOL    HW2 5913   6.566   4.203   1.471
 1672SOL     OW 5914   2.351   4.409   3.311
 1672SOL    HW1 5915   2.339   4.342   3.385
 1672SOL    HW2 5916   2.324   4.368   3.224
 1673SOL     OW 5917   6.283   3.377   3.277
 1673SOL    HW1 5918   6.294   3.476   3.277
 1673SOL    HW2 5919   6.373   3.333   3.274
 1674SOL     OW 5920   2.240   6.147   0.463
 1674SOL    HW1 5921   2.267   6.057   0.498
 1674SOL    HW2 5922   2.315   6.211   0.475
 1675SOL     OW 5923   5.264   2.473   6.674
 1675SOL    HW1 5924   5.218   2.436   6.593
 1675SOL    HW2 5925   5.332   2.408   6.706
 1676SOL     OW 5926   2.906   1.821   3.274
 1676SOL    HW1 5927   2.830   1.759   3.258
 1676SOL    HW2 5928   2.943   1.806   3.366
 1677SOL     OW 5929   5.371   6.862   5.934
 1677SOL    HW1 5930   5.279   6.839   5.966
 1677SOL    HW2 5931   5.365   6.927   5.858
 1678SOL     OW 5932   4.341   6.574   2.084
 1678SOL    HW1 5933   4.374   6.663   2.053
 1678SOL    HW2 5934   4.296   6.585   2.173
 1679SOL     OW 5935   6.405   4.549   0.072
 1679SOL    HW1 5936   6.405   4.599   0.159
 1679SOL    HW2 5937   6.465   4.470   0.080
 1680SOL     OW 5938   0.027   1.929   6.054
 1680SOL    HW1 5939   0.088   1.969   5.986
 1680SOL    HW2 5940   0.075   1.919   6.141
 1681SOL     OW 5941   4.633   5.158   1.210
 1681SOL    HW1 5942   4.707   5.225   1.214
 1681SOL    HW2 5943   4.667   5.068   1.238
 1682SOL     OW 5944   0.373   3.690   5.799
 1682SOL    HW1 5945   0.357   3.786   5.781
 1682SOL    HW2 5946   0.469   3.668   5.781
 1683SOL     OW 5947   6.151   5.576   5.375
 1683SOL    HW1 5948   6.106   5.610   5.458
 1683SOL    HW2 5949   6.188   5.485   5.392
 1684SOL     OW 5950   0.610   7.000   4.484
 1684SOL    HW1 5951   0.697   0.021   4.499
 1684SOL    HW2 5952   0.627   6.910   4.443
 1685SOL     OW 5953   1.307   2.257   6.802
 1685SOL    HW1 5954   1.251   2.185   6.843
 1685SOL    HW2 5955   1.348   2.223   6.717
 1686SOL     OW 5956   1.522   0.493   6.361
 1686SOL    HW1 5957   1.463   0.550   6.418
 1686SOL    HW2 5958   1.471   0.413   6.330
 1687SOL     OW 5959   2.820   6.880   2.516
 1687SOL    HW1 5960   2.724   6.861   2.536
 1687SOL    HW2 5961   2.839   6.977   2.534
 1688SOL     OW 5962   0.365   1.821   2.720
 1688SOL    HW1 5963   0.435   1.883   2.686
 1688SOL    HW2 5964   0.362   1.824   2.819
 1689SOL     OW 5965   2.238   1.882   1.307
 1689SOL    HW1 5966   2.169   1.948   1.278
 1689SOL    HW2 5967   2.193   1.802   1.349
 1690SOL     OW 5968   1.488   1.791   6.968
 1690SOL    HW1 5969   1.407   1.842   6.997
 1690SOL    HW2 5970   1.541   1.764   0.023
 1691SOL     OW 5971   4.926   4.544   3.936
 1691SOL    HW1 5972   4.840   4.509   3.973
 1691SOL    HW2 5973   4.917   4.642   3.917
 1692SOL     OW 5974   0.548   6.259   4.184
 1692SOL    HW1 5975   0.513   6.191   4.250
 1692SOL    HW2 5976   0.591   6.334   4.234
 1693SOL     OW 5977   4.108   2.256   4.237
 1693SOL    HW1 5978   4.189   2.199   4.224
 1693SOL    HW2 5979   4.090   2.308   4.154
 1694SOL     OW 5980   6.327   6.560   5.174
 1694SOL    HW1 5981   6.333   6.657   5.198
 1694SOL    HW2 5982   6.231   6.534   5.161
 1695SOL     OW 5983   3.728   1.537   6.520
 1695SOL    HW1 5984   3.804   1.499   6.573
 1695SOL    HW2 5985   3.653   1.560   6.581
 1696SOL     OW 5986   3.430   5.628   2.302
 1696SOL    HW1 5987   3.428   5.528   2.308
 1696SOL    HW2 5988   3.386   5.667   2.384
 1697SOL     OW 5989   1.686   1.529   1.695
 1697SOL    HW1 5990   1.643   1.611   1.658
 1697SOL    HW2 5991   1.751   1.556   1.767
 1698SOL     OW 5992   5.016   1.653   6.665
 1698SOL    HW1 5993   5.018   1.558   6.633
 1698SOL    HW2 5994   4.986   1.713   6.591
 1699SOL     OW 5995   2.577   4.917   1.446
 1699SOL    HW1 5996   2.545   5.009   1.471
 1699SOL    HW2 5997   2.586   4.862   1.528
 1700SOL     OW 5998   5.837   3.332   4.691
 1700SOL    HW1 5999   5.812   3.317   4.596
 1700SOL    HW2 6000   5.760   3.370   4.741
 1701SOL     OW 6001   5.558   3.309   4.797
 1701SOL    HW1 6002   5.570   3.266   4.707
 1701SOL    HW2 6003   5.552   3.239   4.867
 1702SOL     OW 6004   5.208   2.661   1.550
 1702SOL    HW1 6005   5.299   2.695   1.528
 1702SOL    HW2 6006   5.216   2.575   1.600
 1703SOL     OW 6007   2.320   3.967   1.565
 1703SOL    HW1 6008   2.370   3.985   1.650
 1703SOL    HW2 6009   2.222   3.974   1.582
 1704SOL     OW 6010   6.501   1.889   2.250
 1704SOL    HW1 6011   6.484   1.981   2.216
 1704SOL    HW2 6012   6.592   1.860   2.221
 1705SOL     OW 6013   3.766   2.870   2.123
 1705SOL    HW1 6014   3.737   2.884   2.028
 1705SOL    HW2 6015   3.783   2.772   2.138
 1706SOL     OW 6016   2.769   0.631   6.363
 1706SOL    HW1 6017   2.771   0.541   6.320
 1706SOL    HW2 6018   2.861   0.658   6.390
 1707SOL     OW 6019   4.782   1.245   2.474
 1707SOL    HW1 6020   4.700   1.268   2.421
 1707SOL    HW2 6021   4.864   1.264   2.420
 1708SOL     OW 6022   0.518   4.000   0.856
 1708SOL    HW1 6023   0.559   3.928   0.911
 1708SOL    HW2 6024   0.429   4.025   0.895
 1709SOL     OW 6025   3.125   5.135   4.001
 1709SOL    HW1 6026   3.110   5.234   4.009
 1709SOL    HW2 6027   3.102   5.091   4.088
 1710SOL     OW 6028   6.501   3.982   4.919
 1710SOL    HW1 6029   6.447   3.946   4.843
 1710SOL    HW2 6030   6.530   4.076   4.898
 1711SOL     OW 6031   0.570   4.238   6.024
 1711SOL    HW1 6032   0.602   4.311   6.085
 1711SOL    HW2 6033   0.479   4.208   6.053
 1712SOL     OW 6034   1.848   4.422   1.800
 1712SOL    HW1 6035   1.912   4.447   1.872
 1712SOL    HW2 6036   1.891   4.358   1.737
 1713SOL     OW 6037   2.243   3.717   1.018
 1713SOL    HW1 6038   2.171   3.750   0.956
 1713SOL    HW2 6039   2.282   3.795   1.067
 1714SOL     OW 6040   4.489   1.028   0.534
 1714SOL    HW1 6041   4.548   1.070   0.602
 1714SOL    HW2 6042   4.448   1.098   0.476
 1715SOL     OW 6043   1.754   3.655   3.773
 1715SOL    HW1 6044   1.848   3.621   3.778
 1715SOL    HW2 6045   1.719   3.670   3.865
 1716SOL     OW 6046   0.028   6.806   0.518
 1716SOL    HW1 6047   0.087   6.755   0.455
 1716SOL    HW2 6048   0.001   6.892   0.476
 1717SOL     OW 6049   3.350   1.039   0.132
 1717SOL    HW1 6050   3.412   1.114   0.152
 1717SOL    HW2 6051   3.396   0.971   0.074
 1718SOL     OW 6052   1.631   4.031   5.300
 1718SOL    HW1 6053   1.665   3.974   5.375
 1718SOL    HW2 6054   1.676   4.005   5.215
 1719SOL     OW 6055   2.549   2.782   0.769
 1719SOL    HW1 6056   2.627   2.811   0.713
 1719SOL    HW2 6057   2.560   2.686   0.794
 1720SOL     OW 6058   0.249   1.901   2.074
 1720SOL    HW1 6059   0.254   1.831   2.145
 1720SOL    HW2 6060   0.183   1.873   2.004
 1721SOL     OW 6061   0.617   5.786   4.333
 1721SOL    HW1 6062   0.561   5.846   4.277
 1721SOL    HW2 6063   0.597   5.803   4.430
 1722SOL     OW 6064   4.611   0.409   1.775
 1722SOL    HW1 6065   4.614   0.311   1.753
 1722SOL    HW2 6066   4.564   0.422   1.862
 1723SOL     OW 6067   5.961   0.860   3.383
 1723SOL    HW1 6068   5.877   0.915   3.384
 1723SOL    HW2 6069   6.037   0.915   3.418
 1724SOL     OW 6070   5.452   6.792   0.140
 1724SOL    HW1 6071   5.452   6.749   0.231
 1724SOL    HW2 6072   5.489   6.884   0.147
 1725SOL     OW 6073   4.319   5.743   2.313
 1725SOL    HW1 6074   4.238   5.803   2.315
 1725SOL    HW2 6075   4.385   5.779   2.248
 1726SOL     OW 6076   6.127   4.601   5.342
 1726SOL    HW1 6077   6.156   4.542   5.266
 1726SOL    HW2 6078   6.192   4.675   5.354
 1727SOL     OW 6079   2.656   4.636   5.759
 1727SOL    HW1 6080   2.610   4.718   5.724
 1727SOL    HW2 6081   2.646   4.561   5.694
 1728SOL     OW 6082   4.918   6.154   3.795
 1728SOL    HW1 6083   4.893   6.164   3.891
 1728SOL    HW2 6084   4.836   6.132   3.742
 1729SOL     OW 6085   6.586   3.266   3.437
 1729SOL    HW1 6086   6.618   3.321   3.359
 1729SOL    HW2 6087   6.552   3.328   3.508
 1730SOL     OW 6088   4.596   2.417   5.075
 1730SOL    HW1 6089   4.690   2.383   5.075
 1730SOL    HW2 6090   4.534   2.345   5.107
 1731SOL     OW 6091   0.450   6.585   6.268
 1731SOL    HW1 6092   0.351   6.576   6.279
 1731SOL    HW2 6093   0.496   6.515   6.322
 1732SOL     OW 6094   1.440   4.238   6.647
 1732SOL    HW1 6095   1.492   4.218   6.730
 1732SOL    HW2 6096   1.468   4.327   6.611
 1733SOL     OW 6097   1.986   4.057   6.477
 1733SOL    HW1 6098   2.055   3.992   6.509
 1733SOL    HW2 6099   2.020   4.105   6.397
 1734SOL     OW 6100   5.254   4.019   0.607
 1734SOL    HW1 6101   5.244   3.920   0.611
 1734SOL    HW2 6102   5.202   4.055   0.529
 1735SOL     OW 6103   5.029   4.974   6.974
 1735SOL    HW1 6104   5.053   4.933   0.036
 1735SOL    HW2 6105   5.112   4.993   6.922
 1736SOL     OW 6106   3.884   3.501   0.461
 1736SOL    HW1 6107   3.836   3.419   0.430
 1736SOL    HW2 6108   3.974   3.476   0.497
 1737SOL     OW 6109   0.977   6.613   3.010
 1737SOL    HW1 6110   1.044   6.554   3.055
 1737SOL    HW2 6111   0.997   6.709   3.034
 1738SOL     OW 6112   0.550   1.264   2.131
 1738SOL    HW1 6113   0.486   1.220   2.194
 1738SOL    HW2 6114   0.644   1.246   2.161
 1739SOL     OW 6115   4.062   1.601   0.082
 1739SOL    HW1 6116   3.967   1.631   0.094
 1739SOL    HW2 6117   4.113   1.619   0.165
 1740SOL     OW 6118   0.855   1.777   6.644
 1740SOL    HW1 6119   0.851   1.765   6.743
 1740SOL    HW2 6120   0.915   1.707   6.604
 1741SOL     OW 6121   0.697   0.445   2.513
 1741SOL    HW1 6122   0.724   0.387   2.590
 1741SOL    HW2 6123   0.694   0.540   2.543
 1742SOL     OW 6124   5.981   6.314   3.370
 1742SOL    HW1 6125   6.007   6.403   3.408
 1742SOL    HW2 6126   5.945   6.327   3.278
 1743SOL     OW 6127   4.446   1.556   6.775
 1743SOL    HW1 6128   4.389   1.577   6.696
 1743SOL    HW2 6129   4.498   1.637   6.802
 1744SOL     OW 6130   4.039   6.369   1.537
 1744SOL    HW1 6131   4.070   6.289   1.589
 1744SOL    HW2 6132   3.979   6.339   1.463
 1745SOL     OW 6133   0.313   1.808   5.293
 1745SOL    HW1 6134   0.294   1.770   5.383
 1745SOL    HW2 6135   0.347   1.736   5.233
 1746SOL     OW 6136   2.832   1.345   0.466
 1746SOL    HW1 6137   2.927   1.367   0.486
 1746SOL    HW2 6138   2.819   1.338   0.367
 1747SOL     OW 6139   4.248   0.058   4.733
 1747SOL    HW1 6140   4.271   0.124   4.662
 1747SOL    HW2 6141   4.309   0.071   4.811
 1748SOL     OW 6142   5.623   0.998   1.636
 1748SOL    HW1 6143   5.626   0.900   1.621
 1748SOL    HW2 6144   5.699   1.026   1.695
 1749SOL     OW 6145   5.401   6.721   6.167
 1749SOL    HW1 6146   5.408   6.781   6.087
 1749SOL    HW2 6147   5.411   6.626   6.138
 1750SOL     OW 6148   3.584   1.240   3.112
 1750SOL    HW1 6149   3.492   1.216   3.144
 1750SOL    HW2 6150   3.630   1.159   3.077
 1751SOL     OW 6151   2.525   5.834   4.745
 1751SOL    HW1 6152   2.449   5.856   4.807
 1751SOL    HW2 6153   2.559   5.743   4.766
 1752SOL     OW 6154   6.726   2.351   6.226
 1752SOL    HW1 6155   6.815   2.368   6.185
 1752SOL    HW2 6156   6.697   2.258   6.205
 1753SOL     OW 6157   1.443   0.152   2.112
 1753SOL    HW1 6158   1.505   0.074   2.113
 1753SOL    HW2 6159   1.372   0.137   2.043
 1754SOL     OW 6160   2.972   3.641   3.151
 1754SOL    HW1 6161   2.926   3.633   3.063
 1754SOL    HW2 6162   2.971   3.552   3.197
 1755SOL     OW 6163   0.399   4.108   6.659
 1755SOL    HW1 6164   0.315   4.063   6.688
 1755SOL    HW2 6165   0.444   4.149   6.738
 1756SOL     OW 6166   5.664   5.362   5.906
 1756SOL    HW1 6167   5.597   5.406   5.846
 1756SOL    HW2 6168   5.617   5.319   5.983
 1757SOL     OW 6169   4.075   0.339   4.926
 1757SOL    HW1 6170   3.975   0.344   4.920
 1757SOL    HW2 6171   4.102   0.248   4.957
 1758SOL     OW 6172   2.238   1.065   2.916
 1758SOL    HW1 6173   2.335   1.079   2.936
 1758SOL    HW2 6174   2.182   1.119   2.980
 1759SOL     OW 6175   6.575   5.750   6.002
 1759SOL    HW1 6176   6.560   5.833   6.056
 1759SOL    HW2 6177   6.503   5.741   5.933
 1760SOL     OW 6178   4.676   6.337   3.538
 1760SOL    HW1 6179   4.668   6.266   3.607
 1760SOL    HW2 6180   4.630   6.420   3.570
 1761SOL     OW 6181   6.590   3.250   1.247
 1761SOL    HW1 6182   6.606   3.311   1.169
 1761SOL    HW2 6183   6.497   3.214   1.241
 1762SOL     OW 6184   5.935   2.332   0.005
 1762SOL    HW1 6185   6.027   2.299   7.011
 1762SOL    HW2 6186   5.875   2.254   0.024
 1763SOL     OW 6187   2.001   2.117   4.087
 1763SOL    HW1 6188   2.032   2.041   4.030
 1763SOL    HW2 6189   1.953   2.183   4.030
 1764SOL     OW 6190   6.754   4.398   3.477
 1764SOL    HW1 6191   6.847   4.366   3.462
 1764SOL    HW2 6192   6.747   4.494   3.447
 1765SOL     OW 6193   2.251   2.628   6.109
 1765SOL    HW1 6194   2.158   2.653   6.134
 1765SOL    HW2 6195   2.252   2.537   6.068
 1766SOL     OW 6196   6.005   4.425   5.916
 1766SOL    HW1 6197   6.098   4.446   5.944
 1766SOL    HW2 6198   5.974   4.342   5.963
 1767SOL     OW 6199   7.022   4.233   1.250
 1767SOL    HW1 6200   0.074   4.238   1.312
 1767SOL    HW2 6201   6.972   4.320   1.252
 1768SOL     OW 6202   6.382   0.189   3.388
 1768SOL    HW1 6203   6.316   0.191   3.463
 1768SOL    HW2 6204   6.418   0.281   3.373
 1769SOL     OW 6205   4.460   0.491   4.246
 1769SOL    HW1 6206   4.373   0.478   4.293
 1769SOL    HW2 6207   4.473   0.588   4.227
 1770SOL     OW 6208   3.665   5.497   6.268
 1770SOL    HW1 6209   3.720   5.534   6.343
 1770SOL    HW2 6210   3.601   5.567   6.236
 1771SOL     OW 6211   5.066   5.300   6.844
 1771SOL    HW1 6212   5.050   5.331   6.750
 1771SOL    HW2 6213   5.032   5.369   6.908
 1772SOL     OW 6214   1.907   6.072   2.294
 1772SOL    HW1 6215   1.950   5.983   2.279
 1772SOL    HW2 6216   1.973   6.145   2.274
 1773SOL     OW 6217   1.925   6.497   6.881
 1773SOL    HW1 6218   1.832   6.477   6.913
 1773SOL    HW2 6219   1.920   6.561   6.805
 1774SOL     OW 6220   2.744   5.702   1.003
 1774SOL    HW1 6221   2.696   5.614   1.011
 1774SOL    HW2 6222   2.677   5.774   0.985
 1775SOL     OW 6223   0.572   5.479   0.380
 1775SOL    HW1 6224   0.474   5.477   0.359
 1775SOL    HW2 6225   0.604   5.386   0.399
 1776SOL     OW 6226   3.145   6.399   5.272
 1776SOL    HW1 6227   3.159   6.367   5.179
 1776SOL    HW2 6228   3.230   6.389   5.324
 1777SOL     OW 6229   4.463   6.488   6.586
 1777SOL    HW1 6230   4.453   6.572   6.640
 1777SOL    HW2 6231   4.554   6.450   6.601
 1778SOL     OW 6232   1.001   3.512   6.034
 1778SOL    HW1 6233   1.040   3.578   5.969
 1778SOL    HW2 6234   1.068   3.492   6.105
 1779SOL     OW 6235   4.016   6.039   4.878
 1779SOL    HW1 6236   4.110   6.017   4.905
 1779SOL    HW2 6237   3.956   6.035   4.958
 1780SOL     OW 6238   3.877   2.180   6.500
 1780SOL    HW1 6239   3.820   2.131   6.435
 1780SOL    HW2 6240   3.959   2.125   6.521
 1781SOL     OW 6241   1.647   6.400   3.333
 1781SOL    HW1 6242   1.702   6.352   3.265
 1781SOL    HW2 6243   1.707   6.453   3.392
 1782SOL     OW 6244   3.093   1.188   5.167
 1782SOL    HW1 6245   3.149   1.135   5.231
 1782SOL    HW2 6246   3.027   1.243   5.219
 1783SOL     OW 6247   2.049   5.427   0.005
 1783SOL    HW1 6248   2.094   5.353   0.056
 1783SOL    HW2 6249   2.076   5.515   0.042
 1784SOL     OW 6250   0.972   6.593   6.358
 1784SOL    HW1 6251   0.876   6.616   6.379
 1784SOL    HW2 6252   1.032   6.661   6.400
 1785SOL     OW 6253   6.776   4.925   2.712
 1785SOL    HW1 6254   6.806   4.839   2.753
 1785SOL    HW2 6255   6.715   4.973   2.776
 1786SOL     OW 6256   4.295   2.537   1.731
 1786SOL    HW1 6257   4.349   2.453   1.732
 1786SOL    HW2 6258   4.292   2.573   1.638
 1787SOL     OW 6259   4.452   0.156   4.918
 1787SOL    HW1 6260   4.523   0.163   4.847
 1787SOL    HW2 6261   4.451   0.241   4.972
 1788SOL     OW 6262   1.692   5.058   5.043
 1788SOL    HW1 6263   1.628   5.135   5.048
 1788SOL    HW2 6264   1.783   5.088   5.070
 1789SOL     OW 6265   5.021   6.108   0.921
 1789SOL    HW1 6266   5.102   6.165   0.903
 1789SOL    HW2 6267   5.036   6.016   0.886
 1790SOL     OW 6268   2.041   6.541   3.062
 1790SOL    HW1 6269   2.055   6.503   2.970
 1790SOL    HW2 6270   1.943   6.550   3.081
 1791SOL     OW 6271   1.116   0.051   3.085
 1791SOL    HW1 6272   1.082   0.144   3.070
 1791SOL    HW2 6273   1.213   0.047   3.060
 1792SOL     OW 6274   0.213   4.075   4.152
 1792SOL    HW1 6275   0.296   4.130   4.165
 1792SOL    HW2 6276   0.154   4.120   4.085
 1793SOL     OW 6277   0.002   0.818   4.380
 1793SOL    HW1 6278   0.005   0.816   4.480
 1793SOL    HW2 6279   0.056   0.895   4.347
 1794SOL     OW 6280   4.287   6.260   6.508
 1794SOL    HW1 6281   4.277   6.342   6.451
 1794SOL    HW2 6282   4.233   6.185   6.469
 1795SOL     OW 6283   1.063   3.047   6.646
 1795SOL    HW1 6284   1.038   3.029   6.741
 1795SOL    HW2 6285   1.154   3.010   6.627
 1796SOL     OW 6286   4.306   0.211   5.311
 1796SOL    HW1 6287   4.351   0.248   5.230
 1796SOL    HW2 6288   4.241   0.278   5.347
 1797SOL     OW 6289   0.316   0.482   2.444
 1797SOL    HW1 6290   0.368   0.564   2.467
 1797SOL    HW2 6291   0.314   0.420   2.522
 1798SOL     OW 6292   5.819   1.730   3.142
 1798SOL    HW1 6293   5.895   1.687   3.190
 1798SOL    HW2 6294   5.735   1.678   3.157
 1799SOL     OW 6295   2.905   6.710   1.053
 1799SOL    HW1 6296   2.950   6.622   1.037
 1799SOL    HW2 6297   2.913   6.735   1.149
 1800SOL     OW 6298   2.848   4.741   2.261
 1800SOL    HW1 6299   2.935   4.786   2.283
 1800SOL    HW2 6300   2.857   4.689   2.177
 1801SOL     OW 6301   5.703   6.345   0.845
 1801SOL    HW1 6302   5.772   6.340   0.917
 1801SOL    HW2 6303   5.612   6.332   0.885
 1802SOL     OW 6304   5.806   5.693   4.346
 1802SOL    HW1 6305   5.753   5.636   4.283
 1802SOL    HW2 6306   5.898   5.708   4.307
 1803SOL     OW 6307   6.148   4.665   0.489
 1803SOL    HW1 6308   6.049   4.646   0.487
 1803SOL    HW2 6309   6.165   4.757   0.455
 1804SOL     OW 6310   3.101   4.179   6.128
 1804SOL    HW1 6311   3.119   4.153   6.223
 1804SOL    HW2 6312   3.034   4.252   6.125
 1805SOL     OW 6313   0.171   2.621   0.167
 1805SOL    HW1 6314   0.097   2.650   0.228
 1805SOL    HW2 6315   0.199   2.698   0.110
 1806SOL     OW 6316   6.723   6.446   0.493
 1806SOL    HW1 6317   6.706   6.381   0.567
 1806SOL    HW2 6318   6.636   6.483   0.459
 1807SOL     OW 6319   6.848   1.476   5.816
 1807SOL    HW1 6320   6.775   1.419   5.853
 1807SOL    HW2 6321   6.844   1.567   5.858
 1808SOL     OW 6322   2.146   5.083   4.156
 1808SOL    HW1 6323   2.167   5.164   4.210
 1808SOL    HW2 6324   2.225   5.022   4.154
 1809SOL     OW 6325   3.820   0.366   5.981
 1809SOL    HW1 6326   3.790   0.278   6.018
 1809SOL    HW2 6327   3.775   0.440   6.031
 1810SOL     OW 6328   3.650   6.309   3.917
 1810SOL    HW1 6329   3.663   6.407   3.904
 1810SOL    HW2 6330   3.608   6.292   4.006
 1811SOL     OW 6331   4.841   5.478   2.839
 1811SOL    HW1 6332   4.759   5.492   2.895
 1811SOL    HW2 6333   4.910   5.430   2.893
 1812SOL     OW 6334   4.756   4.682   5.178
 1812SOL    HW1 6335   4.764   4.609   5.245
 1812SOL    HW2 6336   4.847   4.712   5.148
 1813SOL     OW 6337   0.542   6.856   5.069
 1813SOL    HW1 6338   0.626   6.892   5.111
 1813SOL    HW2 6339   0.550   6.757   5.060
 1814SOL     OW 6340   4.222   0.005   2.543
 1814SOL    HW1 6341   4.234   6.932   2.543
 1814SOL    HW2 6342   4.312   0.049   2.541
 1815SOL     OW 6343   0.428   1.212   3.032
 1815SOL    HW1 6344   0.343   1.162   3.014
 1815SOL    HW2 6345   0.430   1.296   2.977
 1816SOL     OW 6346   1.325   5.217   0.489
 1816SOL    HW1 6347   1.251   5.190   0.427
 1816SOL    HW2 6348   1.412   5.216   0.439
 1817SOL     OW 6349   1.221   4.119   1.717
 1817SOL    HW1 6350   1.265   4.167   1.641
 1817SOL    HW2 6351   1.289   4.062   1.764
 1818SOL     OW 6352   0.477   1.981   3.081
 1818SOL    HW1 6353   0.449   2.043   3.007
 1818SOL    HW2 6354   0.405   1.978   3.150
 1819SOL     OW 6355   1.511   4.125   2.397
 1819SOL    HW1 6356   1.588   4.107   2.458
 1819SOL    HW2 6357   1.542   4.119   2.302
 1820SOL     OW 6358   5.561   6.792   2.296
 1820SOL    HW1 6359   5.605   6.848   2.367
 1820SOL    HW2 6360   5.497   6.849   2.245
 1821SOL     OW 6361   1.427   2.232   3.197
 1821SOL    HW1 6362   1.330   2.234   3.221
 1821SOL    HW2 6363   1.438   2.259   3.102
 1822SOL     OW 6364   3.336   3.475   2.127
 1822SOL    HW1 6365   3.291   3.398   2.082
 1822SOL    HW2 6366   3.371   3.446   2.216
 1823SOL     OW 6367   3.839   6.661   2.474
 1823SOL    HW1 6368   3.894   6.732   2.429
 1823SOL    HW2 6369   3.829   6.684   2.571
 1824SOL     OW 6370   5.026   1.343   1.973
 1824SOL    HW1 6371   5.064   1.257   2.008
 1824SOL    HW2 6372   4.951   1.372   2.032
 1825SOL     OW 6373   0.689   0.106   1.465
 1825SOL    HW1 6374   0.643   0.190   1.435
 1825SOL    HW2 6375   0.674   0.034   1.397
 1826SOL     OW 6376   2.510   5.183   6.269
 1826SOL    HW1 6377   2.440   5.153   6.204
 1826SOL    HW2 6378   2.561   5.260   6.231
 1827SOL     OW 6379   5.433   0.601   0.627
 1827SOL    HW1 6380   5.400   0.605   0.721
 1827SOL    HW2 6381   5.360   0.628   0.564
 1828SOL     OW 6382   3.167   2.740   0.200
 1828SOL    HW1 6383   3.130   2.661   0.249
 1828SOL    HW2 6384   3.253   2.713   0.154
 1829SOL     OW 6385   5.309   5.347   2.353
 1829SOL    HW1 6386   5.287   5.430   2.302
 1829SOL    HW2 6387   5.346   5.372   2.442
 1830SOL     OW 6388   4.471   0.609   4.787
 1830SOL    HW1 6389   4.547   0.548   4.766
 1830SOL    HW2 6390   4.384   0.560   4.779
 1831SOL     OW 6391   4.935   1.052   3.052
 1831SOL    HW1 6392   4.935   0.987   3.128
 1831SOL    HW2 6393   4.845   1.055   3.009
 1832SOL     OW 6394   6.078   2.835   6.696
 1832SOL    HW1 6395   6.063   2.931   6.672
 1832SOL    HW2 6396   6.098   2.782   6.614
 1833SOL     OW 6397   5.958   1.985   6.027
 1833SOL    HW1 6398   6.013   2.031   5.957
 1833SOL    HW2 6399   6.004   1.993   6.116
 1834SOL     OW 6400   2.619   4.049   6.932
 1834SOL    HW1 6401   2.616   3.959   6.888
 1834SOL    HW2 6402   2.553   4.110   6.889
 1835SOL     OW 6403   2.109   4.707   0.637
 1835SOL    HW1 6404   2.192   4.657   0.661
 1835SOL    HW2 6405   2.082   4.683   0.544
 1836SOL     OW 6406   0.486   6.529   0.568
 1836SOL    HW1 6407   0.447   6.595   0.632
 1836SOL    HW2 6408   0.423   6.518   0.490
 1837SOL     OW 6409   6.914   3.102   4.298
 1837SOL    HW1 6410   7.002   3.149   4.288
 1837SOL    HW2 6411   6.911   3.025   4.234
 1838SOL     OW 6412   1.036   2.943   4.200
 1838SOL    HW1 6413   0.943   2.915   4.221
 1838SOL    HW2 6414   1.094   2.863   4.190
 1839SOL     OW 6415   1.584   1.080   6.756
 1839SOL    HW1 6416   1.486   1.095   6.742
 1839SOL    HW2 6417   1.632   1.168   6.748
 1840SOL     OW 6418   1.030   5.305   1.439
 1840SOL    HW1 6419   1.063   5.341   1.526
 1840SOL    HW2 6420   1.037   5.376   1.368
 1841SOL     OW 6421   1.899   2.959   4.274
 1841SOL    HW1 6422   1.980   2.900   4.265
 1841SOL    HW2 6423   1.920   3.034   4.337
 1842SOL     OW 6424   1.801   5.398   6.508
 1842SOL    HW1 6425   1.765   5.383   6.415
 1842SOL    HW2 6426   1.728   5.435   6.565
 1843SOL     OW 6427   4.853   2.289   5.343
 1843SOL    HW1 6428   4.808   2.310   5.430
 1843SOL    HW2 6429   4.889   2.196   5.345
 1844SOL     OW 6430   5.605   5.105   3.750
 1844SOL    HW1 6431   5.569   5.189   3.791
 1844SOL    HW2 6432   5.596   5.110   3.651
 1845SOL     OW 6433   5.344   6.551   0.923
 1845SOL    HW1 6434   5.392   6.585   0.842
 1845SOL    HW2 6435   5.278   6.620   0.953
 1846SOL     OW 6436   3.621   1.082   5.535
 1846SOL    HW1 6437   3.596   0.986   5.527
 1846SOL    HW2 6438   3.543   1.140   5.512
 1847SOL     OW 6439   1.301   5.968   6.418
 1847SOL    HW1 6440   1.271   6.063   6.430
 1847SOL    HW2 6441   1.232   5.917   6.367
 1848SOL     OW 6442   2.363   1.747   4.352
 1848SOL    HW1 6443   2.271   1.708   4.362
 1848SOL    HW2 6444   2.420   1.718   4.429
 1849SOL     OW 6445   2.618   0.925   5.351
 1849SOL    HW1 6446   2.695   0.970   5.306
 1849SOL    HW2 6447   2.539   0.986   5.351
 1850SOL     OW 6448   5.131   2.095   1.114
 1850SOL    HW1 6449   5.095   2.122   1.203
 1850SOL    HW2 6450   5.062   2.043   1.064
 1851SOL     OW 6451   6.275   4.472   2.961
 1851SOL    HW1 6452   6.278   4.374   2.945
 1851SOL    HW2 6453   6.302   4.492   3.055
 1852SOL     OW 6454   5.645   1.971   5.726
 1852SOL    HW1 6455   5.640   2.010   5.818
 1852SOL    HW2 6456   5.623   1.874   5.730
 1853SOL     OW 6457   1.534   5.202   0.326
 1853SOL    HW1 6458   1.574   5.281   0.280
 1853SOL    HW2 6459   1.483   5.147   0.259
 1854SOL     OW 6460   2.420   5.248   4.450
 1854SOL    HW1 6461   2.452   5.231   4.543
 1854SOL    HW2 6462   2.424   5.346   4.431
 1855SOL     OW 6463   6.274   4.647   1.881
 1855SOL    HW1 6464   6.273   4.733   1.932
 1855SOL    HW2 6465   6.320   4.660   1.793
 1856SOL     OW 6466   5.269   2.764   0.224
 1856SOL    HW1 6467   5.357   2.725   0.251
 1856SOL    HW2 6468   5.208   2.767   0.303
 1857SOL     OW 6469   5.564   1.224   3.363
 1857SOL    HW1 6470   5.586   1.268   3.276
 1857SOL    HW2 6471   5.490   1.273   3.408
 1858SOL     OW 6472   5.544   3.754   2.350
 1858SOL    HW1 6473   5.524   3.687   2.279
 1858SOL    HW2 6474   5.500   3.726   2.436
 1859SOL     OW 6475   5.830   2.266   4.083
 1859SOL    HW1 6476   5.787   2.219   4.160
 1859SOL    HW2 6477   5.761   2.313   4.029
 1860SOL     OW 6478   3.681   2.079   5.137
 1860SOL    HW1 6479   3.682   2.057   5.039
 1860SOL    HW2 6480   3.618   2.018   5.184
 1861SOL     OW 6481   4.710   6.671   2.092
 1861SOL    HW1 6482   4.665   6.726   2.163
 1861SOL    HW2 6483   4.657   6.676   2.007
 1862SOL     OW 6484   3.199   2.623   1.221
 1862SOL    HW1 6485   3.298   2.621   1.236
 1862SOL    HW2 6486   3.170   2.542   1.171
 1863SOL     OW 6487   2.134   1.635   1.383
 1863SOL    HW1 6488   2.218   1.590   1.352
 1863SOL    HW2 6489   2.089   1.578   1.452
 1864SOL     OW 6490   7.016   6.602   3.320
 1864SOL    HW1 6491   7.009   6.590   3.221
 1864SOL    HW2 6492   0.085   6.614   3.346
 1865SOL     OW 6493   5.906   3.202   6.918
 1865SOL    HW1 6494   5.958   3.135   6.971
 1865SOL    HW2 6495   5.960   3.286   6.908
 1866SOL     OW 6496   6.059   5.588   1.691
 1866SOL    HW1 6497   5.978   5.638   1.661
 1866SOL    HW2 6498   6.032   5.500   1.730
 1867SOL     OW 6499   1.733   4.193   6.845
 1867SOL    HW1 6500   1.732   4.099   6.810
 1867SOL    HW2 6501   1.823   4.212   6.886
 1868SOL     OW 6502   6.300   4.157   5.379
 1868SOL    HW1 6503   6.316   4.119   5.288
 1868SOL    HW2 6504   6.201   4.159   5.398
 1869SOL     OW 6505   5.711   1.228   5.262
 1869SOL    HW1 6506   5.614   1.208   5.276
 1869SOL    HW2 6507   5.727   1.250   5.166
 1870SOL     OW 6508   1.838   3.672   5.065
 1870SOL    HW1 6509   1.795   3.586   5.038
 1870SOL    HW2 6510   1.916   3.652   5.124
 1871SOL     OW 6511   2.188   1.392   1.011
 1871SOL    HW1 6512   2.220   1.337   0.934
 1871SOL    HW2 6513   2.111   1.449   0.982
 1872SOL     OW 6514   1.401   5.313   6.554
 1872SOL    HW1 6515   1.422   5.411   6.562
 1872SOL    HW2 6516   1.306   5.302   6.528
 1873SOL     OW 6517   5.629   6.185   0.000
 1873SOL    HW1 6518   5.584   6.198   0.088
 1873SOL    HW2 6519   5.656   6.274   6.989
 1874SOL     OW 6520   0.787   4.285   3.091
 1874SOL    HW1 6521   0.743   4.196   3.104
 1874SOL    HW2 6522   0.883   4.272   3.069
 1875SOL     OW 6523   0.363   0.165   2.320
 1875SOL    HW1 6524   0.341   0.097   2.250
 1875SOL    HW2 6525   0.321   0.252   2.296
 1876SOL     OW 6526   1.818   5.916   4.289
 1876SOL    HW1 6527   1.723   5.887   4.303
 1876SOL    HW2 6528   1.827   6.012   4.315
 1877SOL     OW 6529   7.013   0.470   4.598
 1877SOL    HW1 6530   6.953   0.391   4.595
 1877SOL    HW2 6531   0.035   0.480   4.511
 1878SOL     OW 6532   6.399   3.127   5.558
 1878SOL    HW1 6533   6.416   3.225   5.543
 1878SOL    HW2 6534   6.485   3.076   5.548
 1879SOL     OW 6535   1.895   5.751   5.575
 1879SOL    HW1 6536   1.863   5.760   5.480
 1879SOL    HW2 6537   1.841   5.811   5.633
 1880SOL     OW 6538   6.795   0.412   4.120
 1880SOL    HW1 6539   6.743   0.490   4.155
 1880SOL    HW2 6540   6.788   0.335   4.184
 1881SOL     OW 6541   0.817   2.421   6.851
 1881SOL    HW1 6542   0.735   2.478   6.854
 1881SOL    HW2 6543   0.888   2.467   6.797
 1882SOL     OW 6544   0.721   6.345   0.193
 1882SOL    HW1 6545   0.698   6.435   0.158
 1882SOL    HW2 6546   0.664   6.325   0.273
 1883SOL     OW 6547   0.380   2.465   4.325
 1883SOL    HW1 6548   0.376   2.382   4.380
 1883SOL    HW2 6549   0.307   2.528   4.353
 1884SOL     OW 6550   5.863   1.965   1.241
 1884SOL    HW1 6551   5.936   1.900   1.218
 1884SOL    HW2 6552   5.775   1.920   1.230
 1885SOL     OW 6553   2.987   1.255   4.758
 1885SOL    HW1 6554   3.049   1.182   4.788
 1885SOL    HW2 6555   2.924   1.218   4.689
 1886SOL     OW 6556   0.684   6.593   3.441
 1886SOL    HW1 6557   0.637   6.629   3.361
 1886SOL    HW2 6558   0.776   6.632   3.446
 1887SOL     OW 6559   2.322   5.477   6.564
 1887SOL    HW1 6560   2.256   5.436   6.501
 1887SOL    HW2 6561   2.277   5.496   6.651
 1888SOL     OW 6562   1.953   0.402   3.595
 1888SOL    HW1 6563   1.971   0.450   3.509
 1888SOL    HW2 6564   1.911   0.313   3.576
 1889SOL     OW 6565   0.463   3.403   2.551
 1889SOL    HW1 6566   0.509   3.456   2.623
 1889SOL    HW2 6567   0.531   3.368   2.486
 1890SOL     OW 6568   1.807   5.724   4.995
 1890SOL    HW1 6569   1.820   5.805   4.938
 1890SOL    HW2 6570   1.756   5.655   4.943
 1891SOL     OW 6571   3.737   3.408   4.052
 1891SOL    HW1 6572   3.701   3.323   4.090
 1891SOL    HW2 6573   3.806   3.387   3.983
 1892SOL     OW 6574   0.082   0.965   2.680
 1892SOL    HW1 6575   0.159   0.966   2.616
 1892SOL    HW2 6576   0.024   0.885   2.661
 1893SOL     OW 6577   3.194   3.330   3.777
 1893SOL    HW1 6578   3.134   3.397   3.820
 1893SOL    HW2 6579   3.276   3.317   3.833
 1894SOL     OW 6580   2.843   2.674   5.562
 1894SOL    HW1 6581   2.897   2.742   5.512
 1894SOL    HW2 6582   2.881   2.663   5.654
 1895SOL     OW 6583   1.063   6.461   1.549
 1895SOL    HW1 6584   1.091   6.370   1.581
 1895SOL    HW2 6585   1.128   6.529   1.581
 1896SOL     OW 6586   6.579   2.495   0.736
 1896SOL    HW1 6587   6.569   2.488   0.637
 1896SOL    HW2 6588   6.545   2.584   0.767
 1897SOL     OW 6589   2.543   4.545   3.123
 1897SOL    HW1 6590   2.544   4.462   3.179
 1897SOL    HW2 6591   2.448   4.570   3.103
 1898SOL     OW 6592   1.999   5.952   1.765
 1898SOL    HW1 6593   2.061   6.001   1.704
 1898SOL    HW2 6594   1.946   6.018   1.819
 1899SOL     OW 6595   7.018   0.805   2.139
 1899SOL    HW1 6596   0.046   0.736   2.188
 1899SOL    HW2 6597   6.950   0.759   2.082
 1900SOL     OW 6598   3.224   6.171   6.185
 1900SOL    HW1 6599   3.235   6.270   6.193
 1900SOL    HW2 6600   3.192   6.134   6.272
 1901SOL     OW 6601   3.985   3.205   2.376
 1901SOL    HW1 6602   3.981   3.179   2.280
 1901SOL    HW2 6603   3.919   3.150   2.428
 1902SOL     OW 6604   1.333   6.790   5.330
 1902SOL    HW1 6605   1.350   6.738   5.413
 1902SOL    HW2 6606   1.421   6.820   5.292
 1903SOL     OW 6607   0.583   2.443   4.151
 1903SOL    HW1 6608   0.516   2.465   4.222
 1903SOL    HW2 6609   0.604   2.525   4.098
 1904SOL     OW 6610   5.640   6.005   1.942
 1904SOL    HW1 6611   5.721   5.970   1.897
 1904SOL    HW2 6612   5.644   6.105   1.947
 1905SOL     OW 6613   0.347   2.864   3.425
 1905SOL    HW1 6614   0.287   2.802   3.475
 1905SOL    HW2 6615   0.315   2.958   3.437
 1906SOL     OW 6616   0.491   6.664   3.614
 1906SOL    HW1 6617   0.579   6.650   3.568
 1906SOL    HW2 6618   0.420   6.610   3.568
 1907SOL     OW 6619   6.752   2.947   0.737
 1907SOL    HW1 6620   6.811   2.963   0.816
 1907SOL    HW2 6621   6.766   3.019   0.669
 1908SOL     OW 6622   4.615   0.649   1.631
 1908SOL    HW1 6623   4.587   0.579   1.697
 1908SOL    HW2 6624   4.542   0.716   1.619
 1909SOL     OW 6625   6.696   5.478   4.711
 1909SOL    HW1 6626   6.657   5.504   4.799
 1909SOL    HW2 6627   6.632   5.418   4.662
 1910SOL     OW 6628   6.999   6.340   4.883
 1910SOL    HW1 6629   0.072   6.353   4.888
 1910SOL    HW2 6630   6.953   6.409   4.937
 1911SOL     OW 6631   5.680   6.023   3.703
 1911SOL    HW1 6632   5.748   6.054   3.637
 1911SOL    HW2 6633   5.653   6.100   3.761
 1912SOL     OW 6634   3.673   4.949   2.314
 1912SOL    HW1 6635   3.684   5.035   2.364
 1912SOL    HW2 6636   3.575   4.927   2.305
 1913SOL     OW 6637   2.892   4.148   6.532
 1913SOL    HW1 6638   2.941   4.208   6.596
 1913SOL    HW2 6639   2.811   4.110   6.578
 1914SOL     OW 6640   4.449   4.747   0.355
 1914SOL    HW1 6641   4.516   4.818   0.336
 1914SOL    HW2 6642   4.484   4.689   0.429
 1915SOL     OW 6643   4.439   1.672   0.071
 1915SOL    HW1 6644   4.397   1.718   7.018
 1915SOL    HW2 6645   4.448   1.574   0.052
 1916SOL     OW 6646   3.586   1.694   3.098
 1916SOL    HW1 6647   3.608   1.602   3.066
 1916SOL    HW2 6648   3.500   1.691   3.150
 1917SOL     OW 6649   2.633   3.972   1.524
 1917SOL    HW1 6650   2.706   4.037   1.504
 1917SOL    HW2 6651   2.659   3.917   1.604
 1918SOL     OW 6652   4.871   3.101   4.138
 1918SOL    HW1 6653   4.788   3.076   4.089
 1918SOL    HW2 6654   4.949   3.052   4.098
 1919SOL     OW 6655   6.486   0.875   6.365
 1919SOL    HW1 6656   6.585   0.879   6.377
 1919SOL    HW2 6657   6.449   0.798   6.418
 1920SOL     OW 6658   4.693   3.549   0.666
 1920SOL    HW1 6659   4.646   3.482   0.608
 1920SOL    HW2 6660   4.753   3.502   0.730
 1921SOL     OW 6661   3.026   1.927   6.991
 1921SOL    HW1 6662   2.998   1.916   0.060
 1921SOL    HW2 6663   2.952   1.898   6.930
 1922SOL     OW 6664   3.607   3.164   4.132
 1922SOL    HW1 6665   3.511   3.137   4.137
 1922SOL    HW2 6666   3.658   3.098   4.078
 1923SOL     OW 6667   3.062   0.181   4.091
 1923SOL    HW1 6668   2.974   0.226   4.101
 1923SOL    HW2 6669   3.132   0.249   4.071
 1924SOL     OW 6670   5.215   0.863   1.264
 1924SOL    HW1 6671   5.153   0.936   1.293
 1924SOL    HW2 6672   5.176   0.774   1.291
 1925SOL     OW 6673   1.275   4.550   1.035
 1925SOL    HW1 6674   1.179   4.530   1.054
 1925SOL    HW2 6675   1.292   4.538   0.937
 1926SOL     OW 6676   2.494   6.932   1.270
 1926SOL    HW1 6677   2.535   6.876   1.342
 1926SOL    HW2 6678   2.543   6.916   1.184
 1927SOL     OW 6679   1.811   4.980   1.277
 1927SOL    HW1 6680   1.802   5.056   1.214
 1927SOL    HW2 6681   1.725   4.928   1.281
 1928SOL     OW 6682   1.511   4.130   3.033
 1928SOL    HW1 6683   1.544   4.043   2.996
 1928SOL    HW2 6684   1.520   4.201   2.964
 1929SOL     OW 6685   3.294   0.462   3.286
 1929SOL    HW1 6686   3.222   0.397   3.261
 1929SOL    HW2 6687   3.332   0.503   3.203
 1930SOL     OW 6688   3.225   3.821   6.930
 1930SOL    HW1 6689   3.253   3.726   6.912
 1930SOL    HW2 6690   3.247   3.844   7.025
 1931SOL     OW 6691   5.603   3.347   3.303
 1931SOL    HW1 6692   5.551   3.262   3.298
 1931SOL    HW2 6693   5.616   3.373   3.399
 1932SOL     OW 6694   4.983   0.924   1.846
 1932SOL    HW1 6695   5.035   0.945   1.763
 1932SOL    HW2 6696   5.046   0.916   1.923
 1933SOL     OW 6697   1.792   1.045   1.201
 1933SOL    HW1 6698   1.861   1.068   1.132
 1933SOL    HW2 6699   1.734   1.125   1.218
 1934SOL     OW 6700   6.209   0.603   0.373
 1934SOL    HW1 6701   6.166   0.574   0.459
 1934SOL    HW2 6702   6.138   0.619   0.305
 1935SOL     OW 6703   5.671   5.340   3.223
 1935SOL    HW1 6704   5.721   5.425   3.241
 1935SOL    HW2 6705   5.573   5.360   3.221
 1936SOL     OW 6706   5.992   3.086   6.649
 1936SOL    HW1 6707   5.950   3.124   6.731
 1936SOL    HW2 6708   5.931   3.097   6.571
 1937SOL     OW 6709   1.156   5.022   6.628
 1937SOL    HW1 6710   1.113   5.063   6.709
 1937SOL    HW2 6711   1.244   4.982   6.654
 1938SOL     OW 6712   0.031   1.339   6.744
 1938SOL    HW1 6713   0.088   1.415   6.777
 1938SOL    HW2 6714   0.087   1.275   6.692
 1939SOL     OW 6715   6.903   0.990   3.928
 1939SOL    HW1 6716   6.832   0.943   3.980
 1939SOL    HW2 6717   6.863   1.068   3.880
 1940SOL     OW 6718   0.964   5.462   2.150
 1940SOL    HW1 6719   1.036   5.416   2.201
 1940SOL    HW2 6720   0.925   5.399   2.082
 1941SOL     OW 6721   6.446   0.544   3.779
 1941SOL    HW1 6722   6.535   0.582   3.805
 1941SOL    HW2 6723   6.434   0.553   3.680
 1942SOL     OW 6724   0.760   6.452   1.900
 1942SOL    HW1 6725   0.782   6.517   1.973
 1942SOL    HW2 6726   0.819   6.371   1.909
 1943SOL     OW 6727   1.058   4.287   3.891
 1943SOL    HW1 6728   1.011   4.366   3.930
 1943SOL    HW2 6729   0.991   4.220   3.859
 1944SOL     OW 6730   7.004   3.798   3.959
 1944SOL    HW1 6731   0.043   3.778   4.032
 1944SOL    HW2 6732   6.932   3.729   3.958
 1945SOL     OW 6733   4.456   1.559   2.364
 1945SOL    HW1 6734   4.426   1.631   2.301
 1945SOL    HW2 6735   4.549   1.577   2.394
 1946SOL     OW 6736   5.913   4.736   6.775
 1946SOL    HW1 6737   5.912   4.754   6.676
 1946SOL    HW2 6738   5.820   4.736   6.810
 1947SOL     OW 6739   5.326   6.034   2.232
 1947SOL    HW1 6740   5.401   5.979   2.195
 1947SOL    HW2 6741   5.350   6.131   2.226
 1948SOL     OW 6742   4.876   2.918   3.032
 1948SOL    HW1 6743   4.862   2.908   3.131
 1948SOL    HW2 6744   4.904   3.012   3.012
 1949SOL     OW 6745   3.193   4.206   6.389
 1949SOL    HW1 6746   3.257   4.277   6.419
 1949SOL    HW2 6747   3.140   4.173   6.468
 1950SOL     OW 6748   3.960   3.114   4.395
 1950SOL    HW1 6749   3.981   3.094   4.491
 1950SOL    HW2 6750   3.867   3.152   4.388
 1951SOL     OW 6751   0.801   5.366   6.038
 1951SOL    HW1 6752   0.771   5.279   6.078
 1951SOL    HW2 6753   0.794   5.438   6.106
 1952SOL     OW 6754   5.455   3.738   0.033
 1952SOL    HW1 6755   5.392   3.697   6.993
 1952SOL    HW2 6756   5.472   3.834   0.008
 1953SOL     OW 6757   0.265   0.962   6.166
 1953SOL    HW1 6758   0.222   0.919   6.246
 1953SOL    HW2 6759   0.204   0.955   6.087
 1954SOL     OW 6760   4.181   6.795   3.156
 1954SOL    HW1 6761   4.163   6.700   3.128
 1954SOL    HW2 6762   4.266   6.798   3.209
 1955SOL     OW 6763   0.150   3.496   3.952
 1955SOL    HW1 6764   0.177   3.562   4.022
 1955SOL    HW2 6765   0.231   3.450   3.916
 1956SOL     OW 6766   4.728   1.249   1.503
 1956SOL    HW1 6767   4.715   1.171   1.563
 1956SOL    HW2 6768   4.646   1.306   1.504
 1957SOL     OW 6769   0.576   3.613   4.813
 1957SOL    HW1 6770   0.590   3.515   4.796
 1957SOL    HW2 6771   0.647   3.665   4.767
 1958SOL     OW 6772   5.603   1.735   0.193
 1958SOL    HW1 6773   5.633   1.731   0.288
 1958SOL    HW2 6774   5.645   1.813   0.147
 1959SOL     OW 6775   1.908   1.437   5.844
 1959SOL    HW1 6776   1.996   1.427   5.797
 1959SOL    HW2 6777   1.920   1.498   5.923
 1960SOL     OW 6778   4.779   4.352   2.037
 1960SOL    HW1 6779   4.695   4.314   1.998
 1960SOL    HW2 6780   4.776   4.343   2.137
 1961SOL     OW 6781   6.704   3.595   4.476
 1961SOL    HW1 6782   6.608   3.588   4.450
 1961SOL    HW2 6783   6.712   3.600   4.576
 1962SOL     OW 6784   0.277   0.046   2.533
 1962SOL    HW1 6785   0.191   0.090   2.557
 1962SOL    HW2 6786   0.331   0.107   2.475
 1963SOL     OW 6787   0.754   1.147   6.648
 1963SOL    HW1 6788   0.832   1.206   6.670
 1963SOL    HW2 6789   0.778   1.085   6.574
 1964SOL     OW 6790   5.305   3.238   0.623
 1964SOL    HW1 6791   5.332   3.248   0.718
 1964SOL    HW2 6792   5.246   3.315   0.596
 1965SOL     OW 6793   5.471   5.337   4.811
 1965SOL    HW1 6794   5.496   5.434   4.809
 1965SOL    HW2 6795   5.549   5.283   4.780
 1966SOL     OW 6796   2.182   4.953   6.827
 1966SOL    HW1 6797   2.101   5.010   6.842
 1966SOL    HW2 6798   2.154   4.857   6.820
 1967SOL     OW 6799   6.324   2.845   3.929
 1967SOL    HW1 6800   6.400   2.830   3.865
 1967SOL    HW2 6801   6.312   2.764   3.986
 1968SOL     OW 6802   2.787   1.483   5.635
 1968SOL    HW1 6803   2.736   1.417   5.581
 1968SOL    HW2 6804   2.843   1.435   5.703
 1969SOL     OW 6805   0.391   6.503   1.842
 1969SOL    HW1 6806   0.330   6.433   1.805
 1969SOL    HW2 6807   0.428   6.472   1.930
 1970SOL     OW 6808   5.211   4.358   2.737
 1970SOL    HW1 6809   5.228   4.285   2.671
 1970SOL    HW2 6810   5.295   4.376   2.789
 1971SOL     OW 6811   1.219   5.587   4.298
 1971SOL    HW1 6812   1.297   5.587   4.235
 1971SOL    HW2 6813   1.135   5.604   4.246
 1972SOL     OW 6814   5.336   2.503   3.671
 1972SOL    HW1 6815   5.252   2.463   3.634
 1972SOL    HW2 6816   5.319   2.535   3.764
 1973SOL     OW 6817   4.533   2.040   6.870
 1973SOL    HW1 6818   4.550   1.942   6.884
 1973SOL    HW2 6819   4.563   2.091   6.951
 1974SOL     OW 6820   2.110   6.262   4.359
 1974SOL    HW1 6821   2.113   6.162   4.366
 1974SOL    HW2 6822   2.162   6.302   4.434
 1975SOL     OW 6823   2.018   2.352   2.653
 1975SOL    HW1 6824   2.076   2.406   2.714
 1975SOL    HW2 6825   2.069   2.271   2.623
 1976SOL     OW 6826   2.628   0.496   4.770
 1976SOL    HW1 6827   2.707   0.497   4.710
 1976SOL    HW2 6828   2.550   0.537   4.723
 1977SOL     OW 6829   1.258   4.448   0.185
 1977SOL    HW1 6830   1.255   4.402   0.096
 1977SOL    HW2 6831   1.329   4.406   0.242
 1978SOL     OW 6832   2.711   0.592   2.453
 1978SOL    HW1 6833   2.625   0.614   2.500
 1978SOL    HW2 6834   2.714   0.638   2.365
 1979SOL     OW 6835   5.646   2.972   7.021
 1979SOL    HW1 6836   5.574   3.031   0.031
 1979SOL    HW2 6837   5.692   2.926   0.070
 1980SOL     OW 6838   4.135   6.711   1.203
 1980SOL    HW1 6839   4.154   6.672   1.293
 1980SOL    HW2 6840   4.221   6.739   1.160
 1981SOL     OW 6841   4.544   2.775   1.436
 1981SOL    HW1 6842   4.636   2.750   1.407
 1981SOL    HW2 6843   4.545   2.799   1.534
 1982SOL     OW 6844   3.017   1.710   6.267
 1982SOL    HW1 6845   3.073   1.675   6.192
 1982SOL    HW2 6846   3.022   1.809   6.269
 1983SOL     OW 6847   6.950   2.061   0.669
 1983SOL    HW1 6848   7.001   2.063   0.755
 1983SOL    HW2 6849   6.856   2.092   0.686
 1984SOL     OW 6850   4.707   3.154   6.389
 1984SOL    HW1 6851   4.609   3.171   6.378
 1984SOL    HW2 6852   4.728   3.138   6.485
 1985SOL     OW 6853   5.056   5.677   5.248
 1985SOL    HW1 6854   5.003   5.596   5.273
 1985SOL    HW2 6855   5.084   5.670   5.153
 1986SOL     OW 6856   3.337   3.463   3.128
 1986SOL    HW1 6857   3.429   3.488   3.099
 1986SOL    HW2 6858   3.286   3.545   3.151
 1987SOL     OW 6859   1.679   2.135   1.836
 1987SOL    HW1 6860   1.773   2.156   1.862
 1987SOL    HW2 6861   1.620   2.142   1.917
 1988SOL     OW 6862   1.200   1.692   2.463
 1988SOL    HW1 6863   1.101   1.702   2.463
 1988SOL    HW2 6864   1.224   1.595   2.462
 1989SOL     OW 6865   3.282   5.196   3.638
 1989SOL    HW1 6866   3.200   5.250   3.622
 1989SOL    HW2 6867   3.344   5.246   3.699
 1990SOL     OW 6868   4.712   0.138   0.623
 1990SOL    HW1 6869   4.712   0.064   0.690
 1990SOL    HW2 6870   4.714   0.226   0.670
 1991SOL     OW 6871   3.037   5.112   2.312
 1991SOL    HW1 6872   3.094   5.150   2.384
 1991SOL    HW2 6873   2.948   5.157   2.312
 1992SOL     OW 6874   0.634   1.032   2.989
 1992SOL    HW1 6875   0.553   1.088   3.009
 1992SOL    HW2 6876   0.617   0.938   3.019
 1993SOL     OW 6877   1.442   0.933   1.113
 1993SOL    HW1 6878   1.496   1.011   1.080
 1993SOL    HW2 6879   1.417   0.948   1.209
 1994SOL     OW 6880   3.013   3.685   1.447
 1994SOL    HW1 6881   3.028   3.779   1.419
 1994SOL    HW2 6882   2.921   3.675   1.486
 1995SOL     OW 6883   6.360   0.492   4.242
 1995SOL    HW1 6884   6.375   0.543   4.327
 1995SOL    HW2 6885   6.299   0.545   4.182
 1996SOL     OW 6886   4.446   0.133   0.857
 1996SOL    HW1 6887   4.393   0.078   0.923
 1996SOL    HW2 6888   4.527   0.082   0.829
 1997SOL     OW 6889   2.679   1.827   2.890
 1997SOL    HW1 6890   2.764   1.878   2.883
 1997SOL    HW2 6891   2.679   1.753   2.823
 1998SOL     OW 6892   2.439   3.540   1.086
 1998SOL    HW1 6893   2.369   3.598   1.046
 1998SOL    HW2 6894   2.512   3.597   1.123
 1999SOL     OW 6895   0.411   6.873   5.554
 1999SOL    HW1 6896   0.472   6.939   5.509
 1999SOL    HW2 6897   0.455   6.840   5.638
 2000SOL     OW 6898   4.145   4.319   6.573
 2000SOL    HW1 6899   4.238   4.318   6.535
 2000SOL    HW2 6900   4.083   4.273   6.510
 2001SOL     OW 6901   1.300   1.775   0.249
 2001SOL    HW1 6902   1.287   1.844   0.321
 2001SOL    HW2 6903   1.272   1.813   0.161
 2002SOL     OW 6904   5.709   4.407   6.739
 2002SOL    HW1 6905   5.720   4.452   6.651
 2002SOL    HW2 6906   5.796   4.406   6.788
 2003SOL     OW 6907   6.933   5.274   1.515
 2003SOL    HW1 6908   6.957   5.361   1.559
 2003SOL    HW2 6909   7.013   5.239   1.466
 2004SOL     OW 6910   2.860   0.621   2.954
 2004SOL    HW1 6911   2.837   0.679   3.032
 2004SOL    HW2 6912   2.955   0.636   2.928
 2005SOL     OW 6913   1.586   6.375   0.150
 2005SOL    HW1 6914   1.559   6.301   0.089
 2005SOL    HW2 6915   1.526   6.376   0.231
 2006SOL     OW 6916   6.148   0.182   2.053
 2006SOL    HW1 6917   6.162   0.270   2.097
 2006SOL    HW2 6918   6.061   0.143   2.082
 2007SOL     OW 6919   5.658   4.654   5.748
 2007SOL    HW1 6920   5.660   4.583   5.677
 2007SOL    HW2 6921   5.574   4.708   5.737
 2008SOL     OW 6922   1.833   2.858   2.631
 2008SOL    HW1 6923   1.750   2.802   2.627
 2008SOL    HW2 6924   1.904   2.809   2.682
 2009SOL     OW 6925   5.752   0.301   3.808
 2009SOL    HW1 6926   5.762   0.248   3.892
 2009SOL    HW2 6927   5.839   0.346   3.786
 2010SOL     OW 6928   6.485   0.962   1.772
 2010SOL    HW1 6929   6.562   0.927   1.719
 2010SOL    HW2 6930   6.496   0.936   1.868
 2011SOL     OW 6931   0.812   0.210   5.348
 2011SOL    HW1 6932   0.772   0.269   5.277
 2011SOL    HW2 6933   0.842   0.267   5.424
 2012SOL     OW 6934   0.522   2.461   0.245
 2012SOL    HW1 6935   0.427   2.428   0.245
 2012SOL    HW2 6936   0.584   2.382   0.250
 2013SOL     OW 6937   0.727   2.579   2.205
 2013SOL    HW1 6938   0.748   2.483   2.189
 2013SOL    HW2 6939   0.812   2.631   2.213
 2014SOL     OW 6940   3.967   2.076   2.970
 2014SOL    HW1 6941   4.030   2.153   2.979
 2014SOL    HW2 6942   3.996   2.017   2.895
 2015SOL     OW 6943   3.356   6.149   1.045
 2015SOL    HW1 6944   3.309   6.113   1.126
 2015SOL    HW2 6945   3.382   6.244   1.061
 2016SOL     OW 6946   2.185   0.612   4.429
 2016SOL    HW1 6947   2.181   0.710   4.449
 2016SOL    HW2 6948   2.096   0.580   4.399
 2017SOL     OW 6949   0.846   6.389   4.439
 2017SOL    HW1 6950   0.779   6.417   4.370
 2017SOL    HW2 6951   0.805   6.322   4.500
 2018SOL     OW 6952   0.387   1.627   5.107
 2018SOL    HW1 6953   0.390   1.555   5.176
 2018SOL    HW2 6954   0.464   1.617   5.044
 2019SOL     OW 6955   0.976   4.962   0.049
 2019SOL    HW1 6956   1.002   5.032   7.009
 2019SOL    HW2 6957   1.006   4.873   0.017
 2020SOL     OW 6958   2.074   6.835   1.261
 2020SOL    HW1 6959   2.097   6.858   1.356
 2020SOL    HW2 6960   2.026   6.912   1.220
 2021SOL     OW 6961   0.193   5.418   3.867
 2021SOL    HW1 6962   0.156   5.355   3.798
 2021SOL    HW2 6963   0.119   5.451   3.924
 2022SOL     OW 6964   2.079   3.487   4.272
 2022SOL    HW1 6965   2.108   3.392   4.264
 2022SOL    HW2 6966   2.029   3.514   4.190
 2023SOL     OW 6967   1.302   5.648   6.231
 2023SOL    HW1 6968   1.243   5.616   6.306
 2023SOL    HW2 6969   1.377   5.702   6.269
 2024SOL     OW 6970   6.307   5.439   3.051
 2024SOL    HW1 6971   6.209   5.422   3.046
 2024SOL    HW2 6972   6.350   5.370   3.109
 2025SOL     OW 6973   1.711   0.635   4.640
 2025SOL    HW1 6974   1.779   0.579   4.594
 2025SOL    HW2 6975   1.632   0.649   4.579
 2026SOL     OW 6976   1.609   6.506   5.582
 2026SOL    HW1 6977   1.580   6.436   5.516
 2026SOL    HW2 6978   1.662   6.463   5.654
 2027SOL     OW 6979   5.703   6.725   3.079
 2027SOL    HW1 6980   5.692   6.626   3.074
 2027SOL    HW2 6981   5.653   6.768   3.004
 2028SOL     OW 6982   2.350   5.904   4.928
 2028SOL    HW1 6983   2.268   5.849   4.915
 2028SOL    HW2 6984   2.357   5.931   5.024
 2029SOL     OW 6985   0.194   1.898   7.020
 2029SOL    HW1 6986   0.200   1.997   0.010
 2029SOL    HW2 6987   0.125   1.879   6.951
 2030SOL     OW 6988   1.251   6.362   2.614
 2030SOL    HW1 6989   1.217   6.432   2.677
 2030SOL    HW2 6990   1.320   6.307   2.661
 2031SOL     OW 6991   6.747   0.648   4.324
 2031SOL    HW1 6992   6.697   0.728   4.355
 2031SOL    HW2 6993   6.843   0.672   4.312
 2032SOL     OW 6994   2.883   2.568   6.135
 2032SOL    HW1 6995   2.849   2.511   6.060
 2032SOL    HW2 6996   2.936   2.644   6.097
 2033SOL     OW 6997   2.966   6.877   0.854
 2033SOL    HW1 6998   2.956   6.811   0.928
 2033SOL    HW2 6999   3.020   6.955   0.887
 2034SOL     OW 7000   0.947   3.724   4.927
 2034SOL    HW1 7001   0.897   3.774   4.857
 2034SOL    HW2 7002   0.995   3.788   4.987
 2035SOL     OW 7003   4.749   6.287   3.293
 2035SOL    HW1 7004   4.707   6.329   3.373
 2035SOL    HW2 7005   4.772   6.191   3.313
 2036SOL     OW 7006   6.853   3.752   5.556
 2036SOL    HW1 7007   6.841   3.654   5.542
 2036SOL    HW2 7008   6.836   3.775   5.651
 2037SOL     OW 7009   0.953   2.591   6.666
 2037SOL    HW1 7010   0.874   2.607   6.606
 2037SOL    HW2 7011   1.026   2.547   6.614
 2038SOL     OW 7012   2.395   0.955   5.791
 2038SOL    HW1 7013   2.384   0.856   5.804
 2038SOL    HW2 7014   2.314   1.003   5.823
 2039SOL     OW 7015   5.242   6.007   4.677
 2039SOL    HW1 7016   5.224   5.976   4.770
 2039SOL    HW2 7017   5.329   6.055   4.674
 2040SOL     OW 7018   2.856   1.603   0.678
 2040SOL    HW1 7019   2.918   1.570   0.749
 2040SOL    HW2 7020   2.854   1.537   0.602
 2041SOL     OW 7021   2.338   0.160   6.300
 2041SOL    HW1 7022   2.387   0.076   6.276
 2041SOL    HW2 7023   2.259   0.137   6.358
 2042SOL     OW 7024   0.343   0.518   5.175
 2042SOL    HW1 7025   0.367   0.438   5.119
 2042SOL    HW2 7026   0.369   0.501   5.270
 2043SOL     OW 7027   1.657   3.349   0.712
 2043SOL    HW1 7028   1.596   3.419   0.674
 2043SOL    HW2 7029   1.625   3.259   0.683
 2044SOL     OW 7030   2.735   1.544   2.267
 2044SOL    HW1 7031   2.805   1.479   2.297
 2044SOL    HW2 7032   2.757   1.635   2.304
 2045SOL     OW 7033   1.468   6.488   3.808
 2045SOL    HW1 7034   1.461   6.441   3.720
 2045SOL    HW2 7035   1.528   6.436   3.869
 2046SOL     OW 7036   6.970   2.215   5.598
 2046SOL    HW1 7037   0.005   2.295   5.597
 2046SOL    HW2 7038   6.888   2.237   5.650
 2047SOL     OW 7039   6.578   0.176   1.999
 2047SOL    HW1 7040   6.497   0.164   1.942
 2047SOL    HW2 7041   6.593   0.093   2.053
 2048SOL     OW 7042   2.253   1.049   3.582
 2048SOL    HW1 7043   2.161   1.076   3.612
 2048SOL    HW2 7044   2.246   0.972   3.519
 2049SOL     OW 7045   4.479   2.182   5.139
 2049SOL    HW1 7046   4.535   2.103   5.163
 2049SOL    HW2 7047   4.418   2.159   5.063
 2050SOL     OW 7048   6.663   1.092   2.711
 2050SOL    HW1 7049   6.568   1.065   2.693
 2050SOL    HW2 7050   6.724   1.040   2.651
 2051SOL     OW 7051   3.145   0.168   6.562
 2051SOL    HW1 7052   3.243   0.156   6.549
 2051SOL    HW2 7053   3.129   0.242   6.627
 2052SOL     OW 7054   0.621   4.248   0.862
 2052SOL    HW1 7055   0.561   4.168   0.872
 2052SOL    HW2 7056   0.714   4.223   0.888
 2053SOL     OW 7057   5.031   4.737   1.518
 2053SOL    HW1 7058   4.963   4.748   1.591
 2053SOL    HW2 7059   5.118   4.776   1.547
 2054SOL     OW 7060   3.155   3.851   4.200
 2054SOL    HW1 7061   3.208   3.809   4.126
 2054SOL    HW2 7062   3.218   3.888   4.269
 2055SOL     OW 7063   3.063   2.935   5.927
 2055SOL    HW1 7064   3.074   3.022   5.879
 2055SOL    HW2 7065   3.042   2.863   5.862
 2056SOL     OW 7066   3.016   5.373   1.391
 2056SOL    HW1 7067   2.924   5.388   1.354
 2056SOL    HW2 7068   3.075   5.335   1.320
 2057SOL     OW 7069   6.254   3.214   4.581
 2057SOL    HW1 7070   6.352   3.232   4.571
 2057SOL    HW2 7071   6.230   3.130   4.532
 2058SOL     OW 7072   5.319   0.666   3.641
 2058SOL    HW1 7073   5.410   0.675   3.680
 2058SOL    HW2 7074   5.267   0.750   3.658
 2059SOL     OW 7075   2.904   1.619   5.990
 2059SOL    HW1 7076   2.820   1.576   6.023
 2059SOL    HW2 7077   2.891   1.718   5.984
 2060SOL     OW 7078   1.614   2.430   6.244
 2060SOL    HW1 7079   1.685   2.485   6.199
 2060SOL    HW2 7080   1.606   2.458   6.339
 2061SOL     OW 7081   2.558   2.536   3.253
 2061SOL    HW1 7082   2.628   2.493   3.196
 2061SOL    HW2 7083   2.560   2.497   3.345
 2062SOL     OW 7084   4.666   4.899   4.358
 2062SOL    HW1 7085   4.669   4.951   4.443
 2062SOL    HW2 7086   4.717   4.814   4.369
 2063SOL     OW 7087   1.122   1.732   4.112
 2063SOL    HW1 7088   1.211   1.775   4.125
 2063SOL    HW2 7089   1.123   1.641   4.156
 2064SOL     OW 7090   0.156   3.843   4.613
 2064SOL    HW1 7091   0.060   3.822   4.592
 2064SOL    HW2 7092   0.215   3.801   4.544
 2065SOL     OW 7093   3.295   3.248   5.343
 2065SOL    HW1 7094   3.284   3.192   5.426
 2065SOL    HW2 7095   3.212   3.240   5.287
 2066SOL     OW 7096   2.398   2.432   4.536
 2066SOL    HW1 7097   2.431   2.514   4.491
 2066SOL    HW2 7098   2.320   2.455   4.594
 2067SOL     OW 7099   6.079   4.575   3.149
 2067SOL    HW1 7100   6.127   4.562   3.062
 2067SOL    HW2 7101   6.096   4.668   3.183
 2068SOL     OW 7102   2.801   6.421   4.429
 2068SOL    HW1 7103   2.785   6.520   4.437
 2068SOL    HW2 7104   2.795   6.380   4.520
 2069SOL     OW 7105   5.237   1.584   3.051
 2069SOL    HW1 7106   5.263   1.540   3.137
 2069SOL    HW2 7107   5.309   1.648   3.024
 2070SOL     OW 7108   0.413   5.976   1.720
 2070SOL    HW1 7109   0.477   6.042   1.681
 2070SOL    HW2 7110   0.424   5.974   1.819
 2071SOL     OW 7111   6.955   2.455   3.935
 2071SOL    HW1 7112   6.964   2.552   3.913
 2071SOL    HW2 7113   6.968   2.401   3.852
 2072SOL     OW 7114   5.472   2.977   5.691
 2072SOL    HW1 7115   5.460   2.891   5.741
 2072SOL    HW2 7116   5.383   3.009   5.658
 2073SOL     OW 7117   3.104   6.020   6.825
 2073SOL    HW1 7118   3.069   6.100   6.775
 2073SOL    HW2 7119   3.050   6.006   6.907
 2074SOL     OW 7120   3.515   4.294   5.442
 2074SOL    HW1 7121   3.501   4.307   5.344
 2074SOL    HW2 7122   3.449   4.227   5.476
 2075SOL     OW 7123   4.958   0.981   1.319
 2075SOL    HW1 7124   4.902   1.054   1.359
 2075SOL    HW2 7125   4.926   0.892   1.353
 2076SOL     OW 7126   6.547   0.242   2.955
 2076SOL    HW1 7127   6.457   0.228   2.914
 2076SOL    HW2 7128   6.603   0.160   2.941
 2077SOL     OW 7129   0.419   4.319   1.619
 2077SOL    HW1 7130   0.356   4.393   1.595
 2077SOL    HW2 7131   0.470   4.292   1.538
 2078SOL     OW 7132   0.902   2.488   0.639
 2078SOL    HW1 7133   0.862   2.476   0.547
 2078SOL    HW2 7134   0.846   2.439   0.706
 2079SOL     OW 7135   4.933   1.677   4.216
 2079SOL    HW1 7136   4.946   1.742   4.290
 2079SOL    HW2 7137   5.021   1.658   4.172
 2080SOL     OW 7138   2.139   2.751   4.255
 2080SOL    HW1 7139   2.207   2.759   4.327
 2080SOL    HW2 7140   2.165   2.809   4.178
 2081SOL     OW 7141   0.418   5.765   2.672
 2081SOL    HW1 7142   0.462   5.678   2.648
 2081SOL    HW2 7143   0.321   5.747   2.692
 2082SOL     OW 7144   6.648   6.821   4.288
 2082SOL    HW1 7145   6.580   6.845   4.219
 2082SOL    HW2 7146   6.619   6.736   4.334
 2083SOL     OW 7147   1.603   5.937   2.925
 2083SOL    HW1 7148   1.573   5.842   2.921
 2083SOL    HW2 7149   1.529   5.996   2.957
 2084SOL     OW 7150   6.112   2.159   1.547
 2084SOL    HW1 7151   6.032   2.161   1.605
 2084SOL    HW2 7152   6.091   2.202   1.459
 2085SOL     OW 7153   6.278   4.927   6.599
 2085SOL    HW1 7154   6.307   4.964   6.511
 2085SOL    HW2 7155   6.273   4.827   6.593
 2086SOL     OW 7156   5.493   1.577   5.549
 2086SOL    HW1 7157   5.401   1.572   5.589
 2086SOL    HW2 7158   5.530   1.669   5.561
 2087SOL     OW 7159   4.819   1.321   6.074
 2087SOL    HW1 7160   4.837   1.243   6.014
 2087SOL    HW2 7161   4.903   1.375   6.084
 2088SOL     OW 7162   0.400   4.008   5.599
 2088SOL    HW1 7163   0.440   4.027   5.509
 2088SOL    HW2 7164   0.473   3.999   5.667
 2089SOL     OW 7165   2.951   5.354   4.264
 2089SOL    HW1 7166   2.912   5.281   4.321
 2089SOL    HW2 7167   3.014   5.409   4.319
 2090SOL     OW 7168   5.640   2.431   6.053
 2090SOL    HW1 7169   5.672   2.399   5.963
 2090SOL    HW2 7170   5.541   2.442   6.051
 2091SOL     OW 7171   5.447   0.200   0.624
 2091SOL    HW1 7172   5.511   0.272   0.594
 2091SOL    HW2 7173   5.361   0.242   0.653
 2092SOL     OW 7174   3.711   3.295   2.653
 2092SOL    HW1 7175   3.780   3.365   2.673
 2092SOL    HW2 7176   3.652   3.282   2.733
 2093SOL     OW 7177   5.559   6.844   6.917
 2093SOL    HW1 7178   5.599   6.759   6.882
 2093SOL    HW2 7179   5.510   6.825   7.002
 2094SOL     OW 7180   4.583   2.774   1.068
 2094SOL    HW1 7181   4.614   2.788   1.162
 2094SOL    HW2 7182   4.613   2.850   1.011
 2095SOL     OW 7183   3.855   6.053   4.453
 2095SOL    HW1 7184   3.764   6.032   4.418
 2095SOL    HW2 7185   3.920   6.061   4.378
 2096SOL     OW 7186   3.628   0.568   3.023
 2096SOL    HW1 7187   3.647   0.630   3.099
 2096SOL    HW2 7188   3.642   0.474   3.052
 2097SOL     OW 7189   2.648   5.559   5.859
 2097SOL    HW1 7190   2.711   5.613   5.914
 2097SOL    HW2 7191   2.581   5.619   5.816
 2098SOL     OW 7192   1.163   6.822   4.207
 2098SOL    HW1 7193   1.135   6.763   4.283
 2098SOL    HW2 7194   1.215   6.900   4.242
 2099SOL     OW 7195   4.593   1.768   6.827
 2099SOL    HW1 7196   4.680   1.780   6.876
 2099SOL    HW2 7197   4.611   1.731   6.736
 2100SOL     OW 7198   4.824   0.369   0.776
 2100SOL    HW1 7199   4.918   0.402   0.786
 2100SOL    HW2 7200   4.795   0.323   0.860
 2101SOL     OW 7201   0.640   0.590   3.237
 2101SOL    HW1 7202   0.677   0.561   3.149
 2101SOL    HW2 7203   0.656   0.519   3.305
 2102SOL     OW 7204   3.783   3.045   2.553
 2102SOL    HW1 7205   3.740   3.129   2.584
 2102SOL    HW2 7206   3.757   3.027   2.458
 2103SOL     OW 7207   1.478   0.098   1.458
 2103SOL    HW1 7208   1.541   0.024   1.436
 2103SOL    HW2 7209   1.468   0.158   1.379
 2104SOL     OW 7210   0.998   4.754   2.402
 2104SOL    HW1 7211   0.951   4.673   2.437
 2104SOL    HW2 7212   1.030   4.809   2.479
 2105SOL     OW 7213   5.278   6.304   5.629
 2105SOL    HW1 7214   5.330   6.224   5.660
 2105SOL    HW2 7215   5.335   6.359   5.568
 2106SOL     OW 7216   3.605   3.941   0.867
 2106SOL    HW1 7217   3.521   3.973   0.911
 2106SOL    HW2 7218   3.592   3.846   0.837
 2107SOL     OW 7219   6.086   4.358   4.366
 2107SOL    HW1 7220   6.063   4.422   4.439
 2107SOL    HW2 7221   6.003   4.337   4.313
 2108SOL     OW 7222   4.097   6.284   5.758
 2108SOL    HW1 7223   4.110   6.237   5.671
 2108SOL    HW2 7224   4.168   6.354   5.769
 2109SOL     OW 7225   2.522   6.345   2.051
 2109SOL    HW1 7226   2.612   6.356   2.009
 2109SOL    HW2 7227   2.458   6.308   1.983
 2110SOL     OW 7228   3.820   5.983   0.597
 2110SOL    HW1 7229   3.913   5.990   0.561
 2110SOL    HW2 7230   3.763   6.053   0.555
 2111SOL     OW 7231   1.072   2.712   0.556
 2111SOL    HW1 7232   1.076   2.683   0.461
 2111SOL    HW2 7233   0.994   2.668   0.601
 2112SOL     OW 7234   0.541   0.445   6.149
 2112SOL    HW1 7235   0.612   0.382   6.181
 2112SOL    HW2 7236   0.573   0.539   6.159
 2113SOL     OW 7237   6.572   1.701   4.393
 2113SOL    HW1 7238   6.514   1.690   4.473
 2113SOL    HW2 7239   6.521   1.749   4.321
 2114SOL     OW 7240   2.617   0.497   5.544
 2114SOL    HW1 7241   2.616   0.551   5.460
 2114SOL    HW2 7242   2.710   0.496   5.582
 2115SOL     OW 7243   0.171   0.459   4.399
 2115SOL    HW1 7244   0.212   0.381   4.446
 2115SOL    HW2 7245   0.244   0.514   4.356
 2116SOL     OW 7246   2.915   6.753   6.683
 2116SOL    HW1 7247   2.822   6.776   6.654
 2116SOL    HW2 7248   2.912   6.692   6.762
 2117SOL     OW 7249   6.817   3.050   0.995
 2117SOL    HW1 7250   6.798   3.014   1.085
 2117SOL    HW2 7251   6.786   3.145   0.989
 2118SOL     OW 7252   0.159   3.373   2.866
 2118SOL    HW1 7253   0.246   3.385   2.914
 2118SOL    HW2 7254   0.136   3.457   2.817
 2119SOL     OW 7255   2.174   2.337   6.645
 2119SOL    HW1 7256   2.124   2.297   6.569
 2119SOL    HW2 7257   2.231   2.413   6.613
 2120SOL     OW 7258   6.120   1.357   0.660
 2120SOL    HW1 7259   6.217   1.338   0.649
 2120SOL    HW2 7260   6.094   1.346   0.756
 2121SOL     OW 7261   2.361   6.229   1.877
 2121SOL    HW1 7262   2.385   6.132   1.867
 2121SOL    HW2 7263   2.271   6.245   1.837
 2122SOL     OW 7264   0.246   1.667   5.525
 2122SOL    HW1 7265   0.201   1.616   5.598
 2122SOL    HW2 7266   0.314   1.609   5.480
 2123SOL     OW 7267   0.682   4.515   3.213
 2123SOL    HW1 7268   0.656   4.462   3.294
 2123SOL    HW2 7269   0.729   4.457   3.148
 2124SOL     OW 7270   5.562   3.382   6.576
 2124SOL    HW1 7271   5.548   3.478   6.551
 2124SOL    HW2 7272   5.563   3.325   6.494
 2125SOL     OW 7273   2.497   5.339   5.831
 2125SOL    HW1 7274   2.401   5.366   5.842
 2125SOL    HW2 7275   2.556   5.417   5.852
 2126SOL     OW 7276   2.227   5.794   1.957
 2126SOL    HW1 7277   2.307   5.835   1.912
 2126SOL    HW2 7278   2.153   5.861   1.962
 2127SOL     OW 7279   1.674   3.655   4.032
 2127SOL    HW1 7280   1.624   3.592   4.091
 2127SOL    HW2 7281   1.758   3.684   4.078
 2128SOL     OW 7282   5.279   2.935   0.906
 2128SOL    HW1 7283   5.253   3.020   0.860
 2128SOL    HW2 7284   5.213   2.914   0.978
 2129SOL     OW 7285   5.399   4.869   4.062
 2129SOL    HW1 7286   5.440   4.800   4.001
 2129SOL    HW2 7287   5.460   4.885   4.139
 2130SOL     OW 7288   2.407   0.064   2.862
 2130SOL    HW1 7289   2.485   0.044   2.921
 2130SOL    HW2 7290   2.438   0.078   2.768
 2131SOL     OW 7291   5.948   6.907   6.510
 2131SOL    HW1 7292   5.870   6.965   6.486
 2131SOL    HW2 7293   5.966   6.843   6.436
 2132SOL     OW 7294   3.268   1.558   0.639
 2132SOL    HW1 7295   3.300   1.535   0.547
 2132SOL    HW2 7296   3.334   1.618   0.684
 2133SOL     OW 7297   3.437   3.251   2.261
 2133SOL    HW1 7298   3.514   3.258   2.197
 2133SOL    HW2 7299   3.407   3.156   2.267
 2134SOL     OW 7300   2.577   6.653   4.912
 2134SOL    HW1 7301   2.580   6.674   4.814
 2134SOL    HW2 7302   2.483   6.636   4.940
 2135SOL     OW 7303   0.241   5.875   3.914
 2135SOL    HW1 7304   0.240   5.974   3.925
 2135SOL    HW2 7305   0.273   5.832   3.999
 2136SOL     OW 7306   0.231   4.706   3.619
 2136SOL    HW1 7307   0.136   4.725   3.597
 2136SOL    HW2 7308   0.277   4.791   3.645
 2137SOL     OW 7309   0.019   0.187   4.794
 2137SOL    HW1 7310   0.039   0.259   4.861
 2137SOL    HW2 7311   6.947   0.164   4.800
 2138SOL     OW 7312   1.211   1.958   0.435
 2138SOL    HW1 7313   1.226   2.054   0.461
 2138SOL    HW2 7314   1.233   1.898   0.511
 2139SOL     OW 7315   4.033   6.428   4.456
 2139SOL    HW1 7316   3.941   6.451   4.426
 2139SOL    HW2 7317   4.094   6.507   4.442
 2140SOL     OW 7318   0.937   5.653   3.604
 2140SOL    HW1 7319   0.946   5.601   3.519
 2140SOL    HW2 7320   0.863   5.615   3.659
 2141SOL     OW 7321   7.008   0.420   6.601
 2141SOL    HW1 7322   6.938   0.356   6.633
 2141SOL    HW2 7323   7.022   0.491   6.670
 2142SOL     OW 7324   3.772   1.452   3.035
 2142SOL    HW1 7325   3.703   1.399   3.084
 2142SOL    HW2 7326   3.810   1.397   2.961
 2143SOL     OW 7327   3.559   5.419   0.440
 2143SOL    HW1 7328   3.633   5.410   0.507
 2143SOL    HW2 7329   3.489   5.481   0.475
 2144SOL     OW 7330   1.048   1.608   2.085
 2144SOL    HW1 7331   1.049   1.548   2.165
 2144SOL    HW2 7332   0.977   1.677   2.095
 2145SOL     OW 7333   2.453   6.063   3.227
 2145SOL    HW1 7334   2.449   5.967   3.255
 2145SOL    HW2 7335   2.488   6.119   3.302
 2146SOL     OW 7336   3.121   1.813   1.528
 2146SOL    HW1 7337   3.116   1.716   1.555
 2146SOL    HW2 7338   3.028   1.847   1.512
 2147SOL     OW 7339   0.065   0.823   3.867
 2147SOL    HW1 7340   0.091   0.777   3.952
 2147SOL    HW2 7341   7.024   0.895   3.887
 2148SOL     OW 7342   6.586   4.470   3.895
 2148SOL    HW1 7343   6.529   4.400   3.938
 2148SOL    HW2 7344   6.528   4.533   3.844
 2149SOL     OW 7345   2.007   1.325   2.223
 2149SOL    HW1 7346   2.067   1.284   2.154
 2149SOL    HW2 7347   1.912   1.305   2.201
 2150SOL     OW 7348   5.776   0.689   3.209
 2150SOL    HW1 7349   5.861   0.728   3.245
 2150SOL    HW2 7350   5.784   0.589   3.208
 2151SOL     OW 7351   5.044   4.683   5.426
 2151SOL    HW1 7352   5.086   4.712   5.340
 2151SOL    HW2 7353   4.972   4.616   5.406
 2152SOL     OW 7354   7.001   6.451   2.656
 2152SOL    HW1 7355   7.017   6.524   2.722
 2152SOL    HW2 7356   6.997   6.491   2.564
 2153SOL     OW 7357   4.170   2.255   3.338
 2153SOL    HW1 7358   4.137   2.250   3.432
 2153SOL    HW2 7359   4.252   2.312   3.335
 2154SOL     OW 7360   4.372   0.367   3.745
 2154SOL    HW1 7361   4.410   0.410   3.663
 2154SOL    HW2 7362   4.364   0.435   3.817
 2155SOL     OW 7363   6.093   3.579   0.768
 2155SOL    HW1 7364   6.086   3.583   0.668
 2155SOL    HW2 7365   6.094   3.483   0.797
 2156SOL     OW 7366   5.918   5.593   2.318
 2156SOL    HW1 7367   5.854   5.590   2.395
 2156SOL    HW2 7368   5.950   5.687   2.306
 2157SOL     OW 7369   5.153   1.447   4.295
 2157SOL    HW1 7370   5.168   1.359   4.250
 2157SOL    HW2 7371   5.139   1.518   4.226
 2158SOL     OW 7372   4.427   0.890   3.772
 2158SOL    HW1 7373   4.361   0.815   3.762
 2158SOL    HW2 7374   4.379   0.976   3.786
 2159SOL     OW 7375   2.240   1.973   4.398
 2159SOL    HW1 7376   2.289   1.894   4.361
 2159SOL    HW2 7377   2.276   2.056   4.357
 2160SOL     OW 7378   2.156   4.181   1.118
 2160SOL    HW1 7379   2.133   4.267   1.163
 2160SOL    HW2 7380   2.131   4.186   1.021
 2161SOL     OW 7381   4.128   2.158   2.335
 2161SOL    HW1 7382   4.034   2.174   2.305
 2161SOL    HW2 7383   4.143   2.059   2.346
 2162SOL     OW 7384   1.578   1.224   2.961
 2162SOL    HW1 7385   1.503   1.289   2.946
 2162SOL    HW2 7386   1.604   1.182   2.875
 2163SOL     OW 7387   4.775   1.702   0.779
 2163SOL    HW1 7388   4.863   1.703   0.731
 2163SOL    HW2 7389   4.789   1.680   0.875
 2164SOL     OW 7390   6.451   7.015   2.474
 2164SOL    HW1 7391   6.515   6.952   2.429
 2164SOL    HW2 7392   6.373   6.963   2.510
 2165SOL     OW 7393   1.815   6.991   2.027
 2165SOL    HW1 7394   1.820   7.003   1.928
 2165SOL    HW2 7395   1.796   6.896   2.049
 2166SOL     OW 7396   5.970   2.394   4.869
 2166SOL    HW1 7397   5.903   2.441   4.927
 2166SOL    HW2 7398   6.028   2.336   4.926
 2167SOL     OW 7399   3.440   1.362   1.328
 2167SOL    HW1 7400   3.387   1.334   1.408
 2167SOL    HW2 7401   3.463   1.459   1.335
 2168SOL     OW 7402   5.683   6.460   4.466
 2168SOL    HW1 7403   5.664   6.421   4.375
 2168SOL    HW2 7404   5.708   6.387   4.529
 2169SOL     OW 7405   4.935   2.838   5.338
 2169SOL    HW1 7406   4.968   2.751   5.299
 2169SOL    HW2 7407   4.839   2.850   5.315
 2170SOL     OW 7408   4.603   5.748   4.636
 2170SOL    HW1 7409   4.694   5.736   4.596
 2170SOL    HW2 7410   4.611   5.751   4.735
 2171SOL     OW 7411   0.663   2.952   0.333
 2171SOL    HW1 7412   0.700   3.039   0.303
 2171SOL    HW2 7413   0.582   2.967   0.390
 2172SOL     OW 7414   2.775   0.762   3.157
 2172SOL    HW1 7415   2.755   0.717   3.244
 2172SOL    HW2 7416   2.702   0.827   3.136
 2173SOL     OW 7417   4.440   1.838   4.568
 2173SOL    HW1 7418   4.492   1.924   4.565
 2173SOL    HW2 7419   4.392   1.831   4.655
 2174SOL     OW 7420   1.297   6.192   5.553
 2174SOL    HW1 7421   1.291   6.185   5.653
 2174SOL    HW2 7422   1.242   6.269   5.521
 2175SOL     OW 7423   0.756   0.719   7.000
 2175SOL    HW1 7424   0.726   0.787   6.933
 2175SOL    HW2 7425   0.853   0.699   6.987
 2176SOL     OW 7426   2.271   2.163   2.304
 2176SOL    HW1 7427   2.343   2.117   2.356
 2176SOL    HW2 7428   2.279   2.137   2.207
 2177SOL     OW 7429   1.181   1.777   1.858
 2177SOL    HW1 7430   1.241   1.734   1.791
 2177SOL    HW2 7431   1.110   1.712   1.885
 2178SOL     OW 7432   6.114   5.578   0.509
 2178SOL    HW1 7433   6.163   5.649   0.459
 2178SOL    HW2 7434   6.178   5.506   0.536
 2179SOL     OW 7435   2.058   3.723   3.883
 2179SOL    HW1 7436   2.019   3.802   3.835
 2179SOL    HW2 7437   2.126   3.755   3.949
 2180SOL     OW 7438   3.103   3.082   2.856
 2180SOL    HW1 7439   3.115   3.108   2.760
 2180SOL    HW2 7440   3.012   3.110   2.886
 2181SOL     OW 7441   3.739   6.570   1.277
 2181SOL    HW1 7442   3.729   6.530   1.185
 2181SOL    HW2 7443   3.652   6.609   1.306
 2182SOL     OW 7444   4.737   4.374   0.450
 2182SOL    HW1 7445   4.659   4.425   0.413
 2182SOL    HW2 7446   4.797   4.347   0.375
 2183SOL     OW 7447   4.681   2.625   1.887
 2183SOL    HW1 7448   4.778   2.642   1.872
 2183SOL    HW2 7449   4.669   2.537   1.933
 2184SOL     OW 7450   4.321   2.474   6.035
 2184SOL    HW1 7451   4.223   2.459   6.024
 2184SOL    HW2 7452   4.358   2.409   6.101
 2185SOL     OW 7453   6.520   6.922   2.053
 2185SOL    HW1 7454   6.603   6.868   2.046
 2185SOL    HW2 7455   6.484   6.917   2.146
 2186SOL     OW 7456   6.547   4.875   3.148
 2186SOL    HW1 7457   6.610   4.920   3.085
 2186SOL    HW2 7458   6.546   4.776   3.130
 2187SOL     OW 7459   6.512   7.015   6.865
 2187SOL    HW1 7460   6.447   6.939   6.862
 2187SOL    HW2 7461   6.483   0.056   6.933
 2188SOL     OW 7462   4.617   2.740   3.569
 2188SOL    HW1 7463   4.560   2.759   3.649
 2188SOL    HW2 7464   4.663   2.652   3.580
 2189SOL     OW 7465   3.292   0.011   6.174
 2189SOL    HW1 7466   3.302   6.952   6.122
 2189SOL    HW2 7467   3.224   7.024   6.246
 2190SOL     OW 7468   6.009   3.392   1.210
 2190SOL    HW1 7469   6.002   3.357   1.303
 2190SOL    HW2 7470   6.055   3.481   1.211
 2191SOL     OW 7471   3.378   0.318   0.334
 2191SOL    HW1 7472   3.304   0.356   0.389
 2191SOL    HW2 7473   3.439   0.392   0.304
 2192SOL     OW 7474   4.025   6.625   1.857
 2192SOL    HW1 7475   4.073   6.548   1.898
 2192SOL    HW2 7476   3.960   6.592   1.789
 2193SOL     OW 7477   6.980   6.108   4.165
 2193SOL    HW1 7478   6.979   6.020   4.214
 2193SOL    HW2 7479   7.020   6.178   4.224
 2194SOL     OW 7480   2.233   6.898   3.283
 2194SOL    HW1 7481   2.289   6.831   3.332
 2194SOL    HW2 7482   2.264   6.904   3.188
 2195SOL     OW 7483   0.495   4.706   2.775
 2195SOL    HW1 7484   0.412   4.650   2.781
 2195SOL    HW2 7485   0.471   4.803   2.775
 2196SOL     OW 7486   4.558   4.037   6.701
 2196SOL    HW1 7487   4.597   3.991   6.781
 2196SOL    HW2 7488   4.471   4.079   6.727
 2197SOL     OW 7489   4.601   3.232   0.758
 2197SOL    HW1 7490   4.579   3.307   0.820
 2197SOL    HW2 7491   4.581   3.260   0.664
 2198SOL     OW 7492   1.072   4.559   6.772
 2198SOL    HW1 7493   1.017   4.584   6.693
 2198SOL    HW2 7494   1.108   4.466   6.760
 2199SOL     OW 7495   3.711   1.963   3.940
 2199SOL    HW1 7496   3.612   1.975   3.927
 2199SOL    HW2 7497   3.736   1.869   3.917
 2200SOL     OW 7498   4.290   0.549   3.950
 2200SOL    HW1 7499   4.221   0.488   3.988
 2200SOL    HW2 7500   4.367   0.557   4.014
 2201SOL     OW 7501   5.067   5.051   4.009
 2201SOL    HW1 7502   5.038   5.145   4.023
 2201SOL    HW2 7503   5.138   5.047   3.938
 2202SOL     OW 7504   4.639   5.987   3.944
 2202SOL    HW1 7505   4.570   5.975   4.016
 2202SOL    HW2 7506   4.665   5.897   3.909
 2203SOL     OW 7507   1.915   2.113   3.285
 2203SOL    HW1 7508   1.836   2.126   3.344
 2203SOL    HW2 7509   1.932   2.015   3.273
 2204SOL     OW 7510   4.212   2.139   0.964
 2204SOL    HW1 7511   4.214   2.045   0.930
 2204SOL    HW2 7512   4.157   2.143   1.048
 2205SOL     OW 7513   3.356   0.149   2.171
 2205SOL    HW1 7514   3.450   0.143   2.139
 2205SOL    HW2 7515   3.295   0.116   2.099
 2206SOL     OW 7516   1.636   4.841   0.017
 2206SOL    HW1 7517   1.683   4.832   0.105
 2206SOL    HW2 7518   1.662   4.764   6.985
 2207SOL     OW 7519   6.705   4.189   5.396
 2207SOL    HW1 7520   6.671   4.097   5.415
 2207SOL    HW2 7521   6.649   4.257   5.443
 2208SOL     OW 7522   6.889   5.179   2.204
 2208SOL    HW1 7523   6.889   5.255   2.139
 2208SOL    HW2 7524   6.872   5.094   2.156
 2209SOL     OW 7525   6.793   0.225   2.437
 2209SOL    HW1 7526   6.753   0.266   2.355
 2209SOL    HW2 7527   6.799   0.126   2.425
 2210SOL     OW 7528   2.593   4.580   3.430
 2210SOL    HW1 7529   2.689   4.607   3.429
 2210SOL    HW2 7530   2.542   4.634   3.364
 2211SOL     OW 7531   5.483   0.842   5.290
 2211SOL    HW1 7532   5.396   0.811   5.253
 2211SOL    HW2 7533   5.478   0.842   5.390
 2212SOL     OW 7534   2.314   5.922   6.458
 2212SOL    HW1 7535   2.237   5.858   6.469
 2212SOL    HW2 7536   2.289   6.011   6.495
 2213SOL     OW 7537   4.296   1.176   3.341
 2213SOL    HW1 7538   4.374   1.125   3.303
 2213SOL    HW2 7539   4.241   1.213   3.266
 2214SOL     OW 7540   4.210   6.953   3.826
 2214SOL    HW1 7541   4.300   6.986   3.797
 2214SOL    HW2 7542   4.190   6.865   3.782
 2215SOL     OW 7543   5.905   2.217   6.555
 2215SOL    HW1 7544   5.820   2.168   6.576
 2215SOL    HW2 7545   5.960   2.163   6.490
 2216SOL     OW 7546   3.403   1.325   2.616
 2216SOL    HW1 7547   3.336   1.324   2.690
 2216SOL    HW2 7548   3.446   1.414   2.611
 2217SOL     OW 7549   2.632   6.717   0.773
 2217SOL    HW1 7550   2.623   6.618   0.782
 2217SOL    HW2 7551   2.728   6.743   0.781
 2218SOL     OW 7552   6.185   1.059   2.318
 2218SOL    HW1 7553   6.162   1.125   2.246
 2218SOL    HW2 7554   6.216   1.108   2.400
 2219SOL     OW 7555   1.995   2.260   3.060
 2219SOL    HW1 7556   1.979   2.355   3.088
 2219SOL    HW2 7557   1.967   2.198   3.133
 2220SOL     OW 7558   2.007   6.303   3.455
 2220SOL    HW1 7559   1.935   6.277   3.391
 2220SOL    HW2 7560   2.058   6.380   3.418
 2221SOL     OW 7561   0.244   0.014   4.887
 2221SOL    HW1 7562   0.286   7.005   4.802
 2221SOL    HW2 7563   0.149   0.040   4.868
 2222SOL     OW 7564   5.257   6.014   3.304
 2222SOL    HW1 7565   5.197   5.934   3.312
 2222SOL    HW2 7566   5.351   5.986   3.326
 2223SOL     OW 7567   6.153   6.538   2.098
 2223SOL    HW1 7568   6.106   6.612   2.050
 2223SOL    HW2 7569   6.166   6.563   2.194
 2224SOL     OW 7570   0.237   5.657   1.257
 2224SOL    HW1 7571   0.320   5.618   1.297
 2224SOL    HW2 7572   0.158   5.626   1.309
 2225SOL     OW 7573   0.373   4.536   1.322
 2225SOL    HW1 7574   0.350   4.592   1.402
 2225SOL    HW2 7575   0.434   4.588   1.262
 2226SOL     OW 7576   3.439   3.803   3.015
 2226SOL    HW1 7577   3.435   3.884   2.957
 2226SOL    HW2 7578   3.353   3.794   3.065
 2227SOL     OW 7579   1.795   1.667   5.322
 2227SOL    HW1 7580   1.869   1.600   5.312
 2227SOL    HW2 7581   1.833   1.758   5.337
 2228SOL     OW 7582   0.979   4.556   4.170
 2228SOL    HW1 7583   0.937   4.593   4.253
 2228SOL    HW2 7584   0.911   4.549   4.098
 2229SOL     OW 7585   5.227   5.554   2.224
 2229SOL    HW1 7586   5.163   5.630   2.233
 2229SOL    HW2 7587   5.307   5.584   2.171
 2230SOL     OW 7588   1.752   5.274   2.913
 2230SOL    HW1 7589   1.755   5.229   3.003
 2230SOL    HW2 7590   1.811   5.354   2.914
 2231SOL     OW 7591   2.066   6.195   0.718
 2231SOL    HW1 7592   2.007   6.272   0.691
 2231SOL    HW2 7593   2.111   6.158   0.637
 2232SOL     OW 7594   6.321   2.650   3.560
 2232SOL    HW1 7595   6.358   2.666   3.468
 2232SOL    HW2 7596   6.277   2.560   3.563
 2233SOL     OW 7597   3.577   1.454   0.654
 2233SOL    HW1 7598   3.675   1.469   0.667
 2233SOL    HW2 7599   3.533   1.442   0.744
 2234SOL     OW 7600   4.360   2.454   1.232
 2234SOL    HW1 7601   4.341   2.392   1.308
 2234SOL    HW2 7602   4.446   2.430   1.189
 2235SOL     OW 7603   1.933   3.176   1.899
 2235SOL    HW1 7604   1.932   3.095   1.959
 2235SOL    HW2 7605   1.839   3.202   1.877
 2236SOL     OW 7606   1.455   3.541   4.991
 2236SOL    HW1 7607   1.371   3.580   5.028
 2236SOL    HW2 7608   1.503   3.490   5.063
 2237SOL     OW 7609   5.753   2.193   3.149
 2237SOL    HW1 7610   5.808   2.123   3.196
 2237SOL    HW2 7611   5.661   2.195   3.188
 2238SOL     OW 7612   4.742   6.183   6.861
 2238SOL    HW1 7613   4.813   6.151   6.799
 2238SOL    HW2 7614   4.677   6.109   6.877
 2239SOL     OW 7615   6.544   5.667   1.341
 2239SOL    HW1 7616   6.486   5.624   1.410
 2239SOL    HW2 7617   6.488   5.720   1.278
 2240SOL     OW 7618   0.502   3.706   1.689
 2240SOL    HW1 7619   0.580   3.657   1.650
 2240SOL    HW2 7620   0.516   3.804   1.679
 2241SOL     OW 7621   0.328   0.323   3.609
 2241SOL    HW1 7622   0.384   0.398   3.645
 2241SOL    HW2 7623   0.242   0.318   3.660
 2242SOL     OW 7624   2.125   1.461   3.007
 2242SOL    HW1 7625   2.030   1.489   2.995
 2242SOL    HW2 7626   2.183   1.509   2.941
 2243SOL     OW 7627   0.916   0.611   4.514
 2243SOL    HW1 7628   1.006   0.653   4.521
 2243SOL    HW2 7629   0.847   0.673   4.551
 2244SOL     OW 7630   3.096   0.882   4.227
 2244SOL    HW1 7631   3.047   0.948   4.171
 2244SOL    HW2 7632   3.136   0.812   4.169
 2245SOL     OW 7633   0.361   1.845   1.456
 2245SOL    HW1 7634   0.285   1.877   1.513
 2245SOL    HW2 7635   0.422   1.788   1.511
 2246SOL     OW 7636   0.651   4.876   4.771
 2246SOL    HW1 7637   0.563   4.870   4.817
 2246SOL    HW2 7638   0.717   4.815   4.815
 2247SOL     OW 7639   2.281   2.230   3.601
 2247SOL    HW1 7640   2.361   2.241   3.542
 2247SOL    HW2 7641   2.198   2.255   3.550
 2248SOL     OW 7642   4.800   4.335   5.690
 2248SOL    HW1 7643   4.869   4.407   5.678
 2248SOL    HW2 7644   4.822   4.282   5.771
 2249SOL     OW 7645   5.399   6.326   5.093
 2249SOL    HW1 7646   5.349   6.411   5.075
 2249SOL    HW2 7647   5.497   6.342   5.086
 2250SOL     OW 7648   4.488   4.972   2.784
 2250SOL    HW1 7649   4.567   4.912   2.777
 2250SOL    HW2 7650   4.447   4.984   2.693
 2251SOL     OW 7651   0.731   1.778   5.749
 2251SOL    HW1 7652   0.671   1.784   5.670
 2251SOL    HW2 7653   0.723   1.687   5.791
 2252SOL     OW 7654   4.113   1.115   5.892
 2252SOL    HW1 7655   4.119   1.088   5.795
 2252SOL    HW2 7656   4.107   1.215   5.898
 2253SOL     OW 7657   0.581   3.899   1.209
 2253SOL    HW1 7658   0.672   3.941   1.219
 2253SOL    HW2 7659   0.581   3.838   1.129
 2254SOL     OW 7660   1.406   5.651   5.970
 2254SOL    HW1 7661   1.347   5.632   6.048
 2254SOL    HW2 7662   1.476   5.718   5.997
 2255SOL     OW 7663   0.113   4.301   6.636
 2255SOL    HW1 7664   0.147   4.262   6.721
 2255SOL    HW2 7665   0.067   4.230   6.582
 2256SOL     OW 7666   2.589   5.861   2.384
 2256SOL    HW1 7667   2.674   5.876   2.436
 2256SOL    HW2 7668   2.524   5.811   2.441
 2257SOL     OW 7669   0.765   5.047   5.939
 2257SOL    HW1 7670   0.756   5.049   6.039
 2257SOL    HW2 7671   0.674   5.055   5.897
 2258SOL     OW 7672   2.095   6.489   6.130
 2258SOL    HW1 7673   2.015   6.522   6.182
 2258SOL    HW2 7674   2.065   6.427   6.058
 2259SOL     OW 7675   5.946   1.877   6.320
 2259SOL    HW1 7676   5.848   1.865   6.336
 2259SOL    HW2 7677   5.972   1.972   6.338
 2260SOL     OW 7678   4.707   3.114   1.465
 2260SOL    HW1 7679   4.749   3.038   1.515
 2260SOL    HW2 7680   4.622   3.084   1.423
 2261SOL     OW 7681   1.974   6.370   5.588
 2261SOL    HW1 7682   2.052   6.329   5.540
 2261SOL    HW2 7683   1.984   6.470   5.589
 2262SOL     OW 7684   2.603   1.931   4.656
 2262SOL    HW1 7685   2.702   1.937   4.667
 2262SOL    HW2 7686   2.564   2.023   4.656
 2263SOL     OW 7687   0.504   4.645   6.074
 2263SOL    HW1 7688   0.600   4.639   6.100
 2263SOL    HW2 7689   0.484   4.737   6.040
 2264SOL     OW 7690   3.125   3.079   4.481
 2264SOL    HW1 7691   3.191   3.031   4.539
 2264SOL    HW2 7692   3.056   3.123   4.538
 2265SOL     OW 7693   6.705   6.101   4.056
 2265SOL    HW1 7694   6.690   6.154   3.972
 2265SOL    HW2 7695   6.801   6.077   4.063
 2266SOL     OW 7696   7.024   0.322   5.527
 2266SOL    HW1 7697   0.005   0.370   5.614
 2266SOL    HW2 7698   6.928   0.298   5.510
 2267SOL     OW 7699   6.465   1.853   4.770
 2267SOL    HW1 7700   6.449   1.779   4.704
 2267SOL    HW2 7701   6.550   1.835   4.820
 2268SOL     OW 7702   0.601   6.994   0.416
 2268SOL    HW1 7703   0.511   0.008   0.400
 2268SOL    HW2 7704   0.603   6.948   0.505
 2269SOL     OW 7705   6.789   6.188   2.470
 2269SOL    HW1 7706   6.719   6.188   2.542
 2269SOL    HW2 7707   6.793   6.098   2.427
 2270SOL     OW 7708   3.002   3.196   3.144
 2270SOL    HW1 7709   2.990   3.099   3.121
 2270SOL    HW2 7710   3.084   3.206   3.202
 2271SOL     OW 7711   1.353   3.932   2.593
 2271SOL    HW1 7712   1.342   3.879   2.677
 2271SOL    HW2 7713   1.286   4.006   2.591
 2272SOL     OW 7714   4.521   0.590   6.172
 2272SOL    HW1 7715   4.581   0.664   6.202
 2272SOL    HW2 7716   4.467   0.556   6.249
 2273SOL     OW 7717   6.973   0.982   1.893
 2273SOL    HW1 7718   6.890   1.030   1.921
 2273SOL    HW2 7719   0.016   0.989   1.965
 2274SOL     OW 7720   6.438   5.023   3.663
 2274SOL    HW1 7721   6.348   4.986   3.641
 2274SOL    HW2 7722   6.500   4.949   3.689
 2275SOL     OW 7723   4.456   6.186   4.071
 2275SOL    HW1 7724   4.370   6.236   4.057
 2275SOL    HW2 7725   4.437   6.097   4.112
 2276SOL     OW 7726   3.697   5.844   3.630
 2276SOL    HW1 7727   3.658   5.791   3.555
 2276SOL    HW2 7728   3.700   5.940   3.606
 2277SOL     OW 7729   3.433   2.877   2.696
 2277SOL    HW1 7730   3.506   2.831   2.644
 2277SOL    HW2 7731   3.347   2.869   2.646
 2278SOL     OW 7732   4.309   4.989   1.717
 2278SOL    HW1 7733   4.221   4.983   1.764
 2278SOL    HW2 7734   4.329   5.085   1.696
 2279SOL     OW 7735   6.038   4.286   5.672
 2279SOL    HW1 7736   5.973   4.323   5.738
 2279SOL    HW2 7737   6.129   4.322   5.690
 2280SOL     OW 7738   5.925   0.891   5.726
 2280SOL    HW1 7739   5.959   0.859   5.638
 2280SOL    HW2 7740   5.826   0.878   5.731
 2281SOL     OW 7741   2.330   0.510   0.322
 2281SOL    HW1 7742   2.317   0.495   0.224
 2281SOL    HW2 7743   2.251   0.475   0.372
 2282SOL     OW 7744   3.432   0.502   2.543
 2282SOL    HW1 7745   3.476   0.426   2.497
 2282SOL    HW2 7746   3.384   0.559   2.477
 2283SOL     OW 7747   1.107   3.057   1.197
 2283SOL    HW1 7748   1.127   2.999   1.276
 2283SOL    HW2 7749   1.026   3.023   1.150
 2284SOL     OW 7750   1.702   2.583   0.734
 2284SOL    HW1 7751   1.745   2.592   0.644
 2284SOL    HW2 7752   1.634   2.509   0.731
 2285SOL     OW 7753   2.609   2.847   0.320
 2285SOL    HW1 7754   2.687   2.786   0.303
 2285SOL    HW2 7755   2.550   2.847   0.239
 2286SOL     OW 7756   6.600   5.525   4.067
 2286SOL    HW1 7757   6.559   5.555   3.981
 2286SOL    HW2 7758   6.553   5.443   4.099
 2287SOL     OW 7759   2.874   1.880   1.215
 2287SOL    HW1 7760   2.857   1.888   1.313
 2287SOL    HW2 7761   2.872   1.784   1.189
 2288SOL     OW 7762   2.943   5.544   4.617
 2288SOL    HW1 7763   2.992   5.479   4.676
 2288SOL    HW2 7764   2.936   5.632   4.663
 2289SOL     OW 7765   4.177   0.241   5.665
 2289SOL    HW1 7766   4.222   0.275   5.583
 2289SOL    HW2 7767   4.078   0.258   5.659
 2290SOL     OW 7768   2.286   3.966   6.138
 2290SOL    HW1 7769   2.268   3.882   6.086
 2290SOL    HW2 7770   2.201   4.019   6.147
 2291SOL     OW 7771   3.795   2.007   0.520
 2291SOL    HW1 7772   3.854   2.087   0.512
 2291SOL    HW2 7773   3.797   1.973   0.614
 2292SOL     OW 7774   5.202   2.382   2.822
 2292SOL    HW1 7775   5.258   2.341   2.750
 2292SOL    HW2 7776   5.117   2.417   2.782
 2293SOL     OW 7777   6.982   0.769   6.538
 2293SOL    HW1 7778   6.939   0.822   6.610
 2293SOL    HW2 7779   0.027   0.710   6.577
 2294SOL     OW 7780   0.108   2.790   5.230
 2294SOL    HW1 7781   0.182   2.748   5.283
 2294SOL    HW2 7782   0.027   2.798   5.289
 2295SOL     OW 7783   5.843   5.859   0.356
 2295SOL    HW1 7784   5.765   5.891   0.410
 2295SOL    HW2 7785   5.841   5.759   0.350
 2296SOL     OW 7786   3.903   5.896   4.672
 2296SOL    HW1 7787   3.882   5.942   4.585
 2296SOL    HW2 7788   3.951   5.959   4.732
 2297SOL     OW 7789   6.224   2.506   0.167
 2297SOL    HW1 7790   6.142   2.454   0.189
 2297SOL    HW2 7791   6.295   2.488   0.235
 2298SOL     OW 7792   2.186   3.994   4.738
 2298SOL    HW1 7793   2.216   4.002   4.833
 2298SOL    HW2 7794   2.177   3.897   4.714
 2299SOL     OW 7795   6.053   3.851   4.581
 2299SOL    HW1 7796   6.137   3.797   4.577
 2299SOL    HW2 7797   6.077   3.948   4.588
 2300SOL     OW 7798   3.801   0.977   2.704
 2300SOL    HW1 7799   3.728   0.930   2.755
 2300SOL    HW2 7800   3.771   1.069   2.681
 2301SOL     OW 7801   4.438   3.143   6.059
 2301SOL    HW1 7802   4.516   3.082   6.045
 2301SOL    HW2 7803   4.423   3.156   6.157
 2302SOL     OW 7804   0.408   3.763   5.016
 2302SOL    HW1 7805   0.437   3.690   4.953
 2302SOL    HW2 7806   0.385   3.724   5.104
 2303SOL     OW 7807   2.318   2.529   6.508
 2303SOL    HW1 7808   2.339   2.618   6.467
 2303SOL    HW2 7809   2.380   2.460   6.472
 2304SOL     OW 7810   3.721   0.348   3.526
 2304SOL    HW1 7811   3.702   0.271   3.587
 2304SOL    HW2 7812   3.638   0.374   3.477
 2305SOL     OW 7813   2.799   6.012   4.861
 2305SOL    HW1 7814   2.858   5.984   4.937
 2305SOL    HW2 7815   2.709   5.970   4.871
 2306SOL     OW 7816   0.916   4.596   5.602
 2306SOL    HW1 7817   0.907   4.648   5.687
 2306SOL    HW2 7818   0.873   4.645   5.527
 2307SOL     OW 7819   6.132   3.987   5.745
 2307SOL    HW1 7820   6.178   4.015   5.829
 2307SOL    HW2 7821   6.106   4.069   5.693
 2308SOL     OW 7822   0.870   6.129   2.835
 2308SOL    HW1 7823   0.786   6.158   2.880
 2308SOL    HW2 7824   0.944   6.193   2.857
 2309SOL     OW 7825   1.634   1.106   4.463
 2309SOL    HW1 7826   1.570   1.178   4.437
 2309SOL    HW2 7827   1.725   1.128   4.427
 2310SOL     OW 7828   5.056   5.857   0.835
 2310SOL    HW1 7829   5.016   5.791   0.898
 2310SOL    HW2 7830   5.000   5.864   0.753
 2311SOL     OW 7831   2.866   5.833   0.318
 2311SOL    HW1 7832   2.820   5.755   0.360
 2311SOL    HW2 7833   2.801   5.881   0.259
 2312SOL     OW 7834   2.746   5.218   1.611
 2312SOL    HW1 7835   2.817   5.147   1.607
 2312SOL    HW2 7836   2.657   5.175   1.627
 2313SOL     OW 7837   4.892   4.956   1.308
 2313SOL    HW1 7838   4.947   4.875   1.285
 2313SOL    HW2 7839   4.950   5.023   1.355
 2314SOL     OW 7840   2.199   4.857   2.426
 2314SOL    HW1 7841   2.106   4.824   2.411
 2314SOL    HW2 7842   2.209   4.884   2.521
 2315SOL     OW 7843   3.760   1.928   6.464
 2315SOL    HW1 7844   3.687   1.964   6.522
 2315SOL    HW2 7845   3.763   1.828   6.471
 2316SOL     OW 7846   6.076   4.043   1.742
 2316SOL    HW1 7847   6.132   4.046   1.660
 2316SOL    HW2 7848   6.090   3.956   1.789
 2317SOL     OW 7849   0.312   6.923   3.748
 2317SOL    HW1 7850   0.349   6.832   3.729
 2317SOL    HW2 7851   0.370   6.992   3.705
 2318SOL     OW 7852   6.651   1.784   3.461
 2318SOL    HW1 7853   6.628   1.697   3.505
 2318SOL    HW2 7854   6.715   1.767   3.386
 2319SOL     OW 7855   0.929   5.887   3.344
 2319SOL    HW1 7856   0.865   5.850   3.412
 2319SOL    HW2 7857   0.913   5.985   3.334
 2320SOL     OW 7858   6.725   4.777   3.676
 2320SOL    HW1 7859   6.791   4.770   3.601
 2320SOL    HW2 7860   6.745   4.708   3.745
 2321SOL     OW 7861   2.828   4.734   3.534
 2321SOL    HW1 7862   2.822   4.785   3.448
 2321SOL    HW2 7863   2.911   4.761   3.583
 2322SOL     OW 7864   2.092   1.824   5.270
 2322SOL    HW1 7865   2.108   1.863   5.180
 2322SOL    HW2 7866   2.031   1.884   5.322
 2323SOL     OW 7867   5.786   3.623   1.345
 2323SOL    HW1 7868   5.731   3.668   1.274
 2323SOL    HW2 7869   5.726   3.569   1.404
 2324SOL     OW 7870   0.029   5.520   4.044
 2324SOL    HW1 7871   0.011   5.616   4.069
 2324SOL    HW2 7872   6.982   5.462   4.081
 2325SOL     OW 7873   6.683   1.607   0.764
 2325SOL    HW1 7874   6.608   1.614   0.698
 2325SOL    HW2 7875   6.760   1.663   0.733
 2326SOL     OW 7876   0.556   5.131   0.043
 2326SOL    HW1 7877   0.520   5.221   0.019
 2326SOL    HW2 7878   0.648   5.140   0.081
 2327SOL     OW 7879   4.649   0.816   2.670
 2327SOL    HW1 7880   4.555   0.800   2.700
 2327SOL    HW2 7881   4.710   0.814   2.750
 2328SOL     OW 7882   6.162   5.751   3.620
 2328SOL    HW1 7883   6.174   5.707   3.709
 2328SOL    HW2 7884   6.151   5.850   3.633
 2329SOL     OW 7885   1.358   6.610   3.398
 2329SOL    HW1 7886   1.351   6.658   3.310
 2329SOL    HW2 7887   1.453   6.581   3.412
 2330SOL     OW 7888   1.710   3.926   6.772
 2330SOL    HW1 7889   1.622   3.880   6.788
 2330SOL    HW2 7890   1.718   3.949   6.675
 2331SOL     OW 7891   1.446   4.258   5.088
 2331SOL    HW1 7892   1.490   4.243   5.000
 2331SOL    HW2 7893   1.488   4.200   5.157
 2332SOL     OW 7894   6.523   3.553   6.869
 2332SOL    HW1 7895   6.531   3.571   6.967
 2332SOL    HW2 7896   6.575   3.621   6.818
 2333SOL     OW 7897   2.393   4.996   3.910
 2333SOL    HW1 7898   2.354   5.086   3.890
 2333SOL    HW2 7899   2.392   4.981   4.009
 2334SOL     OW 7900   1.798   0.183   6.168
 2334SOL    HW1 7901   1.886   0.222   6.143
 2334SOL    HW2 7902   1.726   0.224   6.111
 2335SOL     OW 7903   5.181   4.369   4.900
 2335SOL    HW1 7904   5.245   4.441   4.927
 2335SOL    HW2 7905   5.089   4.408   4.890
 2336SOL     OW 7906   4.465   1.165   5.656
 2336SOL    HW1 7907   4.514   1.247   5.684
 2336SOL    HW2 7908   4.437   1.174   5.560
 2337SOL     OW 7909   5.935   0.619   5.198
 2337SOL    HW1 7910   5.861   0.686   5.209
 2337SOL    HW2 7911   6.016   0.650   5.248
 2338SOL     OW 7912   1.875   6.811   6.917
 2338SOL    HW1 7913   1.953   6.751   6.933
 2338SOL    HW2 7914   1.833   6.789   6.828
 2339SOL     OW 7915   3.375   4.272   5.729
 2339SOL    HW1 7916   3.324   4.358   5.721
 2339SOL    HW2 7917   3.343   4.208   5.660
 2340SOL     OW 7918   4.237   5.196   4.101
 2340SOL    HW1 7919   4.328   5.172   4.067
 2340SOL    HW2 7920   4.196   5.117   4.146
 2341SOL     OW 7921   0.961   3.917   6.015
 2341SOL    HW1 7922   0.983   3.892   6.109
 2341SOL    HW2 7923   1.046   3.940   5.967
 2342SOL     OW 7924   4.614   1.111   5.052
 2342SOL    HW1 7925   4.616   1.075   4.958
 2342SOL    HW2 7926   4.674   1.191   5.057
 2343SOL     OW 7927   0.532   6.166   1.548
 2343SOL    HW1 7928   0.474   6.125   1.478
 2343SOL    HW2 7929   0.627   6.167   1.516
 2344SOL     OW 7930   1.974   0.258   2.955
 2344SOL    HW1 7931   2.031   0.175   2.957
 2344SOL    HW2 7932   1.995   0.310   2.872
 2345SOL     OW 7933   1.343   2.488   1.781
 2345SOL    HW1 7934   1.253   2.485   1.823
 2345SOL    HW2 7935   1.362   2.401   1.736
 2346SOL     OW 7936   5.875   3.063   4.731
 2346SOL    HW1 7937   5.882   3.026   4.638
 2346SOL    HW2 7938   5.845   3.158   4.726
 2347SOL     OW 7939   1.745   4.326   1.390
 2347SOL    HW1 7940   1.775   4.376   1.308
 2347SOL    HW2 7941   1.692   4.387   1.449
 2348SOL     OW 7942   3.121   6.910   1.618
 2348SOL    HW1 7943   3.187   6.915   1.693
 2348SOL    HW2 7944   3.138   6.985   1.554
 2349SOL     OW 7945   5.749   2.467   6.887
 2349SOL    HW1 7946   5.828   2.415   6.919
 2349SOL    HW2 7947   5.775   2.521   6.807
 2350SOL     OW 7948   2.572   5.764   5.452
 2350SOL    HW1 7949   2.602   5.852   5.489
 2350SOL    HW2 7950   2.650   5.717   5.410
 2351SOL     OW 7951   1.644   5.572   3.397
 2351SOL    HW1 7952   1.744   5.572   3.395
 2351SOL    HW2 7953   1.610   5.513   3.324
 2352SOL     OW 7954   5.815   6.080   6.257
 2352SOL    HW1 7955   5.864   6.068   6.170
 2352SOL    HW2 7956   5.824   6.175   6.287
 2353SOL     OW 7957   3.359   3.025   6.656
 2353SOL    HW1 7958   3.311   2.973   6.727
 2353SOL    HW2 7959   3.312   3.014   6.569
 2354SOL     OW 7960   3.107   1.594   2.521
 2354SOL    HW1 7961   3.115   1.496   2.503
 2354SOL    HW2 7962   3.024   1.629   2.478
 2355SOL     OW 7963   6.520   1.529   1.919
 2355SOL    HW1 7964   6.488   1.435   1.919
 2355SOL    HW2 7965   6.442   1.591   1.920
 2356SOL     OW 7966   3.767   5.242   3.979
 2356SOL    HW1 7967   3.858   5.275   4.002
 2356SOL    HW2 7968   3.762   5.143   3.996
 2357SOL     OW 7969   0.274   5.792   0.910
 2357SOL    HW1 7970   0.212   5.777   0.833
 2357SOL    HW2 7971   0.368   5.799   0.877
 2358SOL     OW 7972   2.076   1.036   4.993
 2358SOL    HW1 7973   1.997   0.988   5.031
 2358SOL    HW2 7974   2.157   0.978   4.998
 2359SOL     OW 7975   3.596   2.874   5.692
 2359SOL    HW1 7976   3.516   2.827   5.729
 2359SOL    HW2 7977   3.572   2.915   5.604
 2360SOL     OW 7978   3.567   4.997   1.904
 2360SOL    HW1 7979   3.629   5.000   1.825
 2360SOL    HW2 7980   3.577   4.909   1.951
 2361SOL     OW 7981   3.514   4.716   0.787
 2361SOL    HW1 7982   3.546   4.782   0.855
 2361SOL    HW2 7983   3.508   4.761   0.698
 2362SOL     OW 7984   3.026   4.942   4.185
 2362SOL    HW1 7985   3.057   4.868   4.125
 2362SOL    HW2 7986   2.941   4.913   4.231
 2363SOL     OW 7987   2.708   3.766   1.681
 2363SOL    HW1 7988   2.805   3.771   1.701
 2363SOL    HW2 7989   2.668   3.685   1.724
 2364SOL     OW 7990   4.371   0.728   2.686
 2364SOL    HW1 7991   4.299   0.795   2.704
 2364SOL    HW2 7992   4.332   0.636   2.681
 2365SOL     OW 7993   5.863   3.690   2.751
 2365SOL    HW1 7994   5.791   3.624   2.732
 2365SOL    HW2 7995   5.825   3.782   2.749
 2366SOL     OW 7996   4.258   5.311   4.712
 2366SOL    HW1 7997   4.178   5.254   4.724
 2366SOL    HW2 7998   4.277   5.323   4.615
 2367SOL     OW 7999   5.885   4.673   5.908
 2367SOL    HW1 8000   5.947   4.595   5.896
 2367SOL    HW2 8001   5.797   4.652   5.865
 2368SOL     OW 8002   5.328   1.577   5.166
 2368SOL    HW1 8003   5.267   1.515   5.215
 2368SOL    HW2 8004   5.305   1.672   5.188
 2369SOL     OW 8005   4.299   2.088   4.178
 2369SOL    HW1 8006   4.358   2.006   4.181
 2369SOL    HW2 8007   4.299   2.126   4.086
 2370SOL     OW 8008   4.204   1.966   0.524
 2370SOL    HW1 8009   4.221   2.064   0.532
 2370SOL    HW2 8010   4.115   1.951   0.482
 2371SOL     OW 8011   2.135   6.486   3.326
 2371SOL    HW1 8012   2.233   6.469   3.327
 2371SOL    HW2 8013   2.107   6.518   3.236
 2372SOL     OW 8014   5.505   6.269   0.245
 2372SOL    HW1 8015   5.431   6.314   0.195
 2372SOL    HW2 8016   5.560   6.339   0.291
 2373SOL     OW 8017   6.479   4.424   6.172
 2373SOL    HW1 8018   6.519   4.338   6.138
 2373SOL    HW2 8019   6.501   4.434   6.269
 2374SOL     OW 8020   0.681   5.204   2.861
 2374SOL    HW1 8021   0.707   5.264   2.936
 2374SOL    HW2 8022   0.626   5.255   2.794
 2375SOL     OW 8023   2.158   0.261   4.524
 2375SOL    HW1 8024   2.161   0.162   4.538
 2375SOL    HW2 8025   2.213   0.285   4.444
 2376SOL     OW 8026   6.007   3.099   4.088
 2376SOL    HW1 8027   5.973   3.067   4.000
 2376SOL    HW2 8028   6.012   3.023   4.153
 2377SOL     OW 8029   3.676   5.104   5.923
 2377SOL    HW1 8030   3.659   5.006   5.913
 2377SOL    HW2 8031   3.772   5.119   5.948
 2378SOL     OW 8032   0.608   0.081   0.788
 2378SOL    HW1 8033   0.693   0.084   0.840
 2378SOL    HW2 8034   0.612   0.006   0.721
 2379SOL     OW 8035   0.880   4.319   3.560
 2379SOL    HW1 8036   0.912   4.236   3.605
 2379SOL    HW2 8037   0.784   4.308   3.533
 2380SOL     OW 8038   4.746   5.622   6.124
 2380SOL    HW1 8039   4.772   5.570   6.043
 2380SOL    HW2 8040   4.647   5.633   6.127
 2381SOL     OW 8041   2.242   4.804   3.810
 2381SOL    HW1 8042   2.257   4.716   3.855
 2381SOL    HW2 8043   2.305   4.871   3.849
 2382SOL     OW 8044   6.135   5.880   2.302
 2382SOL    HW1 8045   6.188   5.861   2.219
 2382SOL    HW2 8046   6.178   5.835   2.380
 2383SOL     OW 8047   4.367   3.512   6.208
 2383SOL    HW1 8048   4.323   3.425   6.189
 2383SOL    HW2 8049   4.389   3.558   6.122
 2384SOL     OW 8050   1.089   2.410   3.150
 2384SOL    HW1 8051   1.019   2.459   3.202
 2384SOL    HW2 8052   1.118   2.466   3.072
 2385SOL     OW 8053   0.890   0.772   0.826
 2385SOL    HW1 8054   0.965   0.713   0.856
 2385SOL    HW2 8055   0.820   0.717   0.780
 2386SOL     OW 8056   0.134   5.021   6.566
 2386SOL    HW1 8057   0.232   5.038   6.551
 2386SOL    HW2 8058   0.086   5.108   6.570
 2387SOL     OW 8059   6.081   0.448   2.959
 2387SOL    HW1 8060   6.026   0.478   2.882
 2387SOL    HW2 8061   6.178   0.454   2.935
 2388SOL     OW 8062   1.922   5.184   3.785
 2388SOL    HW1 8063   1.892   5.256   3.723
 2388SOL    HW2 8064   1.977   5.117   3.735
 2389SOL     OW 8065   3.386   6.876   2.959
 2389SOL    HW1 8066   3.363   6.803   2.894
 2389SOL    HW2 8067   3.307   6.936   2.971
 2390SOL     OW 8068   5.007   3.357   4.768
 2390SOL    HW1 8069   5.013   3.332   4.672
 2390SOL    HW2 8070   4.916   3.334   4.803
 2391SOL     OW 8071   2.455   4.269   6.886
 2391SOL    HW1 8072   2.466   4.290   6.789
 2391SOL    HW2 8073   2.383   4.201   6.897
 2392SOL     OW 8074   3.939   5.106   5.692
 2392SOL    HW1 8075   3.852   5.128   5.736
 2392SOL    HW2 8076   4.000   5.185   5.696
 2393SOL     OW 8077   5.144   5.029   0.706
 2393SOL    HW1 8078   5.185   5.032   0.614
 2393SOL    HW2 8079   5.214   5.047   0.774
 2394SOL     OW 8080   6.930   2.419   2.847
 2394SOL    HW1 8081   6.868   2.441   2.923
 2394SOL    HW2 8082   6.883   2.436   2.760
 2395SOL     OW 8083   0.525   3.142   3.462
 2395SOL    HW1 8084   0.436   3.146   3.417
 2395SOL    HW2 8085   0.595   3.113   3.396
 2396SOL     OW 8086   0.289   0.247   5.608
 2396SOL    HW1 8087   0.206   0.287   5.646
 2396SOL    HW2 8088   0.271   0.153   5.578
 2397SOL     OW 8089   2.839   4.901   5.728
 2397SOL    HW1 8090   2.748   4.902   5.686
 2397SOL    HW2 8091   2.885   4.988   5.710
 2398SOL     OW 8092   3.647   6.284   5.053
 2398SOL    HW1 8093   3.713   6.340   5.004
 2398SOL    HW2 8094   3.571   6.261   4.992
 2399SOL     OW 8095   2.850   1.394   1.890
 2399SOL    HW1 8096   2.781   1.455   1.929
 2399SOL    HW2 8097   2.930   1.392   1.951
 2400SOL     OW 8098   1.107   1.974   6.155
 2400SOL    HW1 8099   1.074   1.914   6.228
 2400SOL    HW2 8100   1.195   1.940   6.121
 2401SOL     OW 8101   1.390   6.691   0.395
 2401SOL    HW1 8102   1.366   6.610   0.449
 2401SOL    HW2 8103   1.330   6.767   0.421
 2402SOL     OW 8104   0.769   2.907   1.451
 2402SOL    HW1 8105   0.819   2.965   1.516
 2402SOL    HW2 8106   0.753   2.817   1.492
 2403SOL     OW 8107   3.209   4.159   5.206
 2403SOL    HW1 8108   3.253   4.219   5.139
 2403SOL    HW2 8109   3.174   4.215   5.282
 2404SOL     OW 8110   6.530   2.150   1.490
 2404SOL    HW1 8111   6.535   2.086   1.567
 2404SOL    HW2 8112   6.491   2.237   1.521
 2405SOL     OW 8113   2.725   3.720   0.606
 2405SOL    HW1 8114   2.647   3.691   0.662
 2405SOL    HW2 8115   2.783   3.641   0.587
 2406SOL     OW 8116   4.800   5.852   5.534
 2406SOL    HW1 8117   4.894   5.829   5.509
 2406SOL    HW2 8118   4.750   5.879   5.451
 2407SOL     OW 8119   2.217   1.959   3.572
 2407SOL    HW1 8120   2.162   1.910   3.639
 2407SOL    HW2 8121   2.198   2.057   3.577
 2408SOL     OW 8122   4.659   6.320   5.758
 2408SOL    HW1 8123   4.614   6.379   5.825
 2408SOL    HW2 8124   4.662   6.366   5.669
 2409SOL     OW 8125   1.906   2.744   6.753
 2409SOL    HW1 8126   1.846   2.785   6.685
 2409SOL    HW2 8127   1.876   2.769   6.844
 2410SOL     OW 8128   6.929   3.197   4.729
 2410SOL    HW1 8129   7.020   3.159   4.750
 2410SOL    HW2 8130   6.930   3.296   4.744
 2411SOL     OW 8131   3.079   0.897   0.873
 2411SOL    HW1 8132   3.079   0.842   0.957
 2411SOL    HW2 8133   3.067   0.836   0.794
 2412SOL     OW 8134   3.874   2.530   0.435
 2412SOL    HW1 8135   3.865   2.437   0.399
 2412SOL    HW2 8136   3.787   2.558   0.476
 2413SOL     OW 8137   0.222   3.706   6.528
 2413SOL    HW1 8138   0.243   3.726   6.432
 2413SOL    HW2 8139   0.255   3.615   6.551
 2414SOL     OW 8140   6.197   2.027   5.173
 2414SOL    HW1 8141   6.156   1.959   5.233
 2414SOL    HW2 8142   6.297   2.023   5.182
 2415SOL     OW 8143   3.217   3.817   5.344
 2415SOL    HW1 8144   3.273   3.864   5.277
 2415SOL    HW2 8145   3.257   3.829   5.435
 2416SOL     OW 8146   6.536   3.242   3.083
 2416SOL    HW1 8147   6.499   3.150   3.072
 2416SOL    HW2 8148   6.497   3.303   3.014
 2417SOL     OW 8149   3.433   2.721   1.880
 2417SOL    HW1 8150   3.370   2.718   1.802
 2417SOL    HW2 8151   3.384   2.753   1.961
 2418SOL     OW 8152   6.026   3.653   6.590
 2418SOL    HW1 8153   5.963   3.621   6.660
 2418SOL    HW2 8154   5.982   3.725   6.536
 2419SOL     OW 8155   2.884   1.375   2.895
 2419SOL    HW1 8156   2.944   1.453   2.880
 2419SOL    HW2 8157   2.896   1.308   2.821
 2420SOL     OW 8158   0.506   2.865   1.355
 2420SOL    HW1 8159   0.602   2.865   1.382
 2420SOL    HW2 8160   0.500   2.878   1.256
 2421SOL     OW 8161   2.705   0.626   3.376
 2421SOL    HW1 8162   2.610   0.621   3.407
 2421SOL    HW2 8163   2.735   0.535   3.348
 2422SOL     OW 8164   3.929   0.034   0.326
 2422SOL    HW1 8165   3.909   0.046   0.229
 2422SOL    HW2 8166   4.004   0.094   0.353
 2423SOL     OW 8167   3.534   5.164   5.176
 2423SOL    HW1 8168   3.584   5.177   5.262
 2423SOL    HW2 8169   3.517   5.067   5.162
 2424SOL     OW 8170   5.219   0.366   6.311
 2424SOL    HW1 8171   5.302   0.422   6.319
 2424SOL    HW2 8172   5.225   0.289   6.374
 2425SOL     OW 8173   5.218   5.270   4.805
 2425SOL    HW1 8174   5.173   5.342   4.858
 2425SOL    HW2 8175   5.316   5.287   4.802
 2426SOL     OW 8176   3.131   2.091   5.286
 2426SOL    HW1 8177   3.138   2.164   5.218
 2426SOL    HW2 8178   3.052   2.110   5.346
 2427SOL     OW 8179   4.635   2.597   6.752
 2427SOL    HW1 8180   4.656   2.643   6.839
 2427SOL    HW2 8181   4.623   2.666   6.680
 2428SOL     OW 8182   1.939   1.936   1.879
 2428SOL    HW1 8183   1.858   1.895   1.837
 2428SOL    HW2 8184   1.998   1.973   1.806
 2429SOL     OW 8185   4.888   5.254   1.653
 2429SOL    HW1 8186   4.962   5.316   1.679
 2429SOL    HW2 8187   4.919   5.193   1.580
 2430SOL     OW 8188   6.937   5.800   6.563
 2430SOL    HW1 8189   6.936   5.704   6.537
 2430SOL    HW2 8190   6.899   5.811   6.655
 2431SOL     OW 8191   2.092   3.140   1.435
 2431SOL    HW1 8192   2.138   3.065   1.387
 2431SOL    HW2 8193   2.005   3.161   1.391
 2432SOL     OW 8194   3.272   5.960   2.943
 2432SOL    HW1 8195   3.242   5.946   3.038
 2432SOL    HW2 8196   3.337   6.036   2.940
 2433SOL     OW 8197   0.118   4.374   4.376
 2433SOL    HW1 8198   0.129   4.281   4.411
 2433SOL    HW2 8199   0.205   4.424   4.384
 2434SOL     OW 8200   3.713   2.120   2.849
 2434SOL    HW1 8201   3.657   2.037   2.845
 2434SOL    HW2 8202   3.799   2.099   2.896
 2435SOL     OW 8203   5.669   6.518   5.933
 2435SOL    HW1 8204   5.679   6.430   5.887
 2435SOL    HW2 8205   5.612   6.579   5.878
 2436SOL     OW 8206   0.267   3.104   6.994
 2436SOL    HW1 8207   0.255   3.135   6.900
 2436SOL    HW2 8208   0.354   3.138   0.004
 2437SOL     OW 8209   0.960   5.114   1.107
 2437SOL    HW1 8210   0.916   5.129   1.018
 2437SOL    HW2 8211   1.056   5.141   1.101
 2438SOL     OW 8212   4.107   1.822   4.571
 2438SOL    HW1 8213   4.076   1.880   4.495
 2438SOL    HW2 8214   4.127   1.730   4.536
 2439SOL     OW 8215   0.577   5.963   6.625
 2439SOL    HW1 8216   0.613   5.978   6.717
 2439SOL    HW2 8217   0.621   6.028   6.562
 2440SOL     OW 8218   0.136   2.481   5.446
 2440SOL    HW1 8219   0.161   2.428   5.527
 2440SOL    HW2 8220   0.199   2.558   5.436
 2441SOL     OW 8221   6.898   6.963   6.936
 2441SOL    HW1 8222   6.831   6.942   6.865
 2441SOL    HW2 8223   6.867   6.927   7.024
 2442SOL     OW 8224   5.613   3.097   3.453
 2442SOL    HW1 8225   5.599   3.117   3.550
 2442SOL    HW2 8226   5.701   3.050   3.441
 2443SOL     OW 8227   0.923   3.303   1.379
 2443SOL    HW1 8228   0.961   3.212   1.365
 2443SOL    HW2 8229   0.884   3.309   1.471
 2444SOL     OW 8230   3.498   5.202   2.798
 2444SOL    HW1 8231   3.550   5.210   2.883
 2444SOL    HW2 8232   3.551   5.241   2.723
 2445SOL     OW 8233   0.512   1.628   1.589
 2445SOL    HW1 8234   0.443   1.559   1.569
 2445SOL    HW2 8235   0.535   1.625   1.686
 2446SOL     OW 8236   6.420   5.481   0.810
 2446SOL    HW1 8237   6.514   5.514   0.800
 2446SOL    HW2 8238   6.402   5.458   0.906
 2447SOL     OW 8239   1.630   6.956   6.545
 2447SOL    HW1 8240   1.560   6.960   6.474
 2447SOL    HW2 8241   1.700   7.026   6.527
 2448SOL     OW 8242   5.171   0.473   4.542
 2448SOL    HW1 8243   5.137   0.397   4.597
 2448SOL    HW2 8244   5.157   0.559   4.591
 2449SOL     OW 8245   1.958   3.867   1.158
 2449SOL    HW1 8246   1.970   3.966   1.163
 2449SOL    HW2 8247   2.039   3.821   1.195
 2450SOL     OW 8248   6.773   6.350   5.925
 2450SOL    HW1 8249   6.761   6.442   5.965
 2450SOL    HW2 8250   6.779   6.357   5.826
 2451SOL     OW 8251   1.528   0.516   0.167
 2451SOL    HW1 8252   1.456   0.542   0.231
 2451SOL    HW2 8253   1.614   0.503   0.216
 2452SOL     OW 8254   1.834   2.534   3.896
 2452SOL    HW1 8255   1.816   2.529   3.994
 2452SOL    HW2 8256   1.773   2.601   3.855
 2453SOL     OW 8257   0.861   2.167   6.832
 2453SOL    HW1 8258   0.841   2.138   6.738
 2453SOL    HW2 8259   0.831   2.261   6.846
 2454SOL     OW 8260   2.112   6.431   0.349
 2454SOL    HW1 8261   2.172   6.354   0.372
 2454SOL    HW2 8262   2.126   6.505   0.415
 2455SOL     OW 8263   4.980   2.205   6.358
 2455SOL    HW1 8264   5.039   2.285   6.350
 2455SOL    HW2 8265   5.006   2.137   6.289
 2456SOL     OW 8266   1.375   3.273   5.592
 2456SOL    HW1 8267   1.336   3.184   5.565
 2456SOL    HW2 8268   1.464   3.259   5.634
 2457SOL     OW 8269   5.876   1.737   5.942
 2457SOL    HW1 8270   5.898   1.819   5.994
 2457SOL    HW2 8271   5.952   1.672   5.948
 2458SOL     OW 8272   1.295   0.076   1.644
 2458SOL    HW1 8273   1.376   0.078   1.585
 2458SOL    HW2 8274   1.252   7.012   1.638
 2459SOL     OW 8275   1.405   0.042   1.148
 2459SOL    HW1 8276   1.417   0.139   1.166
 2459SOL    HW2 8277   1.488   7.019   1.172
 2460SOL     OW 8278   0.506   1.138   4.328
 2460SOL    HW1 8279   0.530   1.043   4.348
 2460SOL    HW2 8280   0.447   1.173   4.401
 2461SOL     OW 8281   1.970   1.825   3.167
 2461SOL    HW1 8282   2.047   1.762   3.152
 2461SOL    HW2 8283   1.930   1.849   3.078
 2462SOL     OW 8284   0.480   5.228   0.716
 2462SOL    HW1 8285   0.385   5.227   0.748
 2462SOL    HW2 8286   0.519   5.319   0.728
 2463SOL     OW 8287   6.740   5.951   0.174
 2463SOL    HW1 8288   6.828   5.908   0.192
 2463SOL    HW2 8289   6.746   6.049   0.195
 2464SOL     OW 8290   0.686   2.749   4.691
 2464SOL    HW1 8291   0.739   2.789   4.615
 2464SOL    HW2 8292   0.681   2.815   4.766
 2465SOL     OW 8293   0.105   1.548   0.081
 2465SOL    HW1 8294   0.132   1.549   7.011
 2465SOL    HW2 8295   0.135   1.633   0.125
 2466SOL     OW 8296   1.232   1.798   1.046
 2466SOL    HW1 8297   1.236   1.884   0.995
 2466SOL    HW2 8298   1.138   1.762   1.042
 2467SOL     OW 8299   4.877   3.101   4.674
 2467SOL    HW1 8300   4.857   3.029   4.741
 2467SOL    HW2 8301   4.842   3.073   4.585
 2468SOL     OW 8302   3.268   6.564   4.357
 2468SOL    HW1 8303   3.278   6.643   4.417
 2468SOL    HW2 8304   3.209   6.496   4.400
 2469SOL     OW 8305   3.187   1.988   6.120
 2469SOL    HW1 8306   3.153   1.926   6.049
 2469SOL    HW2 8307   3.115   2.003   6.188
 2470SOL     OW 8308   1.975   5.247   6.124
 2470SOL    HW1 8309   1.991   5.198   6.210
 2470SOL    HW2 8310   1.944   5.183   6.054
 2471SOL     OW 8311   2.515   6.160   2.334
 2471SOL    HW1 8312   2.513   6.062   2.354
 2471SOL    HW2 8313   2.556   6.175   2.244
 2472SOL     OW 8314   4.901   0.300   2.556
 2472SOL    HW1 8315   4.922   0.339   2.646
 2472SOL    HW2 8316   4.921   0.202   2.556
 2473SOL     OW 8317   0.674   4.048   4.792
 2473SOL    HW1 8318   0.742   4.119   4.812
 2473SOL    HW2 8319   0.585   4.091   4.775
 2474SOL     OW 8320   1.869   0.434   1.191
 2474SOL    HW1 8321   1.857   0.510   1.127
 2474SOL    HW2 8322   1.898   0.352   1.141
 2475SOL     OW 8323   5.705   2.207   0.705
 2475SOL    HW1 8324   5.645   2.188   0.783
 2475SOL    HW2 8325   5.650   2.217   0.623
 2476SOL     OW 8326   4.597   6.682   6.984
 2476SOL    HW1 8327   4.529   6.694   6.913
 2476SOL    HW2 8328   4.571   6.606   0.017
 2477SOL     OW 8329   4.286   1.381   4.060
 2477SOL    HW1 8330   4.348   1.303   4.074
 2477SOL    HW2 8331   4.232   1.366   3.977
 2478SOL     OW 8332   3.246   0.664   4.052
 2478SOL    HW1 8333   3.233   0.693   3.957
 2478SOL    HW2 8334   3.338   0.692   4.082
 2479SOL     OW 8335   6.413   4.083   2.495
 2479SOL    HW1 8336   6.472   4.163   2.496
 2479SOL    HW2 8337   6.408   4.044   2.587
 2480SOL     OW 8338   2.755   2.129   1.638
 2480SOL    HW1 8339   2.671   2.185   1.638
 2480SOL    HW2 8340   2.782   2.109   1.732
 2481SOL     OW 8341   2.915   0.278   2.535
 2481SOL    HW1 8342   2.961   0.216   2.471
 2481SOL    HW2 8343   2.960   0.367   2.533
 2482SOL     OW 8344   0.056   3.197   0.122
 2482SOL    HW1 8345   0.075   3.246   0.037
 2482SOL    HW2 8346   0.142   3.172   0.166
 2483SOL     OW 8347   2.844   1.700   0.951
 2483SOL    HW1 8348   2.924   1.649   0.919
 2483SOL    HW2 8349   2.793   1.734   0.872
 2484SOL     OW 8350   4.454   1.180   6.051
 2484SOL    HW1 8351   4.472   1.090   6.012
 2484SOL    HW2 8352   4.452   1.249   5.979
 2485SOL     OW 8353   0.608   1.400   6.863
 2485SOL    HW1 8354   0.656   1.382   6.949
 2485SOL    HW2 8355   0.609   1.498   6.844
 2486SOL     OW 8356   6.358   5.964   2.577
 2486SOL    HW1 8357   6.377   5.953   2.675
 2486SOL    HW2 8358   6.395   5.885   2.528
 2487SOL     OW 8359   4.036   6.462   6.788
 2487SOL    HW1 8360   3.944   6.496   6.768
 2487SOL    HW2 8361   4.057   6.480   6.884
 2488SOL     OW 8362   0.638   3.658   0.596
 2488SOL    HW1 8363   0.708   3.712   0.643
 2488SOL    HW2 8364   0.548   3.698   0.615
 2489SOL     OW 8365   6.021   5.821   4.698
 2489SOL    HW1 8366   6.053   5.886   4.768
 2489SOL    HW2 8367   6.008   5.732   4.740
 2490SOL     OW 8368   3.226   5.765   2.780
 2490SOL    HW1 8369   3.255   5.828   2.852
 2490SOL    HW2 8370   3.260   5.797   2.692
 2491SOL     OW 8371   3.933   4.428   1.631
 2491SOL    HW1 8372   3.862   4.495   1.650
 2491SOL    HW2 8373   3.911   4.342   1.678
 2492SOL     OW 8374   6.906   4.576   2.246
 2492SOL    HW1 8375   6.904   4.670   2.279
 2492SOL    HW2 8376   6.894   4.575   2.147
 2493SOL     OW 8377   5.943   6.451   0.483
 2493SOL    HW1 8378   5.950   6.351   0.481
 2493SOL    HW2 8379   5.963   6.483   0.576
 2494SOL     OW 8380   6.863   3.489   1.640
 2494SOL    HW1 8381   6.826   3.563   1.696
 2494SOL    HW2 8382   6.797   3.414   1.637
 2495SOL     OW 8383   6.828   2.973   2.203
 2495SOL    HW1 8384   6.897   2.977   2.131
 2495SOL    HW2 8385   6.801   2.878   2.218
 2496SOL     OW 8386   4.988   3.883   5.641
 2496SOL    HW1 8387   4.916   3.856   5.577
 2496SOL    HW2 8388   4.948   3.906   5.730
 2497SOL     OW 8389   0.612   7.002   3.865
 2497SOL    HW1 8390   0.527   6.967   3.904
 2497SOL    HW2 8391   0.611   0.076   3.868
 2498SOL     OW 8392   2.205   3.054   4.414
 2498SOL    HW1 8393   2.129   3.077   4.475
 2498SOL    HW2 8394   2.218   3.127   4.348
 2499SOL     OW 8395   6.021   2.930   1.030
 2499SOL    HW1 8396   6.005   2.832   1.016
 2499SOL    HW2 8397   5.997   2.979   0.946
 2500SOL     OW 8398   4.038   3.870   2.574
 2500SOL    HW1 8399   4.018   3.879   2.672
 2500SOL    HW2 8400   4.063   3.959   2.537
 2501SOL     OW 8401   6.165   5.085   4.118
 2501SOL    HW1 8402   6.222   5.165   4.101
 2501SOL    HW2 8403   6.103   5.103   4.194
 2502SOL     OW 8404   2.260   5.872   3.377
 2502SOL    HW1 8405   2.259   5.971   3.391
 2502SOL    HW2 8406   2.229   5.851   3.284
 2503SOL     OW 8407   2.173   0.033   5.422
 2503SOL    HW1 8408   2.214   0.088   5.349
 2503SOL    HW2 8409   2.189   6.962   5.403
 2504SOL     OW 8410   4.084   1.282   3.167
 2504SOL    HW1 8411   4.088   1.344   3.088
 2504SOL    HW2 8412   3.994   1.289   3.210
 2505SOL     OW 8413   5.546   4.576   4.302
 2505SOL    HW1 8414   5.622   4.592   4.238
 2505SOL    HW2 8415   5.495   4.496   4.273
 2506SOL     OW 8416   5.890   4.732   6.510
 2506SOL    HW1 8417   5.845   4.650   6.474
 2506SOL    HW2 8418   5.846   4.814   6.472
 2507SOL     OW 8419   5.802   3.582   3.808
 2507SOL    HW1 8420   5.744   3.621   3.736
 2507SOL    HW2 8421   5.896   3.614   3.796
 2508SOL     OW 8422   5.591   0.699   4.202
 2508SOL    HW1 8423   5.548   0.626   4.256
 2508SOL    HW2 8424   5.615   0.665   4.112
 2509SOL     OW 8425   0.178   3.622   5.993
 2509SOL    HW1 8426   0.253   3.660   5.940
 2509SOL    HW2 8427   0.124   3.561   5.935
 2510SOL     OW 8428   3.367   4.115   2.349
 2510SOL    HW1 8429   3.304   4.192   2.336
 2510SOL    HW2 8430   3.376   4.065   2.263
 2511SOL     OW 8431   2.155   0.873   4.509
 2511SOL    HW1 8432   2.096   0.870   4.590
 2511SOL    HW2 8433   2.106   0.914   4.432
 2512SOL     OW 8434   3.078   4.856   3.593
 2512SOL    HW1 8435   3.174   4.877   3.609
 2512SOL    HW2 8436   3.021   4.922   3.642
 2513SOL     OW 8437   2.097   5.455   6.423
 2513SOL    HW1 8438   2.056   5.449   6.332
 2513SOL    HW2 8439   2.024   5.455   6.492
 2514SOL     OW 8440   0.839   2.816   2.381
 2514SOL    HW1 8441   0.828   2.846   2.286
 2514SOL    HW2 8442   0.875   2.892   2.436
 2515SOL     OW 8443   0.104   1.822   0.913
 2515SOL    HW1 8444   0.146   1.783   0.995
 2515SOL    HW2 8445   0.011   1.785   0.903
 2516SOL     OW 8446   6.985   2.476   4.615
 2516SOL    HW1 8447   0.044   2.510   4.656
 2516SOL    HW2 8448   6.907   2.513   4.664
 2517SOL     OW 8449   0.145   1.724   4.376
 2517SOL    HW1 8450   0.130   1.711   4.278
 2517SOL    HW2 8451   0.081   1.793   4.410
 2518SOL     OW 8452   3.268   3.390   0.867
 2518SOL    HW1 8453   3.174   3.423   0.876
 2518SOL    HW2 8454   3.272   3.293   0.890
 2519SOL     OW 8455   1.371   0.946   0.161
 2519SOL    HW1 8456   1.337   0.853   0.143
 2519SOL    HW2 8457   1.298   1.012   0.144
 2520SOL     OW 8458   2.804   3.050   1.215
 2520SOL    HW1 8459   2.766   3.136   1.249
 2520SOL    HW2 8460   2.813   2.985   1.291
 2521SOL     OW 8461   5.845   1.518   4.969
 2521SOL    HW1 8462   5.831   1.551   4.875
 2521SOL    HW2 8463   5.804   1.428   4.979
 2522SOL     OW 8464   2.058   2.203   0.527
 2522SOL    HW1 8465   2.130   2.143   0.494
 2522SOL    HW2 8466   2.068   2.293   0.487
 2523SOL     OW 8467   0.979   5.500   5.183
 2523SOL    HW1 8468   0.968   5.593   5.149
 2523SOL    HW2 8469   0.890   5.454   5.181
 2524SOL     OW 8470   0.790   2.467   4.699
 2524SOL    HW1 8471   0.764   2.564   4.697
 2524SOL    HW2 8472   0.767   2.424   4.612
 2525SOL     OW 8473   6.713   2.910   6.672
 2525SOL    HW1 8474   6.636   2.957   6.629
 2525SOL    HW2 8475   6.799   2.947   6.636
 2526SOL     OW 8476   2.460   1.097   1.041
 2526SOL    HW1 8477   2.549   1.070   1.078
 2526SOL    HW2 8478   2.446   1.195   1.055
 2527SOL     OW 8479   4.101   5.396   0.232
 2527SOL    HW1 8480   4.124   5.401   0.135
 2527SOL    HW2 8481   4.180   5.363   0.283
 2528SOL     OW 8482   4.626   5.476   6.773
 2528SOL    HW1 8483   4.578   5.456   6.859
 2528SOL    HW2 8484   4.656   5.571   6.773
 2529SOL     OW 8485   6.968   6.096   5.922
 2529SOL    HW1 8486   7.023   6.084   6.005
 2529SOL    HW2 8487   6.936   6.191   5.917
 2530SOL     OW 8488   2.171   6.025   6.725
 2530SOL    HW1 8489   2.200   6.015   6.821
 2530SOL    HW2 8490   2.206   6.112   6.689
 2531SOL     OW 8491   0.109   3.938   6.266
 2531SOL    HW1 8492   0.179   3.867   6.258
 2531SOL    HW2 8493   0.062   3.950   6.178
 2532SOL     OW 8494   5.053   6.264   3.394
 2532SOL    HW1 8495   4.958   6.266   3.363
 2532SOL    HW2 8496   5.114   6.266   3.315
 2533SOL     OW 8497   4.568   0.650   3.901
 2533SOL    HW1 8498   4.601   0.571   3.953
 2533SOL    HW2 8499   4.479   0.627   3.859
 2534SOL     OW 8500   4.348   1.475   2.599
 2534SOL    HW1 8501   4.290   1.393   2.603
 2534SOL    HW2 8502   4.351   1.508   2.505
 2535SOL     OW 8503   3.537   2.921   6.359
 2535SOL    HW1 8504   3.590   2.887   6.282
 2535SOL    HW2 8505   3.440   2.904   6.343
 2536SOL     OW 8506   0.860   0.469   0.936
 2536SOL    HW1 8507   0.829   0.491   1.029
 2536SOL    HW2 8508   0.949   0.512   0.920
 2537SOL     OW 8509   4.233   6.680   5.067
 2537SOL    HW1 8510   4.308   6.620   5.041
 2537SOL    HW2 8511   4.218   6.748   4.996
 2538SOL     OW 8512   6.078   3.899   3.922
 2538SOL    HW1 8513   5.985   3.893   3.887
 2538SOL    HW2 8514   6.078   3.883   4.021
 2539SOL     OW 8515   5.246   2.005   4.955
 2539SOL    HW1 8516   5.200   1.936   4.899
 2539SOL    HW2 8517   5.189   2.026   5.035
 2540SOL     OW 8518   2.565   2.444   1.520
 2540SOL    HW1 8519   2.622   2.507   1.573
 2540SOL    HW2 8520   2.612   2.420   1.436
 2541SOL     OW 8521   2.911   0.000   4.429
 2541SOL    HW1 8522   2.909   6.935   4.388
 2541SOL    HW2 8523   3.005   0.022   4.456
 2542SOL     OW 8524   1.794   5.672   6.262
 2542SOL    HW1 8525   1.730   5.621   6.319
 2542SOL    HW2 8526   1.864   5.610   6.227
 2543SOL     OW 8527   1.069   0.853   3.887
 2543SOL    HW1 8528   1.019   0.778   3.843
 2543SOL    HW2 8529   1.159   0.864   3.844
 2544SOL     OW 8530   0.830   5.904   6.200
 2544SOL    HW1 8531   0.756   5.896   6.133
 2544SOL    HW2 8532   0.821   5.831   6.268
 2545SOL     OW 8533   2.658   6.520   2.592
 2545SOL    HW1 8534   2.750   6.493   2.621
 2545SOL    HW2 8535   2.608   6.440   2.561
 2546SOL     OW 8536   0.078   1.209   2.099
 2546SOL    HW1 8537   0.045   1.287   2.046
 2546SOL    HW2 8538   0.143   1.157   2.043
 2547SOL     OW 8539   0.323   4.197   4.895
 2547SOL    HW1 8540   0.321   4.105   4.936
 2547SOL    HW2 8541   0.343   4.264   4.966
 2548SOL     OW 8542   6.912   0.765   5.855
 2548SOL    HW1 8543   6.815   0.790   5.862
 2548SOL    HW2 8544   6.968   0.848   5.852
 2549SOL     OW 8545   5.356   2.205   3.419
 2549SOL    HW1 8546   5.266   2.224   3.459
 2549SOL    HW2 8547   5.372   2.265   3.341
 2550SOL     OW 8548   5.520   5.020   0.168
 2550SOL    HW1 8549   5.469   5.106   0.166
 2550SOL    HW2 8550   5.468   4.949   0.120
 2551SOL     OW 8551   1.206   4.486   6.254
 2551SOL    HW1 8552   1.142   4.473   6.330
 2551SOL    HW2 8553   1.220   4.398   6.208
 2552SOL     OW 8554   1.729   6.071   3.445
 2552SOL    HW1 8555   1.705   6.080   3.541
 2552SOL    HW2 8556   1.680   5.993   3.405
 2553SOL     OW 8557   4.695   2.989   0.554
 2553SOL    HW1 8558   4.762   2.915   0.554
 2553SOL    HW2 8559   4.659   3.002   0.646
 2554SOL     OW 8560   0.963   1.776   0.573
 2554SOL    HW1 8561   0.942   1.771   0.475
 2554SOL    HW2 8562   1.051   1.732   0.590
 2555SOL     OW 8563   0.230   0.120   5.904
 2555SOL    HW1 8564   0.278   0.189   5.958
 2555SOL    HW2 8565   0.297   0.067   5.852
 2556SOL     OW 8566   4.411   5.139   6.993
 2556SOL    HW1 8567   4.343   5.132   0.040
 2556SOL    HW2 8568   4.501   5.119   0.004
 2557SOL     OW 8569   2.411   4.806   6.936
 2557SOL    HW1 8570   2.400   4.707   6.933
 2557SOL    HW2 8571   2.416   4.842   6.843
 2558SOL     OW 8572   4.095   0.934   5.271
 2558SOL    HW1 8573   4.155   0.911   5.194
 2558SOL    HW2 8574   4.142   0.915   5.357
 2559SOL     OW 8575   0.127   5.026   5.116
 2559SOL    HW1 8576   0.125   5.102   5.181
 2559SOL    HW2 8577   0.169   5.057   5.030
 2560SOL     OW 8578   6.558   0.379   0.533
 2560SOL    HW1 8579   6.467   0.372   0.572
 2560SOL    HW2 8580   6.623   0.408   0.604
 2561SOL     OW 8581   3.021   5.790   4.160
 2561SOL    HW1 8582   3.012   5.730   4.240
 2561SOL    HW2 8583   3.078   5.868   4.184
 2562SOL     OW 8584   2.001   3.924   0.304
 2562SOL    HW1 8585   1.989   3.958   0.397
 2562SOL    HW2 8586   1.986   3.998   0.239
 2563SOL     OW 8587   1.643   0.759   1.602
 2563SOL    HW1 8588   1.643   0.802   1.512
 2563SOL    HW2 8589   1.670   0.826   1.671
 2564SOL     OW 8590   1.459   6.213   2.345
 2564SOL    HW1 8591   1.556   6.221   2.368
 2564SOL    HW2 8592   1.429   6.119   2.361
 2565SOL     OW 8593   1.572   1.240   1.102
 2565SOL    HW1 8594   1.488   1.288   1.079
 2565SOL    HW2 8595   1.645   1.268   1.040
 2566SOL     OW 8596   2.367   6.492   5.222
 2566SOL    HW1 8597   2.365   6.525   5.316
 2566SOL    HW2 8598   2.411   6.402   5.219
 2567SOL     OW 8599   1.313   0.689   0.248
 2567SOL    HW1 8600   1.363   0.724   0.328
 2567SOL    HW2 8601   1.266   0.604   0.273
 2568SOL     OW 8602   5.685   3.802   0.266
 2568SOL    HW1 8603   5.776   3.844   0.271
 2568SOL    HW2 8604   5.694   3.703   0.270
 2569SOL     OW 8605   2.538   0.918   2.122
 2569SOL    HW1 8606   2.556   1.016   2.115
 2569SOL    HW2 8607   2.440   0.903   2.131
 2570SOL     OW 8608   6.528   2.745   6.355
 2570SOL    HW1 8609   6.614   2.796   6.351
 2570SOL    HW2 8610   6.515   2.709   6.447
 2571SOL     OW 8611   1.247   4.285   4.092
 2571SOL    HW1 8612   1.321   4.222   4.068
 2571SOL    HW2 8613   1.200   4.313   4.009
 2572SOL     OW 8614   1.337   4.863   3.256
 2572SOL    HW1 8615   1.379   4.782   3.217
 2572SOL    HW2 8616   1.331   4.853   3.356
 2573SOL     OW 8617   1.203   0.448   0.325
 2573SOL    HW1 8618   1.121   0.404   0.362
 2573SOL    HW2 8619   1.284   0.393   0.348
 2574SOL     OW 8620   6.604   3.382   1.682
 2574SOL    HW1 8621   6.543   3.343   1.613
 2574SOL    HW2 8622   6.571   3.473   1.707
 2575SOL     OW 8623   0.969   0.216   5.106
 2575SOL    HW1 8624   1.029   0.183   5.179
 2575SOL    HW2 8625   0.948   0.141   5.043
 2576SOL     OW 8626   4.351   6.419   5.655
 2576SOL    HW1 8627   4.444   6.447   5.634
 2576SOL    HW2 8628   4.288   6.494   5.634
 2577SOL     OW 8629   1.761   4.040   2.446
 2577SOL    HW1 8630   1.801   3.983   2.518
 2577SOL    HW2 8631   1.831   4.062   2.378
 2578SOL     OW 8632   3.996   1.370   1.958
 2578SOL    HW1 8633   4.075   1.316   1.928
 2578SOL    HW2 8634   4.020   1.418   2.043
 2579SOL     OW 8635   0.288   6.468   2.931
 2579SOL    HW1 8636   0.334   6.487   3.018
 2579SOL    HW2 8637   0.303   6.544   2.868
 2580SOL     OW 8638   2.867   2.162   5.357
 2580SOL    HW1 8639   2.829   2.143   5.448
 2580SOL    HW2 8640   2.810   2.117   5.288
 2581SOL     OW 8641   3.780   0.577   5.596
 2581SOL    HW1 8642   3.740   0.582   5.688
 2581SOL    HW2 8643   3.818   0.666   5.572
 2582SOL     OW 8644   0.363   3.411   0.256
 2582SOL    HW1 8645   0.418   3.427   0.337
 2582SOL    HW2 8646   0.295   3.339   0.276
 2583SOL     OW 8647   5.097   0.981   0.846
 2583SOL    HW1 8648   5.134   1.049   0.784
 2583SOL    HW2 8649   5.171   0.942   0.901
 2584SOL     OW 8650   3.298   4.374   6.650
 2584SOL    HW1 8651   3.336   4.295   6.699
 2584SOL    HW2 8652   3.357   4.397   6.573
 2585SOL     OW 8653   2.112   5.157   0.145
 2585SOL    HW1 8654   2.123   5.141   0.243
 2585SOL    HW2 8655   2.179   5.101   0.095
 2586SOL     OW 8656   1.843   1.300   2.948
 2586SOL    HW1 8657   1.904   1.246   3.006
 2586SOL    HW2 8658   1.754   1.255   2.943
 2587SOL     OW 8659   5.938   1.030   4.154
 2587SOL    HW1 8660   5.982   0.970   4.221
 2587SOL    HW2 8661   5.839   1.016   4.156
 2588SOL     OW 8662   4.928   1.803   6.449
 2588SOL    HW1 8663   4.953   1.869   6.378
 2588SOL    HW2 8664   4.855   1.842   6.505
 2589SOL     OW 8665   1.185   5.876   0.416
 2589SOL    HW1 8666   1.250   5.915   0.482
 2589SOL    HW2 8667   1.116   5.945   0.394
 2590SOL     OW 8668   2.656   5.040   0.643
 2590SOL    HW1 8669   2.580   4.992   0.687
 2590SOL    HW2 8670   2.685   4.989   0.562
 2591SOL     OW 8671   4.851   6.395   3.065
 2591SOL    HW1 8672   4.816   6.489   3.065
 2591SOL    HW2 8673   4.806   6.343   3.138
 2592SOL     OW 8674   3.396   3.526   0.633
 2592SOL    HW1 8675   3.316   3.535   0.692
 2592SOL    HW2 8676   3.427   3.617   0.605
 2593SOL     OW 8677   2.565   4.614   6.393
 2593SOL    HW1 8678   2.595   4.701   6.355
 2593SOL    HW2 8679   2.619   4.539   6.353
 2594SOL     OW 8680   2.099   3.018   3.153
 2594SOL    HW1 8681   2.151   3.001   3.070
 2594SOL    HW2 8682   2.095   2.934   3.207
 2595SOL     OW 8683   1.449   0.764   2.869
 2595SOL    HW1 8684   1.422   0.777   2.964
 2595SOL    HW2 8685   1.406   0.834   2.812
 2596SOL     OW 8686   6.886   0.762   1.098
 2596SOL    HW1 8687   6.871   0.744   1.001
 2596SOL    HW2 8688   6.982   0.746   1.121
 2597SOL     OW 8689   6.035   6.194   0.477
 2597SOL    HW1 8690   6.134   6.200   0.488
 2597SOL    HW2 8691   6.005   6.099   0.490
 2598SOL     OW 8692   4.733   2.745   2.127
 2598SOL    HW1 8693   4.760   2.841   2.115
 2598SOL    HW2 8694   4.720   2.702   2.038
 2599SOL     OW 8695   2.312   5.583   1.759
 2599SOL    HW1 8696   2.317   5.646   1.836
 2599SOL    HW2 8697   2.257   5.623   1.686
 2600SOL     OW 8698   5.604   5.578   4.168
 2600SOL    HW1 8699   5.524   5.634   4.192
 2600SOL    HW2 8700   5.575   5.501   4.113
 2601SOL     OW 8701   6.935   1.458   3.242
 2601SOL    HW1 8702   0.008   1.444   3.246
 2601SOL    HW2 8703   6.915   1.553   3.218
 2602SOL     OW 8704   2.022   4.784   3.278
 2602SOL    HW1 8705   2.050   4.751   3.369
 2602SOL    HW2 8706   1.990   4.707   3.223
 2603SOL     OW 8707   1.342   5.784   1.472
 2603SOL    HW1 8708   1.283   5.779   1.552
 2603SOL    HW2 8709   1.309   5.856   1.410
 2604SOL     OW 8710   5.149   3.216   3.028
 2604SOL    HW1 8711   5.198   3.209   2.941
 2604SOL    HW2 8712   5.051   3.207   3.013
 2605SOL     OW 8713   1.270   2.032   0.845
 2605SOL    HW1 8714   1.267   2.127   0.815
 2605SOL    HW2 8715   1.363   1.997   0.840
 2606SOL     OW 8716   5.307   3.623   0.988
 2606SOL    HW1 8717   5.400   3.607   1.020
 2606SOL    HW2 8718   5.274   3.711   1.023
 2607SOL     OW 8719   2.508   2.837   1.813
 2607SOL    HW1 8720   2.425   2.862   1.763
 2607SOL    HW2 8721   2.487   2.826   1.910
 2608SOL     OW 8722   3.271   4.831   5.089
 2608SOL    HW1 8723   3.227   4.754   5.135
 2608SOL    HW2 8724   3.358   4.851   5.133
 2609SOL     OW 8725   0.140   1.371   1.891
 2609SOL    HW1 8726   0.107   1.421   1.810
 2609SOL    HW2 8727   0.239   1.365   1.888
 2610SOL     OW 8728   1.342   4.631   5.156
 2610SOL    HW1 8729   1.313   4.616   5.061
 2610SOL    HW2 8730   1.434   4.593   5.169
 2611SOL     OW 8731   5.324   2.183   5.356
 2611SOL    HW1 8732   5.410   2.141   5.385
 2611SOL    HW2 8733   5.343   2.252   5.286
 2612SOL     OW 8734   6.580   5.802   0.337
 2612SOL    HW1 8735   6.625   5.843   0.258
 2612SOL    HW2 8736   6.495   5.759   0.308
 2613SOL     OW 8737   1.921   0.176   0.679
 2613SOL    HW1 8738   1.827   0.154   0.707
 2613SOL    HW2 8739   1.956   0.102   0.622
 2614SOL     OW 8740   6.399   1.727   0.785
 2614SOL    HW1 8741   6.415   1.823   0.805
 2614SOL    HW2 8742   6.381   1.715   0.688
 2615SOL     OW 8743   1.246   3.032   6.911
 2615SOL    HW1 8744   1.253   3.102   6.840
 2615SOL    HW2 8745   1.241   3.076   7.000
 2616SOL     OW 8746   1.367   1.566   5.177
 2616SOL    HW1 8747   1.304   1.636   5.143
 2616SOL    HW2 8748   1.461   1.591   5.152
 2617SOL     OW 8749   5.816   0.253   6.819
 2617SOL    HW1 8750   5.751   0.180   6.796
 2617SOL    HW2 8751   5.795   0.289   6.910
 2618SOL     OW 8752   1.939   0.109   6.967
 2618SOL    HW1 8753   1.887   0.024   6.954
 2618SOL    HW2 8754   1.876   0.186   6.975
 2619SOL     OW 8755   4.110   0.849   2.782
 2619SOL    HW1 8756   4.091   0.790   2.860
 2619SOL    HW2 8757   4.070   0.939   2.797
 2620SOL     OW 8758   5.756   2.592   2.041
 2620SOL    HW1 8759   5.813   2.660   2.086
 2620SOL    HW2 8760   5.662   2.599   2.075
 2621SOL     OW 8761   2.409   6.299   0.880
 2621SOL    HW1 8762   2.350   6.379   0.870
 2621SOL    HW2 8763   2.454   6.280   0.792
 2622SOL     OW 8764   2.113   3.405   0.150
 2622SOL    HW1 8765   2.197   3.395   0.097
 2622SOL    HW2 8766   2.135   3.434   0.243
 2623SOL     OW 8767   0.172   2.094   4.052
 2623SOL    HW1 8768   0.100   2.164   4.059
 2623SOL    HW2 8769   0.219   2.085   4.139
 2624SOL     OW 8770   1.588   0.987   5.536
 2624SOL    HW1 8771   1.640   1.066   5.570
 2624SOL    HW2 8772   1.529   0.952   5.609
 2625SOL     OW 8773   3.082   5.447   6.284
 2625SOL    HW1 8774   3.098   5.509   6.207
 2625SOL    HW2 8775   2.984   5.438   6.301
 2626SOL     OW 8776   6.808   6.707   0.565
 2626SOL    HW1 8777   6.784   6.616   0.529
 2626SOL    HW2 8778   6.906   6.722   0.552
 2627SOL     OW 8779   2.380   0.342   5.774
 2627SOL    HW1 8780   2.408   0.321   5.680
 2627SOL    HW2 8781   2.334   0.431   5.776
 2628SOL     OW 8782   6.999   5.520   1.675
 2628SOL    HW1 8783   0.060   5.535   1.722
 2628SOL    HW2 8784   6.939   5.599   1.687
 2629SOL     OW 8785   3.209   3.656   2.466
 2629SOL    HW1 8786   3.291   3.656   2.523
 2629SOL    HW2 8787   3.231   3.688   2.374
 2630SOL     OW 8788   2.977   1.538   4.876
 2630SOL    HW1 8789   2.949   1.443   4.893
 2630SOL    HW2 8790   2.922   1.576   4.802
 2631SOL     OW 8791   5.280   5.500   0.403
 2631SOL    HW1 8792   5.326   5.429   0.457
 2631SOL    HW2 8793   5.262   5.579   0.462
 2632SOL     OW 8794   4.393   5.330   2.186
 2632SOL    HW1 8795   4.337   5.251   2.160
 2632SOL    HW2 8796   4.477   5.299   2.229
 2633SOL     OW 8797   6.724   2.923   6.290
 2633SOL    HW1 8798   6.751   3.020   6.291
 2633SOL    HW2 8799   6.706   2.896   6.195
 2634SOL     OW 8800   2.205   1.686   6.234
 2634SOL    HW1 8801   2.181   1.672   6.330
 2634SOL    HW2 8802   2.294   1.644   6.215
 2635SOL     OW 8803   4.211   5.564   3.319
 2635SOL    HW1 8804   4.131   5.621   3.302
 2635SOL    HW2 8805   4.247   5.529   3.233
 2636SOL     OW 8806   3.295   6.788   6.052
 2636SOL    HW1 8807   3.243   6.703   6.046
 2636SOL    HW2 8808   3.386   6.775   6.012
 2637SOL     OW 8809   6.501   1.195   2.985
 2637SOL    HW1 8810   6.540   1.164   2.898
 2637SOL    HW2 8811   6.456   1.283   2.971
 2638SOL     OW 8812   0.255   6.294   4.944
 2638SOL    HW1 8813   0.341   6.329   4.906
 2638SOL    HW2 8814   0.238   6.202   4.908
 2639SOL     OW 8815   5.119   5.466   4.967
 2639SOL    HW1 8816   5.071   5.393   5.017
 2639SOL    HW2 8817   5.052   5.521   4.918
 2640SOL     OW 8818   1.868   0.614   2.902
 2640SOL    HW1 8819   1.785   0.627   2.847
 2640SOL    HW2 8820   1.871   0.684   2.974
 2641SOL     OW 8821   5.312   2.275   0.999
 2641SOL    HW1 8822   5.300   2.280   0.900
 2641SOL    HW2 8823   5.238   2.220   1.038
 2642SOL     OW 8824   0.147   0.663   2.825
 2642SOL    HW1 8825   0.107   0.668   2.916
 2642SOL    HW2 8826   0.079   0.694   2.758
 2643SOL     OW 8827   1.562   4.895   4.667
 2643SOL    HW1 8828   1.661   4.902   4.654
 2643SOL    HW2 8829   1.515   4.935   4.588
 2644SOL     OW 8830   5.565   5.157   3.479
 2644SOL    HW1 8831   5.654   5.203   3.483
 2644SOL    HW2 8832   5.509   5.200   3.409
 2645SOL     OW 8833   4.477   5.611   2.548
 2645SOL    HW1 8834   4.436   5.689   2.596
 2645SOL    HW2 8835   4.477   5.531   2.608
 2646SOL     OW 8836   1.449   1.281   6.629
 2646SOL    HW1 8837   1.435   1.285   6.530
 2646SOL    HW2 8838   1.417   1.367   6.670
 2647SOL     OW 8839   4.315   0.232   2.723
 2647SOL    HW1 8840   4.261   0.306   2.682
 2647SOL    HW2 8841   4.254   0.162   2.759
 2648SOL     OW 8842   2.092   0.449   5.943
 2648SOL    HW1 8843   2.064   0.381   5.875
 2648SOL    HW2 8844   2.088   0.540   5.903
 2649SOL     OW 8845   5.702   1.914   3.672
 2649SOL    HW1 8846   5.757   1.832   3.661
 2649SOL    HW2 8847   5.640   1.924   3.594
 2650SOL     OW 8848   1.619   6.508   4.303
 2650SOL    HW1 8849   1.566   6.423   4.310
 2650SOL    HW2 8850   1.603   6.551   4.214
 2651SOL     OW 8851   3.144   1.910   2.767
 2651SOL    HW1 8852   3.203   1.987   2.744
 2651SOL    HW2 8853   3.060   1.944   2.809
 2652SOL     OW 8854   3.933   3.495   6.412
 2652SOL    HW1 8855   3.884   3.408   6.399
 2652SOL    HW2 8856   3.925   3.550   6.329
 2653SOL     OW 8857   2.369   6.756   0.361
 2653SOL    HW1 8858   2.386   6.690   0.435
 2653SOL    HW2 8859   2.454   6.774   0.312
 2654SOL     OW 8860   6.458   6.991   1.248
 2654SOL    HW1 8861   6.401   6.923   1.294
 2654SOL    HW2 8862   6.509   6.946   1.174
 2655SOL     OW 8863   5.700   6.349   4.013
 2655SOL    HW1 8864   5.791   6.387   3.995
 2655SOL    HW2 8865   5.696   6.317   4.108
 2656SOL     OW 8866   5.305   0.234   4.906
 2656SOL    HW1 8867   5.387   0.180   4.887
 2656SOL    HW2 8868   5.249   0.187   4.974
 2657SOL     OW 8869   1.678   3.535   5.624
 2657SOL    HW1 8870   1.720   3.458   5.672
 2657SOL    HW2 8871   1.717   3.542   5.532
 2658SOL     OW 8872   3.426   4.159   0.735
 2658SOL    HW1 8873   3.421   4.075   0.681
 2658SOL    HW2 8874   3.431   4.137   0.832
 2659SOL     OW 8875   0.417   2.236   5.522
 2659SOL    HW1 8876   0.477   2.276   5.452
 2659SOL    HW2 8877   0.342   2.188   5.478
 2660SOL     OW 8878   0.985   1.517   0.362
 2660SOL    HW1 8879   1.049   1.539   0.436
 2660SOL    HW2 8880   0.891   1.524   0.396
 2661SOL     OW 8881   1.965   1.306   1.917
 2661SOL    HW1 8882   2.064   1.309   1.929
 2661SOL    HW2 8883   1.940   1.228   1.859
 2662SOL     OW 8884   2.894   1.582   1.335
 2662SOL    HW1 8885   2.856   1.643   1.405
 2662SOL    HW2 8886   2.822   1.558   1.270
 2663SOL     OW 8887   3.905   0.059   1.053
 2663SOL    HW1 8888   3.954   0.073   0.968
 2663SOL    HW2 8889   3.970   0.058   1.130
 2664SOL     OW 8890   4.727   3.374   5.457
 2664SOL    HW1 8891   4.736   3.449   5.522
 2664SOL    HW2 8892   4.661   3.399   5.386
 2665SOL     OW 8893   1.320   3.548   4.482
 2665SOL    HW1 8894   1.330   3.613   4.407
 2665SOL    HW2 8895   1.409   3.508   4.504
 2666SOL     OW 8896   1.870   3.533   1.958
 2666SOL    HW1 8897   1.890   3.617   1.908
 2666SOL    HW2 8898   1.771   3.526   1.974
 2667SOL     OW 8899   6.165   2.607   4.377
 2667SOL    HW1 8900   6.240   2.656   4.421
 2667SOL    HW2 8901   6.112   2.558   4.446
 2668SOL     OW 8902   6.088   0.654   3.547
 2668SOL    HW1 8903   6.046   0.710   3.476
 2668SOL    HW2 8904   6.019   0.628   3.615
 2669SOL     OW 8905   2.620   1.962   2.008
 2669SOL    HW1 8906   2.672   2.040   2.043
 2669SOL    HW2 8907   2.527   1.966   2.045
 2670SOL     OW 8908   0.639   6.714   1.527
 2670SOL    HW1 8909   0.692   6.684   1.606
 2670SOL    HW2 8910   0.541   6.700   1.545
 2671SOL     OW 8911   5.049   4.343   6.764
 2671SOL    HW1 8912   5.019   4.252   6.735
 2671SOL    HW2 8913   5.036   4.408   6.689
 2672SOL     OW 8914   1.887   0.972   2.520
 2672SOL    HW1 8915   1.887   0.945   2.616
 2672SOL    HW2 8916   1.841   0.900   2.466
 2673SOL     OW 8917   3.277   0.819   3.672
 2673SOL    HW1 8918   3.196   0.861   3.712
 2673SOL    HW2 8919   3.249   0.741   3.616
 2674SOL     OW 8920   5.310   5.797   2.701
 2674SOL    HW1 8921   5.258   5.712   2.693
 2674SOL    HW2 8922   5.318   5.839   2.610
 2675SOL     OW 8923   4.910   0.960   3.760
 2675SOL    HW1 8924   4.816   0.927   3.749
 2675SOL    HW2 8925   4.919   1.049   3.716
 2676SOL     OW 8926   3.618   3.721   5.465
 2676SOL    HW1 8927   3.551   3.651   5.440
 2676SOL    HW2 8928   3.697   3.715   5.404
 2677SOL     OW 8929   1.778   5.244   1.202
 2677SOL    HW1 8930   1.724   5.272   1.122
 2677SOL    HW2 8931   1.812   5.326   1.249
 2678SOL     OW 8932   3.479   1.824   1.864
 2678SOL    HW1 8933   3.530   1.755   1.914
 2678SOL    HW2 8934   3.381   1.804   1.870
 2679SOL     OW 8935   2.262   4.313   2.674
 2679SOL    HW1 8936   2.260   4.364   2.588
 2679SOL    HW2 8937   2.308   4.367   2.744
 2680SOL     OW 8938   6.076   1.768   6.556
 2680SOL    HW1 8939   6.029   1.799   6.474
 2680SOL    HW2 8940   6.017   1.704   6.606
 2681SOL     OW 8941   2.254   2.943   2.945
 2681SOL    HW1 8942   2.291   2.915   2.857
 2681SOL    HW2 8943   2.286   2.881   3.017
 2682SOL     OW 8944   3.599   4.113   2.641
 2682SOL    HW1 8945   3.502   4.126   2.618
 2682SOL    HW2 8946   3.651   4.093   2.558
 2683SOL     OW 8947   1.876   3.308   1.293
 2683SOL    HW1 8948   1.781   3.321   1.320
 2683SOL    HW2 8949   1.934   3.373   1.342
 2684SOL     OW 8950   5.638   0.140   3.608
 2684SOL    HW1 8951   5.692   0.200   3.667
 2684SOL    HW2 8952   5.689   0.121   3.524
 2685SOL     OW 8953   1.889   6.615   5.856
 2685SOL    HW1 8954   1.980   6.657   5.865
 2685SOL    HW2 8955   1.819   6.684   5.873
 2686SOL     OW 8956   2.320   2.070   5.748
 2686SOL    HW1 8957   2.250   2.141   5.748
 2686SOL    HW2 8958   2.386   2.088   5.821
 2687SOL     OW 8959   3.586   2.528   1.718
 2687SOL    HW1 8960   3.525   2.575   1.782
 2687SOL    HW2 8961   3.629   2.450   1.763
 2688SOL     OW 8962   4.685   2.146   0.524
 2688SOL    HW1 8963   4.633   2.112   0.446
 2688SOL    HW2 8964   4.624   2.192   0.588
 2689SOL     OW 8965   0.417   3.971   1.982
 2689SOL    HW1 8966   0.422   4.053   1.925
 2689SOL    HW2 8967   0.382   3.996   2.072
 2690SOL     OW 8968   5.310   1.045   4.482
 2690SOL    HW1 8969   5.214   1.022   4.463
 2690SOL    HW2 8970   5.367   0.964   4.467
 2691SOL     OW 8971   5.609   3.704   3.659
 2691SOL    HW1 8972   5.566   3.722   3.747
 2691SOL    HW2 8973   5.625   3.790   3.611
 2692SOL     OW 8974   0.993   5.899   0.988
 2692SOL    HW1 8975   1.060   5.918   0.916
 2692SOL    HW2 8976   1.038   5.899   1.077
 2693SOL     OW 8977   1.141   6.083   2.722
 2693SOL    HW1 8978   1.116   6.158   2.662
 2693SOL    HW2 8979   1.152   5.999   2.669
 2694SOL     OW 8980   2.634   0.706   2.759
 2694SOL    HW1 8981   2.562   0.775   2.756
 2694SOL    HW2 8982   2.718   0.748   2.795
 2695SOL     OW 8983   6.725   6.434   2.788
 2695SOL    HW1 8984   6.806   6.455   2.733
 2695SOL    HW2 8985   6.744   6.454   2.884
 2696SOL     OW 8986   3.623   4.535   6.111
 2696SOL    HW1 8987   3.655   4.617   6.158
 2696SOL    HW2 8988   3.533   4.510   6.146
 2697SOL     OW 8989   4.632   2.683   0.081
 2697SOL    HW1 8990   4.642   2.773   0.040
 2697SOL    HW2 8991   4.535   2.659   0.087
 2698SOL     OW 8992   2.231   5.605   0.538
 2698SOL    HW1 8993   2.240   5.533   0.468
 2698SOL    HW2 8994   2.138   5.605   0.574
 2699SOL     OW 8995   2.907   0.038   2.698
 2699SOL    HW1 8996   2.979   6.995   2.694
 2699SOL    HW2 8997   2.934   0.118   2.646
 2700SOL     OW 8998   4.946   2.061   0.930
 2700SOL    HW1 8999   4.932   2.023   0.839
 2700SOL    HW2 9000   4.880   2.134   0.947
 2701SOL     OW 9001   5.392   4.241   5.629
 2701SOL    HW1 9002   5.479   4.220   5.583
 2701SOL    HW2 9003   5.361   4.160   5.679
 2702SOL     OW 9004   1.525   2.334   5.143
 2702SOL    HW1 9005   1.471   2.250   5.136
 2702SOL    HW2 9006   1.617   2.318   5.108
 2703SOL     OW 9007   2.367   6.109   1.327
 2703SOL    HW1 9008   2.304   6.034   1.304
 2703SOL    HW2 9009   2.430   6.124   1.251
 2704SOL     OW 9010   4.379   0.734   3.402
 2704SOL    HW1 9011   4.326   0.790   3.339
 2704SOL    HW2 9012   4.339   0.738   3.493
 2705SOL     OW 9013   1.120   0.494   5.577
 2705SOL    HW1 9014   1.033   0.454   5.606
 2705SOL    HW2 9015   1.149   0.562   5.644
 2706SOL     OW 9016   1.070   4.830   4.857
 2706SOL    HW1 9017   1.117   4.742   4.868
 2706SOL    HW2 9018   0.975   4.821   4.887
 2707SOL     OW 9019   3.825   0.851   3.039
 2707SOL    HW1 9020   3.865   0.931   3.084
 2707SOL    HW2 9021   3.882   0.771   3.055
 2708SOL     OW 9022   5.470   3.283   5.224
 2708SOL    HW1 9023   5.415   3.230   5.159
 2708SOL    HW2 9024   5.415   3.302   5.305
 2709SOL     OW 9025   4.895   1.383   5.366
 2709SOL    HW1 9026   4.840   1.330   5.431
 2709SOL    HW2 9027   4.904   1.477   5.400
 2710SOL     OW 9028   0.990   3.061   3.859
 2710SOL    HW1 9029   1.002   3.120   3.939
 2710SOL    HW2 9030   1.050   2.981   3.868
 2711SOL     OW 9031   4.550   0.786   1.248
 2711SOL    HW1 9032   4.468   0.807   1.194
 2711SOL    HW2 9033   4.563   0.858   1.316
 2712SOL     OW 9034   4.492   6.438   1.642
 2712SOL    HW1 9035   4.527   6.398   1.557
 2712SOL    HW2 9036   4.436   6.371   1.690
 2713SOL     OW 9037   4.182   4.708   5.183
 2713SOL    HW1 9038   4.237   4.627   5.162
 2713SOL    HW2 9039   4.188   4.728   5.280
 2714SOL     OW 9040   3.300   4.089   5.947
 2714SOL    HW1 9041   3.331   4.154   5.877
 2714SOL    HW2 9042   3.247   4.138   6.016
 2715SOL     OW 9043   4.267   6.943   0.322
 2715SOL    HW1 9044   4.249   6.968   0.226
 2715SOL    HW2 9045   4.218   7.006   0.382
 2716SOL     OW 9046   4.597   0.728   1.952
 2716SOL    HW1 9047   4.682   0.744   1.902
 2716SOL    HW2 9048   4.605   0.767   2.044
 2717SOL     OW 9049   0.039   1.828   1.912
 2717SOL    HW1 9050   7.020   1.771   1.980
 2717SOL    HW2 9051   7.002   1.899   1.880
 2718SOL     OW 9052   5.975   1.197   6.485
 2718SOL    HW1 9053   6.033   1.148   6.550
 2718SOL    HW2 9054   5.912   1.133   6.441
 2719SOL     OW 9055   1.111   4.136   4.295
 2719SOL    HW1 9056   1.073   4.219   4.336
 2719SOL    HW2 9057   1.087   4.133   4.198
 2720SOL     OW 9058   1.955   4.777   6.237
 2720SOL    HW1 9059   1.967   4.690   6.188
 2720SOL    HW2 9060   1.873   4.771   6.295
 2721SOL     OW 9061   2.636   5.945   3.692
 2721SOL    HW1 9062   2.674   6.021   3.639
 2721SOL    HW2 9063   2.539   5.962   3.710
 2722SOL     OW 9064   3.209   4.595   6.794
 2722SOL    HW1 9065   3.248   4.624   6.881
 2722SOL    HW2 9066   3.256   4.513   6.762
 2723SOL     OW 9067   4.941   4.975   0.454
 2723SOL    HW1 9068   4.844   4.959   0.475
 2723SOL    HW2 9069   4.995   4.953   0.535
 2724SOL     OW 9070   0.110   6.158   1.119
 2724SOL    HW1 9071   0.017   6.164   1.083
 2724SOL    HW2 9072   0.130   6.063   1.144
 2725SOL     OW 9073   5.922   3.983   3.243
 2725SOL    HW1 9074   5.907   3.913   3.313
 2725SOL    HW2 9075   5.983   3.948   3.173
 2726SOL     OW 9076   6.347   2.204   2.401
 2726SOL    HW1 9077   6.265   2.180   2.453
 2726SOL    HW2 9078   6.379   2.294   2.431
 2727SOL     OW 9079   1.418   4.591   4.026
 2727SOL    HW1 9080   1.368   4.634   3.951
 2727SOL    HW2 9081   1.461   4.507   3.993
 2728SOL     OW 9082   4.400   4.368   6.425
 2728SOL    HW1 9083   4.402   4.268   6.429
 2728SOL    HW2 9084   4.382   4.397   6.331
 2729SOL     OW 9085   0.366   0.189   0.915
 2729SOL    HW1 9086   0.445   0.149   0.869
 2729SOL    HW2 9087   0.306   0.116   0.948
 2730SOL     OW 9088   0.994   5.379   2.964
 2730SOL    HW1 9089   1.084   5.356   3.000
 2730SOL    HW2 9090   0.983   5.337   2.874
 2731SOL     OW 9091   3.821   3.633   5.292
 2731SOL    HW1 9092   3.808   3.644   5.194
 2731SOL    HW2 9093   3.918   3.616   5.312
 2732SOL     OW 9094   4.511   1.060   2.137
 2732SOL    HW1 9095   4.416   1.034   2.155
 2732SOL    HW2 9096   4.523   1.076   2.039
 2733SOL     OW 9097   0.454   0.272   0.099
 2733SOL    HW1 9098   0.380   0.339   0.088
 2733SOL    HW2 9099   0.540   0.314   0.071
 2734SOL     OW 9100   3.627   0.125   1.756
 2734SOL    HW1 9101   3.704   0.062   1.759
 2734SOL    HW2 9102   3.586   0.124   1.665
 2735SOL     OW 9103   0.751   2.924   3.155
 2735SOL    HW1 9104   0.789   2.838   3.122
 2735SOL    HW2 9105   0.761   2.930   3.254
 2736SOL     OW 9106   5.534   4.433   2.334
 2736SOL    HW1 9107   5.495   4.436   2.426
 2736SOL    HW2 9108   5.542   4.526   2.298
 2737SOL     OW 9109   2.709   0.417   6.210
 2737SOL    HW1 9110   2.685   0.321   6.226
 2737SOL    HW2 9111   2.703   0.438   6.113
 2738SOL     OW 9112   5.100   5.923   1.468
 2738SOL    HW1 9113   5.177   5.944   1.529
 2738SOL    HW2 9114   5.053   5.841   1.501
 2739SOL     OW 9115   0.484   5.392   1.895
 2739SOL    HW1 9116   0.470   5.488   1.918
 2739SOL    HW2 9117   0.577   5.380   1.859
 2740SOL     OW 9118   6.327   5.969   5.175
 2740SOL    HW1 9119   6.277   5.889   5.143
 2740SOL    HW2 9120   6.269   6.024   5.235
 2741SOL     OW 9121   7.018   6.584   0.167
 2741SOL    HW1 9122   7.018   6.558   0.070
 2741SOL    HW2 9123   6.998   6.503   0.222
 2742SOL     OW 9124   2.938   5.006   1.673
 2742SOL    HW1 9125   2.891   4.971   1.754
 2742SOL    HW2 9126   3.003   4.937   1.640
 2743SOL     OW 9127   5.084   2.138   3.523
 2743SOL    HW1 9128   5.119   2.078   3.594
 2743SOL    HW2 9129   4.990   2.112   3.500
 2744SOL     OW 9130   3.194   3.752   2.775
 2744SOL    HW1 9131   3.097   3.769   2.756
 2744SOL    HW2 9132   3.249   3.782   2.697
 2745SOL     OW 9133   0.760   6.209   6.851
 2745SOL    HW1 9134   0.716   6.122   6.873
 2745SOL    HW2 9135   0.859   6.196   6.843
 2746SOL     OW 9136   1.706   0.876   4.217
 2746SOL    HW1 9137   1.799   0.842   4.202
 2746SOL    HW2 9138   1.669   0.835   4.300
 2747SOL     OW 9139   5.341   5.046   0.474
 2747SOL    HW1 9140   5.398   4.964   0.470
 2747SOL    HW2 9141   5.340   5.090   0.385
 2748SOL     OW 9142   4.239   0.567   0.063
 2748SOL    HW1 9143   4.264   0.609   0.150
 2748SOL    HW2 9144   4.297   0.606   7.016
 2749SOL     OW 9145   4.612   0.959   6.669
 2749SOL    HW1 9146   4.592   1.004   6.582
 2749SOL    HW2 9147   4.550   0.881   6.681
 2750SOL     OW 9148   2.067   6.092   1.536
 2750SOL    HW1 9149   1.969   6.113   1.541
 2750SOL    HW2 9150   2.096   6.089   1.440
 2751SOL     OW 9151   6.185   5.819   1.831
 2751SOL    HW1 9152   6.171   5.735   1.778
 2751SOL    HW2 9153   6.183   5.898   1.770
 2752SOL     OW 9154   4.287   5.294   6.776
 2752SOL    HW1 9155   4.212   5.230   6.759
 2752SOL    HW2 9156   4.363   5.245   6.820
 2753SOL     OW 9157   4.325   5.153   5.222
 2753SOL    HW1 9158   4.392   5.092   5.263
 2753SOL    HW2 9159   4.295   5.221   5.290
 2754SOL     OW 9160   0.991   0.907   4.137
 2754SOL    HW1 9161   1.024   0.890   4.044
 2754SOL    HW2 9162   0.954   0.822   4.175
 2755SOL     OW 9163   3.422   0.621   1.902
 2755SOL    HW1 9164   3.384   0.595   1.991
 2755SOL    HW2 9165   3.482   0.700   1.913
 2756SOL     OW 9166   4.483   5.439   5.956
 2756SOL    HW1 9167   4.421   5.427   6.034
 2756SOL    HW2 9168   4.494   5.351   5.909
 2757SOL     OW 9169   1.073   4.646   0.302
 2757SOL    HW1 9170   1.121   4.575   0.251
 2757SOL    HW2 9171   0.986   4.666   0.257
 2758SOL     OW 9172   5.354   7.008   5.723
 2758SOL    HW1 9173   5.308   6.935   5.673
 2758SOL    HW2 9174   5.373   0.058   5.661
 2759SOL     OW 9175   4.460   4.847   3.033
 2759SOL    HW1 9176   4.462   4.905   2.951
 2759SOL    HW2 9177   4.515   4.765   3.017
 2760SOL     OW 9178   0.615   6.952   3.410
 2760SOL    HW1 9179   0.544   7.011   3.373
 2760SOL    HW2 9180   0.618   6.866   3.359
 2761SOL     OW 9181   2.573   4.656   5.011
 2761SOL    HW1 9182   2.671   4.671   5.008
 2761SOL    HW2 9183   2.553   4.570   5.058
 2762SOL     OW 9184   1.707   2.186   6.084
 2762SOL    HW1 9185   1.747   2.183   6.176
 2762SOL    HW2 9186   1.660   2.273   6.071
 2763SOL     OW 9187   5.745   0.408   1.963
 2763SOL    HW1 9188   5.838   0.419   1.928
 2763SOL    HW2 9189   5.680   0.443   1.896
 2764SOL     OW 9190   6.348   0.282   1.197
 2764SOL    HW1 9191   6.348   0.227   1.280
 2764SOL    HW2 9192   6.312   0.374   1.217
 2765SOL     OW 9193   5.154   1.534   3.639
 2765SOL    HW1 9194   5.220   1.605   3.659
 2765SOL    HW2 9195   5.133   1.534   3.542
 2766SOL     OW 9196   4.736   6.497   2.469
 2766SOL    HW1 9197   4.758   6.477   2.374
 2766SOL    HW2 9198   4.778   6.584   2.496
 2767SOL     OW 9199   6.996   4.128   5.146
 2767SOL    HW1 9200   6.957   4.080   5.067
 2767SOL    HW2 9201   7.007   4.063   5.221
 2768SOL     OW 9202   5.473   0.516   5.835
 2768SOL    HW1 9203   5.444   0.598   5.883
 2768SOL    HW2 9204   5.452   0.435   5.891
 2769SOL     OW 9205   1.163   3.886   1.524
 2769SOL    HW1 9206   1.149   3.932   1.612
 2769SOL    HW2 9207   1.158   3.953   1.450
 2770SOL     OW 9208   4.256   6.595   2.353
 2770SOL    HW1 9209   4.235   6.641   2.440
 2770SOL    HW2 9210   4.320   6.520   2.370
 2771SOL     OW 9211   4.358   0.747   1.575
 2771SOL    HW1 9212   4.284   0.722   1.512
 2771SOL    HW2 9213   4.346   0.697   1.661
 2772SOL     OW 9214   3.656   0.915   0.868
 2772SOL    HW1 9215   3.639   0.817   0.879
 2772SOL    HW2 9216   3.600   0.950   0.794
 2773SOL     OW 9217   3.481   5.229   1.375
 2773SOL    HW1 9218   3.504   5.267   1.285
 2773SOL    HW2 9219   3.477   5.129   1.368
 2774SOL     OW 9220   4.969   2.927   1.929
 2774SOL    HW1 9221   5.038   2.981   1.978
 2774SOL    HW2 9222   4.882   2.976   1.929
 2775SOL     OW 9223   0.919   0.118   1.950
 2775SOL    HW1 9224   0.890   0.148   1.859
 2775SOL    HW2 9225   0.838   0.092   2.003
 2776SOL     OW 9226   2.673   5.909   0.158
 2776SOL    HW1 9227   2.650   5.836   0.094
 2776SOL    HW2 9228   2.609   5.985   0.146
 2777SOL     OW 9229   1.012   2.503   4.209
 2777SOL    HW1 9230   1.006   2.446   4.127
 2777SOL    HW2 9231   0.926   2.498   4.260
 2778SOL     OW 9232   3.427   2.263   5.305
 2778SOL    HW1 9233   3.345   2.318   5.285
 2778SOL    HW2 9234   3.409   2.167   5.282
 2779SOL     OW 9235   6.418   0.654   0.571
 2779SOL    HW1 9236   6.378   0.586   0.633
 2779SOL    HW2 9237   6.361   0.661   0.489
 2780SOL     OW 9238   2.994   6.653   6.222
 2780SOL    HW1 9239   3.031   6.738   6.260
 2780SOL    HW2 9240   3.028   6.641   6.129
 2781SOL     OW 9241   5.563   3.647   6.556
 2781SOL    HW1 9242   5.500   3.698   6.615
 2781SOL    HW2 9243   5.646   3.701   6.542
 2782SOL     OW 9244   3.629   0.589   5.828
 2782SOL    HW1 9245   3.674   0.599   5.917
 2782SOL    HW2 9246   3.539   0.548   5.841
 2783SOL     OW 9247   0.521   4.043   5.265
 2783SOL    HW1 9248   0.596   4.007   5.209
 2783SOL    HW2 9249   0.558   4.107   5.332
 2784SOL     OW 9250   2.853   1.906   1.499
 2784SOL    HW1 9251   2.813   1.990   1.536
 2784SOL    HW2 9252   2.806   1.827   1.536
 2785SOL     OW 9253   5.664   2.423   2.506
 2785SOL    HW1 9254   5.751   2.457   2.471
 2785SOL    HW2 9255   5.595   2.495   2.500
 2786SOL     OW 9256   3.924   0.372   1.128
 2786SOL    HW1 9257   4.012   0.324   1.122
 2786SOL    HW2 9258   3.883   0.377   1.038
 2787SOL     OW 9259   1.698   4.318   5.813
 2787SOL    HW1 9260   1.609   4.322   5.766
 2787SOL    HW2 9261   1.742   4.408   5.808
 2788SOL     OW 9262   2.097   2.495   0.426
 2788SOL    HW1 9263   2.179   2.508   0.482
 2788SOL    HW2 9264   2.074   2.580   0.379
 2789SOL     OW 9265   6.944   3.316   3.357
 2789SOL    HW1 9266   6.848   3.338   3.369
 2789SOL    HW2 9267   6.986   3.298   3.446
 2790SOL     OW 9268   2.934   6.383   5.044
 2790SOL    HW1 9269   2.942   6.357   5.140
 2790SOL    HW2 9270   2.839   6.373   5.014
 2791SOL     OW 9271   2.122   3.708   2.208
 2791SOL    HW1 9272   2.160   3.635   2.151
 2791SOL    HW2 9273   2.040   3.675   2.254
 2792SOL     OW 9274   0.186   1.759   6.326
 2792SOL    HW1 9275   0.231   1.840   6.288
 2792SOL    HW2 9276   0.122   1.721   6.259
 2793SOL     OW 9277   4.958   0.624   4.875
 2793SOL    HW1 9278   5.026   0.561   4.911
 2793SOL    HW2 9279   4.983   0.650   4.781
 2794SOL     OW 9280   0.643   1.400   2.452
 2794SOL    HW1 9281   0.622   1.309   2.418
 2794SOL    HW2 9282   0.561   1.442   2.489
 2795SOL     OW 9283   1.262   3.443   0.896
 2795SOL    HW1 9284   1.272   3.374   0.967
 2795SOL    HW2 9285   1.350   3.487   0.880
 2796SOL     OW 9286   4.072   5.079   2.429
 2796SOL    HW1 9287   4.055   5.177   2.418
 2796SOL    HW2 9288   4.161   5.065   2.474
 2797SOL     OW 9289   5.160   4.779   5.201
 2797SOL    HW1 9290   5.198   4.871   5.191
 2797SOL    HW2 9291   5.185   4.723   5.122
 2798SOL     OW 9292   2.161   3.867   3.143
 2798SOL    HW1 9293   2.213   3.938   3.096
 2798SOL    HW2 9294   2.103   3.819   3.076
 2799SOL     OW 9295   6.789   5.785   6.810
 2799SOL    HW1 9296   6.823   5.714   6.871
 2799SOL    HW2 9297   6.724   5.843   6.858
 2800SOL     OW 9298   3.014   0.728   6.445
 2800SOL    HW1 9299   3.026   0.822   6.411
 2800SOL    HW2 9300   3.101   0.695   6.481
 2801SOL     OW 9301   4.091   5.458   2.033
 2801SOL    HW1 9302   4.059   5.461   1.938
 2801SOL    HW2 9303   4.187   5.485   2.037
 2802SOL     OW 9304   6.399   0.216   6.494
 2802SOL    HW1 9305   6.338   0.212   6.415
 2802SOL    HW2 9306   6.491   0.190   6.466
 2803SOL     OW 9307   2.769   6.119   4.577
 2803SOL    HW1 9308   2.691   6.171   4.541
 2803SOL    HW2 9309   2.738   6.065   4.656
 2804SOL     OW 9310   0.533   5.265   2.428
 2804SOL    HW1 9311   0.531   5.283   2.330
 2804SOL    HW2 9312   0.603   5.196   2.448
 2805SOL     OW 9313   6.581   4.610   6.424
 2805SOL    HW1 9314   6.678   4.629   6.408
 2805SOL    HW2 9315   6.526   4.686   6.391
 2806SOL     OW 9316   5.574   4.177   2.751
 2806SOL    HW1 9317   5.627   4.127   2.683
 2806SOL    HW2 9318   5.485   4.134   2.763
 2807SOL     OW 9319   3.791   4.986   4.088
 2807SOL    HW1 9320   3.704   4.937   4.087
 2807SOL    HW2 9321   3.863   4.929   4.048
 2808SOL     OW 9322   4.627   0.160   4.197
 2808SOL    HW1 9323   4.676   0.171   4.110
 2808SOL    HW2 9324   4.691   0.129   4.268
 2809SOL     OW 9325   5.448   1.848   0.430
 2809SOL    HW1 9326   5.412   1.913   0.363
 2809SOL    HW2 9327   5.386   1.769   0.437
 2810SOL     OW 9328   2.866   0.951   6.129
 2810SOL    HW1 9329   2.837   1.029   6.074
 2810SOL    HW2 9330   2.788   0.891   6.145
 2811SOL     OW 9331   0.122   0.710   4.134
 2811SOL    HW1 9332   0.078   0.696   4.223
 2811SOL    HW2 9333   0.222   0.708   4.147
 2812SOL     OW 9334   4.848   4.560   2.650
 2812SOL    HW1 9335   4.769   4.617   2.672
 2812SOL    HW2 9336   4.925   4.587   2.706
 2813SOL     OW 9337   6.701   1.860   6.119
 2813SOL    HW1 9338   6.791   1.868   6.161
 2813SOL    HW2 9339   6.675   1.764   6.115
 2814SOL     OW 9340   5.814   4.840   5.588
 2814SOL    HW1 9341   5.903   4.876   5.618
 2814SOL    HW2 9342   5.789   4.762   5.644
 2815SOL     OW 9343   1.491   1.267   4.086
 2815SOL    HW1 9344   1.444   1.261   3.998
 2815SOL    HW2 9345   1.581   1.222   4.079
 2816SOL     OW 9346   4.117   6.371   3.551
 2816SOL    HW1 9347   4.116   6.372   3.651
 2816SOL    HW2 9348   4.154   6.283   3.519
 2817SOL     OW 9349   1.545   1.244   1.406
 2817SOL    HW1 9350   1.614   1.265   1.475
 2817SOL    HW2 9351   1.574   1.281   1.318
 2818SOL     OW 9352   1.465   2.267   6.551
 2818SOL    HW1 9353   1.520   2.350   6.561
 2818SOL    HW2 9354   1.370   2.293   6.535
 2819SOL     OW 9355   6.520   3.433   2.379
 2819SOL    HW1 9356   6.445   3.488   2.342
 2819SOL    HW2 9357   6.484   3.346   2.411
 2820SOL     OW 9358   5.492   3.342   4.092
 2820SOL    HW1 9359   5.591   3.341   4.087
 2820SOL    HW2 9360   5.462   3.284   4.168
 2821SOL     OW 9361   1.659   3.629   2.790
 2821SOL    HW1 9362   1.717   3.556   2.753
 2821SOL    HW2 9363   1.627   3.687   2.715
 2822SOL     OW 9364   3.630   2.481   0.614
 2822SOL    HW1 9365   3.634   2.579   0.632
 2822SOL    HW2 9366   3.553   2.461   0.554
 2823SOL     OW 9367   1.380   0.880   4.489
 2823SOL    HW1 9368   1.353   0.935   4.410
 2823SOL    HW2 9369   1.377   0.936   4.571
 2824SOL     OW 9370   3.360   2.909   5.993
 2824SOL    HW1 9371   3.411   2.824   6.003
 2824SOL    HW2 9372   3.269   2.889   5.956
 2825SOL     OW 9373   5.462   6.326   1.018
 2825SOL    HW1 9374   5.531   6.345   1.088
 2825SOL    HW2 9375   5.407   6.409   1.003
 2826SOL     OW 9376   5.846   4.091   5.040
 2826SOL    HW1 9377   5.879   4.015   4.983
 2826SOL    HW2 9378   5.750   4.075   5.064
 2827SOL     OW 9379   0.589   6.734   6.034
 2827SOL    HW1 9380   0.528   6.713   6.111
 2827SOL    HW2 9381   0.674   6.772   6.068
 2828SOL     OW 9382   3.598   2.573   5.986
 2828SOL    HW1 9383   3.601   2.505   5.911
 2828SOL    HW2 9384   3.653   2.652   5.960
 2829SOL     OW 9385   2.785   1.276   0.199
 2829SOL    HW1 9386   2.747   1.355   0.151
 2829SOL    HW2 9387   2.827   1.213   0.133
 2830SOL     OW 9388   3.334   4.114   0.286
 2830SOL    HW1 9389   3.241   4.151   0.278
 2830SOL    HW2 9390   3.376   4.110   0.196
 2831SOL     OW 9391   6.249   6.426   4.349
 2831SOL    HW1 9392   6.265   6.512   4.301
 2831SOL    HW2 9393   6.155   6.422   4.381
 2832SOL     OW 9394   0.593   0.724   2.215
 2832SOL    HW1 9395   0.672   0.692   2.162
 2832SOL    HW2 9396   0.609   0.819   2.243
 2833SOL     OW 9397   5.479   2.646   2.492
 2833SOL    HW1 9398   5.516   2.658   2.584
 2833SOL    HW2 9399   5.445   2.734   2.459
 2834SOL     OW 9400   4.642   1.006   4.797
 2834SOL    HW1 9401   4.742   1.011   4.800
 2834SOL    HW2 9402   4.608   1.065   4.724
 2835SOL     OW 9403   6.319   6.465   2.990
 2835SOL    HW1 9404   6.250   6.511   3.045
 2835SOL    HW2 9405   6.360   6.391   3.043
 2836SOL     OW 9406   6.493   6.571   1.406
 2836SOL    HW1 9407   6.463   6.612   1.320
 2836SOL    HW2 9408   6.586   6.603   1.426
 2837SOL     OW 9409   5.894   2.179   4.491
 2837SOL    HW1 9410   5.896   2.132   4.579
 2837SOL    HW2 9411   5.948   2.128   4.424
 2838SOL     OW 9412   1.753   4.814   3.992
 2838SOL    HW1 9413   1.728   4.719   4.014
 2838SOL    HW2 9414   1.804   4.853   4.069
 2839SOL     OW 9415   5.134   2.927   1.611
 2839SOL    HW1 9416   5.158   2.840   1.566
 2839SOL    HW2 9417   5.049   2.915   1.662
 2840SOL     OW 9418   0.593   2.791   5.232
 2840SOL    HW1 9419   0.556   2.736   5.306
 2840SOL    HW2 9420   0.693   2.785   5.232
 2841SOL     OW 9421   7.024   5.865   0.191
 2841SOL    HW1 9422   0.056   5.804   0.138
 2841SOL    HW2 9423   0.013   5.849   0.289
 2842SOL     OW 9424   5.181   3.165   2.753
 2842SOL    HW1 9425   5.081   3.172   2.750
 2842SOL    HW2 9426   5.209   3.079   2.710
 2843SOL     OW 9427   3.825   0.485   3.721
 2843SOL    HW1 9428   3.812   0.426   3.800
 2843SOL    HW2 9429   3.780   0.445   3.641
 2844SOL     OW 9430   1.439   3.846   4.733
 2844SOL    HW1 9431   1.441   3.876   4.828
 2844SOL    HW2 9432   1.370   3.774   4.722
 2845SOL     OW 9433   0.783   4.021   6.446
 2845SOL    HW1 9434   0.745   4.101   6.493
 2845SOL    HW2 9435   0.791   4.042   6.348
 2846SOL     OW 9436   5.647   0.957   5.820
 2846SOL    HW1 9437   5.683   0.895   5.889
 2846SOL    HW2 9438   5.698   1.043   5.824
 2847SOL     OW 9439   4.018   4.914   4.483
 2847SOL    HW1 9440   3.961   4.964   4.418
 2847SOL    HW2 9441   3.972   4.910   4.572
 2848SOL     OW 9442   1.916   6.846   6.173
 2848SOL    HW1 9443   1.825   6.850   6.215
 2848SOL    HW2 9444   1.935   6.752   6.144
 2849SOL     OW 9445   2.255   2.550   1.350
 2849SOL    HW1 9446   2.166   2.506   1.349
 2849SOL    HW2 9447   2.327   2.480   1.354
 2850SOL     OW 9448   4.666   1.177   0.347
 2850SOL    HW1 9449   4.696   1.252   0.289
 2850SOL    HW2 9450   4.684   1.199   0.443
 2851SOL     OW 9451   3.211   6.184   5.112
 2851SOL    HW1 9452   3.205   6.144   5.021
 2851SOL    HW2 9453   3.192   6.113   5.180
 2852SOL     OW 9454   0.461   2.277   6.394
 2852SOL    HW1 9455   0.428   2.343   6.327
 2852SOL    HW2 9456   0.456   2.185   6.355
 2853SOL     OW 9457   4.020   2.932   1.171
 2853SOL    HW1 9458   4.068   2.855   1.214
 2853SOL    HW2 9459   3.951   2.897   1.108
 2854SOL     OW 9460   0.434   1.459   4.079
 2854SOL    HW1 9461   0.362   1.440   4.146
 2854SOL    HW2 9462   0.514   1.401   4.098
 2855SOL     OW 9463   2.998   1.865   3.582
 2855SOL    HW1 9464   3.033   1.814   3.661
 2855SOL    HW2 9465   2.913   1.910   3.608
 2856SOL     OW 9466   3.285   1.607   5.203
 2856SOL    HW1 9467   3.349   1.604   5.280
 2856SOL    HW2 9468   3.292   1.523   5.150
 2857SOL     OW 9469   3.174   3.589   5.547
 2857SOL    HW1 9470   3.264   3.549   5.531
 2857SOL    HW2 9471   3.165   3.615   5.643
 2858SOL     OW 9472   5.378   2.774   3.059
 2858SOL    HW1 9473   5.455   2.800   3.119
 2858SOL    HW2 9474   5.292   2.785   3.109
 2859SOL     OW 9475   6.247   5.046   0.184
 2859SOL    HW1 9476   6.338   5.063   0.221
 2859SOL    HW2 9477   6.255   5.018   0.088
 2860SOL     OW 9478   4.418   2.154   0.794
 2860SOL    HW1 9479   4.326   2.171   0.829
 2860SOL    HW2 9480   4.452   2.237   0.750
 2861SOL     OW 9481   4.437   4.120   5.795
 2861SOL    HW1 9482   4.366   4.061   5.833
 2861SOL    HW2 9483   4.481   4.171   5.869
 2862SOL     OW 9484   6.672   6.374   3.100
 2862SOL    HW1 9485   6.680   6.311   3.178
 2862SOL    HW2 9486   6.583   6.360   3.056
 2863SOL     OW 9487   6.238   6.351   6.836
 2863SOL    HW1 9488   6.234   6.284   6.910
 2863SOL    HW2 9489   6.259   6.304   6.750
 2864SOL     OW 9490   4.675   2.112   0.089
 2864SOL    HW1 9491   4.626   2.075   0.168
 2864SOL    HW2 9492   4.641   2.203   0.068
 2865SOL     OW 9493   4.858   4.973   5.132
 2865SOL    HW1 9494   4.905   4.918   5.063
 2865SOL    HW2 9495   4.790   5.031   5.089
 2866SOL     OW 9496   0.912   0.103   6.385
 2866SOL    HW1 9497   0.890   0.060   6.473
 2866SOL    HW2 9498   0.990   0.057   6.343
 2867SOL     OW 9499   6.308   3.930   4.717
 2867SOL    HW1 9500   6.267   4.001   4.660
 2867SOL    HW2 9501   6.353   3.862   4.659
 2868SOL     OW 9502   2.243   4.947   4.643
 2868SOL    HW1 9503   2.197   5.008   4.707
 2868SOL    HW2 9504   2.273   4.865   4.691
 2869SOL     OW 9505   5.806   1.839   2.713
 2869SOL    HW1 9506   5.787   1.921   2.659
 2869SOL    HW2 9507   5.792   1.758   2.656
 2870SOL     OW 9508   4.169   1.893   1.613
 2870SOL    HW1 9509   4.146   1.850   1.701
 2870SOL    HW2 9510   4.238   1.837   1.566
 2871SOL     OW 9511   1.092   1.362   5.727
 2871SOL    HW1 9512   0.996   1.357   5.754
 2871SOL    HW2 9513   1.116   1.456   5.704
 2872SOL     OW 9514   1.462   0.522   4.139
 2872SOL    HW1 9515   1.469   0.427   4.169
 2872SOL    HW2 9516   1.366   0.550   4.141
 2873SOL     OW 9517   6.195   4.923   2.512
 2873SOL    HW1 9518   6.238   4.937   2.423
 2873SOL    HW2 9519   6.136   5.001   2.533
 2874SOL     OW 9520   5.123   2.096   1.743
 2874SOL    HW1 9521   5.033   2.054   1.731
 2874SOL    HW2 9522   5.175   2.043   1.811
 2875SOL     OW 9523   2.624   5.374   0.448
 2875SOL    HW1 9524   2.646   5.276   0.443
 2875SOL    HW2 9525   2.540   5.392   0.397
 2876SOL     OW 9526   5.629   1.975   1.777
 2876SOL    HW1 9527   5.628   1.942   1.682
 2876SOL    HW2 9528   5.539   2.011   1.801
 2877SOL     OW 9529   1.314   3.532   5.360
 2877SOL    HW1 9530   1.400   3.511   5.312
 2877SOL    HW2 9531   1.334   3.553   5.456
 2878SOL     OW 9532   5.081   4.757   0.802
 2878SOL    HW1 9533   5.162   4.810   0.827
 2878SOL    HW2 9534   5.097   4.712   0.714
 2879SOL     OW 9535   5.169   4.689   0.040
 2879SOL    HW1 9536   5.090   4.627   0.043
 2879SOL    HW2 9537   5.212   4.693   0.130
 2880SOL     OW 9538   1.471   7.015   3.805
 2880SOL    HW1 9539   1.513   6.970   3.726
 2880SOL    HW2 9540   1.372   7.001   3.802
 2881SOL     OW 9541   6.860   0.366   6.921
 2881SOL    HW1 9542   6.926   0.430   6.881
 2881SOL    HW2 9543   6.810   0.412   6.995
 2882SOL     OW 9544   6.371   4.473   3.217
 2882SOL    HW1 9545   6.304   4.515   3.279
 2882SOL    HW2 9546   6.382   4.376   3.242
 2883SOL     OW 9547   3.169   6.518   2.342
 2883SOL    HW1 9548   3.237   6.583   2.308
 2883SOL    HW2 9549   3.088   6.567   2.374
 2884SOL     OW 9550   2.313   4.677   3.089
 2884SOL    HW1 9551   2.276   4.631   3.169
 2884SOL    HW2 9552   2.344   4.769   3.114
 2885SOL     OW 9553   1.154   2.312   4.599
 2885SOL    HW1 9554   1.236   2.280   4.646
 2885SOL    HW2 9555   1.092   2.235   4.584
 2886SOL     OW 9556   2.639   2.603   6.275
 2886SOL    HW1 9557   2.655   2.654   6.360
 2886SOL    HW2 9558   2.725   2.588   6.228
 2887SOL     OW 9559   2.175   0.463   5.449
 2887SOL    HW1 9560   2.226   0.400   5.390
 2887SOL    HW2 9561   2.085   0.425   5.468
 2888SOL     OW 9562   0.230   5.271   6.815
 2888SOL    HW1 9563   0.319   5.277   6.770
 2888SOL    HW2 9564   0.181   5.357   6.802
 2889SOL     OW 9565   1.547   1.120   0.609
 2889SOL    HW1 9566   1.602   1.094   0.689
 2889SOL    HW2 9567   1.454   1.085   0.620
 2890SOL     OW 9568   2.540   0.675   0.334
 2890SOL    HW1 9569   2.452   0.628   0.328
 2890SOL    HW2 9570   2.531   0.769   0.302
 2891SOL     OW 9571   3.081   4.711   5.212
 2891SOL    HW1 9572   3.001   4.655   5.232
 2891SOL    HW2 9573   3.051   4.802   5.181
 2892SOL     OW 9574   4.033   4.091   5.253
 2892SOL    HW1 9575   4.112   4.153   5.253
 2892SOL    HW2 9576   4.063   3.998   5.231
 2893SOL     OW 9577   2.631   0.391   5.097
 2893SOL    HW1 9578   2.722   0.415   5.062
 2893SOL    HW2 9579   2.594   0.315   5.044
 2894SOL     OW 9580   3.986   3.100   2.122
 2894SOL    HW1 9581   4.058   3.102   2.052
 2894SOL    HW2 9582   3.951   3.007   2.132
 2895SOL     OW 9583   3.826   2.770   0.146
 2895SOL    HW1 9584   3.850   2.844   0.083
 2895SOL    HW2 9585   3.868   2.685   0.116
 2896SOL     OW 9586   1.109   4.735   6.983
 2896SOL    HW1 9587   1.206   4.728   7.008
 2896SOL    HW2 9588   1.092   4.676   6.904
 2897SOL     OW 9589   0.132   0.403   3.116
 2897SOL    HW1 9590   0.126   0.501   3.137
 2897SOL    HW2 9591   0.115   0.350   3.199
 2898SOL     OW 9592   2.054   5.120   2.505
 2898SOL    HW1 9593   2.131   5.165   2.550
 2898SOL    HW2 9594   1.982   5.100   2.573
 2899SOL     OW 9595   5.431   1.124   0.837
 2899SOL    HW1 9596   5.447   1.057   0.765
 2899SOL    HW2 9597   5.463   1.214   0.807
 2900SOL     OW 9598   2.486   5.818   6.851
 2900SOL    HW1 9599   2.535   5.745   6.899
 2900SOL    HW2 9600   2.454   5.784   6.762
 2901SOL     OW 9601   2.892   0.012   1.309
 2901SOL    HW1 9602   2.926   0.026   1.216
 2901SOL    HW2 9603   2.887   6.940   1.329
 2902SOL     OW 9604   4.411   5.177   1.381
 2902SOL    HW1 9605   4.488   5.226   1.341
 2902SOL    HW2 9606   4.408   5.084   1.346
 2903SOL     OW 9607   3.023   2.404   1.627
 2903SOL    HW1 9608   2.987   2.437   1.715
 2903SOL    HW2 9609   3.000   2.307   1.617
 2904SOL     OW 9610   2.946   2.187   4.373
 2904SOL    HW1 9611   2.959   2.213   4.278
 2904SOL    HW2 9612   2.850   2.198   4.398
 2905SOL     OW 9613   1.050   2.254   2.108
 2905SOL    HW1 9614   1.049   2.156   2.088
 2905SOL    HW2 9615   1.136   2.278   2.153
 2906SOL     OW 9616   5.165   5.309   2.750
 2906SOL    HW1 9617   5.162   5.247   2.672
 2906SOL    HW2 9618   5.257   5.347   2.759
 2907SOL     OW 9619   5.895   0.201   4.435
 2907SOL    HW1 9620   5.989   0.234   4.438
 2907SOL    HW2 9621   5.834   0.271   4.472
 2908SOL     OW 9622   4.209   5.889   4.515
 2908SOL    HW1 9623   4.172   5.809   4.468
 2908SOL    HW2 9624   4.212   5.873   4.613
 2909SOL     OW 9625   2.248   5.898   6.070
 2909SOL    HW1 9626   2.240   5.954   6.152
 2909SOL    HW2 9627   2.331   5.844   6.074
 2910SOL     OW 9628   3.804   5.240   5.386
 2910SOL    HW1 9629   3.769   5.186   5.463
 2910SOL    HW2 9630   3.777   5.336   5.398
 2911SOL     OW 9631   2.725   4.679   2.961
 2911SOL    HW1 9632   2.662   4.625   3.017
 2911SOL    HW2 9633   2.690   4.685   2.868
 2912SOL     OW 9634   2.997   5.344   1.015
 2912SOL    HW1 9635   2.918   5.340   1.076
 2912SOL    HW2 9636   3.030   5.251   0.997
 2913SOL     OW 9637   0.105   2.714   1.432
 2913SOL    HW1 9638   0.099   2.791   1.496
 2913SOL    HW2 9639   0.158   2.640   1.474
 2914SOL     OW 9640   4.966   4.557   6.629
 2914SOL    HW1 9641   4.959   4.573   6.727
 2914SOL    HW2 9642   4.875   4.535   6.593
 2915SOL     OW 9643   4.453   0.898   3.031
 2915SOL    HW1 9644   4.382   0.967   3.039
 2915SOL    HW2 9645   4.541   0.936   3.061
 2916SOL     OW 9646   5.009   0.329   4.344
 2916SOL    HW1 9647   5.073   0.374   4.407
 2916SOL    HW2 9648   5.019   0.370   4.253
 2917SOL     OW 9649   3.888   0.532   2.627
 2917SOL    HW1 9650   3.829   0.571   2.698
 2917SOL    HW2 9651   3.851   0.554   2.537
 2918SOL     OW 9652   1.456   3.186   4.397
 2918SOL    HW1 9653   1.448   3.092   4.361
 2918SOL    HW2 9654   1.492   3.183   4.490
 2919SOL     OW 9655   5.808   5.287   0.374
 2919SOL    HW1 9656   5.718   5.244   0.380
 2919SOL    HW2 9657   5.861   5.243   0.301
 2920SOL     OW 9658   4.404   1.282   2.833
 2920SOL    HW1 9659   4.456   1.225   2.770
 2920SOL    HW2 9660   4.466   1.337   2.889
 2921SOL     OW 9661   6.458   1.140   0.018
 2921SOL    HW1 9662   6.556   1.129   0.003
 2921SOL    HW2 9663   6.437   1.237   0.029
 2922SOL     OW 9664   4.676   0.461   4.084
 2922SOL    HW1 9665   4.769   0.472   4.120
 2922SOL    HW2 9666   4.615   0.433   4.157
 2923SOL     OW 9667   0.091   4.176   0.482
 2923SOL    HW1 9668   0.088   4.136   0.390
 2923SOL    HW2 9669   0.105   4.275   0.475
 2924SOL     OW 9670   6.584   6.635   6.711
 2924SOL    HW1 9671   6.585   6.557   6.773
 2924SOL    HW2 9672   6.499   6.686   6.723
 2925SOL     OW 9673   6.594   4.656   0.784
 2925SOL    HW1 9674   6.503   4.634   0.749
 2925SOL    HW2 9675   6.654   4.576   0.773
 2926SOL     OW 9676   0.032   1.507   2.841
 2926SOL    HW1 9677   6.968   1.463   2.841
 2926SOL    HW2 9678   0.101   1.442   2.809
 2927SOL     OW 9679   6.998   2.917   2.674
 2927SOL    HW1 9680   6.898   2.921   2.663
 2927SOL    HW2 9681   0.006   3.008   2.696
 2928SOL     OW 9682   5.578   5.944   0.752
 2928SOL    HW1 9683   5.623   5.860   0.782
 2928SOL    HW2 9684   5.480   5.928   0.745
 2929SOL     OW 9685   0.089   0.616   5.701
 2929SOL    HW1 9686   0.095   0.519   5.725
 2929SOL    HW2 9687   0.006   0.655   5.741
 2930SOL     OW 9688   2.367   6.954   4.270
 2930SOL    HW1 9689   2.267   6.949   4.264
 2930SOL    HW2 9690   2.394   0.017   4.305
 2931SOL     OW 9691   4.718   4.491   6.564
 2931SOL    HW1 9692   4.732   4.392   6.551
 2931SOL    HW2 9693   4.622   4.508   6.585
 2932SOL     OW 9694   0.451   5.006   1.831
 2932SOL    HW1 9695   0.456   5.086   1.891
 2932SOL    HW2 9696   0.446   5.036   1.736
 2933SOL     OW 9697   4.301   2.012   3.058
 2933SOL    HW1 9698   4.348   1.983   2.975
 2933SOL    HW2 9699   4.259   2.102   3.043
 2934SOL     OW 9700   1.891   1.119   1.740
 2934SOL    HW1 9701   1.871   1.185   1.668
 2934SOL    HW2 9702   1.813   1.056   1.750
 2935SOL     OW 9703   0.123   0.934   0.932
 2935SOL    HW1 9704   0.207   0.963   0.886
 2935SOL    HW2 9705   0.053   0.912   0.863
 2936SOL     OW 9706   4.314   4.794   1.509
 2936SOL    HW1 9707   4.321   4.872   1.571
 2936SOL    HW2 9708   4.291   4.712   1.562
 2937SOL     OW 9709   2.590   4.489   0.604
 2937SOL    HW1 9710   2.646   4.406   0.597
 2937SOL    HW2 9711   2.583   4.517   0.700
 2938SOL     OW 9712   4.627   5.657   0.127
 2938SOL    HW1 9713   4.597   5.563   0.112
 2938SOL    HW2 9714   4.555   5.720   0.099
 2939SOL     OW 9715   6.803   6.371   6.426
 2939SOL    HW1 9716   6.786   6.316   6.507
 2939SOL    HW2 9717   6.783   6.318   6.344
 2940SOL     OW 9718   3.861   6.867   5.379
 2940SOL    HW1 9719   3.934   6.863   5.311
 2940SOL    HW2 9720   3.790   6.800   5.355
 2941SOL     OW 9721   3.805   1.236   5.429
 2941SOL    HW1 9722   3.788   1.328   5.465
 2941SOL    HW2 9723   3.735   1.173   5.463
 2942SOL     OW 9724   2.929   6.584   3.681
 2942SOL    HW1 9725   2.986   6.646   3.734
 2942SOL    HW2 9726   2.958   6.586   3.585
 2943SOL     OW 9727   5.430   4.371   2.909
 2943SOL    HW1 9728   5.498   4.305   2.877
 2943SOL    HW2 9729   5.368   4.326   2.974
 2944SOL     OW 9730   5.367   5.318   0.615
 2944SOL    HW1 9731   5.332   5.228   0.590
 2944SOL    HW2 9732   5.315   5.354   0.693
 2945SOL     OW 9733   3.585   3.723   4.323
 2945SOL    HW1 9734   3.590   3.774   4.237
 2945SOL    HW2 9735   3.490   3.698   4.341
 2946SOL     OW 9736   1.479   6.036   5.179
 2946SOL    HW1 9737   1.574   6.009   5.193
 2946SOL    HW2 9738   1.472   6.136   5.179
 2947SOL     OW 9739   0.103   5.177   0.006
 2947SOL    HW1 9740   0.135   5.093   0.048
 2947SOL    HW2 9741   0.158   5.197   6.951
 2948SOL     OW 9742   6.650   3.195   5.215
 2948SOL    HW1 9743   6.676   3.248   5.134
 2948SOL    HW2 9744   6.687   3.102   5.206
 2949SOL     OW 9745   0.726   6.843   1.065
 2949SOL    HW1 9746   0.763   6.788   0.990
 2949SOL    HW2 9747   0.632   6.816   1.083
 2950SOL     OW 9748   5.425   4.147   5.038
 2950SOL    HW1 9749   5.423   4.069   4.975
 2950SOL    HW2 9750   5.492   4.129   5.110
 2951SOL     OW 9751   6.308   0.780   6.975
 2951SOL    HW1 9752   6.295   0.843   6.898
 2951SOL    HW2 9753   6.286   0.828   0.034
 2952SOL     OW 9754   0.411   3.574   1.956
 2952SOL    HW1 9755   0.467   3.616   1.884
 2952SOL    HW2 9756   0.408   3.475   1.942
 2953SOL     OW 9757   5.719   1.712   1.899
 2953SOL    HW1 9758   5.642   1.660   1.862
 2953SOL    HW2 9759   5.691   1.807   1.916
 2954SOL     OW 9760   4.762   6.355   1.891
 2954SOL    HW1 9761   4.744   6.440   1.842
 2954SOL    HW2 9762   4.859   6.333   1.886
 2955SOL     OW 9763   5.638   1.854   1.514
 2955SOL    HW1 9764   5.635   1.755   1.504
 2955SOL    HW2 9765   5.575   1.896   1.449
 2956SOL     OW 9766   5.185   6.087   3.056
 2956SOL    HW1 9767   5.223   6.056   3.143
 2956SOL    HW2 9768   5.116   6.022   3.024
 2957SOL     OW 9769   0.815   5.093   1.347
 2957SOL    HW1 9770   0.857   5.153   1.415
 2957SOL    HW2 9771   0.860   5.104   1.259
 2958SOL     OW 9772   2.144   4.911   6.363
 2958SOL    HW1 9773   2.097   4.995   6.390
 2958SOL    HW2 9774   2.089   4.861   6.297
 2959SOL     OW 9775   3.187   5.696   6.583
 2959SOL    HW1 9776   3.242   5.629   6.533
 2959SOL    HW2 9777   3.191   5.677   6.681
 2960SOL     OW 9778   3.025   1.400   6.912
 2960SOL    HW1 9779   3.008   1.335   6.838
 2960SOL    HW2 9780   3.124   1.409   6.926
 2961SOL     OW 9781   5.319   1.084   3.867
 2961SOL    HW1 9782   5.345   1.045   3.956
 2961SOL    HW2 9783   5.389   1.149   3.838
 2962SOL     OW 9784   4.171   0.233   2.366
 2962SOL    HW1 9785   4.176   0.213   2.268
 2962SOL    HW2 9786   4.185   0.149   2.418
 2963SOL     OW 9787   2.169   2.994   4.927
 2963SOL    HW1 9788   2.257   3.003   4.974
 2963SOL    HW2 9789   2.160   2.901   4.892
 2964SOL     OW 9790   2.198   6.088   7.005
 2964SOL    HW1 9791   2.222   6.181   0.009
 2964SOL    HW2 9792   2.274   6.026   7.022
 2965SOL     OW 9793   1.274   3.016   5.593
 2965SOL    HW1 9794   1.213   2.969   5.529
 2965SOL    HW2 9795   1.244   2.999   5.687
 2966SOL     OW 9796   4.605   5.195   2.505
 2966SOL    HW1 9797   4.693   5.161   2.539
 2966SOL    HW2 9798   4.563   5.255   2.574
 2967SOL     OW 9799   5.411   2.829   4.672
 2967SOL    HW1 9800   5.410   2.815   4.573
 2967SOL    HW2 9801   5.504   2.848   4.702
 2968SOL     OW 9802   6.591   4.563   4.455
 2968SOL    HW1 9803   6.502   4.523   4.431
 2968SOL    HW2 9804   6.662   4.525   4.396
 2969SOL     OW 9805   3.578   1.484   5.222
 2969SOL    HW1 9806   3.652   1.538   5.182
 2969SOL    HW2 9807   3.560   1.516   5.315
 2970SOL     OW 9808   1.248   4.255   6.129
 2970SOL    HW1 9809   1.313   4.242   6.054
 2970SOL    HW2 9810   1.213   4.166   6.158
 2971SOL     OW 9811   5.743   3.106   1.858
 2971SOL    HW1 9812   5.731   3.175   1.787
 2971SOL    HW2 9813   5.669   3.112   1.925
 2972SOL     OW 9814   0.709   4.762   4.028
 2972SOL    HW1 9815   0.753   4.832   4.085
 2972SOL    HW2 9816   0.632   4.723   4.076
 2973SOL     OW 9817   5.819   0.152   4.033
 2973SOL    HW1 9818   5.855   0.235   4.076
 2973SOL    HW2 9819   5.735   0.124   4.080
 2974SOL     OW 9820   6.317   4.054   1.107
 2974SOL    HW1 9821   6.396   4.099   1.149
 2974SOL    HW2 9822   6.251   4.124   1.076
 2975SOL     OW 9823   6.114   1.878   3.884
 2975SOL    HW1 9824   6.148   1.876   3.790
 2975SOL    HW2 9825   6.071   1.966   3.902
 2976SOL     OW 9826   2.416   5.661   1.341
 2976SOL    HW1 9827   2.486   5.689   1.406
 2976SOL    HW2 9828   2.424   5.563   1.323
 2977SOL     OW 9829   2.159   0.085   3.414
 2977SOL    HW1 9830   2.200   0.020   3.349
 2977SOL    HW2 9831   2.123   0.034   3.492
 2978SOL     OW 9832   2.108   0.103   6.438
 2978SOL    HW1 9833   2.012   0.098   6.412
 2978SOL    HW2 9834   2.116   0.144   6.529
 2979SOL     OW 9835   2.101   1.225   3.091
 2979SOL    HW1 9836   2.103   1.319   3.059
 2979SOL    HW2 9837   2.069   1.222   3.186
 2980SOL     OW 9838   5.946   0.291   3.479
 2980SOL    HW1 9839   5.877   0.238   3.429
 2980SOL    HW2 9840   6.032   0.289   3.428
 2981SOL     OW 9841   0.958   0.836   5.819
 2981SOL    HW1 9842   0.928   0.897   5.893
 2981SOL    HW2 9843   0.973   0.889   5.736
 2982SOL     OW 9844   5.161   5.901   2.060
 2982SOL    HW1 9845   5.228   5.886   1.988
 2982SOL    HW2 9846   5.207   5.932   2.143
 2983SOL     OW 9847   0.575   1.517   3.134
 2983SOL    HW1 9848   0.674   1.524   3.145
 2983SOL    HW2 9849   0.553   1.441   3.074
 2984SOL     OW 9850   6.394   4.289   1.787
 2984SOL    HW1 9851   6.372   4.377   1.830
 2984SOL    HW2 9852   6.383   4.216   1.854
 2985SOL     OW 9853   6.506   1.992   3.204
 2985SOL    HW1 9854   6.482   1.988   3.301
 2985SOL    HW2 9855   6.438   2.045   3.154
 2986SOL     OW 9856   1.838   3.385   4.440
 2986SOL    HW1 9857   1.920   3.441   4.453
 2986SOL    HW2 9858   1.820   3.375   4.343
 2987SOL     OW 9859   5.039   1.553   4.805
 2987SOL    HW1 9860   5.123   1.524   4.851
 2987SOL    HW2 9861   5.017   1.488   4.732
 2988SOL     OW 9862   0.309   1.334   2.601
 2988SOL    HW1 9863   0.216   1.334   2.638
 2988SOL    HW2 9864   0.359   1.255   2.635
 2989SOL     OW 9865   0.217   5.253   0.814
 2989SOL    HW1 9866   0.197   5.176   0.875
 2989SOL    HW2 9867   0.175   5.336   0.850
 2990SOL     OW 9868   2.779   1.330   0.826
 2990SOL    HW1 9869   2.811   1.386   0.903
 2990SOL    HW2 9870   2.825   1.242   0.827
 2991SOL     OW 9871   6.152   4.426   0.188
 2991SOL    HW1 9872   6.230   4.475   0.148
 2991SOL    HW2 9873   6.156   4.330   0.159
 2992SOL     OW 9874   3.560   4.849   6.713
 2992SOL    HW1 9875   3.604   4.908   6.781
 2992SOL    HW2 9876   3.549   4.900   6.627
 2993SOL     OW 9877   1.096   3.798   7.017
 2993SOL    HW1 9878   0.997   3.797   7.009
 2993SOL    HW2 9879   1.122   3.824   0.084
 2994SOL     OW 9880   4.198   6.885   6.281
 2994SOL    HW1 9881   4.279   6.945   6.281
 2994SOL    HW2 9882   4.116   6.941   6.292
 2995SOL     OW 9883   2.634   0.645   5.286
 2995SOL    HW1 9884   2.608   0.738   5.312
 2995SOL    HW2 9885   2.597   0.623   5.196
 2996SOL     OW 9886   4.502   6.391   6.292
 2996SOL    HW1 9887   4.515   6.474   6.238
 2996SOL    HW2 9888   4.486   6.416   6.388
 2997SOL     OW 9889   3.640   5.775   0.631
 2997SOL    HW1 9890   3.560   5.814   0.586
 2997SOL    HW2 9891   3.720   5.832   0.613
 2998SOL     OW 9892   6.472   3.822   6.118
 2998SOL    HW1 9893   6.385   3.774   6.117
 2998SOL    HW2 9894   6.502   3.839   6.024
 2999SOL     OW 9895   3.068   1.394   1.369
 2999SOL    HW1 9896   3.016   1.480   1.362
 2999SOL    HW2 9897   3.166   1.414   1.364
 3000SOL     OW 9898   1.505   1.993   5.387
 3000SOL    HW1 9899   1.569   2.005   5.310
 3000SOL    HW2 9900   1.423   1.946   5.355
 3001SOL     OW 9901   4.786   5.878   6.033
 3001SOL    HW1 9902   4.854   5.866   5.961
 3001SOL    HW2 9903   4.788   5.797   6.093
 3002SOL     OW 9904   3.825   0.305   5.399
 3002SOL    HW1 9905   3.748   0.309   5.463
 3002SOL    HW2 9906   3.790   0.296   5.306
 3003SOL     OW 9907   1.375   0.464   5.868
 3003SOL    HW1 9908   1.413   0.444   5.777
 3003SOL    HW2 9909   1.449   0.483   5.932
 3004SOL     OW 9910   0.308   3.384   6.113
 3004SOL    HW1 9911   0.337   3.426   6.199
 3004SOL    HW2 9912   0.259   3.451   6.058
 3005SOL     OW 9913   4.755   2.213   1.065
 3005SOL    HW1 9914   4.698   2.132   1.053
 3005SOL    HW2 9915   4.722   2.266   1.142
 3006SOL     OW 9916   4.062   6.269   2.337
 3006SOL    HW1 9917   4.159   6.250   2.354
 3006SOL    HW2 9918   4.026   6.202   2.272
 3007SOL     OW 9919   5.483   5.400   1.716
 3007SOL    HW1 9920   5.407   5.353   1.761
 3007SOL    HW2 9921   5.568   5.350   1.733
 3008SOL     OW 9922   4.558   5.209   5.823
 3008SOL    HW1 9923   4.629   5.231   5.756
 3008SOL    HW2 9924   4.567   5.113   5.851
 3009SOL     OW 9925   1.915   0.436   1.793
 3009SOL    HW1 9926   1.838   0.379   1.765
 3009SOL    HW2 9927   1.918   0.517   1.734
 3010SOL     OW 9928   3.387   0.892   3.914
 3010SOL    HW1 9929   3.338   0.882   3.828
 3010SOL    HW2 9930   3.476   0.845   3.908
 3011SOL     OW 9931   5.290   0.223   0.235
 3011SOL    HW1 9932   5.196   0.194   0.214
 3011SOL    HW2 9933   5.337   0.149   0.283
 3012SOL     OW 9934   0.136   4.979   1.578
 3012SOL    HW1 9935   0.188   5.058   1.546
 3012SOL    HW2 9936   0.113   4.990   1.675
 3013SOL     OW 9937   5.674   4.739   1.586
 3013SOL    HW1 9938   5.703   4.826   1.624
 3013SOL    HW2 9939   5.622   4.688   1.655
 3014SOL     OW 9940   5.603   5.653   5.184
 3014SOL    HW1 9941   5.531   5.706   5.138
 3014SOL    HW2 9942   5.678   5.715   5.210
 3015SOL     OW 9943   3.341   1.297   0.431
 3015SOL    HW1 9944   3.423   1.253   0.468
 3015SOL    HW2 9945   3.355   1.316   0.334
 3016SOL     OW 9946   4.170   6.251   4.263
 3016SOL    HW1 9947   4.121   6.309   4.327
 3016SOL    HW2 9948   4.116   6.169   4.244
 3017SOL     OW 9949   0.874   6.592   2.415
 3017SOL    HW1 9950   0.819   6.510   2.428
 3017SOL    HW2 9951   0.945   6.574   2.347
 3018SOL     OW 9952   4.468   6.885   5.930
 3018SOL    HW1 9953   4.419   6.799   5.942
 3018SOL    HW2 9954   4.421   6.942   5.863
 3019SOL     OW 9955   4.903   0.675   1.688
 3019SOL    HW1 9956   4.909   0.744   1.761
 3019SOL    HW2 9957   4.819   0.689   1.636
 3020SOL     OW 9958   2.168   0.346   1.607
 3020SOL    HW1 9959   2.239   0.416   1.613
 3020SOL    HW2 9960   2.115   0.359   1.524
 3021SOL     OW 9961   4.273   0.260   6.153
 3021SOL    HW1 9962   4.311   0.247   6.061
 3021SOL    HW2 9963   4.177   0.233   6.153
 3022SOL     OW 9964   6.958   0.553   3.321
 3022SOL    HW1 9965   6.976   0.460   3.353
 3022SOL    HW2 9966   0.016   0.592   3.284
 3023SOL     OW 9967   5.668   0.141   1.721
 3023SOL    HW1 9968   5.753   0.159   1.672
 3023SOL    HW2 9969   5.597   0.204   1.688
 3024SOL     OW 9970   1.818   6.773   6.661
 3024SOL    HW1 9971   1.777   6.828   6.589
 3024SOL    HW2 9972   1.795   6.677   6.647
 3025SOL     OW 9973   2.057   2.549   2.160
 3025SOL    HW1 9974   2.103   2.599   2.087
 3025SOL    HW2 9975   2.020   2.464   2.125
 3026SOL     OW 9976   3.119   5.893   0.374
 3026SOL    HW1 9977   3.019   5.890   0.373
 3026SOL    HW2 9978   3.155   5.800   0.362
 3027SOL     OW 9979   1.154   2.163   4.164
 3027SOL    HW1 9980   1.065   2.134   4.199
 3027SOL    HW2 9981   1.141   2.236   4.096
 3028SOL     OW 9982   1.561   0.712   4.389
 3028SOL    HW1 9983   1.484   0.759   4.430
 3028SOL    HW2 9984   1.532   0.667   4.304
 3029SOL     OW 9985   6.364   5.061   5.817
 3029SOL    HW1 9986   6.408   5.150   5.827
 3029SOL    HW2 9987   6.400   5.015   5.736
 3030SOL     OW 9988   0.551   1.056   5.797
 3030SOL    HW1 9989   0.599   1.008   5.871
 3030SOL    HW2 9990   0.617   1.086   5.728
 3031SOL     OW 9991   7.025   5.465   5.993
 3031SOL    HW1 9992   6.971   5.549   5.983
 3031SOL    HW2 9993   0.027   5.432   5.903
 3032SOL     OW 9994   4.097   0.118   5.951
 3032SOL    HW1 9995   4.116   0.187   5.882
 3032SOL    HW2 9996   4.078   0.030   5.907
 3033SOL     OW 9997   4.926   4.222   5.929
 3033SOL    HW1 9998   4.973   4.135   5.940
 3033SOL    HW2 9999   4.991   4.297   5.941
 3034SOL     OW10000   2.754   6.800   5.216
 3034SOL    HW110001   2.798   6.715   5.243
 3034SOL    HW210002   2.683   6.823   5.283
 3035SOL     OW10003   5.828   6.449   7.003
 3035SOL    HW110004   5.873   6.380   0.034
 3035SOL    HW210005   5.803   6.527   0.033
 3036SOL     OW10006   0.273   4.990   5.510
 3036SOL    HW110007   0.181   4.977   5.547
 3036SOL    HW210008   0.311   4.902   5.482
 3037SOL     OW10009   5.178   6.102   6.468
 3037SOL    HW110010   5.136   6.021   6.429
 3037SOL    HW210011   5.131   6.184   6.434
 3038SOL     OW10012   5.802   5.816   5.281
 3038SOL    HW110013   5.774   5.807   5.377
 3038SOL    HW210014   5.812   5.913   5.258
 3039SOL     OW10015   0.596   4.512   0.458
 3039SOL    HW110016   0.608   4.433   0.518
 3039SOL    HW210017   0.542   4.582   0.505
 3040SOL     OW10018   2.766   0.892   0.476
 3040SOL    HW110019   2.723   0.831   0.543
 3040SOL    HW210020   2.816   0.964   0.524
 3041SOL     OW10021   2.093   1.587   6.008
 3041SOL    HW110022   2.124   1.638   5.928
 3041SOL    HW210023   2.117   1.638   6.091
 3042SOL     OW10024   5.198   0.194   1.136
 3042SOL    HW110025   5.286   0.189   1.183
 3042SOL    HW210026   5.130   0.141   1.186
 3043SOL     OW10027   0.336   4.867   6.729
 3043SOL    HW110028   0.271   4.800   6.766
 3043SOL    HW210029   0.288   4.932   6.671
 3044SOL     OW10030   2.580   3.007   6.976
 3044SOL    HW110031   2.517   2.948   0.000
 3044SOL    HW210032   2.534   3.093   6.954
 3045SOL     OW10033   4.732   2.428   4.638
 3045SOL    HW110034   4.797   2.500   4.661
 3045SOL    HW210035   4.651   2.437   4.696
 3046SOL     OW10036   2.518   2.199   5.446
 3046SOL    HW110037   2.572   2.283   5.458
 3046SOL    HW210038   2.532   2.140   5.525
 3047SOL     OW10039   6.789   5.107   1.720
 3047SOL    HW110040   6.816   5.149   1.633
 3047SOL    HW210041   6.870   5.075   1.768
 3048SOL     OW10042   3.363   2.974   2.248
 3048SOL    HW110043   3.316   2.924   2.175
 3048SOL    HW210044   3.419   2.911   2.301
 3049SOL     OW10045   1.078   0.854   0.599
 3049SOL    HW110046   1.030   0.850   0.687
 3049SOL    HW210047   1.010   0.861   0.526
 3050SOL     OW10048   1.254   0.277   4.479
 3050SOL    HW110049   1.192   0.335   4.532
 3050SOL    HW210050   1.221   0.270   4.384
 3051SOL     OW10051   2.956   5.152   5.397
 3051SOL    HW110052   2.901   5.070   5.378
 3051SOL    HW210053   2.975   5.157   5.495
 3052SOL     OW10054   4.781   6.241   2.542
 3052SOL    HW110055   4.749   6.329   2.508
 3052SOL    HW210056   4.871   6.251   2.584
 3053SOL     OW10057   3.650   6.115   1.879
 3053SOL    HW110058   3.560   6.098   1.840
 3053SOL    HW210059   3.657   6.212   1.906
 3054SOL     OW10060   1.562   4.492   5.124
 3054SOL    HW110061   1.536   4.396   5.112
 3054SOL    HW210062   1.654   4.506   5.089
 3055SOL     OW10063   6.253   6.861   2.565
 3055SOL    HW110064   6.239   6.849   2.663
 3055SOL    HW210065   6.176   6.822   2.516
 3056SOL     OW10066   4.818   0.597   2.430
 3056SOL    HW110067   4.858   0.505   2.434
 3056SOL    HW210068   4.885   0.664   2.462
 3057SOL     OW10069   0.106   4.723   2.642
 3057SOL    HW110070   0.043   4.732   2.719
 3057SOL    HW210071   0.105   4.807   2.588
 3058SOL     OW10072   5.753   6.650   1.145
 3058SOL    HW110073   5.716   6.702   1.068
 3058SOL    HW210074   5.677   6.613   1.200
 3059SOL     OW10075   2.555   2.568   0.016
 3059SOL    HW110076   2.517   2.583   6.950
 3059SOL    HW210077   2.651   2.542   0.009
 3060SOL     OW10078   0.260   6.147   6.928
 3060SOL    HW110079   0.288   6.230   6.880
 3060SOL    HW210080   0.209   6.088   6.866
 3061SOL     OW10081   6.649   0.750   5.913
 3061SOL    HW110082   6.585   0.763   5.836
 3061SOL    HW210083   6.635   0.660   5.953
 3062SOL     OW10084   3.556   5.755   6.226
 3062SOL    HW110085   3.525   5.799   6.310
 3062SOL    HW210086   3.487   5.767   6.155
 3063SOL     OW10087   2.921   6.338   1.104
 3063SOL    HW110088   3.006   6.392   1.103
 3063SOL    HW210089   2.897   6.312   1.010
 3064SOL     OW10090   6.594   4.585   3.117
 3064SOL    HW110091   6.661   4.572   3.043
 3064SOL    HW210092   6.529   4.509   3.116
 3065SOL     OW10093   3.374   1.485   1.717
 3065SOL    HW110094   3.471   1.507   1.703
 3065SOL    HW210095   3.355   1.482   1.815
 3066SOL     OW10096   6.112   5.231   0.880
 3066SOL    HW110097   6.022   5.260   0.847
 3066SOL    HW210098   6.139   5.146   0.834
 3067SOL     OW10099   3.817   6.888   3.009
 3067SOL    HW110100   3.722   6.878   3.040
 3067SOL    HW210101   3.854   6.797   2.988
 3068SOL     OW10102   6.233   4.382   6.673
 3068SOL    HW110103   6.292   4.319   6.624
 3068SOL    HW210104   6.185   4.334   6.746
 3069SOL     OW10105   0.968   5.236   3.506
 3069SOL    HW110106   1.031   5.198   3.573
 3069SOL    HW210107   1.016   5.251   3.420
 3070SOL     OW10108   4.490   1.984   4.006
 3070SOL    HW110109   4.554   1.932   4.064
 3070SOL    HW210110   4.539   2.058   3.960
 3071SOL     OW10111   5.548   0.445   3.594
 3071SOL    HW110112   5.552   0.346   3.603
 3071SOL    HW210113   5.494   0.470   3.514
 3072SOL     OW10114   0.166   0.900   1.393
 3072SOL    HW110115   0.176   0.864   1.300
 3072SOL    HW210116   0.081   0.865   1.433
 3073SOL     OW10117   1.775   1.696   4.890
 3073SOL    HW110118   1.736   1.691   4.798
 3073SOL    HW210119   1.854   1.758   4.889
 3074SOL     OW10120   4.343   3.809   5.716
 3074SOL    HW110121   4.308   3.900   5.696
 3074SOL    HW210122   4.441   3.806   5.696
 3075SOL     OW10123   6.996   4.949   1.333
 3075SOL    HW110124   0.011   4.990   1.415
 3075SOL    HW210125   6.966   4.856   1.353
 3076SOL     OW10126   0.323   0.948   5.708
 3076SOL    HW110127   0.327   0.848   5.699
 3076SOL    HW210128   0.414   0.983   5.729
 3077SOL     OW10129   4.243   4.630   3.588
 3077SOL    HW110130   4.333   4.671   3.598
 3077SOL    HW210131   4.250   4.546   3.534
 3078SOL     OW10132   2.206   2.933   1.294
 3078SOL    HW110133   2.283   2.873   1.315
 3078SOL    HW210134   2.137   2.883   1.242
 3079SOL     OW10135   5.382   3.157   5.941
 3079SOL    HW110136   5.383   3.116   5.849
 3079SOL    HW210137   5.389   3.256   5.933
 3080SOL     OW10138   5.928   6.951   2.077
 3080SOL    HW110139   5.914   6.911   2.167
 3080SOL    HW210140   5.878   0.012   2.070
 3081SOL     OW10141   0.823   4.606   6.110
 3081SOL    HW110142   0.875   4.686   6.079
 3081SOL    HW210143   0.876   4.523   6.091
 3082SOL     OW10144   3.502   6.616   2.746
 3082SOL    HW110145   3.450   6.563   2.679
 3082SOL    HW210146   3.516   6.709   2.713
 3083SOL     OW10147   3.464   6.828   2.599
 3083SOL    HW110148   3.512   6.837   2.512
 3083SOL    HW210149   3.495   6.899   2.662
 3084SOL     OW10150   5.251   0.131   3.931
 3084SOL    HW110151   5.299   0.137   3.843
 3084SOL    HW210152   5.243   0.222   3.971
 3085SOL     OW10153   0.786   4.907   2.277
 3085SOL    HW110154   0.873   4.859   2.289
 3085SOL    HW210155   0.719   4.845   2.236
 3086SOL     OW10156   6.217   1.371   4.762
 3086SOL    HW110157   6.315   1.359   4.752
 3086SOL    HW210158   6.173   1.368   4.672
 3087SOL     OW10159   5.749   3.330   1.176
 3087SOL    HW110160   5.824   3.396   1.182
 3087SOL    HW210161   5.785   3.238   1.161
 3088SOL     OW10162   2.977   3.844   6.609
 3088SOL    HW110163   3.046   3.910   6.638
 3088SOL    HW210164   3.014   3.788   6.535
 3089SOL     OW10165   3.201   1.988   1.975
 3089SOL    HW110166   3.213   1.905   1.919
 3089SOL    HW210167   3.105   2.015   1.974
 3090SOL     OW10168   6.303   1.704   1.127
 3090SOL    HW110169   6.298   1.641   1.204
 3090SOL    HW210170   6.399   1.727   1.109
 3091SOL     OW10171   1.863   6.315   6.551
 3091SOL    HW110172   1.793   6.386   6.546
 3091SOL    HW210173   1.947   6.354   6.589
 3092SOL     OW10174   4.621   5.025   0.075
 3092SOL    HW110175   4.621   5.003   7.004
 3092SOL    HW210176   4.715   5.041   0.106
 3093SOL     OW10177   4.454   6.693   2.935
 3093SOL    HW110178   4.439   6.597   2.915
 3093SOL    HW210179   4.452   6.707   3.034
 3094SOL     OW10180   3.982   5.380   4.588
 3094SOL    HW110181   3.974   5.437   4.670
 3094SOL    HW210182   4.018   5.290   4.614
 3095SOL     OW10183   1.948   5.222   5.025
 3095SOL    HW110184   1.877   5.282   5.064
 3095SOL    HW210185   2.016   5.201   5.095
 3096SOL     OW10186   0.234   2.019   5.881
 3096SOL    HW110187   0.208   1.989   5.789
 3096SOL    HW210188   0.223   2.119   5.887
 3097SOL     OW10189   1.839   0.730   6.938
 3097SOL    HW110190   1.864   0.744   6.842
 3097SOL    HW210191   1.763   0.792   6.961
 3098SOL     OW10192   3.761   3.065   0.608
 3098SOL    HW110193   3.804   3.013   0.534
 3098SOL    HW210194   3.726   3.002   0.678
 3099SOL     OW10195   1.568   5.786   5.512
 3099SOL    HW110196   1.633   5.813   5.583
 3099SOL    HW210197   1.513   5.865   5.486
 3100SOL     OW10198   6.224   6.939   6.331
 3100SOL    HW110199   6.136   6.973   6.297
 3100SOL    HW210200   6.211   6.848   6.372
 3101SOL     OW10201   3.090   0.705   1.067
 3101SOL    HW110202   3.075   0.743   1.158
 3101SOL    HW210203   3.005   0.664   1.034
 3102SOL     OW10204   0.809   6.069   1.086
 3102SOL    HW110205   0.881   6.139   1.091
 3102SOL    HW210206   0.851   5.980   1.067
 3103SOL     OW10207   4.336   4.372   1.636
 3103SOL    HW110208   4.340   4.305   1.710
 3103SOL    HW210209   4.298   4.329   1.554
 3104SOL     OW10210   5.734   5.962   3.384
 3104SOL    HW110211   5.662   5.895   3.369
 3104SOL    HW210212   5.809   5.945   3.321
 3105SOL     OW10213   5.457   5.920   3.564
 3105SOL    HW110214   5.389   5.991   3.582
 3105SOL    HW210215   5.539   5.938   3.617
 3106SOL     OW10216   0.133   3.208   4.261
 3106SOL    HW110217   0.167   3.173   4.348
 3106SOL    HW210218   0.194   3.178   4.187
 3107SOL     OW10219   2.469   6.735   4.402
 3107SOL    HW110220   2.429   6.816   4.359
 3107SOL    HW210221   2.448   6.654   4.348
 3108SOL     OW10222   2.061   6.806   3.000
 3108SOL    HW110223   2.156   6.833   2.983
 3108SOL    HW210224   2.056   6.706   3.006
 3109SOL     OW10225   4.409   5.341   3.655
 3109SOL    HW110226   4.313   5.314   3.643
 3109SOL    HW210227   4.439   5.316   3.747
 3110SOL     OW10228   0.667   2.678   1.595
 3110SOL    HW110229   0.585   2.626   1.571
 3110SOL    HW210230   0.693   2.656   1.689
 3111SOL     OW10231   0.198   4.654   2.388
 3111SOL    HW110232   0.187   4.753   2.385
 3111SOL    HW210233   0.116   4.610   2.349
 3112SOL     OW10234   3.157   3.255   6.050
 3112SOL    HW110235   3.157   3.350   6.081
 3112SOL    HW210236   3.243   3.211   6.078
 3113SOL     OW10237   4.154   0.286   3.534
 3113SOL    HW110238   4.079   0.272   3.599
 3113SOL    HW210239   4.240   0.260   3.578
 3114SOL     OW10240   5.448   5.410   1.001
 3114SOL    HW110241   5.507   5.387   1.078
 3114SOL    HW210242   5.421   5.506   1.006
 3115SOL     OW10243   3.529   3.208   2.876
 3115SOL    HW110244   3.478   3.192   2.791
 3115SOL    HW210245   3.514   3.131   2.938
 3116SOL     OW10246   0.342   1.468   6.654
 3116SOL    HW110247   0.415   1.404   6.635
 3116SOL    HW210248   0.297   1.494   6.568
 3117SOL     OW10249   3.169   4.521   6.241
 3117SOL    HW110250   3.191   4.572   6.157
 3117SOL    HW210251   3.227   4.555   6.316
 3118SOL     OW10252   6.287   5.302   6.938
 3118SOL    HW110253   6.287   5.218   6.994
 3118SOL    HW210254   6.333   5.284   6.851
 3119SOL     OW10255   2.234   4.089   6.954
 3119SOL    HW110256   2.250   4.036   0.011
 3119SOL    HW210257   2.147   4.062   6.913
 3120SOL     OW10258   2.488   5.182   6.961
 3120SOL    HW110259   2.580   5.141   6.966
 3120SOL    HW210260   2.449   5.166   6.871
 3121SOL     OW10261   6.901   6.412   3.657
 3121SOL    HW110262   6.955   6.337   3.619
 3121SOL    HW210263   6.897   6.403   3.756
 3122SOL     OW10264   3.251   6.047   1.279
 3122SOL    HW110265   3.305   6.023   1.360
 3122SOL    HW210266   3.173   6.104   1.306
 3123SOL     OW10267   2.915   6.916   3.908
 3123SOL    HW110268   2.868   6.943   3.992
 3123SOL    HW210269   2.858   6.939   3.829
 3124SOL     OW10270   4.072   6.848   5.198
 3124SOL    HW110271   4.141   6.782   5.168
 3124SOL    HW210272   4.094   6.939   5.162
 3125SOL     OW10273   6.905   2.424   6.003
 3125SOL    HW110274   6.909   2.464   5.912
 3125SOL    HW210275   6.985   2.367   6.019
 3126SOL     OW10276   3.863   5.890   6.502
 3126SOL    HW110277   3.900   5.918   6.413
 3126SOL    HW210278   3.776   5.938   6.518
 3127SOL     OW10279   0.723   1.318   4.488
 3127SOL    HW110280   0.751   1.225   4.511
 3127SOL    HW210281   0.664   1.315   4.406
 3128SOL     OW10282   2.167   0.983   1.025
 3128SOL    HW110283   2.205   1.067   0.986
 3128SOL    HW210284   2.193   0.977   1.121
 3129SOL     OW10285   1.581   3.800   2.605
 3129SOL    HW110286   1.614   3.794   2.511
 3129SOL    HW210287   1.505   3.865   2.609
 3130SOL     OW10288   2.691   5.487   2.887
 3130SOL    HW110289   2.692   5.417   2.816
 3130SOL    HW210290   2.784   5.501   2.922
 3131SOL     OW10291   0.645   3.147   3.748
 3131SOL    HW110292   0.679   3.210   3.678
 3131SOL    HW210293   0.665   3.183   3.839
 3132SOL     OW10294   4.753   3.480   5.722
 3132SOL    HW110295   4.849   3.494   5.743
 3132SOL    HW210296   4.717   3.404   5.777
 3133SOL     OW10297   2.318   1.648   3.574
 3133SOL    HW110298   2.257   1.578   3.613
 3133SOL    HW210299   2.263   1.725   3.540
 3134SOL     OW10300   5.380   2.281   1.670
 3134SOL    HW110301   5.316   2.348   1.707
 3134SOL    HW210302   5.337   2.190   1.672
 3135SOL     OW10303   1.135   2.512   2.906
 3135SOL    HW110304   1.144   2.581   2.834
 3135SOL    HW210305   1.080   2.436   2.872
 3136SOL     OW10306   6.702   0.917   4.662
 3136SOL    HW110307   6.682   0.921   4.565
 3136SOL    HW210308   6.619   0.893   4.713
 3137SOL     OW10309   0.543   1.661   4.876
 3137SOL    HW110310   0.487   1.703   4.805
 3137SOL    HW210311   0.640   1.665   4.850
 3138SOL     OW10312   6.594   2.409   4.477
 3138SOL    HW110313   6.503   2.389   4.512
 3138SOL    HW210314   6.588   2.433   4.380
 3139SOL     OW10315   5.452   5.531   5.400
 3139SOL    HW110316   5.509   5.589   5.342
 3139SOL    HW210317   5.497   5.517   5.488
 3140SOL     OW10318   6.332   6.155   5.650
 3140SOL    HW110319   6.397   6.149   5.726
 3140SOL    HW210320   6.370   6.109   5.570
 3141SOL     OW10321   1.223   0.693   1.611
 3141SOL    HW110322   1.230   0.653   1.702
 3141SOL    HW210323   1.186   0.624   1.548
 3142SOL     OW10324   3.613   6.859   0.931
 3142SOL    HW110325   3.672   6.879   1.008
 3142SOL    HW210326   3.614   6.761   0.911
 3143SOL     OW10327   0.533   1.881   0.570
 3143SOL    HW110328   0.588   1.831   0.638
 3143SOL    HW210329   0.577   1.968   0.549
 3144SOL     OW10330   2.765   3.087   0.168
 3144SOL    HW110331   2.701   3.060   0.095
 3144SOL    HW210332   2.832   3.014   0.181
 3145SOL     OW10333   1.902   5.152   2.302
 3145SOL    HW110334   1.833   5.206   2.348
 3145SOL    HW210335   1.974   5.126   2.367
 3146SOL     OW10336   2.028   6.695   4.340
 3146SOL    HW110337   2.049   6.605   4.300
 3146SOL    HW210338   2.066   6.700   4.432
 3147SOL     OW10339   4.282   4.282   0.918
 3147SOL    HW110340   4.207   4.313   0.975
 3147SOL    HW210341   4.362   4.261   0.975
 3148SOL     OW10342   2.693   5.774   4.459
 3148SOL    HW110343   2.670   5.680   4.483
 3148SOL    HW210344   2.760   5.809   4.524
 3149SOL     OW10345   1.768   6.138   5.550
 3149SOL    HW110346   1.825   6.220   5.558
 3149SOL    HW210347   1.679   6.163   5.512
 3150SOL     OW10348   6.437   0.574   4.643
 3150SOL    HW110349   6.496   0.497   4.621
 3150SOL    HW210350   6.487   0.640   4.699
 3151SOL     OW10351   3.785   6.387   1.894
 3151SOL    HW110352   3.830   6.411   1.980
 3151SOL    HW210353   3.811   6.452   1.823
 3152SOL     OW10354   1.659   4.576   6.333
 3152SOL    HW110355   1.702   4.570   6.243
 3152SOL    HW210356   1.710   4.638   6.391
 3153SOL     OW10357   0.391   3.988   3.110
 3153SOL    HW110358   0.374   3.954   3.017
 3153SOL    HW210359   0.303   4.001   3.156
 3154SOL     OW10360   6.062   2.642   6.505
 3154SOL    HW110361   6.070   2.597   6.416
 3154SOL    HW210362   6.123   2.597   6.570
 3155SOL     OW10363   4.098   5.749   0.712
 3155SOL    HW110364   4.058   5.724   0.624
 3155SOL    HW210365   4.025   5.769   0.777
 3156SOL     OW10366   3.184   3.277   3.495
 3156SOL    HW110367   3.224   3.188   3.516
 3156SOL    HW210368   3.179   3.332   3.578
 3157SOL     OW10369   2.105   2.178   4.862
 3157SOL    HW110370   2.007   2.182   4.844
 3157SOL    HW210371   2.152   2.138   4.783
 3158SOL     OW10372   4.721   6.889   1.463
 3158SOL    HW110373   4.767   6.958   1.519
 3158SOL    HW210374   4.715   6.803   1.514
 3159SOL     OW10375   5.376   4.261   0.668
 3159SOL    HW110376   5.310   4.333   0.643
 3159SOL    HW210377   5.335   4.172   0.650
 3160SOL     OW10378   6.023   4.282   0.675
 3160SOL    HW110379   6.061   4.312   0.587
 3160SOL    HW210380   5.930   4.247   0.661
 3161SOL     OW10381   0.359   1.862   3.928
 3161SOL    HW110382   0.303   1.931   3.975
 3161SOL    HW210383   0.437   1.839   3.986
 3162SOL     OW10384   0.221   0.556   6.056
 3162SOL    HW110385   0.234   0.503   6.140
 3162SOL    HW210386   0.128   0.592   6.053
 3163SOL     OW10387   1.884   4.228   5.416
 3163SOL    HW110388   1.790   4.248   5.443
 3163SOL    HW210389   1.900   4.264   5.324
 3164SOL     OW10390   6.109   5.002   5.868
 3164SOL    HW110391   6.204   5.034   5.859
 3164SOL    HW210392   6.108   4.912   5.910
 3165SOL     OW10393   6.949   3.131   1.883
 3165SOL    HW110394   7.006   3.050   1.898
 3165SOL    HW210395   6.982   3.180   1.802
 3166SOL     OW10396   3.733   3.159   6.224
 3166SOL    HW110397   3.709   3.089   6.291
 3166SOL    HW210398   3.675   3.239   6.237
 3167SOL     OW10399   0.068   4.877   2.087
 3167SOL    HW110400   6.998   4.857   2.111
 3167SOL    HW210401   0.119   4.791   2.085
 3168SOL     OW10402   6.515   3.264   0.350
 3168SOL    HW110403   6.559   3.351   0.373
 3168SOL    HW210404   6.449   3.279   0.276
 3169SOL     OW10405   3.069   2.287   5.610
 3169SOL    HW110406   3.166   2.304   5.594
 3169SOL    HW210407   3.015   2.322   5.534
 3170SOL     OW10408   3.247   0.547   4.501
 3170SOL    HW110409   3.283   0.625   4.448
 3170SOL    HW210410   3.166   0.511   4.455
 3171SOL     OW10411   6.322   5.679   2.461
 3171SOL    HW110412   6.308   5.590   2.418
 3171SOL    HW210413   6.249   5.696   2.528
 3172SOL     OW10414   5.231   6.846   4.833
 3172SOL    HW110415   5.258   6.817   4.741
 3172SOL    HW210416   5.171   6.777   4.873
 3173SOL     OW10417   1.640   0.868   1.375
 3173SOL    HW110418   1.730   0.910   1.371
 3173SOL    HW210419   1.572   0.932   1.339
 3174SOL     OW10420   2.470   3.285   0.581
 3174SOL    HW110421   2.462   3.195   0.538
 3174SOL    HW210422   2.479   3.273   0.680
 3175SOL     OW10423   0.166   5.731   0.407
 3175SOL    HW110424   0.207   5.778   0.485
 3175SOL    HW210425   0.099   5.665   0.439
 3176SOL     OW10426   1.088   5.163   6.854
 3176SOL    HW110427   1.022   5.232   6.824
 3176SOL    HW210428   1.172   5.208   6.886
 3177SOL     OW10429   1.180   0.191   3.762
 3177SOL    HW110430   1.214   0.136   3.685
 3177SOL    HW210431   1.083   0.211   3.747
 3178SOL     OW10432   3.840   3.619   0.193
 3178SOL    HW110433   3.827   3.547   0.125
 3178SOL    HW210434   3.842   3.580   0.284
 3179SOL     OW10435   1.482   2.520   4.374
 3179SOL    HW110436   1.408   2.453   4.371
 3179SOL    HW210437   1.460   2.591   4.440
 3180SOL     OW10438   6.647   1.496   6.942
 3180SOL    HW110439   6.699   1.414   6.920
 3180SOL    HW210440   6.660   1.563   6.868
 3181SOL     OW10441   6.985   1.654   2.095
 3181SOL    HW110442   0.016   1.600   2.156
 3181SOL    HW210443   6.912   1.597   2.057
 3182SOL     OW10444   1.187   6.478   5.960
 3182SOL    HW110445   1.133   6.432   5.890
 3182SOL    HW210446   1.213   6.569   5.928
 3183SOL     OW10447   4.582   3.442   0.997
 3183SOL    HW110448   4.524   3.515   0.961
 3183SOL    HW210449   4.527   3.381   1.055
 3184SOL     OW10450   0.011   2.078   2.901
 3184SOL    HW110451   0.050   1.986   2.894
 3184SOL    HW210452   0.061   2.140   2.840
 3185SOL     OW10453   0.212   6.290   0.140
 3185SOL    HW110454   0.228   6.254   0.047
 3185SOL    HW210455   0.115   6.285   0.162
 3186SOL     OW10456   3.575   0.291   1.460
 3186SOL    HW110457   3.579   0.390   1.448
 3186SOL    HW210458   3.599   0.246   1.374
 3187SOL     OW10459   3.674   4.405   0.900
 3187SOL    HW110460   3.678   4.305   0.910
 3187SOL    HW210461   3.579   4.435   0.910
 3188SOL     OW10462   3.677   0.278   3.913
 3188SOL    HW110463   3.676   0.232   3.824
 3188SOL    HW210464   3.583   0.280   3.949
 3189SOL     OW10465   5.755   6.588   1.755
 3189SOL    HW110466   5.811   6.664   1.787
 3189SOL    HW210467   5.814   6.512   1.727
 3190SOL     OW10468   1.075   0.768   2.739
 3190SOL    HW110469   1.036   0.692   2.790
 3190SOL    HW210470   1.149   0.734   2.681
 3191SOL     OW10471   3.428   1.474   0.899
 3191SOL    HW110472   3.468   1.566   0.904
 3191SOL    HW210473   3.356   1.465   0.968
 3192SOL     OW10474   5.842   3.278   4.361
 3192SOL    HW110475   5.771   3.330   4.315
 3192SOL    HW210476   5.932   3.315   4.337
 3193SOL     OW10477   5.449   4.302   1.644
 3193SOL    HW110478   5.442   4.208   1.611
 3193SOL    HW210479   5.493   4.359   1.575
 3194SOL     OW10480   3.148   5.449   4.792
 3194SOL    HW110481   3.189   5.514   4.856
 3194SOL    HW210482   3.106   5.374   4.843
 3195SOL     OW10483   6.703   4.327   4.306
 3195SOL    HW110484   6.698   4.268   4.225
 3195SOL    HW210485   6.630   4.300   4.370
 3196SOL     OW10486   0.099   5.938   6.855
 3196SOL    HW110487   0.181   5.886   6.832
 3196SOL    HW210488   0.054   5.896   6.934
 3197SOL     OW10489   0.468   4.355   5.708
 3197SOL    HW110490   0.402   4.404   5.765
 3197SOL    HW210491   0.558   4.358   5.751
 3198SOL     OW10492   5.468   0.186   1.284
 3198SOL    HW110493   5.528   0.222   1.355
 3198SOL    HW210494   5.470   0.248   1.205
 3199SOL     OW10495   2.752   2.380   3.079
 3199SOL    HW110496   2.728   2.321   3.156
 3199SOL    HW210497   2.841   2.353   3.043
 3200SOL     OW10498   6.671   1.674   0.176
 3200SOL    HW110499   6.748   1.644   0.120
 3200SOL    HW210500   6.595   1.700   0.117
 3201SOL     OW10501   3.791   5.044   3.348
 3201SOL    HW110502   3.743   5.073   3.265
 3201SOL    HW210503   3.730   5.054   3.427
 3202SOL     OW10504   1.180   5.019   1.909
 3202SOL    HW110505   1.194   5.094   1.844
 3202SOL    HW210506   1.250   4.949   1.895
 3203SOL     OW10507   5.226   0.017   0.800
 3203SOL    HW110508   5.309   6.989   0.780
 3203SOL    HW210509   5.253   0.109   0.827
 3204SOL     OW10510   6.001   6.327   2.033
 3204SOL    HW110511   6.037   6.246   2.080
 3204SOL    HW210512   6.060   6.405   2.052
 3205SOL     OW10513   1.722   4.446   4.542
 3205SOL    HW110514   1.804   4.405   4.502
 3205SOL    HW210515   1.641   4.410   4.496
 3206SOL     OW10516   1.983   6.294   0.155
 3206SOL    HW110517   2.016   6.351   0.230
 3206SOL    HW210518   1.979   6.348   0.071
 3207SOL     OW10519   1.532   0.933   3.466
 3207SOL    HW110520   1.517   0.868   3.541
 3207SOL    HW210521   1.483   1.018   3.486
 3208SOL     OW10522   6.125   6.182   6.141
 3208SOL    HW110523   6.165   6.090   6.132
 3208SOL    HW210524   6.076   6.205   6.058
 3209SOL     OW10525   1.176   6.407   3.132
 3209SOL    HW110526   1.143   6.469   3.204
 3209SOL    HW210527   1.274   6.390   3.146
 3210SOL     OW10528   0.632   5.811   2.077
 3210SOL    HW110529   0.690   5.887   2.106
 3210SOL    HW210530   0.591   5.767   2.156
 3211SOL     OW10531   0.103   4.744   4.032
 3211SOL    HW110532   0.156   4.814   3.985
 3211SOL    HW210533   0.160   4.663   4.045
 3212SOL     OW10534   4.642   1.844   4.896
 3212SOL    HW110535   4.641   1.926   4.839
 3212SOL    HW210536   4.562   1.788   4.875
 3213SOL     OW10537   5.485   0.016   2.163
 3213SOL    HW110538   5.404   6.984   2.162
 3213SOL    HW210539   5.499   0.055   2.072
 3214SOL     OW10540   4.394   3.634   0.543
 3214SOL    HW110541   4.394   3.605   0.447
 3214SOL    HW210542   4.306   3.613   0.584
 3215SOL     OW10543   6.868   1.628   0.006
 3215SOL    HW110544   6.836   1.557   6.969
 3215SOL    HW210545   6.951   1.596   0.052
 3216SOL     OW10546   4.929   6.624   5.509
 3216SOL    HW110547   4.881   6.552   5.560
 3216SOL    HW210548   4.972   6.687   5.574
 3217SOL     OW10549   0.361   4.477   6.603
 3217SOL    HW110550   0.284   4.541   6.603
 3217SOL    HW210551   0.381   4.450   6.697
 3218SOL     OW10552   4.329   2.596   1.458
 3218SOL    HW110553   4.346   2.550   1.371
 3218SOL    HW210554   4.398   2.667   1.472
 3219SOL     OW10555   0.677   2.383   3.266
 3219SOL    HW110556   0.689   2.293   3.223
 3219SOL    HW210557   0.626   2.443   3.204
 3220SOL     OW10558   0.007   2.416   6.722
 3220SOL    HW110559   0.011   2.513   6.696
 3220SOL    HW210560   7.000   2.363   6.644
 3221SOL     OW10561   4.149   0.249   1.641
 3221SOL    HW110562   4.087   0.297   1.579
 3221SOL    HW210563   4.217   0.198   1.588
 3222SOL     OW10564   6.047   3.856   2.400
 3222SOL    HW110565   6.088   3.942   2.369
 3222SOL    HW210566   5.991   3.818   2.326
 3223SOL     OW10567   1.307   4.303   5.547
 3223SOL    HW110568   1.254   4.322   5.465
 3223SOL    HW210569   1.276   4.362   5.621
 3224SOL     OW10570   2.644   6.832   1.518
 3224SOL    HW110571   2.677   6.751   1.566
 3224SOL    HW210572   2.695   6.912   1.549
 3225SOL     OW10573   1.278   1.512   0.290
 3225SOL    HW110574   1.183   1.480   0.288
 3225SOL    HW210575   1.279   1.612   0.292
 3226SOL     OW10576   6.536   1.652   3.816
 3226SOL    HW110577   6.445   1.653   3.858
 3226SOL    HW210578   6.532   1.601   3.730
 3227SOL     OW10579   2.383   1.842   4.818
 3227SOL    HW110580   2.458   1.872   4.759
 3227SOL    HW210581   2.420   1.788   4.894
 3228SOL     OW10582   5.095   3.637   4.665
 3228SOL    HW110583   5.184   3.669   4.635
 3228SOL    HW210584   5.025   3.667   4.600
 3229SOL     OW10585   4.811   1.207   4.483
 3229SOL    HW110586   4.779   1.127   4.433
 3229SOL    HW210587   4.812   1.287   4.422
 3230SOL     OW10588   1.087   6.481   4.389
 3230SOL    HW110589   0.990   6.460   4.395
 3230SOL    HW210590   1.102   6.578   4.408
 3231SOL     OW10591   4.318   4.571   6.890
 3231SOL    HW110592   4.371   4.655   6.884
 3231SOL    HW210593   4.257   4.575   6.969
 3232SOL     OW10594   0.820   4.115   3.869
 3232SOL    HW110595   0.728   4.095   3.834
 3232SOL    HW210596   0.850   4.040   3.929
 3233SOL     OW10597   2.757   4.256   0.573
 3233SOL    HW110598   2.767   4.242   0.672
 3233SOL    HW210599   2.681   4.200   0.539
 3234SOL     OW10600   6.804   1.942   3.914
 3234SOL    HW110601   6.706   1.945   3.892
 3234SOL    HW210602   6.826   1.853   3.954
 3235SOL     OW10603   6.510   0.678   2.304
 3235SOL    HW110604   6.450   0.644   2.232
 3235SOL    HW210605   6.555   0.761   2.272
 3236SOL     OW10606   0.495   1.442   1.100
 3236SOL    HW110607   0.409   1.452   1.051
 3236SOL    HW210608   0.528   1.348   1.092
 3237SOL     OW10609   2.745   5.447   5.004
 3237SOL    HW110610   2.773   5.437   5.099
 3237SOL    HW210611   2.748   5.357   4.959
 3238SOL     OW10612   0.001   6.263   6.612
 3238SOL    HW110613   6.988   6.355   6.611
 3238SOL    HW210614   0.004   6.229   6.707
 3239SOL     OW10615   2.175   6.267   6.275
 3239SOL    HW110616   2.262   6.230   6.242
 3239SOL    HW210617   2.151   6.348   6.222
 3240SOL     OW10618   1.139   2.575   4.551
 3240SOL    HW110619   1.139   2.475   4.560
 3240SOL    HW210620   1.048   2.606   4.523
 3241SOL     OW10621   3.827   5.992   5.107
 3241SOL    HW110622   3.796   5.972   5.014
 3241SOL    HW210623   3.818   5.910   5.164
 3242SOL     OW10624   3.205   1.385   1.073
 3242SOL    HW110625   3.144   1.377   1.153
 3242SOL    HW210626   3.225   1.294   1.037
 3243SOL     OW10627   3.474   6.065   2.685
 3243SOL    HW110628   3.495   5.984   2.740
 3243SOL    HW210629   3.408   6.122   2.733
 3244SOL     OW10630   1.471   0.127   5.284
 3244SOL    HW110631   1.410   0.167   5.351
 3244SOL    HW210632   1.419   0.099   5.203
 3245SOL     OW10633   3.564   2.416   5.772
 3245SOL    HW110634   3.496   2.367   5.717
 3245SOL    HW210635   3.654   2.372   5.761
 3246SOL     OW10636   6.090   6.562   1.611
 3246SOL    HW110637   6.079   6.641   1.671
 3246SOL    HW210638   6.030   6.572   1.531
 3247SOL     OW10639   5.885   2.935   4.495
 3247SOL    HW110640   5.899   2.940   4.396
 3247SOL    HW210641   5.869   2.840   4.522
 3248SOL     OW10642   5.197   4.158   3.334
 3248SOL    HW110643   5.232   4.064   3.333
 3248SOL    HW210644   5.229   4.207   3.253
 3249SOL     OW10645   4.171   5.223   5.963
 3249SOL    HW110646   4.081   5.179   5.965
 3249SOL    HW210647   4.239   5.161   6.001
 3250SOL     OW10648   4.491   4.554   0.565
 3250SOL    HW110649   4.516   4.628   0.627
 3250SOL    HW210650   4.451   4.479   0.617
 3251SOL     OW10651   2.456   1.460   3.106
 3251SOL    HW110652   2.439   1.522   3.030
 3251SOL    HW210653   2.455   1.511   3.192
 3252SOL     OW10654   3.165   2.171   2.992
 3252SOL    HW110655   3.265   2.163   3.002
 3252SOL    HW210656   3.143   2.208   2.902
 3253SOL     OW10657   5.419   4.282   2.123
 3253SOL    HW110658   5.475   4.312   2.200
 3253SOL    HW210659   5.370   4.360   2.084
 3254SOL     OW10660   6.135   3.667   3.251
 3254SOL    HW110661   6.102   3.583   3.209
 3254SOL    HW210662   6.129   3.743   3.186
 3255SOL     OW10663   2.646   4.624   0.387
 3255SOL    HW110664   2.735   4.582   0.368
 3255SOL    HW210665   2.611   4.590   0.475
 3256SOL     OW10666   6.393   6.791   5.336
 3256SOL    HW110667   6.444   6.753   5.413
 3256SOL    HW210668   6.339   6.868   5.367
 3257SOL     OW10669   2.889   1.020   1.879
 3257SOL    HW110670   2.988   1.006   1.874
 3257SOL    HW210671   2.867   1.067   1.964
 3258SOL     OW10672   4.509   6.744   2.507
 3258SOL    HW110673   4.517   6.785   2.598
 3258SOL    HW210674   4.489   6.646   2.516
 3259SOL     OW10675   5.805   5.584   3.263
 3259SOL    HW110676   5.808   5.638   3.347
 3259SOL    HW210677   5.770   5.641   3.188
 3260SOL     OW10678   1.955   1.763   1.225
 3260SOL    HW110679   1.859   1.764   1.255
 3260SOL    HW210680   2.010   1.715   1.293
 3261SOL     OW10681   4.758   6.532   4.311
 3261SOL    HW110682   4.725   6.442   4.281
 3261SOL    HW210683   4.689   6.574   4.370
 3262SOL     OW10684   4.704   2.462   3.593
 3262SOL    HW110685   4.685   2.421   3.504
 3262SOL    HW210686   4.762   2.400   3.647
 3263SOL     OW10687   3.083   4.834   2.736
 3263SOL    HW110688   3.012   4.764   2.748
 3263SOL    HW210689   3.040   4.922   2.714
 3264SOL     OW10690   4.667   3.853   6.505
 3264SOL    HW110691   4.636   3.915   6.578
 3264SOL    HW210692   4.593   3.841   6.439
 3265SOL     OW10693   5.246   6.779   5.601
 3265SOL    HW110694   5.278   6.745   5.513
 3265SOL    HW210695   5.251   6.706   5.669
 3266SOL     OW10696   1.596   2.434   5.894
 3266SOL    HW110697   1.633   2.387   5.814
 3266SOL    HW210698   1.500   2.455   5.880
 3267SOL     OW10699   5.495   3.876   0.789
 3267SOL    HW110700   5.522   3.916   0.701
 3267SOL    HW210701   5.402   3.841   0.782
 3268SOL     OW10702   2.399   5.230   0.824
 3268SOL    HW110703   2.410   5.226   0.724
 3268SOL    HW210704   2.302   5.238   0.847
 3269SOL     OW10705   4.041   3.415   1.536
 3269SOL    HW110706   3.970   3.465   1.487
 3269SOL    HW210707   4.001   3.337   1.585
 3270SOL     OW10708   6.359   5.991   2.847
 3270SOL    HW110709   6.439   5.962   2.900
 3270SOL    HW210710   6.368   6.089   2.827
 3271SOL     OW10711   4.626   0.064   0.198
 3271SOL    HW110712   4.722   0.064   0.225
 3271SOL    HW210713   4.618   0.064   0.098
 3272SOL     OW10714   4.101   6.083   6.432
 3272SOL    HW110715   4.067   6.072   6.525
 3272SOL    HW210716   4.045   6.151   6.384
 3273SOL     OW10717   6.645   0.568   2.660
 3273SOL    HW110718   6.601   0.656   2.642
 3273SOL    HW210719   6.575   0.499   2.678
 3274SOL     OW10720   3.345   0.262   1.641
 3274SOL    HW110721   3.413   0.308   1.583
 3274SOL    HW210722   3.274   0.222   1.583
 3275SOL     OW10723   4.689   0.491   5.965
 3275SOL    HW110724   4.673   0.393   5.977
 3275SOL    HW210725   4.621   0.542   6.018
 3276SOL     OW10726   1.983   5.177   1.416
 3276SOL    HW110727   1.951   5.102   1.359
 3276SOL    HW210728   1.964   5.264   1.371
 3277SOL     OW10729   0.573   5.851   6.350
 3277SOL    HW110730   0.594   5.936   6.301
 3277SOL    HW210731   0.564   5.870   6.447
 3278SOL     OW10732   1.063   6.981   6.996
 3278SOL    HW110733   1.135   6.996   0.038
 3278SOL    HW210734   1.053   6.883   6.980
 3279SOL     OW10735   2.030   6.717   1.780
 3279SOL    HW110736   2.042   6.683   1.874
 3279SOL    HW210737   1.940   6.760   1.772
 3280SOL     OW10738   3.050   5.755   3.385
 3280SOL    HW110739   3.060   5.685   3.456
 3280SOL    HW210740   2.970   5.812   3.405
 3281SOL     OW10741   1.842   0.047   1.447
 3281SOL    HW110742   1.926   0.021   1.399
 3281SOL    HW210743   1.770   7.007   1.428
 3282SOL     OW10744   1.225   4.684   2.046
 3282SOL    HW110745   1.174   4.703   1.962
 3282SOL    HW210746   1.213   4.588   2.071
 3283SOL     OW10747   1.397   0.563   3.483
 3283SOL    HW110748   1.453   0.487   3.516
 3283SOL    HW210749   1.378   0.551   3.386
 3284SOL     OW10750   2.464   6.095   5.929
 3284SOL    HW110751   2.494   6.000   5.912
 3284SOL    HW210752   2.370   6.106   5.898
 3285SOL     OW10753   0.770   3.636   4.326
 3285SOL    HW110754   0.800   3.556   4.378
 3285SOL    HW210755   0.844   3.703   4.324
 3286SOL     OW10756   5.108   4.636   0.551
 3286SOL    HW110757   5.150   4.546   0.551
 3286SOL    HW210758   5.009   4.628   0.562
 3287SOL     OW10759   0.773   2.072   1.217
 3287SOL    HW110760   0.800   2.168   1.205
 3287SOL    HW210761   0.788   2.023   1.131
 3288SOL     OW10762   1.144   6.845   0.429
 3288SOL    HW110763   1.085   6.779   0.383
 3288SOL    HW210764   1.104   6.870   0.517
 3289SOL     OW10765   1.442   0.798   4.036
 3289SOL    HW110766   1.521   0.827   4.091
 3289SOL    HW210767   1.448   0.700   4.019
 3290SOL     OW10768   0.187   4.790   4.622
 3290SOL    HW110769   0.099   4.788   4.668
 3290SOL    HW210770   0.197   4.709   4.564
 3291SOL     OW10771   1.338   1.363   1.545
 3291SOL    HW110772   1.417   1.324   1.497
 3291SOL    HW210773   1.254   1.334   1.498
 3292SOL     OW10774   0.933   6.750   3.878
 3292SOL    HW110775   0.999   6.824   3.893
 3292SOL    HW210776   0.964   6.692   3.803
 3293SOL     OW10777   5.684   1.151   3.112
 3293SOL    HW110778   5.722   1.106   3.193
 3293SOL    HW210779   5.709   1.099   3.030
 3294SOL     OW10780   6.997   6.504   1.759
 3294SOL    HW110781   7.010   6.410   1.789
 3294SOL    HW210782   6.960   6.504   1.666
 3295SOL     OW10783   3.003   2.846   6.469
 3295SOL    HW110784   2.906   2.863   6.485
 3295SOL    HW210785   3.018   2.825   6.372
 3296SOL     OW10786   1.177   6.629   1.904
 3296SOL    HW110787   1.087   6.661   1.933
 3296SOL    HW210788   1.248   6.676   1.957
 3297SOL     OW10789   3.768   0.244   5.140
 3297SOL    HW110790   3.746   0.147   5.139
 3297SOL    HW210791   3.684   0.297   5.129
 3298SOL     OW10792   6.937   5.254   3.297
 3298SOL    HW110793   7.025   5.299   3.307
 3298SOL    HW210794   6.864   5.314   3.329
 3299SOL     OW10795   2.130   1.379   4.605
 3299SOL    HW110796   2.201   1.419   4.663
 3299SOL    HW210797   2.086   1.303   4.653
 3300SOL     OW10798   0.547   6.681   4.695
 3300SOL    HW110799   0.546   6.718   4.788
 3300SOL    HW210800   0.503   6.747   4.633
 3301SOL     OW10801   6.155   4.107   2.357
 3301SOL    HW110802   6.251   4.125   2.376
 3301SOL    HW210803   6.127   4.157   2.274
 3302SOL     OW10804   2.033   5.763   5.958
 3302SOL    HW110805   1.960   5.695   5.948
 3302SOL    HW210806   2.027   5.805   6.048
 3303SOL     OW10807   3.468   3.338   5.170
 3303SOL    HW110808   3.419   3.276   5.232
 3303SOL    HW210809   3.505   3.414   5.222
 3304SOL     OW10810   2.392   1.001   3.820
 3304SOL    HW110811   2.372   1.012   3.722
 3304SOL    HW210812   2.477   0.950   3.831
 3305SOL     OW10813   1.840   2.065   0.420
 3305SOL    HW110814   1.858   1.967   0.413
 3305SOL    HW210815   1.898   2.104   0.492
 3306SOL     OW10816   1.334   1.457   0.642
 3306SOL    HW110817   1.401   1.455   0.568
 3306SOL    HW210818   1.382   1.460   0.730
 3307SOL     OW10819   0.309   6.494   0.342
 3307SOL    HW110820   0.304   6.437   0.261
 3307SOL    HW210821   0.251   6.575   0.330
 3308SOL     OW10822   5.342   5.211   0.193
 3308SOL    HW110823   5.244   5.201   0.207
 3308SOL    HW210824   5.359   5.267   0.112
 3309SOL     OW10825   0.387   4.337   2.067
 3309SOL    HW110826   0.367   4.244   2.098
 3309SOL    HW210827   0.385   4.400   2.145
 3310SOL     OW10828   2.099   0.106   2.356
 3310SOL    HW110829   2.008   0.135   2.387
 3310SOL    HW210830   2.093   0.014   2.318
 3311SOL     OW10831   4.325   5.173   0.710
 3311SOL    HW110832   4.245   5.173   0.770
 3311SOL    HW210833   4.388   5.246   0.738
 3312SOL     OW10834   2.117   2.258   5.696
 3312SOL    HW110835   2.063   2.221   5.621
 3312SOL    HW210836   2.057   2.307   5.760
 3313SOL     OW10837   5.185   6.495   5.255
 3313SOL    HW110838   5.249   6.462   5.324
 3313SOL    HW210839   5.131   6.418   5.220
 3314SOL     OW10840   0.559   3.899   6.737
 3314SOL    HW110841   0.577   3.830   6.667
 3314SOL    HW210842   0.491   3.964   6.704
 3315SOL     OW10843   6.626   3.435   3.247
 3315SOL    HW110844   6.587   3.365   3.187
 3315SOL    HW210845   6.691   3.491   3.195
 3316SOL     OW10846   3.590   0.374   6.332
 3316SOL    HW110847   3.573   0.472   6.324
 3316SOL    HW210848   3.546   0.326   6.256
 3317SOL     OW10849   6.269   2.659   1.306
 3317SOL    HW110850   6.278   2.644   1.405
 3317SOL    HW210851   6.254   2.756   1.288
 3318SOL     OW10852   2.679   4.955   6.284
 3318SOL    HW110853   2.593   5.004   6.299
 3318SOL    HW210854   2.722   4.987   6.200
 3319SOL     OW10855   1.196   6.233   6.360
 3319SOL    HW110856   1.286   6.277   6.358
 3319SOL    HW210857   1.145   6.259   6.278
 3320SOL     OW10858   1.337   0.706   0.978
 3320SOL    HW110859   1.382   0.781   1.026
 3320SOL    HW210860   1.404   0.636   0.955
 3321SOL     OW10861   4.006   3.615   4.296
 3321SOL    HW110862   4.047   3.524   4.290
 3321SOL    HW210863   3.917   3.608   4.340
 3322SOL     OW10864   5.430   3.501   2.913
 3322SOL    HW110865   5.366   3.494   2.990
 3322SOL    HW210866   5.404   3.578   2.855
 3323SOL     OW10867   1.595   3.997   0.614
 3323SOL    HW110868   1.562   4.037   0.528
 3323SOL    HW210869   1.625   4.070   0.675
 3324SOL     OW10870   6.461   2.829   1.953
 3324SOL    HW110871   6.391   2.900   1.951
 3324SOL    HW210872   6.552   2.871   1.952
 3325SOL     OW10873   1.724   4.845   5.648
 3325SOL    HW110874   1.761   4.759   5.685
 3325SOL    HW210875   1.629   4.830   5.619
 3326SOL     OW10876   4.304   6.874   2.186
 3326SOL    HW110877   4.242   6.825   2.246
 3326SOL    HW210878   4.262   6.959   2.155
 3327SOL     OW10879   4.705   6.175   2.207
 3327SOL    HW110880   4.747   6.103   2.263
 3327SOL    HW210881   4.777   6.236   2.173
 3328SOL     OW10882   6.411   6.245   3.117
 3328SOL    HW110883   6.351   6.274   3.191
 3328SOL    HW210884   6.418   6.145   3.117
 3329SOL     OW10885   5.864   0.147   5.956
 3329SOL    HW110886   5.786   0.130   5.895
 3329SOL    HW210887   5.904   0.236   5.936
 3330SOL     OW10888   5.673   0.987   3.732
 3330SOL    HW110889   5.646   1.026   3.644
 3330SOL    HW210890   5.659   1.055   3.804
 3331SOL     OW10891   0.669   3.629   2.734
 3331SOL    HW110892   0.699   3.691   2.661
 3331SOL    HW210893   0.700   3.665   2.822
 3332SOL     OW10894   4.157   5.101   1.336
 3332SOL    HW110895   4.136   5.004   1.328
 3332SOL    HW210896   4.241   5.113   1.389
 3333SOL     OW10897   2.333   3.967   1.132
 3333SOL    HW110898   2.308   3.901   1.203
 3333SOL    HW210899   2.265   4.040   1.129
 3334SOL     OW10900   2.403   2.710   2.061
 3334SOL    HW110901   2.410   2.631   2.000
 3334SOL    HW210902   2.385   2.680   2.154
 3335SOL     OW10903   4.321   4.097   6.448
 3335SOL    HW110904   4.225   4.102   6.423
 3335SOL    HW210905   4.370   4.041   6.381
 3336SOL     OW10906   3.599   5.757   6.674
 3336SOL    HW110907   3.543   5.761   6.591
 3336SOL    HW210908   3.678   5.816   6.664
 3337SOL     OW10909   3.278   3.905   4.499
 3337SOL    HW110910   3.311   3.991   4.462
 3337SOL    HW210911   3.287   3.906   4.599
 3338SOL     OW10912   3.368   2.907   1.638
 3338SOL    HW110913   3.355   2.978   1.569
 3338SOL    HW210914   3.282   2.858   1.652
 3339SOL     OW10915   0.866   6.834   5.545
 3339SOL    HW110916   0.800   6.909   5.546
 3339SOL    HW210917   0.949   6.863   5.592
 3340SOL     OW10918   4.837   2.457   6.544
 3340SOL    HW110919   4.836   2.526   6.472
 3340SOL    HW210920   4.781   2.488   6.621
 3341SOL     OW10921   1.165   3.448   1.662
 3341SOL    HW110922   1.214   3.497   1.733
 3341SOL    HW210923   1.128   3.513   1.595
 3342SOL     OW10924   5.846   0.501   3.635
 3342SOL    HW110925   5.881   0.425   3.580
 3342SOL    HW210926   5.748   0.489   3.649
 3343SOL     OW10927   3.547   5.125   0.031
 3343SOL    HW110928   3.516   5.173   0.113
 3343SOL    HW210929   3.631   5.075   0.052
 3344SOL     OW10930   2.046   3.736   0.791
 3344SOL    HW110931   2.113   3.662   0.788
 3344SOL    HW210932   1.954   3.698   0.793
 3345SOL     OW10933   4.032   4.932   0.767
 3345SOL    HW110934   3.955   4.904   0.710
 3345SOL    HW210935   4.116   4.888   0.734
 3346SOL     OW10936   0.871   0.872   0.419
 3346SOL    HW110937   0.788   0.906   0.375
 3346SOL    HW210938   0.867   0.773   0.427
 3347SOL     OW10939   1.096   3.079   5.854
 3347SOL    HW110940   1.048   3.165   5.869
 3347SOL    HW210941   1.140   3.050   5.939
 3348SOL     OW10942   3.062   4.274   5.826
 3348SOL    HW110943   3.091   4.230   5.911
 3348SOL    HW210944   3.120   4.352   5.807
 3349SOL     OW10945   2.693   5.453   1.485
 3349SOL    HW110946   2.712   5.363   1.525
 3349SOL    HW210947   2.752   5.521   1.528
 3350SOL     OW10948   3.087   4.902   4.489
 3350SOL    HW110949   3.089   4.988   4.540
 3350SOL    HW210950   3.123   4.916   4.397
 3351SOL     OW10951   4.158   0.089   2.128
 3351SOL    HW110952   4.078   0.031   2.147
 3351SOL    HW210953   4.137   0.150   2.052
 3352SOL     OW10954   5.927   0.798   0.384
 3352SOL    HW110955   5.946   0.727   0.316
 3352SOL    HW210956   5.860   0.764   0.450
 3353SOL     OW10957   5.036   0.020   6.048
 3353SOL    HW110958   4.949   7.014   6.012
 3353SOL    HW210959   5.107   6.977   6.033
 3354SOL     OW10960   3.664   1.549   0.408
 3354SOL    HW110961   3.584   1.603   0.385
 3354SOL    HW210962   3.648   1.501   0.495
 3355SOL     OW10963   0.919   2.088   5.854
 3355SOL    HW110964   0.933   1.993   5.881
 3355SOL    HW210965   0.990   2.116   5.790
 3356SOL     OW10966   2.876   0.224   5.202
 3356SOL    HW110967   2.779   0.203   5.216
 3356SOL    HW210968   2.885   0.319   5.172
 3357SOL     OW10969   3.307   3.510   4.395
 3357SOL    HW110970   3.227   3.537   4.447
 3357SOL    HW210971   3.333   3.417   4.420
 3358SOL     OW10972   0.197   2.070   1.271
 3358SOL    HW110973   0.268   2.023   1.218
 3358SOL    HW210974   0.196   2.167   1.246
 3359SOL     OW10975   0.547   0.265   3.150
 3359SOL    HW110976   0.570   0.298   3.241
 3359SOL    HW210977   0.591   0.177   3.133
 3360SOL     OW10978   1.545   5.626   4.920
 3360SOL    HW110979   1.457   5.579   4.911
 3360SOL    HW210980   1.529   5.722   4.940
 3361SOL     OW10981   0.935   6.855   4.731
 3361SOL    HW110982   0.884   6.772   4.709
 3361SOL    HW210983   0.921   6.923   4.658
 3362SOL     OW10984   3.770   0.628   5.238
 3362SOL    HW110985   3.859   0.583   5.234
 3362SOL    HW210986   3.780   0.725   5.216
 3363SOL     OW10987   5.099   3.455   0.654
 3363SOL    HW110988   5.075   3.549   0.629
 3363SOL    HW210989   5.018   3.396   0.646
 3364SOL     OW10990   2.338   3.246   1.472
 3364SOL    HW110991   2.249   3.201   1.479
 3364SOL    HW210992   2.387   3.238   1.560
 3365SOL     OW10993   0.671   3.415   3.135
 3365SOL    HW110994   0.704   3.328   3.100
 3365SOL    HW210995   0.738   3.455   3.197
 3366SOL     OW10996   5.456   2.775   3.624
 3366SOL    HW110997   5.426   2.708   3.693
 3366SOL    HW210998   5.549   2.754   3.595
 3367SOL     OW10999   3.244   3.740   3.211
 3367SOL    HW111000   3.148   3.715   3.195
 3367SOL    HW211001   3.249   3.836   3.239
 3368SOL     OW11002   1.404   1.227   3.827
 3368SOL    HW111003   1.433   1.321   3.809
 3368SOL    HW211004   1.304   1.223   3.831
 3369SOL     OW11005   6.513   3.148   0.787
 3369SOL    HW111006   6.493   3.066   0.734
 3369SOL    HW211007   6.574   3.125   0.863
 3370SOL     OW11008   0.192   5.992   3.625
 3370SOL    HW111009   0.161   5.920   3.563
 3370SOL    HW211010   0.190   5.958   3.719
 3371SOL     OW11011   3.104   2.699   1.475
 3371SOL    HW111012   3.142   2.659   1.392
 3371SOL    HW211013   3.087   2.797   1.461
 3372SOL     OW11014   5.909   2.527   3.417
 3372SOL    HW111015   5.924   2.474   3.501
 3372SOL    HW211016   5.931   2.623   3.434
 3373SOL     OW11017   0.793   4.608   0.945
 3373SOL    HW111018   0.784   4.698   0.901
 3373SOL    HW211019   0.704   4.564   0.951
 3374SOL     OW11020   0.789   5.624   4.179
 3374SOL    HW111021   0.762   5.693   4.246
 3374SOL    HW211022   0.780   5.533   4.219
 3375SOL     OW11023   6.791   6.575   5.710
 3375SOL    HW111024   6.817   6.655   5.655
 3375SOL    HW211025   6.720   6.600   5.775
 3376SOL     OW11026   3.388   3.703   4.791
 3376SOL    HW111027   3.354   3.621   4.837
 3376SOL    HW211028   3.314   3.771   4.787
 3377SOL     OW11029   5.925   5.469   4.499
 3377SOL    HW111030   5.889   5.555   4.463
 3377SOL    HW211031   5.938   5.476   4.598
 3378SOL     OW11032   0.749   5.685   6.931
 3378SOL    HW111033   0.756   5.636   7.017
 3378SOL    HW211034   0.659   5.670   6.890
 3379SOL     OW11035   6.169   4.698   3.796
 3379SOL    HW111036   6.265   4.682   3.773
 3379SOL    HW211037   6.161   4.782   3.851
 3380SOL     OW11038   1.039   4.730   1.831
 3380SOL    HW111039   0.962   4.772   1.878
 3380SOL    HW211040   1.055   4.776   1.744
 3381SOL     OW11041   3.093   4.635   0.199
 3381SOL    HW111042   3.172   4.587   0.237
 3381SOL    HW211043   3.046   4.685   0.271
 3382SOL     OW11044   0.492   3.210   0.096
 3382SOL    HW111045   0.572   3.183   0.149
 3382SOL    HW211046   0.456   3.296   0.132
 3383SOL     OW11047   3.438   5.758   6.925
 3383SOL    HW111048   3.511   5.761   6.857
 3383SOL    HW211049   3.473   5.718   7.010
 3384SOL     OW11050   3.208   2.856   6.893
 3384SOL    HW111051   3.163   2.827   6.808
 3384SOL    HW211052   3.140   2.890   6.958
 3385SOL     OW11053   6.284   2.032   4.483
 3385SOL    HW111054   6.373   1.986   4.487
 3385SOL    HW211055   6.245   2.037   4.575
 3386SOL     OW11056   6.802   4.450   5.236
 3386SOL    HW111057   6.818   4.438   5.138
 3386SOL    HW211058   6.778   4.362   5.277
 3387SOL     OW11059   5.825   1.077   2.576
 3387SOL    HW111060   5.793   1.108   2.666
 3387SOL    HW211061   5.750   1.084   2.510
 3388SOL     OW11062   1.338   3.876   1.080
 3388SOL    HW111063   1.311   3.820   1.001
 3388SOL    HW211064   1.412   3.830   1.129
 3389SOL     OW11065   6.057   5.185   6.555
 3389SOL    HW111066   6.152   5.187   6.522
 3389SOL    HW211067   6.043   5.102   6.609
 3390SOL     OW11068   3.144   4.455   0.895
 3390SOL    HW111069   3.073   4.491   0.957
 3390SOL    HW211070   3.116   4.365   0.862
 3391SOL     OW11071   6.020   4.162   5.441
 3391SOL    HW111072   5.949   4.210   5.389
 3391SOL    HW211073   6.012   4.187   5.538
 3392SOL     OW11074   5.053   5.481   5.945
 3392SOL    HW111075   5.082   5.390   5.918
 3392SOL    HW211076   5.104   5.509   6.027
 3393SOL     OW11077   3.560   1.017   0.634
 3393SOL    HW111078   3.514   0.940   0.589
 3393SOL    HW211079   3.547   1.100   0.580
 3394SOL     OW11080   3.381   5.531   2.008
 3394SOL    HW111081   3.421   5.554   2.097
 3394SOL    HW211082   3.323   5.450   2.017
 3395SOL     OW11083   1.888   6.275   3.155
 3395SOL    HW111084   1.975   6.284   3.106
 3395SOL    HW211085   1.826   6.217   3.102
 3396SOL     OW11086   3.989   6.975   4.160
 3396SOL    HW111087   3.918   6.907   4.179
 3396SOL    HW211088   3.955   0.015   4.093
 3397SOL     OW11089   3.294   5.915   2.236
 3397SOL    HW111090   3.362   5.905   2.309
 3397SOL    HW211091   3.202   5.907   2.275
 3398SOL     OW11092   6.198   0.101   1.070
 3398SOL    HW111093   6.260   0.168   1.112
 3398SOL    HW211094   6.250   0.041   1.010
 3399SOL     OW11095   5.962   6.728   2.567
 3399SOL    HW111096   5.986   6.771   2.654
 3399SOL    HW211097   5.894   6.656   2.583
 3400SOL     OW11098   3.161   3.364   5.791
 3400SOL    HW111099   3.127   3.307   5.865
 3400SOL    HW211100   3.189   3.307   5.714
 3401SOL     OW11101   6.299   3.892   3.750
 3401SOL    HW111102   6.224   3.897   3.815
 3401SOL    HW211103   6.267   3.848   3.666
 3402SOL     OW11104   6.944   4.054   0.211
 3402SOL    HW111105   6.877   4.000   0.159
 3402SOL    HW211106   6.965   4.008   0.297
 3403SOL     OW11107   5.430   6.701   4.133
 3403SOL    HW111108   5.419   6.692   4.034
 3403SOL    HW211109   5.524   6.729   4.153
 3404SOL     OW11110   5.121   5.040   3.057
 3404SOL    HW111111   5.207   5.020   3.009
 3404SOL    HW211112   5.137   5.037   3.156
 3405SOL     OW11113   4.385   0.322   0.068
 3405SOL    HW111114   4.477   0.360   0.072
 3405SOL    HW211115   4.318   0.395   0.080
 3406SOL     OW11116   4.948   4.569   0.930
 3406SOL    HW111117   4.851   4.560   0.908
 3406SOL    HW211118   4.986   4.649   0.883
 3407SOL     OW11119   2.164   1.807   0.816
 3407SOL    HW111120   2.238   1.874   0.811
 3407SOL    HW211121   2.201   1.716   0.797
 3408SOL     OW11122   3.229   6.732   4.783
 3408SOL    HW111123   3.154   6.788   4.819
 3408SOL    HW211124   3.205   6.635   4.793
 3409SOL     OW11125   4.932   2.138   0.039
 3409SOL    HW111126   4.985   2.128   0.123
 3409SOL    HW211127   4.836   2.114   0.057
 3410SOL     OW11128   6.330   1.818   2.437
 3410SOL    HW111129   6.342   1.720   2.448
 3410SOL    HW211130   6.392   1.851   2.366
 3411SOL     OW11131   5.137   3.391   6.559
 3411SOL    HW111132   5.069   3.394   6.633
 3411SOL    HW211133   5.164   3.484   6.535
 3412SOL     OW11134   4.928   3.641   2.714
 3412SOL    HW111135   4.929   3.560   2.655
 3412SOL    HW211136   4.969   3.719   2.665
 3413SOL     OW11137   1.523   2.299   0.275
 3413SOL    HW111138   1.592   2.370   0.288
 3413SOL    HW211139   1.471   2.318   0.192
 3414SOL     OW11140   3.369   3.401   1.749
 3414SOL    HW111141   3.338   3.462   1.676
 3414SOL    HW211142   3.316   3.316   1.747
 3415SOL     OW11143   2.927   1.120   0.024
 3415SOL    HW111144   3.010   1.111   0.077
 3415SOL    HW211145   2.949   1.114   6.952
 3416SOL     OW11146   5.294   5.667   6.731
 3416SOL    HW111147   5.224   5.597   6.746
 3416SOL    HW211148   5.253   5.758   6.736
 3417SOL     OW11149   5.666   0.598   2.607
 3417SOL    HW111150   5.711   0.529   2.664
 3417SOL    HW211151   5.730   0.628   2.536
 3418SOL     OW11152   4.689   5.988   1.351
 3418SOL    HW111153   4.591   5.969   1.344
 3418SOL    HW211154   4.719   6.039   1.270
 3419SOL     OW11155   2.831   4.713   5.405
 3419SOL    HW111156   2.824   4.637   5.339
 3419SOL    HW211157   2.841   4.675   5.497
 3420SOL     OW11158   5.025   0.039   2.365
 3420SOL    HW111159   5.053   0.075   2.276
 3420SOL    HW211160   5.043   6.966   2.368
 3421SOL     OW11161   0.884   1.405   4.805
 3421SOL    HW111162   0.935   1.322   4.827
 3421SOL    HW211163   0.815   1.421   4.875
 3422SOL     OW11164   2.987   5.100   2.048
 3422SOL    HW111165   2.996   5.003   2.025
 3422SOL    HW211166   3.000   5.112   2.146
 3423SOL     OW11167   1.675   5.795   6.043
 3423SOL    HW111168   1.714   5.762   5.957
 3423SOL    HW211169   1.705   5.736   6.118
 3424SOL     OW11170   5.992   5.435   2.761
 3424SOL    HW111171   5.935   5.510   2.796
 3424SOL    HW211172   6.028   5.383   2.838
 3425SOL     OW11173   6.037   3.352   6.461
 3425SOL    HW111174   6.017   3.276   6.399
 3425SOL    HW211175   6.135   3.369   6.462
 3426SOL     OW11176   6.436   5.168   6.183
 3426SOL    HW111177   6.454   5.094   6.119
 3426SOL    HW211178   6.444   5.256   6.135
 3427SOL     OW11179   1.915   0.870   6.408
 3427SOL    HW111180   1.836   0.813   6.430
 3427SOL    HW211181   1.923   0.942   6.476
 3428SOL     OW11182   3.921   0.863   4.040
 3428SOL    HW111183   3.861   0.942   4.034
 3428SOL    HW211184   3.915   0.822   4.131
 3429SOL     OW11185   5.851   5.581   0.391
 3429SOL    HW111186   5.940   5.577   0.437
 3429SOL    HW211187   5.801   5.496   0.410
 3430SOL     OW11188   2.684   4.539   6.825
 3430SOL    HW111189   2.595   4.558   6.866
 3430SOL    HW211190   2.756   4.572   6.886
 3431SOL     OW11191   1.600   3.625   1.666
 3431SOL    HW111192   1.624   3.530   1.645
 3431SOL    HW211193   1.682   3.676   1.690
 3432SOL     OW11194   6.902   5.574   6.923
 3432SOL    HW111195   6.873   5.497   6.980
 3432SOL    HW211196   6.982   5.547   6.870
 3433SOL     OW11197   0.443   1.126   0.174
 3433SOL    HW111198   0.497   1.175   0.242
 3433SOL    HW211199   0.463   1.163   0.083
 3434SOL     OW11200   4.276   3.179   1.508
 3434SOL    HW111201   4.208   3.156   1.438
 3434SOL    HW211202   4.243   3.151   1.598
 3435SOL     OW11203   3.476   2.721   1.282
 3435SOL    HW111204   3.453   2.818   1.285
 3435SOL    HW211205   3.515   2.693   1.370
 3436SOL     OW11206   4.953   5.636   4.836
 3436SOL    HW111207   4.895   5.718   4.843
 3436SOL    HW211208   4.932   5.588   4.752
 3437SOL     OW11209   3.014   5.541   0.155
 3437SOL    HW111210   2.990   5.490   0.072
 3437SOL    HW211211   2.935   5.593   0.187
 3438SOL     OW11212   2.467   4.084   0.917
 3438SOL    HW111213   2.423   4.051   1.001
 3438SOL    HW211214   2.399   4.130   0.860
 3439SOL     OW11215   3.214   5.780   0.918
 3439SOL    HW111216   3.220   5.680   0.919
 3439SOL    HW211217   3.119   5.807   0.933
 3440SOL     OW11218   4.218   4.705   5.462
 3440SOL    HW111219   4.268   4.792   5.463
 3440SOL    HW211220   4.201   4.675   5.556
 3441SOL     OW11221   0.633   5.634   5.949
 3441SOL    HW111222   0.555   5.585   5.987
 3441SOL    HW211223   0.658   5.594   5.861
 3442SOL     OW11224   1.814   1.981   7.021
 3442SOL    HW111225   1.886   1.995   0.063
 3442SOL    HW211226   1.835   1.900   6.967
 3443SOL     OW11227   6.804   6.314   2.121
 3443SOL    HW111228   6.773   6.354   2.208
 3443SOL    HW211229   6.756   6.227   2.106
 3444SOL     OW11230   1.616   3.969   5.908
 3444SOL    HW111231   1.692   3.998   5.850
 3444SOL    HW211232   1.604   3.870   5.901
 3445SOL     OW11233   5.890   4.475   3.940
 3445SOL    HW111234   5.933   4.459   3.851
 3445SOL    HW211235   5.895   4.572   3.963
 3446SOL     OW11236   5.656   1.256   6.552
 3446SOL    HW111237   5.700   1.344   6.571
 3446SOL    HW211238   5.713   1.182   6.589
 3447SOL     OW11239   5.608   1.790   6.044
 3447SOL    HW111240   5.536   1.720   6.047
 3447SOL    HW211241   5.692   1.749   6.007
 3448SOL     OW11242   0.691   5.762   5.030
 3448SOL    HW111243   0.605   5.805   5.055
 3448SOL    HW211244   0.672   5.683   4.971
 3449SOL     OW11245   1.041   4.095   4.609
 3449SOL    HW111246   1.131   4.128   4.578
 3449SOL    HW211247   0.969   4.145   4.561
 3450SOL     OW11248   2.048   6.747   3.479
 3450SOL    HW111249   2.130   6.706   3.519
 3450SOL    HW211250   2.065   6.771   3.384
 3451SOL     OW11251   2.683   1.574   1.132
 3451SOL    HW111252   2.737   1.619   1.060
 3451SOL    HW211253   2.612   1.636   1.164
 3452SOL     OW11254   4.386   1.096   5.165
 3452SOL    HW111255   4.345   1.019   5.116
 3452SOL    HW211256   4.484   1.102   5.142
 3453SOL     OW11257   4.810   6.401   6.097
 3453SOL    HW111258   4.742   6.330   6.081
 3453SOL    HW211259   4.884   6.392   6.030
 3454SOL     OW11260   1.620   3.332   3.869
 3454SOL    HW111261   1.670   3.326   3.783
 3454SOL    HW211262   1.653   3.263   3.933
 3455SOL     OW11263   2.025   3.774   6.080
 3455SOL    HW111264   1.953   3.844   6.078
 3455SOL    HW211265   2.075   3.781   6.166
 3456SOL     OW11266   4.852   4.956   2.697
 3456SOL    HW111267   4.889   5.040   2.735
 3456SOL    HW211268   4.876   4.879   2.756
 3457SOL     OW11269   4.489   4.177   0.377
 3457SOL    HW111270   4.589   4.186   0.379
 3457SOL    HW211271   4.450   4.252   0.323
 3458SOL     OW11272   4.524   1.653   0.704
 3458SOL    HW111273   4.615   1.674   0.738
 3458SOL    HW211274   4.459   1.721   0.739
 3459SOL     OW11275   6.282   0.841   2.526
 3459SOL    HW111276   6.316   0.898   2.600
 3459SOL    HW211277   6.263   0.898   2.446
 3460SOL     OW11278   5.341   1.870   5.236
 3460SOL    HW111279   5.327   1.925   5.153
 3460SOL    HW211280   5.268   1.889   5.302
 3461SOL     OW11281   5.059   4.443   5.207
 3461SOL    HW111282   5.108   4.529   5.222
 3461SOL    HW211283   4.982   4.437   5.270
 3462SOL     OW11284   1.351   3.893   6.948
 3462SOL    HW111285   1.399   3.834   6.882
 3462SOL    HW211286   1.258   3.859   6.961
 3463SOL     OW11287   6.260   3.683   0.117
 3463SOL    HW111288   6.271   3.724   0.027
 3463SOL    HW211289   6.175   3.630   0.120
 3464SOL     OW11290   0.736   5.153   4.830
 3464SOL    HW111291   0.692   5.068   4.799
 3464SOL    HW211292   0.833   5.151   4.805
 3465SOL     OW11293   1.281   2.298   0.786
 3465SOL    HW111294   1.379   2.317   0.779
 3465SOL    HW211295   1.242   2.353   0.860
 3466SOL     OW11296   4.880   4.173   3.180
 3466SOL    HW111297   4.931   4.098   3.223
 3466SOL    HW211298   4.941   4.252   3.168
 3467SOL     OW11299   1.829   1.298   6.243
 3467SOL    HW111300   1.839   1.290   6.342
 3467SOL    HW211301   1.833   1.395   6.217
 3468SOL     OW11302   5.844   5.212   2.129
 3468SOL    HW111303   5.900   5.265   2.193
 3468SOL    HW211304   5.773   5.163   2.179
 3469SOL     OW11305   5.784   3.235   0.665
 3469SOL    HW111306   5.708   3.189   0.619
 3469SOL    HW211307   5.753   3.322   0.703
 3470SOL     OW11308   5.990   5.894   6.328
 3470SOL    HW111309   5.949   5.864   6.414
 3470SOL    HW211310   5.943   5.977   6.296
 3471SOL     OW11311   3.878   6.794   4.583
 3471SOL    HW111312   3.798   6.740   4.555
 3471SOL    HW211313   3.849   6.886   4.607
 3472SOL     OW11314   3.633   0.780   3.914
 3472SOL    HW111315   3.660   0.712   3.982
 3472SOL    HW211316   3.678   0.760   3.827
 3473SOL     OW11317   4.660   0.021   3.480
 3473SOL    HW111318   4.624   7.020   3.569
 3473SOL    HW211319   4.606   7.004   3.408
 3474SOL     OW11320   6.300   4.937   1.066
 3474SOL    HW111321   6.272   5.016   1.121
 3474SOL    HW211322   6.387   4.902   1.101
 3475SOL     OW11323   2.243   5.712   5.226
 3475SOL    HW111324   2.206   5.804   5.214
 3475SOL    HW211325   2.178   5.645   5.191
 3476SOL     OW11326   2.247   1.942   2.777
 3476SOL    HW111327   2.218   2.026   2.824
 3476SOL    HW211328   2.189   1.866   2.806
 3477SOL     OW11329   4.681   5.678   2.400
 3477SOL    HW111330   4.603   5.635   2.447
 3477SOL    HW211331   4.739   5.606   2.361
 3478SOL     OW11332   3.837   5.272   0.271
 3478SOL    HW111333   3.848   5.177   0.242
 3478SOL    HW211334   3.927   5.316   0.275
 3479SOL     OW11335   1.966   1.384   0.486
 3479SOL    HW111336   1.981   1.286   0.469
 3479SOL    HW211337   2.034   1.416   0.552
 3480SOL     OW11338   2.028   0.144   4.930
 3480SOL    HW111339   2.007   0.195   5.013
 3480SOL    HW211340   1.948   0.146   4.869
 3481SOL     OW11341   1.713   4.295   0.259
 3481SOL    HW111342   1.680   4.386   0.236
 3481SOL    HW211343   1.642   4.246   0.310
 3482SOL     OW11344   0.164   2.301   1.146
 3482SOL    HW111345   0.078   2.347   1.124
 3482SOL    HW211346   0.239   2.368   1.147
 3483SOL     OW11347   4.214   1.399   1.539
 3483SOL    HW111348   4.194   1.447   1.454
 3483SOL    HW211349   4.133   1.347   1.568
 3484SOL     OW11350   3.693   4.134   4.030
 3484SOL    HW111351   3.594   4.144   4.026
 3484SOL    HW211352   3.720   4.096   4.118
 3485SOL     OW11353   6.264   3.127   3.897
 3485SOL    HW111354   6.249   3.160   3.990
 3485SOL    HW211355   6.304   3.035   3.900
 3486SOL     OW11356   6.240   1.818   2.706
 3486SOL    HW111357   6.183   1.736   2.697
 3486SOL    HW211358   6.292   1.831   2.621
 3487SOL     OW11359   1.794   6.238   1.581
 3487SOL    HW111360   1.782   6.333   1.553
 3487SOL    HW211361   1.706   6.191   1.579
 3488SOL     OW11362   6.957   2.751   4.722
 3488SOL    HW111363   0.018   2.715   4.690
 3488SOL    HW211364   6.922   2.817   4.656
 3489SOL     OW11365   2.136   5.509   6.776
 3489SOL    HW111366   2.103   5.601   6.759
 3489SOL    HW211367   2.104   5.477   6.866
 3490SOL     OW11368   5.605   3.213   0.225
 3490SOL    HW111369   5.543   3.136   0.209
 3490SOL    HW211370   5.607   3.271   0.143
 3491SOL     OW11371   6.463   2.614   5.142
 3491SOL    HW111372   6.406   2.538   5.175
 3491SOL    HW211373   6.417   2.701   5.162
 3492SOL     OW11374   0.987   4.198   6.334
 3492SOL    HW111375   0.996   4.291   6.367
 3492SOL    HW211376   0.967   4.137   6.410
 3493SOL     OW11377   0.409   4.850   1.060
 3493SOL    HW111378   0.346   4.897   0.999
 3493SOL    HW211379   0.383   4.867   1.155
 3494SOL     OW11380   3.148   6.868   1.146
 3494SOL    HW111381   3.088   6.947   1.132
 3494SOL    HW211382   3.237   6.887   1.106
 3495SOL     OW11383   5.304   4.104   5.994
 3495SOL    HW111384   5.329   4.194   5.961
 3495SOL    HW211385   5.375   4.069   6.055
 3496SOL     OW11386   0.917   6.486   1.300
 3496SOL    HW111387   0.904   6.578   1.263
 3496SOL    HW211388   0.943   6.493   1.397
 3497SOL     OW11389   3.089   0.312   4.858
 3497SOL    HW111390   3.117   0.229   4.811
 3497SOL    HW211391   3.133   0.391   4.816
 3498SOL     OW11392   1.789   1.689   0.730
 3498SOL    HW111393   1.746   1.779   0.731
 3498SOL    HW211394   1.757   1.637   0.651
 3499SOL     OW11395   0.203   4.369   2.931
 3499SOL    HW111396   0.217   4.446   2.869
 3499SOL    HW211397   0.271   4.371   3.004
 3500SOL     OW11398   6.609   2.575   0.404
 3500SOL    HW111399   6.704   2.559   0.376
 3500SOL    HW211400   6.558   2.612   0.327
 3501SOL     OW11401   6.883   4.959   3.286
 3501SOL    HW111402   6.935   5.041   3.308
 3501SOL    HW211403   6.789   4.969   3.319
 3502SOL     OW11404   1.221   6.475   1.293
 3502SOL    HW111405   1.160   6.493   1.370
 3502SOL    HW211406   1.314   6.461   1.326
 3503SOL     OW11407   3.045   0.864   3.142
 3503SOL    HW111408   2.953   0.826   3.140
 3503SOL    HW211409   3.061   0.908   3.230
 3504SOL     OW11410   1.796   2.164   2.151
 3504SOL    HW111411   1.762   2.253   2.180
 3504SOL    HW211412   1.854   2.125   2.222
 3505SOL     OW11413   4.140   0.345   4.024
 3505SOL    HW111414   4.049   0.307   4.011
 3505SOL    HW211415   4.208   0.271   4.020
 3506SOL     OW11416   6.123   3.103   3.210
 3506SOL    HW111417   6.210   3.120   3.256
 3506SOL    HW211418   6.135   3.032   3.140
 3507SOL     OW11419   6.949   6.553   5.263
 3507SOL    HW111420   6.976   6.493   5.339
 3507SOL    HW211421   7.021   6.621   5.248
 3508SOL     OW11422   0.375   4.564   0.043
 3508SOL    HW111423   0.322   4.647   0.029
 3508SOL    HW211424   0.466   4.588   0.075
 3509SOL     OW11425   3.452   6.860   0.186
 3509SOL    HW111426   3.393   6.822   0.115
 3509SOL    HW211427   3.534   6.899   0.144
 3510SOL     OW11428   2.435   1.657   2.922
 3510SOL    HW111429   2.406   1.677   2.828
 3510SOL    HW211430   2.518   1.708   2.942
 3511SOL     OW11431   0.238   1.309   3.815
 3511SOL    HW111432   0.266   1.223   3.772
 3511SOL    HW211433   0.284   1.385   3.769
 3512SOL     OW11434   3.222   2.848   2.045
 3512SOL    HW111435   3.174   2.770   2.084
 3512SOL    HW211436   3.173   2.880   1.964
 3513SOL     OW11437   6.624   4.689   0.219
 3513SOL    HW111438   6.688   4.654   0.150
 3513SOL    HW211439   6.588   4.777   0.189
 3514SOL     OW11440   3.266   5.706   3.651
 3514SOL    HW111441   3.329   5.685   3.726
 3514SOL    HW211442   3.305   5.778   3.594
 3515SOL     OW11443   3.529   5.498   4.170
 3515SOL    HW111444   3.573   5.472   4.256
 3515SOL    HW211445   3.535   5.423   4.105
 3516SOL     OW11446   1.987   1.566   0.274
 3516SOL    HW111447   1.984   1.513   0.189
 3516SOL    HW211448   1.964   1.508   0.351
 3517SOL     OW11449   0.758   1.241   6.262
 3517SOL    HW111450   0.778   1.175   6.334
 3517SOL    HW211451   0.665   1.226   6.227
 3518SOL     OW11452   4.289   3.642   5.945
 3518SOL    HW111453   4.284   3.700   5.863
 3518SOL    HW211454   4.236   3.559   5.931
 3519SOL     OW11455   4.394   0.390   6.381
 3519SOL    HW111456   4.372   0.360   6.288
 3519SOL    HW211457   4.346   0.333   6.447
 3520SOL     OW11458   4.474   4.917   1.310
 3520SOL    HW111459   4.569   4.889   1.320
 3520SOL    HW211460   4.418   4.869   1.378
 3521SOL     OW11461   0.137   1.585   5.756
 3521SOL    HW111462   0.184   1.601   5.842
 3521SOL    HW211463   0.039   1.573   5.773
 3522SOL     OW11464   2.450   0.443   0.799
 3522SOL    HW111465   2.387   0.376   0.761
 3522SOL    HW211466   2.436   0.531   0.754
 3523SOL     OW11467   2.099   4.552   4.295
 3523SOL    HW111468   2.059   4.517   4.380
 3523SOL    HW211469   2.133   4.645   4.308
 3524SOL     OW11470   2.734   1.525   3.146
 3524SOL    HW111471   2.642   1.495   3.123
 3524SOL    HW211472   2.794   1.516   3.066
 3525SOL     OW11473   1.809   3.284   3.664
 3525SOL    HW111474   1.774   3.209   3.607
 3525SOL    HW211475   1.870   3.246   3.734
 3526SOL     OW11476   3.541   5.987   4.107
 3526SOL    HW111477   3.610   5.938   4.053
 3526SOL    HW211478   3.468   5.924   4.133
 3527SOL     OW11479   6.815   4.227   6.541
 3527SOL    HW111480   6.837   4.291   6.615
 3527SOL    HW211481   6.896   4.172   6.520
 3528SOL     OW11482   1.039   6.371   3.522
 3528SOL    HW111483   1.130   6.337   3.543
 3528SOL    HW211484   0.998   6.315   3.450
 3529SOL     OW11485   3.574   0.126   0.083
 3529SOL    HW111486   3.599   0.222   0.070
 3529SOL    HW211487   3.477   0.113   0.064
 3530SOL     OW11488   2.319   5.800   2.219
 3530SOL    HW111489   2.372   5.869   2.169
 3530SOL    HW211490   2.240   5.773   2.164
 3531SOL     OW11491   5.277   4.339   6.888
 3531SOL    HW111492   5.194   4.343   6.831
 3531SOL    HW211493   5.357   4.333   6.828
 3532SOL     OW11494   2.426   0.424   6.295
 3532SOL    HW111495   2.517   0.433   6.254
 3532SOL    HW211496   2.401   0.327   6.298
 3533SOL     OW11497   1.378   0.967   2.710
 3533SOL    HW111498   1.465   1.016   2.713
 3533SOL    HW211499   1.304   1.032   2.689
 3534SOL     OW11500   4.675   6.822   4.695
 3534SOL    HW111501   4.628   6.737   4.719
 3534SOL    HW211502   4.695   6.874   4.778
 3535SOL     OW11503   3.814   4.539   7.019
 3535SOL    HW111504   3.807   4.445   0.024
 3535SOL    HW211505   3.778   4.600   0.064
 3536SOL     OW11506   2.008   3.061   2.538
 3536SOL    HW111507   2.065   3.064   2.620
 3536SOL    HW211508   1.925   3.009   2.557
 3537SOL     OW11509   3.184   5.082   1.387
 3537SOL    HW111510   3.201   5.151   1.458
 3537SOL    HW211511   3.127   5.009   1.425
 3538SOL     OW11512   2.812   0.308   4.201
 3538SOL    HW111513   2.737   0.367   4.233
 3538SOL    HW211514   2.814   0.308   4.101
 3539SOL     OW11515   5.451   4.922   6.341
 3539SOL    HW111516   5.462   4.869   6.257
 3539SOL    HW211517   5.355   4.922   6.368
 3540SOL     OW11518   5.354   3.787   6.639
 3540SOL    HW111519   5.305   3.726   6.703
 3540SOL    HW211520   5.350   3.881   6.674
 3541SOL     OW11521   0.470   3.145   2.765
 3541SOL    HW111522   0.402   3.218   2.756
 3541SOL    HW211523   0.538   3.171   2.833
 3542SOL     OW11524   5.975   0.649   6.701
 3542SOL    HW111525   5.993   0.702   6.619
 3542SOL    HW211526   5.946   0.556   6.676
 3543SOL     OW11527   0.657   3.090   4.989
 3543SOL    HW111528   0.710   3.120   5.069
 3543SOL    HW211529   0.570   3.052   5.020
 3544SOL     OW11530   4.304   4.765   5.937
 3544SOL    HW111531   4.217   4.716   5.928
 3544SOL    HW211532   4.372   4.723   5.877
 3545SOL     OW11533   2.388   6.939   1.869
 3545SOL    HW111534   2.304   6.985   1.898
 3545SOL    HW211535   2.366   6.872   1.798
 3546SOL     OW11536   6.542   3.733   1.283
 3546SOL    HW111537   6.523   3.786   1.366
 3546SOL    HW211538   6.477   3.759   1.211
 3547SOL     OW11539   1.833   4.478   4.182
 3547SOL    HW111540   1.763   4.549   4.190
 3547SOL    HW211541   1.917   4.509   4.229
 3548SOL     OW11542   6.034   6.821   5.490
 3548SOL    HW111543   6.127   6.838   5.522
 3548SOL    HW211544   5.988   6.757   5.552
 3549SOL     OW11545   0.867   0.205   6.996
 3549SOL    HW111546   0.943   0.264   6.969
 3549SOL    HW211547   0.902   0.114   7.020
 3550SOL     OW11548   6.710   2.563   4.681
 3550SOL    HW111549   6.704   2.513   4.595
 3550SOL    HW211550   6.680   2.657   4.667
 3551SOL     OW11551   6.421   2.023   5.443
 3551SOL    HW111552   6.413   2.024   5.343
 3551SOL    HW211553   6.449   1.932   5.473
 3552SOL     OW11554   6.234   0.888   4.013
 3552SOL    HW111555   6.168   0.911   3.942
 3552SOL    HW211556   6.300   0.963   4.023
 3553SOL     OW11557   5.515   5.519   6.634
 3553SOL    HW111558   5.599   5.554   6.676
 3553SOL    HW211559   5.441   5.585   6.648
 3554SOL     OW11560   5.965   3.526   0.085
 3554SOL    HW111561   5.866   3.535   0.080
 3554SOL    HW211562   6.001   3.500   7.021
 3555SOL     OW11563   2.572   0.876   4.790
 3555SOL    HW111564   2.666   0.868   4.754
 3555SOL    HW211565   2.508   0.887   4.714
 3556SOL     OW11566   5.314   1.611   0.351
 3556SOL    HW111567   5.362   1.598   0.264
 3556SOL    HW211568   5.228   1.561   0.350
 3557SOL     OW11569   5.230   0.686   0.859
 3557SOL    HW111570   5.249   0.749   0.933
 3557SOL    HW211571   5.138   0.647   0.871
 3558SOL     OW11572   4.363   5.854   3.600
 3558SOL    HW111573   4.306   5.890   3.527
 3558SOL    HW211574   4.378   5.756   3.585
 3559SOL     OW11575   4.323   6.327   7.018
 3559SOL    HW111576   4.414   6.366   7.002
 3559SOL    HW211577   4.270   6.330   6.933
 3560SOL     OW11578   2.005   5.721   4.201
 3560SOL    HW111579   1.979   5.628   4.178
 3560SOL    HW211580   1.925   5.770   4.238
 3561SOL     OW11581   4.744   3.167   6.659
 3561SOL    HW111582   4.696   3.235   6.715
 3561SOL    HW211583   4.816   3.124   6.713
 3562SOL     OW11584   2.930   1.076   0.556
 3562SOL    HW111585   2.916   1.162   0.507
 3562SOL    HW211586   3.026   1.071   0.586
 3563SOL     OW11587   5.884   2.263   6.217
 3563SOL    HW111588   5.798   2.223   6.248
 3563SOL    HW211589   5.891   2.255   6.117
 3564SOL     OW11590   5.833   2.886   3.101
 3564SOL    HW111591   5.932   2.883   3.113
 3564SOL    HW211592   5.795   2.964   3.150
 3565SOL     OW11593   4.987   6.312   5.125
 3565SOL    HW111594   4.978   6.219   5.088
 3565SOL    HW211595   4.942   6.377   5.064
 3566SOL     OW11596   0.719   0.827   4.524
 3566SOL    HW111597   0.784   0.903   4.528
 3566SOL    HW211598   0.634   0.857   4.482
 3567SOL     OW11599   1.967   4.270   6.931
 3567SOL    HW111600   1.977   4.361   6.972
 3567SOL    HW211601   2.057   4.234   6.909
 3568SOL     OW11602   1.831   3.532   5.403
 3568SOL    HW111603   1.905   3.592   5.434
 3568SOL    HW211604   1.868   3.443   5.377
 3569SOL     OW11605   0.620   0.375   3.481
 3569SOL    HW111606   0.653   0.288   3.517
 3569SOL    HW211607   0.529   0.394   3.519
 3570SOL     OW11608   0.023   1.724   4.765
 3570SOL    HW111609   0.077   1.801   4.731
 3570SOL    HW211610   0.028   1.720   4.865
 3571SOL     OW11611   0.256   5.658   5.198
 3571SOL    HW111612   0.335   5.651   5.259
 3571SOL    HW211613   0.172   5.663   5.252
 3572SOL     OW11614   5.079   6.918   5.229
 3572SOL    HW111615   5.048   6.988   5.293
 3572SOL    HW211616   5.026   6.834   5.243
 3573SOL     OW11617   0.631   2.692   1.889
 3573SOL    HW111618   0.546   2.664   1.934
 3573SOL    HW211619   0.625   2.789   1.864
 3574SOL     OW11620   1.262   3.713   0.564
 3574SOL    HW111621   1.289   3.688   0.657
 3574SOL    HW211622   1.165   3.694   0.550
 3575SOL     OW11623   6.990   0.490   2.491
 3575SOL    HW111624   0.035   0.539   2.440
 3575SOL    HW211625   6.900   0.524   2.464
 3576SOL     OW11626   0.756   1.002   0.911
 3576SOL    HW111627   0.797   0.912   0.898
 3576SOL    HW211628   0.817   1.072   0.873
 3577SOL     OW11629   2.223   4.479   0.941
 3577SOL    HW111630   2.161   4.503   1.016
 3577SOL    HW211631   2.238   4.559   0.883
 3578SOL     OW11632   3.734   4.950   1.650
 3578SOL    HW111633   3.650   4.896   1.641
 3578SOL    HW211634   3.779   4.958   1.561
 3579SOL     OW11635   2.429   2.664   6.833
 3579SOL    HW111636   2.333   2.693   6.830
 3579SOL    HW211637   2.467   2.664   6.741
 3580SOL     OW11638   5.552   1.025   2.448
 3580SOL    HW111639   5.503   1.006   2.362
 3580SOL    HW211640   5.525   0.959   2.517
 3581SOL     OW11641   6.969   1.743   2.664
 3581SOL    HW111642   7.023   1.792   2.596
 3581SOL    HW211643   7.008   1.652   2.678
 3582SOL     OW11644   0.582   0.626   5.911
 3582SOL    HW111645   0.599   0.629   5.812
 3582SOL    HW211646   0.517   0.552   5.931
 3583SOL     OW11647   1.069   6.858   2.919
 3583SOL    HW111648   1.083   6.945   2.966
 3583SOL    HW211649   1.040   6.875   2.825
 3584SOL     OW11650   5.696   0.145   4.770
 3584SOL    HW111651   5.640   0.072   4.732
 3584SOL    HW211652   5.685   0.228   4.714
 3585SOL     OW11653   2.098   5.214   2.127
 3585SOL    HW111654   2.030   5.205   2.199
 3585SOL    HW211655   2.146   5.301   2.137
 3586SOL     OW11656   1.412   1.373   6.256
 3586SOL    HW111657   1.447   1.283   6.281
 3586SOL    HW211658   1.334   1.363   6.195
 3587SOL     OW11659   3.442   5.985   5.595
 3587SOL    HW111660   3.476   6.075   5.622
 3587SOL    HW211661   3.519   5.925   5.575
 3588SOL     OW11662   2.674   2.445   5.211
 3588SOL    HW111663   2.586   2.411   5.242
 3588SOL    HW211664   2.689   2.538   5.245
 3589SOL     OW11665   2.943   5.982   5.094
 3589SOL    HW111666   2.883   6.025   5.161
 3589SOL    HW211667   3.026   5.949   5.140
 3590SOL     OW11668   1.219   6.486   0.211
 3590SOL    HW111669   1.304   6.537   0.200
 3590SOL    HW211670   1.230   6.395   0.171
 3591SOL     OW11671   4.698   2.042   4.520
 3591SOL    HW111672   4.796   2.053   4.536
 3591SOL    HW211673   4.671   2.096   4.440
 3592SOL     OW11674   5.779   1.072   1.887
 3592SOL    HW111675   5.727   1.142   1.838
 3592SOL    HW211676   5.717   0.998   1.914
 3593SOL     OW11677   1.246   5.236   4.818
 3593SOL    HW111678   1.290   5.148   4.836
 3593SOL    HW211679   1.274   5.270   4.728
 3594SOL     OW11680   4.545   1.843   4.286
 3594SOL    HW111681   4.640   1.843   4.255
 3594SOL    HW211682   4.540   1.818   4.383
 3595SOL     OW11683   1.583   6.682   6.331
 3595SOL    HW111684   1.606   6.769   6.288
 3595SOL    HW211685   1.534   6.624   6.266
 3596SOL     OW11686   6.426   3.350   2.844
 3596SOL    HW111687   6.510   3.335   2.791
 3596SOL    HW211688   6.359   3.398   2.788
 3597SOL     OW11689   4.492   0.469   3.484
 3597SOL    HW111690   4.453   0.557   3.512
 3597SOL    HW211691   4.443   0.435   3.404
 3598SOL     OW11692   2.283   7.007   0.345
 3598SOL    HW111693   2.371   0.014   0.310
 3598SOL    HW211694   2.288   6.908   0.360
 3599SOL     OW11695   0.327   2.270   4.507
 3599SOL    HW111696   0.358   2.229   4.593
 3599SOL    HW211697   0.229   2.287   4.512
 3600SOL     OW11698   6.258   6.092   0.908
 3600SOL    HW111699   6.173   6.144   0.898
 3600SOL    HW211700   6.325   6.125   0.842
 3601SOL     OW11701   0.125   4.000   5.835
 3601SOL    HW111702   0.099   4.096   5.829
 3601SOL    HW211703   0.219   3.992   5.867
 3602SOL     OW11704   3.877   2.020   0.978
 3602SOL    HW111705   3.916   2.080   1.049
 3602SOL    HW211706   3.786   1.991   1.007
 3603SOL     OW11707   3.220   5.573   5.048
 3603SOL    HW111708   3.155   5.604   5.118
 3603SOL    HW211709   3.298   5.529   5.093
 3604SOL     OW11710   5.522   4.377   3.299
 3604SOL    HW111711   5.487   4.456   3.248
 3604SOL    HW211712   5.496   4.386   3.395
 3605SOL     OW11713   5.802   1.053   6.346
 3605SOL    HW111714   5.729   1.122   6.350
 3605SOL    HW211715   5.764   0.963   6.368
 3606SOL     OW11716   1.812   4.560   2.234
 3606SOL    HW111717   1.869   4.513   2.168
 3606SOL    HW211718   1.869   4.598   2.307
 3607SOL     OW11719   4.253   6.290   5.063
 3607SOL    HW111720   4.278   6.384   5.043
 3607SOL    HW211721   4.161   6.288   5.104
 3608SOL     OW11722   6.971   3.259   2.576
 3608SOL    HW111723   0.043   3.280   2.584
 3608SOL    HW211724   6.918   3.330   2.622
 3609SOL     OW11725   0.839   1.117   4.233
 3609SOL    HW111726   0.872   1.033   4.191
 3609SOL    HW211727   0.774   1.162   4.171
 3610SOL     OW11728   1.533   4.914   5.391
 3610SOL    HW111729   1.572   4.869   5.311
 3610SOL    HW211730   1.433   4.908   5.387
 3611SOL     OW11731   4.367   4.864   6.937
 3611SOL    HW111732   4.388   4.960   6.957
 3611SOL    HW211733   4.370   4.850   6.838
 3612SOL     OW11734   2.857   5.894   1.341
 3612SOL    HW111735   2.771   5.872   1.387
 3612SOL    HW211736   2.890   5.814   1.292
 3613SOL     OW11737   5.347   4.077   6.727
 3613SOL    HW111738   5.357   4.168   6.688
 3613SOL    HW211739   5.432   4.050   6.773
 3614SOL     OW11740   3.987   3.189   4.963
 3614SOL    HW111741   4.075   3.219   4.926
 3614SOL    HW211742   3.978   3.090   4.951
 3615SOL     OW11743   5.774   6.487   6.584
 3615SOL    HW111744   5.750   6.581   6.605
 3615SOL    HW211745   5.846   6.456   6.647
 3616SOL     OW11746   6.954   1.419   4.312
 3616SOL    HW111747   6.906   1.388   4.230
 3616SOL    HW211748   6.925   1.512   4.334
 3617SOL     OW11749   0.273   0.946   1.707
 3617SOL    HW111750   0.234   1.002   1.634
 3617SOL    HW211751   0.239   0.852   1.700
 3618SOL     OW11752   3.835   5.616   6.445
 3618SOL    HW111753   3.845   5.711   6.475
 3618SOL    HW211754   3.873   5.555   6.515
 3619SOL     OW11755   5.011   3.279   3.771
 3619SOL    HW111756   5.111   3.269   3.775
 3619SOL    HW211757   4.975   3.220   3.699
 3620SOL     OW11758   5.978   2.022   5.461
 3620SOL    HW111759   6.037   2.102   5.451
 3620SOL    HW211760   6.028   1.950   5.509
 3621SOL     OW11761   2.740   2.598   6.758
 3621SOL    HW111762   2.754   2.682   6.810
 3621SOL    HW211763   2.708   2.620   6.666
 3622SOL     OW11764   1.518   3.681   1.186
 3622SOL    HW111765   1.584   3.738   1.235
 3622SOL    HW211766   1.508   3.593   1.234
 3623SOL     OW11767   5.953   5.115   4.424
 3623SOL    HW111768   5.956   5.127   4.523
 3623SOL    HW211769   5.858   5.107   4.394
 3624SOL     OW11770   2.086   6.913   1.541
 3624SOL    HW111771   2.070   7.005   1.577
 3624SOL    HW211772   2.088   6.847   1.616
 3625SOL     OW11773   1.419   2.817   4.910
 3625SOL    HW111774   1.438   2.893   4.972
 3625SOL    HW211775   1.391   2.854   4.821
 3626SOL     OW11776   2.005   3.036   5.291
 3626SOL    HW111777   1.991   2.945   5.251
 3626SOL    HW211778   2.051   3.095   5.224
 3627SOL     OW11779   3.922   3.040   3.920
 3627SOL    HW111780   3.857   2.967   3.939
 3627SOL    HW211781   3.909   3.072   3.826
 3628SOL     OW11782   2.779   5.223   3.866
 3628SOL    HW111783   2.698   5.233   3.923
 3628SOL    HW211784   2.836   5.305   3.874
 3629SOL     OW11785   6.185   4.012   4.951
 3629SOL    HW111786   6.232   3.998   4.863
 3629SOL    HW211787   6.243   3.978   5.025
 3630SOL     OW11788   6.273   2.356   4.366
 3630SOL    HW111789   6.273   2.455   4.350
 3630SOL    HW211790   6.295   2.338   4.462
 3631SOL     OW11791   2.424   1.237   4.455
 3631SOL    HW111792   2.352   1.268   4.394
 3631SOL    HW211793   2.398   1.257   4.550
 3632SOL     OW11794   4.960   6.540   6.753
 3632SOL    HW111795   5.021   6.606   6.709
 3632SOL    HW211796   4.962   6.554   6.852
 3633SOL     OW11797   0.911   2.918   5.709
 3633SOL    HW111798   0.981   2.941   5.777
 3633SOL    HW211799   0.851   2.997   5.696
 3634SOL     OW11800   2.225   4.499   6.678
 3634SOL    HW111801   2.312   4.452   6.662
 3634SOL    HW211802   2.161   4.477   6.604
 3635SOL     OW11803   1.579   1.888   4.422
 3635SOL    HW111804   1.511   1.935   4.366
 3635SOL    HW211805   1.659   1.865   4.367
 3636SOL     OW11806   0.824   6.588   1.667
 3636SOL    HW111807   0.814   6.565   1.764
 3636SOL    HW211808   0.896   6.532   1.627
 3637SOL     OW11809   5.402   1.706   2.364
 3637SOL    HW111810   5.424   1.803   2.376
 3637SOL    HW211811   5.392   1.663   2.453
 3638SOL     OW11812   6.909   5.147   3.050
 3638SOL    HW111813   6.903   5.189   3.141
 3638SOL    HW211814   6.817   5.128   3.017
 3639SOL     OW11815   2.603   5.631   0.001
 3639SOL    HW111816   2.692   5.607   6.988
 3639SOL    HW211817   2.557   5.548   0.031
 3640SOL     OW11818   2.546   0.125   3.598
 3640SOL    HW111819   2.515   0.103   3.690
 3640SOL    HW211820   2.646   0.127   3.595
 3641SOL     OW11821   2.324   0.184   5.263
 3641SOL    HW111822   2.422   0.169   5.249
 3641SOL    HW211823   2.295   0.265   5.212
 3642SOL     OW11824   5.892   0.817   2.736
 3642SOL    HW111825   5.852   0.900   2.696
 3642SOL    HW211826   5.949   0.772   2.667
 3643SOL     OW11827   3.655   6.803   3.479
 3643SOL    HW111828   3.720   6.839   3.544
 3643SOL    HW211829   3.623   6.876   3.418
 3644SOL     OW11830   5.915   0.509   1.048
 3644SOL    HW111831   5.871   0.420   1.061
 3644SOL    HW211832   5.845   0.581   1.051
 3645SOL     OW11833   4.440   5.584   3.851
 3645SOL    HW111834   4.385   5.589   3.768
 3645SOL    HW211835   4.508   5.511   3.841
 3646SOL     OW11836   0.382   5.883   5.039
 3646SOL    HW111837   0.334   5.822   5.102
 3646SOL    HW211838   0.436   5.949   5.091
 3647SOL     OW11839   3.943   2.641   0.807
 3647SOL    HW111840   3.890   2.557   0.790
 3647SOL    HW211841   3.911   2.684   0.892
 3648SOL     OW11842   2.438   6.218   4.043
 3648SOL    HW111843   2.495   6.268   3.978
 3648SOL    HW211844   2.425   6.124   4.011
 3649SOL     OW11845   3.807   3.024   2.839
 3649SOL    HW111846   3.806   2.993   2.744
 3649SOL    HW211847   3.726   3.080   2.856
 3650SOL     OW11848   5.512   5.865   2.138
 3650SOL    HW111849   5.556   5.922   2.069
 3650SOL    HW211850   5.489   5.776   2.099
 3651SOL     OW11851   1.887   5.686   1.785
 3651SOL    HW111852   1.912   5.783   1.793
 3651SOL    HW211853   1.789   5.678   1.767
 3652SOL     OW11854   3.974   0.090   3.351
 3652SOL    HW111855   3.972   0.081   3.251
 3652SOL    HW211856   4.062   0.127   3.379
 3653SOL     OW11857   0.235   3.568   3.210
 3653SOL    HW111858   0.152   3.623   3.222
 3653SOL    HW211859   0.212   3.471   3.212
 3654SOL     OW11860   2.012   0.120   1.675
 3654SOL    HW111861   2.071   0.201   1.673
 3654SOL    HW211862   1.916   0.149   1.673
 3655SOL     OW11863   6.561   1.250   3.860
 3655SOL    HW111864   6.558   1.173   3.923
 3655SOL    HW211865   6.472   1.296   3.859
 3656SOL     OW11866   1.462   1.595   2.676
 3656SOL    HW111867   1.516   1.643   2.608
 3656SOL    HW211868   1.424   1.662   2.741
 3657SOL     OW11869   5.914   5.060   1.100
 3657SOL    HW111870   5.992   5.056   1.039
 3657SOL    HW211871   5.867   5.147   1.090
 3658SOL     OW11872   2.866   4.057   5.329
 3658SOL    HW111873   2.952   4.056   5.379
 3658SOL    HW211874   2.827   4.149   5.331
 3659SOL     OW11875   1.385   3.298   0.512
 3659SOL    HW111876   1.307   3.307   0.574
 3659SOL    HW211877   1.358   3.244   0.432
 3660SOL     OW11878   5.238   3.747   0.712
 3660SOL    HW111879   5.239   3.685   0.790
 3660SOL    HW211880   5.152   3.734   0.661
 3661SOL     OW11881   5.027   0.795   2.495
 3661SOL    HW111882   5.080   0.817   2.413
 3661SOL    HW211883   4.956   0.864   2.508
 3662SOL     OW11884   1.783   6.223   4.123
 3662SOL    HW111885   1.828   6.141   4.086
 3662SOL    HW211886   1.758   6.208   4.218
 3663SOL     OW11887   2.650   2.541   5.822
 3663SOL    HW111888   2.570   2.526   5.880
 3663SOL    HW211889   2.650   2.635   5.788
 3664SOL     OW11890   3.906   0.059   1.761
 3664SOL    HW111891   3.963   7.003   1.761
 3664SOL    HW211892   3.951   0.131   1.814
 3665SOL     OW11893   2.343   1.714   5.328
 3665SOL    HW111894   2.319   1.652   5.253
 3665SOL    HW211895   2.273   1.784   5.338
 3666SOL     OW11896   0.894   4.691   3.194
 3666SOL    HW111897   0.826   4.619   3.209
 3666SOL    HW211898   0.985   4.654   3.212
 3667SOL     OW11899   0.309   0.943   6.970
 3667SOL    HW111900   0.232   0.931   6.907
 3667SOL    HW211901   0.358   1.027   6.947
 3668SOL     OW11902   1.956   0.256   0.971
 3668SOL    HW111903   1.917   0.214   0.889
 3668SOL    HW211904   2.027   0.321   0.945
 3669SOL     OW11905   5.365   1.496   4.456
 3669SOL    HW111906   5.427   1.553   4.403
 3669SOL    HW211907   5.286   1.471   4.401
 3670SOL     OW11908   3.433   4.794   6.210
 3670SOL    HW111909   3.409   4.891   6.213
 3670SOL    HW211910   3.363   4.744   6.160
 3671SOL     OW11911   1.370   1.413   2.898
 3671SOL    HW111912   1.394   1.465   2.816
 3671SOL    HW211913   1.337   1.477   2.968
 3672SOL     OW11914   5.852   5.995   0.115
 3672SOL    HW111915   5.761   6.014   0.077
 3672SOL    HW211916   5.842   5.934   0.194
 3673SOL     OW11917   3.647   0.054   5.838
 3673SOL    HW111918   3.671   0.060   5.741
 3673SOL    HW211919   3.730   0.057   5.893
 3674SOL     OW11920   1.370   6.443   0.568
 3674SOL    HW111921   1.401   6.374   0.503
 3674SOL    HW211922   1.450   6.486   0.611
 3675SOL     OW11923   1.832   1.791   4.021
 3675SOL    HW111924   1.912   1.845   4.049
 3675SOL    HW211925   1.790   1.834   3.941
 3676SOL     OW11926   0.706   4.426   2.397
 3676SOL    HW111927   0.725   4.504   2.338
 3676SOL    HW211928   0.776   4.418   2.467
 3677SOL     OW11929   6.300   1.255   3.344
 3677SOL    HW111930   6.386   1.275   3.299
 3677SOL    HW211931   6.318   1.226   3.438
 3678SOL     OW11932   0.741   2.868   4.012
 3678SOL    HW111933   0.703   2.961   4.021
 3678SOL    HW211934   0.804   2.864   3.935
 3679SOL     OW11935   6.336   1.087   1.559
 3679SOL    HW111936   6.348   1.024   1.483
 3679SOL    HW211937   6.396   1.059   1.635
 3680SOL     OW11938   6.522   4.325   5.135
 3680SOL    HW111939   6.573   4.317   5.049
 3680SOL    HW211940   6.538   4.244   5.191
 3681SOL     OW11941   5.366   0.334   4.333
 3681SOL    HW111942   5.294   0.404   4.334
 3681SOL    HW211943   5.442   0.366   4.276
 3682SOL     OW11944   0.437   1.825   6.905
 3682SOL    HW111945   0.346   1.846   6.941
 3682SOL    HW211946   0.493   1.908   6.907
 3683SOL     OW11947   4.589   6.650   4.016
 3683SOL    HW111948   4.655   6.583   4.051
 3683SOL    HW211949   4.627   6.742   4.027
 3684SOL     OW11950   2.129   3.952   2.037
 3684SOL    HW111951   2.073   4.034   2.047
 3684SOL    HW211952   2.134   3.904   2.124
 3685SOL     OW11953   5.856   5.570   6.314
 3685SOL    HW111954   5.857   5.473   6.338
 3685SOL    HW211955   5.816   5.623   6.389
 3686SOL     OW11956   0.606   4.152   0.139
 3686SOL    HW111957   0.507   4.140   0.147
 3686SOL    HW211958   0.631   4.243   0.173
 3687SOL     OW11959   3.984   1.121   1.127
 3687SOL    HW111960   4.014   1.205   1.082
 3687SOL    HW211961   4.063   1.069   1.158
 3688SOL     OW11962   0.398   2.502   6.642
 3688SOL    HW111963   0.407   2.527   6.738
 3688SOL    HW211964   0.475   2.443   6.615
 3689SOL     OW11965   1.246   5.973   3.541
 3689SOL    HW111966   1.195   5.922   3.610
 3689SOL    HW211967   1.188   5.989   3.461
 3690SOL     OW11968   5.077   4.420   6.027
 3690SOL    HW111969   5.014   4.496   6.035
 3690SOL    HW211970   5.125   4.407   6.114
 3691SOL     OW11971   3.162   3.125   6.417
 3691SOL    HW111972   3.135   3.218   6.391
 3691SOL    HW211973   3.080   3.069   6.430
 3692SOL     OW11974   6.693   0.528   5.390
 3692SOL    HW111975   6.623   0.532   5.319
 3692SOL    HW211976   6.707   0.433   5.417
 3693SOL     OW11977   1.467   1.503   3.475
 3693SOL    HW111978   1.506   1.519   3.566
 3693SOL    HW211979   1.536   1.523   3.405
 3694SOL     OW11980   1.765   4.789   3.483
 3694SOL    HW111981   1.839   4.746   3.534
 3694SOL    HW211982   1.692   4.722   3.467
 3695SOL     OW11983   2.590   2.251   0.943
 3695SOL    HW111984   2.616   2.330   0.999
 3695SOL    HW211985   2.652   2.175   0.962
 3696SOL     OW11986   2.900   6.005   5.908
 3696SOL    HW111987   2.853   6.045   5.987
 3696SOL    HW211988   2.993   5.982   5.934
 3697SOL     OW11989   5.225   1.217   3.178
 3697SOL    HW111990   5.127   1.234   3.185
 3697SOL    HW211991   5.242   1.141   3.115
 3698SOL     OW11992   2.901   0.525   5.622
 3698SOL    HW111993   2.934   0.571   5.540
 3698SOL    HW211994   2.934   0.574   5.704
 3699SOL     OW11995   1.072   5.238   2.390
 3699SOL    HW111996   1.132   5.318   2.391
 3699SOL    HW211997   1.085   5.187   2.305
 3700SOL     OW11998   6.247   6.988   3.978
 3700SOL    HW111999   6.294   6.962   3.894
 3700SOL    HW212000   6.160   0.005   3.955
 3701SOL     OW12001   4.071   1.287   3.703
 3701SOL    HW112002   4.129   1.310   3.625
 3701SOL    HW212003   4.044   1.371   3.750
 3702SOL     OW12004   5.242   1.023   6.445
 3702SOL    HW112005   5.157   1.060   6.482
 3702SOL    HW212006   5.273   0.948   6.503
 3703SOL     OW12007   3.756   4.645   0.272
 3703SOL    HW112008   3.841   4.688   0.300
 3703SOL    HW212009   3.762   4.546   0.286
 3704SOL     OW12010   3.621   6.007   1.006
 3704SOL    HW112011   3.650   6.017   1.101
 3704SOL    HW212012   3.535   6.056   0.993
 3705SOL     OW12013   6.858   1.354   4.066
 3705SOL    HW112014   6.776   1.411   4.072
 3705SOL    HW212015   6.890   1.351   3.971
 3706SOL     OW12016   2.403   2.416   2.946
 3706SOL    HW112017   2.472   2.419   2.874
 3706SOL    HW212018   2.439   2.370   3.027
 3707SOL     OW12019   4.306   1.951   5.282
 3707SOL    HW112020   4.371   2.019   5.247
 3707SOL    HW212021   4.262   1.905   5.204
 3708SOL     OW12022   6.355   6.432   0.625
 3708SOL    HW112023   6.363   6.502   0.554
 3708SOL    HW212024   6.382   6.472   0.713
 3709SOL     OW12025   0.733   6.179   6.539
 3709SOL    HW112026   0.732   6.238   6.619
 3709SOL    HW212027   0.826   6.150   6.519
 3710SOL     OW12028   1.146   5.175   6.028
 3710SOL    HW112029   1.092   5.157   5.945
 3710SOL    HW212030   1.161   5.089   6.077
 3711SOL     OW12031   6.479   4.931   2.055
 3711SOL    HW112032   6.486   4.836   2.087
 3711SOL    HW212033   6.384   4.951   2.032
 3712SOL     OW12034   1.472   0.309   5.640
 3712SOL    HW112035   1.540   0.380   5.623
 3712SOL    HW212036   1.396   0.320   5.576
 3713SOL     OW12037   3.234   4.506   5.772
 3713SOL    HW112038   3.174   4.584   5.794
 3713SOL    HW212039   3.301   4.534   5.704
 3714SOL     OW12040   4.921   2.694   4.706
 3714SOL    HW112041   4.887   2.778   4.750
 3714SOL    HW212042   4.996   2.656   4.761
 3715SOL     OW12043   4.472   4.524   4.408
 3715SOL    HW112044   4.396   4.504   4.470
 3715SOL    HW212045   4.478   4.623   4.394
 3716SOL     OW12046   1.451   1.264   4.861
 3716SOL    HW112047   1.481   1.318   4.939
 3716SOL    HW212048   1.459   1.318   4.777
 3717SOL     OW12049   6.008   0.349   6.655
 3717SOL    HW112050   6.097   0.333   6.699
 3717SOL    HW212051   5.937   0.298   6.704
 3718SOL     OW12052   0.803   6.872   6.160
 3718SOL    HW112053   0.732   6.860   6.229
 3718SOL    HW212054   0.879   6.924   6.200
 3719SOL     OW12055   3.551   4.256   0.418
 3719SOL    HW112056   3.474   4.207   0.377
 3719SOL    HW212057   3.543   4.252   0.518
 3720SOL     OW12058   6.747   1.207   6.555
 3720SOL    HW112059   6.659   1.181   6.515
 3720SOL    HW212060   6.810   1.234   6.483
 3721SOL     OW12061   5.645   2.306   0.270
 3721SOL    HW112062   5.706   2.353   0.206
 3721SOL    HW212063   5.560   2.358   0.278
 3722SOL     OW12064   3.870   5.894   1.143
 3722SOL    HW112065   3.927   5.812   1.135
 3722SOL    HW212066   3.928   5.974   1.161
 3723SOL     OW12067   3.609   1.195   0.444
 3723SOL    HW112068   3.604   1.251   0.361
 3723SOL    HW212069   3.705   1.181   0.469
 3724SOL     OW12070   1.321   3.536   6.554
 3724SOL    HW112071   1.392   3.472   6.525
 3724SOL    HW212072   1.233   3.508   6.517
 3725SOL     OW12073   5.000   6.102   2.172
 3725SOL    HW112074   5.072   6.038   2.146
 3725SOL    HW212075   4.991   6.103   2.272
 3726SOL     OW12076   6.145   3.610   2.470
 3726SOL    HW112077   6.218   3.595   2.404
 3726SOL    HW212078   6.120   3.707   2.471
 3727SOL     OW12079   2.291   2.256   5.318
 3727SOL    HW112080   2.300   2.312   5.236
 3727SOL    HW212081   2.381   2.232   5.353
 3728SOL     OW12082   0.876   3.574   6.771
 3728SOL    HW112083   0.812   3.548   6.699
 3728SOL    HW212084   0.825   3.597   6.854
 3729SOL     OW12085   1.456   3.272   3.436
 3729SOL    HW112086   1.546   3.311   3.418
 3729SOL    HW212087   1.415   3.318   3.515
 3730SOL     OW12088   2.012   0.038   1.139
 3730SOL    HW112089   1.962   0.122   1.117
 3730SOL    HW212090   2.110   0.052   1.124
 3731SOL     OW12091   2.277   6.318   0.077
 3731SOL    HW112092   2.315   6.396   0.027
 3731SOL    HW212093   2.195   6.346   0.126
 3732SOL     OW12094   1.675   4.228   4.209
 3732SOL    HW112095   1.708   4.172   4.285
 3732SOL    HW212096   1.734   4.309   4.199
 3733SOL     OW12097   3.528   3.284   1.556
 3733SOL    HW112098   3.539   3.225   1.635
 3733SOL    HW212099   3.517   3.379   1.587
 3734SOL     OW12100   4.196   1.393   3.480
 3734SOL    HW112101   4.251   1.319   3.441
 3734SOL    HW212102   4.231   1.481   3.448
 3735SOL     OW12103   3.712   2.138   1.653
 3735SOL    HW112104   3.783   2.180   1.596
 3735SOL    HW212105   3.697   2.195   1.734
 3736SOL     OW12106   5.154   0.651   6.048
 3736SOL    HW112107   5.096   0.619   5.973
 3736SOL    HW212108   5.097   0.676   6.126
 3737SOL     OW12109   2.768   7.017   3.693
 3737SOL    HW112110   2.751   6.923   3.666
 3737SOL    HW212111   2.853   0.023   3.651
 3738SOL     OW12112   0.579   0.424   4.281
 3738SOL    HW112113   0.585   0.354   4.210
 3738SOL    HW212114   0.668   0.466   4.294
 3739SOL     OW12115   0.116   3.450   0.530
 3739SOL    HW112116   0.073   3.376   0.478
 3739SOL    HW212117   0.162   3.412   0.610
 3740SOL     OW12118   6.126   6.769   0.129
 3740SOL    HW112119   6.058   6.706   0.092
 3740SOL    HW212120   6.170   6.728   0.210
 3741SOL     OW12121   4.172   0.854   6.328
 3741SOL    HW112122   4.174   0.759   6.361
 3741SOL    HW212123   4.142   0.856   6.233
 3742SOL     OW12124   3.602   3.428   6.217
 3742SOL    HW112125   3.532   3.393   6.279
 3742SOL    HW212126   3.559   3.473   6.139
 3743SOL     OW12127   1.354   5.910   5.761
 3743SOL    HW112128   1.295   5.991   5.765
 3743SOL    HW212129   1.326   5.854   5.683
 3744SOL     OW12130   6.194   4.947   3.572
 3744SOL    HW112131   6.153   4.971   3.660
 3744SOL    HW212132   6.124   4.908   3.512
 3745SOL     OW12133   5.192   4.513   1.387
 3745SOL    HW112134   5.265   4.578   1.367
 3745SOL    HW212135   5.114   4.562   1.426
 3746SOL     OW12136   4.555   1.325   1.156
 3746SOL    HW112137   4.533   1.250   1.093
 3746SOL    HW212138   4.652   1.347   1.148
 3747SOL     OW12139   3.202   6.649   1.319
 3747SOL    HW112140   3.165   6.632   1.411
 3747SOL    HW212141   3.151   6.724   1.277
 3748SOL     OW12142   5.512   0.560   1.839
 3748SOL    HW112143   5.546   0.654   1.847
 3748SOL    HW212144   5.464   0.535   1.923
 3749SOL     OW12145   1.018   1.125   3.900
 3749SOL    HW112146   1.085   1.182   3.948
 3749SOL    HW212147   1.014   1.035   3.943
 3750SOL     OW12148   0.569   3.675   0.232
 3750SOL    HW112149   0.508   3.623   0.291
 3750SOL    HW212150   0.517   3.745   0.184
 3751SOL     OW12151   2.467   5.120   1.595
 3751SOL    HW112152   2.430   5.058   1.663
 3751SOL    HW212153   2.424   5.210   1.605
 3752SOL     OW12154   5.737   5.264   6.768
 3752SOL    HW112155   5.742   5.358   6.801
 3752SOL    HW212156   5.756   5.262   6.670
 3753SOL     OW12157   0.137   1.704   3.706
 3753SOL    HW112158   0.103   1.787   3.750
 3753SOL    HW212159   0.223   1.677   3.748
 3754SOL     OW12160   3.958   1.302   1.627
 3754SOL    HW112161   4.005   1.217   1.605
 3754SOL    HW212162   3.886   1.318   1.559
 3755SOL     OW12163   2.831   6.494   4.795
 3755SOL    HW112164   2.753   6.467   4.738
 3755SOL    HW212165   2.850   6.423   4.862
 3756SOL     OW12166   1.056   6.112   0.641
 3756SOL    HW112167   0.988   6.056   0.594
 3756SOL    HW212168   1.101   6.057   0.712
 3757SOL     OW12169   1.039   5.306   0.154
 3757SOL    HW112170   1.087   5.299   0.066
 3757SOL    HW212171   1.059   5.225   0.209
 3758SOL     OW12172   6.964   5.818   4.002
 3758SOL    HW112173   6.878   5.849   3.963
 3758SOL    HW212174   0.014   5.869   3.960
 3759SOL     OW12175   4.832   0.628   3.506
 3759SOL    HW112176   4.800   0.571   3.430
 3759SOL    HW212177   4.758   0.687   3.538
 3760SOL     OW12178   0.399   1.137   3.673
 3760SOL    HW112179   0.418   1.140   3.575
 3760SOL    HW212180   0.355   1.050   3.696
 3761SOL     OW12181   3.911   0.945   4.538
 3761SOL    HW112182   3.895   0.881   4.462
 3761SOL    HW212183   4.000   0.927   4.578
 3762SOL     OW12184   6.458   2.017   3.543
 3762SOL    HW112185   6.490   2.097   3.593
 3762SOL    HW212186   6.519   1.939   3.562
 3763SOL     OW12187   0.862   7.014   6.623
 3763SOL    HW112188   0.763   7.005   6.618
 3763SOL    HW212189   0.898   6.953   6.694
 3764SOL     OW12190   4.751   2.082   2.681
 3764SOL    HW112191   4.816   2.023   2.729
 3764SOL    HW212192   4.799   2.160   2.641
 3765SOL     OW12193   5.689   3.610   2.002
 3765SOL    HW112194   5.767   3.609   1.939
 3765SOL    HW212195   5.642   3.698   1.996
 3766SOL     OW12196   2.254   2.254   2.575
 3766SOL    HW112197   2.274   2.218   2.483
 3766SOL    HW212198   2.266   2.181   2.642
 3767SOL     OW12199   1.723   5.930   5.721
 3767SOL    HW112200   1.634   5.941   5.765
 3767SOL    HW212201   1.750   6.017   5.679
 3768SOL     OW12202   1.256   6.437   4.145
 3768SOL    HW112203   1.210   6.437   4.234
 3768SOL    HW212204   1.267   6.343   4.113
 3769SOL     OW12205   4.827   5.270   6.060
 3769SOL    HW112206   4.842   5.347   5.999
 3769SOL    HW212207   4.742   5.284   6.112
 3770SOL     OW12208   2.702   0.446   0.247
 3770SOL    HW112209   2.717   0.459   0.149
 3770SOL    HW212210   2.651   0.524   0.283
 3771SOL     OW12211   6.389   6.179   5.959
 3771SOL    HW112212   6.417   6.118   6.033
 3771SOL    HW212213   6.459   6.179   5.888
 3772SOL     OW12214   3.254   5.394   1.732
 3772SOL    HW112215   3.202   5.311   1.710
 3772SOL    HW212216   3.237   5.419   1.827
 3773SOL     OW12217   4.925   4.037   6.941
 3773SOL    HW112218   4.965   3.994   6.860
 3773SOL    HW212219   4.892   4.128   6.918
 3774SOL     OW12220   0.209   4.273   1.397
 3774SOL    HW112221   0.273   4.338   1.355
 3774SOL    HW212222   0.259   4.192   1.426
 3775SOL     OW12223   6.044   6.448   5.094
 3775SOL    HW112224   5.960   6.444   5.147
 3775SOL    HW212225   6.026   6.494   5.007
 3776SOL     OW12226   4.030   2.417   6.518
 3776SOL    HW112227   3.966   2.490   6.494
 3776SOL    HW212228   3.982   2.330   6.519
 3777SOL     OW12229   3.153   5.218   3.358
 3777SOL    HW112230   3.078   5.283   3.345
 3777SOL    HW212231   3.164   5.162   3.276
 3778SOL     OW12232   2.688   5.655   6.512
 3778SOL    HW112233   2.739   5.699   6.587
 3778SOL    HW212234   2.590   5.665   6.528
 3779SOL     OW12235   6.318   5.203   6.431
 3779SOL    HW112236   6.369   5.169   6.352
 3779SOL    HW212237   6.337   5.300   6.444
 3780SOL     OW12238   5.871   2.052   1.514
 3780SOL    HW112239   5.782   2.008   1.528
 3780SOL    HW212240   5.913   2.017   1.431
 3781SOL     OW12241   0.988   0.717   6.885
 3781SOL    HW112242   1.018   0.626   6.912
 3781SOL    HW212243   1.003   0.730   6.787
 3782SOL     OW12244   3.036   5.350   6.955
 3782SOL    HW112245   3.009   5.289   6.880
 3782SOL    HW212246   3.135   5.356   6.959
 3783SOL     OW12247   4.637   5.361   5.338
 3783SOL    HW112248   4.639   5.261   5.331
 3783SOL    HW212249   4.656   5.388   5.433
 3784SOL     OW12250   5.153   4.182   5.496
 3784SOL    HW112251   5.226   4.202   5.561
 3784SOL    HW212252   5.181   4.211   5.405
 3785SOL     OW12253   0.957   3.597   2.356
 3785SOL    HW112254   0.896   3.550   2.420
 3785SOL    HW212255   0.902   3.658   2.298
 3786SOL     OW12256   3.272   2.897   6.325
 3786SOL    HW112257   3.213   2.877   6.246
 3786SOL    HW212258   3.233   2.972   6.378
 3787SOL     OW12259   5.571   5.809   5.734
 3787SOL    HW112260   5.502   5.736   5.735
 3787SOL    HW212261   5.585   5.843   5.827
 3788SOL     OW12262   5.616   2.963   5.392
 3788SOL    HW112263   5.695   3.008   5.431
 3788SOL    HW212264   5.554   2.933   5.465
 3789SOL     OW12265   1.732   4.735   1.826
 3789SOL    HW112266   1.732   4.674   1.747
 3789SOL    HW212267   1.673   4.696   1.898
 3790SOL     OW12268   2.976   0.219   1.959
 3790SOL    HW112269   2.881   0.247   1.951
 3790SOL    HW212270   3.036   0.296   1.937
 3791SOL     OW12271   4.929   0.529   4.155
 3791SOL    HW112272   4.906   0.576   4.070
 3791SOL    HW212273   4.943   0.595   4.228
 3792SOL     OW12274   6.149   0.352   3.294
 3792SOL    HW112275   6.245   0.377   3.302
 3792SOL    HW212276   6.130   0.322   3.200
 3793SOL     OW12277   5.242   3.286   0.283
 3793SOL    HW112278   5.145   3.312   0.279
 3793SOL    HW212279   5.291   3.352   0.341
 3794SOL     OW12280   1.855   5.238   5.665
 3794SOL    HW112281   1.870   5.335   5.682
 3794SOL    HW212282   1.915   5.184   5.724
 3795SOL     OW12283   3.644   6.136   0.464
 3795SOL    HW112284   3.627   6.129   0.366
 3795SOL    HW212285   3.667   6.231   0.487
 3796SOL     OW12286   5.516   1.002   0.340
 3796SOL    HW112287   5.569   1.005   0.255
 3796SOL    HW212288   5.477   0.911   0.351
 3797SOL     OW12289   7.024   1.527   0.891
 3797SOL    HW112290   6.946   1.586   0.910
 3797SOL    HW212291   6.995   1.447   0.839
 3798SOL     OW12292   6.907   3.706   4.273
 3798SOL    HW112293   6.972   3.771   4.234
 3798SOL    HW212294   6.814   3.728   4.241
 3799SOL     OW12295   6.476   2.160   2.171
 3799SOL    HW112296   6.507   2.244   2.126
 3799SOL    HW212297   6.412   2.183   2.244
 3800SOL     OW12298   5.726   3.326   1.693
 3800SOL    HW112299   5.685   3.355   1.607
 3800SOL    HW212300   5.819   3.363   1.700
 3801SOL     OW12301   5.780   1.438   0.201
 3801SOL    HW112302   5.725   1.519   0.183
 3801SOL    HW212303   5.740   1.386   0.277
 3802SOL     OW12304   6.048   3.691   3.745
 3802SOL    HW112305   6.087   3.723   3.831
 3802SOL    HW212306   6.121   3.668   3.681
 3803SOL     OW12307   3.809   4.373   6.708
 3803SOL    HW112308   3.760   4.460   6.717
 3803SOL    HW212309   3.897   4.379   6.755
 3804SOL     OW12310   3.512   6.149   3.755
 3804SOL    HW112311   3.570   6.150   3.674
 3804SOL    HW212312   3.558   6.198   3.829
 3805SOL     OW12313   2.459   1.818   0.256
 3805SOL    HW112314   2.390   1.754   0.291
 3805SOL    HW212315   2.423   1.865   0.176
 3806SOL     OW12316   2.028   4.493   1.984
 3806SOL    HW112317   2.088   4.413   1.981
 3806SOL    HW212318   2.083   4.576   1.981
 3807SOL     OW12319   0.148   4.129   4.486
 3807SOL    HW112320   0.133   4.099   4.392
 3807SOL    HW212321   0.145   4.050   4.547
 3808SOL     OW12322   2.598   6.371   6.061
 3808SOL    HW112323   2.632   6.442   6.122
 3808SOL    HW212324   2.517   6.328   6.102
 3809SOL     OW12325   5.450   2.010   1.366
 3809SOL    HW112326   5.424   1.979   1.274
 3809SOL    HW212327   5.417   2.103   1.381
 3810SOL     OW12328   4.745   2.131   4.136
 3810SOL    HW112329   4.686   2.152   4.215
 3810SOL    HW212330   4.704   2.170   4.054
 3811SOL     OW12331   0.263   6.347   5.817
 3811SOL    HW112332   0.189   6.388   5.764
 3811SOL    HW212333   0.304   6.416   5.877
 3812SOL     OW12334   4.307   5.657   0.339
 3812SOL    HW112335   4.360   5.573   0.331
 3812SOL    HW212336   4.364   5.729   0.379
 3813SOL     OW12337   0.035   3.363   6.604
 3813SOL    HW112338   6.994   3.407   6.544
 3813SOL    HW212339   0.036   3.265   6.587
 3814SOL     OW12340   0.157   0.768   4.899
 3814SOL    HW112341   0.190   0.675   4.880
 3814SOL    HW212342   0.090   0.765   4.973
 3815SOL     OW12343   4.719   1.734   5.675
 3815SOL    HW112344   4.771   1.658   5.715
 3815SOL    HW212345   4.628   1.737   5.716
 3816SOL     OW12346   6.401   6.510   1.965
 3816SOL    HW112347   6.317   6.491   2.016
 3816SOL    HW212348   6.398   6.603   1.928
 3817SOL     OW12349   3.821   3.554   2.723
 3817SOL    HW112350   3.740   3.549   2.782
 3817SOL    HW212351   3.800   3.611   2.643
 3818SOL     OW12352   4.514   5.795   2.103
 3818SOL    HW112353   4.577   5.756   2.171
 3818SOL    HW212354   4.566   5.835   2.028
 3819SOL     OW12355   6.151   2.522   3.043
 3819SOL    HW112356   6.227   2.459   3.023
 3819SOL    HW212357   6.085   2.476   3.102
 3820SOL     OW12358   3.552   6.716   5.899
 3820SOL    HW112359   3.562   6.761   5.810
 3820SOL    HW212360   3.587   6.776   5.971
 3821SOL     OW12361   1.133   6.665   1.104
 3821SOL    HW112362   1.079   6.732   1.154
 3821SOL    HW212363   1.129   6.576   1.151
 3822SOL     OW12364   6.510   6.137   1.516
 3822SOL    HW112365   6.469   6.191   1.441
 3822SOL    HW212366   6.569   6.196   1.571
 3823SOL     OW12367   5.889   5.427   4.200
 3823SOL    HW112368   5.849   5.340   4.175
 3823SOL    HW212369   5.911   5.427   4.298
 3824SOL     OW12370   1.758   2.448   0.970
 3824SOL    HW112371   1.840   2.390   0.971
 3824SOL    HW212372   1.757   2.503   0.887
 3825SOL     OW12373   0.286   4.685   5.446
 3825SOL    HW112374   0.268   4.587   5.453
 3825SOL    HW212375   0.244   4.721   5.363
 3826SOL     OW12376   4.503   4.543   3.693
 3826SOL    HW112377   4.552   4.566   3.777
 3826SOL    HW212378   4.449   4.460   3.709
 3827SOL     OW12379   0.742   1.439   0.084
 3827SOL    HW112380   0.760   1.377   0.160
 3827SOL    HW212381   0.676   1.509   0.112
 3828SOL     OW12382   2.786   3.415   5.817
 3828SOL    HW112383   2.772   3.321   5.784
 3828SOL    HW212384   2.834   3.468   5.747
 3829SOL     OW12385   6.786   2.442   1.524
 3829SOL    HW112386   6.793   2.541   1.525
 3829SOL    HW212387   6.753   2.412   1.434
 3830SOL     OW12388   5.283   6.114   3.581
 3830SOL    HW112389   5.308   6.211   3.584
 3830SOL    HW212390   5.201   6.103   3.524
 3831SOL     OW12391   5.219   2.058   4.404
 3831SOL    HW112392   5.141   2.008   4.366
 3831SOL    HW212393   5.186   2.142   4.448
 3832SOL     OW12394   6.309   1.514   4.251
 3832SOL    HW112395   6.299   1.417   4.231
 3832SOL    HW212396   6.402   1.532   4.283
 3833SOL     OW12397   2.266   3.484   5.317
 3833SOL    HW112398   2.353   3.526   5.344
 3833SOL    HW212399   2.275   3.385   5.317
 3834SOL     OW12400   4.426   4.945   0.603
 3834SOL    HW112401   4.453   4.957   0.507
 3834SOL    HW212402   4.382   5.029   0.636
 3835SOL     OW12403   4.562   5.255   4.658
 3835SOL    HW112404   4.541   5.305   4.574
 3835SOL    HW212405   4.494   5.278   4.728
 3836SOL     OW12406   0.652   0.383   5.215
 3836SOL    HW112407   0.583   0.317   5.242
 3836SOL    HW212408   0.631   0.472   5.256
 3837SOL     OW12409   4.763   4.733   5.696
 3837SOL    HW112410   4.814   4.818   5.690
 3837SOL    HW212411   4.792   4.671   5.623
 3838SOL     OW12412   0.583   1.851   3.301
 3838SOL    HW112413   0.544   1.873   3.211
 3838SOL    HW212414   0.682   1.837   3.291
 3839SOL     OW12415   4.686   1.326   4.110
 3839SOL    HW112416   4.725   1.310   4.020
 3839SOL    HW212417   4.600   1.276   4.119
 3840SOL     OW12418   4.001   1.748   5.812
 3840SOL    HW112419   4.031   1.723   5.904
 3840SOL    HW212420   4.056   1.825   5.779
 3841SOL     OW12421   5.539   3.780   2.875
 3841SOL    HW112422   5.514   3.748   2.967
 3841SOL    HW212423   5.622   3.836   2.881
 3842SOL     OW12424   1.865   3.980   4.799
 3842SOL    HW112425   1.778   3.968   4.751
 3842SOL    HW212426   1.908   4.065   4.770
 3843SOL     OW12427   5.502   2.308   6.653
 3843SOL    HW112428   5.575   2.360   6.608
 3843SOL    HW212429   5.516   2.311   6.752
 3844SOL     OW12430   5.699   6.366   0.570
 3844SOL    HW112431   5.700   6.357   0.670
 3844SOL    HW212432   5.789   6.395   0.538
 3845SOL     OW12433   2.001   5.598   0.673
 3845SOL    HW112434   1.998   5.643   0.762
 3845SOL    HW212435   1.990   5.499   0.685
 3846SOL     OW12436   6.679   3.319   2.754
 3846SOL    HW112437   6.732   3.266   2.820
 3846SOL    HW212438   6.738   3.386   2.709
 3847SOL     OW12439   0.144   0.873   6.763
 3847SOL    HW112440   0.138   0.821   6.678
 3847SOL    HW212441   0.054   0.880   6.805
 3848SOL     OW12442   5.622   4.957   2.824
 3848SOL    HW112443   5.709   4.909   2.818
 3848SOL    HW212444   5.561   4.907   2.885
 3849SOL     OW12445   0.260   2.851   5.650
 3849SOL    HW112446   0.182   2.871   5.592
 3849SOL    HW212447   0.235   2.865   5.746
 3850SOL     OW12448   3.648   3.071   1.247
 3850SOL    HW112449   3.552   3.050   1.269
 3850SOL    HW212450   3.693   2.989   1.212
 3851SOL     OW12451   0.053   5.457   2.477
 3851SOL    HW112452   7.022   5.408   2.543
 3851SOL    HW212453   0.133   5.402   2.456
 3852SOL     OW12454   3.512   0.500   4.921
 3852SOL    HW112455   3.502   0.464   5.014
 3852SOL    HW212456   3.508   0.600   4.924
 3853SOL     OW12457   1.940   1.155   3.321
 3853SOL    HW112458   1.947   1.090   3.397
 3853SOL    HW212459   1.848   1.153   3.283
 3854SOL     OW12460   0.085   1.463   2.279
 3854SOL    HW112461   0.015   1.469   2.351
 3854SOL    HW212462   0.096   1.368   2.251
 3855SOL     OW12463   2.867   5.728   6.721
 3855SOL    HW112464   2.953   5.702   6.678
 3855SOL    HW212465   2.866   5.827   6.737
 3856SOL     OW12466   0.146   2.940   6.609
 3856SOL    HW112467   0.165   2.894   6.695
 3856SOL    HW212468   0.063   2.995   6.619
 3857SOL     OW12469   0.937   0.141   5.793
 3857SOL    HW112470   0.968   0.054   5.756
 3857SOL    HW212471   1.015   0.202   5.804
 3858SOL     OW12472   3.077   1.003   4.962
 3858SOL    HW112473   2.983   0.973   4.943
 3858SOL    HW212474   3.077   1.063   5.041
 3859SOL     OW12475   5.570   6.537   3.327
 3859SOL    HW112476   5.489   6.482   3.346
 3859SOL    HW212477   5.623   6.495   3.253
 3860SOL     OW12478   1.405   6.704   4.845
 3860SOL    HW112479   1.477   6.773   4.834
 3860SOL    HW212480   1.446   6.616   4.870
 3861SOL     OW12481   2.064   6.289   2.288
 3861SOL    HW112482   2.096   6.346   2.363
 3861SOL    HW212483   2.078   6.337   2.201
 3862SOL     OW12484   1.993   0.522   4.210
 3862SOL    HW112485   2.026   0.445   4.157
 3862SOL    HW212486   1.899   0.505   4.239
 3863SOL     OW12487   3.781   6.869   1.146
 3863SOL    HW112488   3.849   6.932   1.109
 3863SOL    HW212489   3.777   6.878   1.245
 3864SOL     OW12490   0.874   0.967   5.008
 3864SOL    HW112491   0.954   0.941   5.061
 3864SOL    HW212492   0.800   0.901   5.025
 3865SOL     OW12493   5.197   1.091   0.579
 3865SOL    HW112494   5.203   0.993   0.597
 3865SOL    HW212495   5.139   1.106   0.499
 3866SOL     OW12496   3.814   1.139   6.641
 3866SOL    HW112497   3.823   1.059   6.700
 3866SOL    HW212498   3.823   1.222   6.696
 3867SOL     OW12499   6.805   3.385   2.319
 3867SOL    HW112500   6.784   3.357   2.225
 3867SOL    HW212501   6.722   3.380   2.374
 3868SOL     OW12502   4.481   0.859   0.003
 3868SOL    HW112503   4.451   0.812   0.086
 3868SOL    HW212504   4.442   0.951   0.002
 3869SOL     OW12505   2.974   0.977   3.407
 3869SOL    HW112506   3.051   1.009   3.462
 3869SOL    HW212507   2.894   0.966   3.465
 3870SOL     OW12508   6.642   2.107   5.992
 3870SOL    HW112509   6.672   2.040   6.060
 3870SOL    HW212510   6.600   2.060   5.914
 3871SOL     OW12511   2.799   5.174   4.430
 3871SOL    HW112512   2.815   5.112   4.506
 3871SOL    HW212513   2.742   5.129   4.361
 3872SOL     OW12514   2.939   3.792   5.318
 3872SOL    HW112515   2.887   3.877   5.314
 3872SOL    HW212516   3.034   3.813   5.339
 3873SOL     OW12517   5.682   2.607   6.273
 3873SOL    HW112518   5.706   2.575   6.365
 3873SOL    HW212519   5.700   2.534   6.207
 3874SOL     OW12520   1.838   0.860   2.054
 3874SOL    HW112521   1.773   0.915   2.002
 3874SOL    HW212522   1.821   0.763   2.036
 3875SOL     OW12523   0.217   0.695   6.568
 3875SOL    HW112524   0.313   0.721   6.572
 3875SOL    HW212525   0.192   0.672   6.474
 3876SOL     OW12526   3.200   5.301   2.010
 3876SOL    HW112527   3.279   5.242   2.031
 3876SOL    HW212528   3.131   5.248   1.961
 3877SOL     OW12529   0.974   1.823   5.873
 3877SOL    HW112530   0.892   1.805   5.819
 3877SOL    HW212531   1.055   1.802   5.818
 3878SOL     OW12532   4.226   1.738   5.042
 3878SOL    HW112533   4.155   1.800   5.077
 3878SOL    HW212534   4.183   1.668   4.985
 3879SOL     OW12535   5.513   5.100   6.780
 3879SOL    HW112536   5.606   5.137   6.786
 3879SOL    HW212537   5.506   5.020   6.839
 3880SOL     OW12538   4.896   5.472   3.621
 3880SOL    HW112539   4.806   5.438   3.595
 3880SOL    HW212540   4.900   5.484   3.720
 3881SOL     OW12541   1.839   2.864   6.991
 3881SOL    HW112542   1.754   2.912   6.969
 3881SOL    HW212543   1.915   2.929   6.988
 3882SOL     OW12544   0.370   2.457   6.226
 3882SOL    HW112545   0.379   2.540   6.172
 3882SOL    HW212546   0.285   2.460   6.278
 3883SOL     OW12547   3.576   6.036   4.383
 3883SOL    HW112548   3.492   6.083   4.412
 3883SOL    HW212549   3.576   6.028   4.284
 3884SOL     OW12550   6.738   2.948   1.866
 3884SOL    HW112551   6.779   2.880   1.806
 3884SOL    HW212552   6.806   3.018   1.890
 3885SOL     OW12553   4.000   5.749   2.211
 3885SOL    HW112554   3.908   5.725   2.180
 3885SOL    HW212555   4.064   5.676   2.186
 3886SOL     OW12556   2.966   5.160   6.754
 3886SOL    HW112557   2.968   5.070   6.798
 3886SOL    HW212558   2.896   5.161   6.683
 3887SOL     OW12559   1.844   6.193   1.871
 3887SOL    HW112560   1.811   6.199   1.777
 3887SOL    HW212561   1.770   6.162   1.930
 3888SOL     OW12562   5.214   5.001   3.314
 3888SOL    HW112563   5.164   4.989   3.400
 3888SOL    HW212564   5.283   4.930   3.305
 3889SOL     OW12565   5.480   2.726   0.430
 3889SOL    HW112566   5.547   2.768   0.369
 3889SOL    HW212567   5.497   2.755   0.524
 3890SOL     OW12568   4.665   4.462   3.981
 3890SOL    HW112569   4.577   4.509   3.990
 3890SOL    HW212570   4.668   4.385   4.045
 3891SOL     OW12571   4.635   4.836   3.721
 3891SOL    HW112572   4.567   4.819   3.650
 3891SOL    HW212573   4.591   4.833   3.811
 3892SOL     OW12574   0.422   1.923   1.179
 3892SOL    HW112575   0.515   1.938   1.144
 3892SOL    HW212576   0.428   1.891   1.274
 3893SOL     OW12577   3.258   3.006   3.050
 3893SOL    HW112578   3.207   3.019   2.965
 3893SOL    HW212579   3.240   3.083   3.111
 3894SOL     OW12580   4.245   0.551   6.059
 3894SOL    HW112581   4.280   0.486   6.126
 3894SOL    HW212582   4.311   0.626   6.046
 3895SOL     OW12583   0.641   0.068   4.166
 3895SOL    HW112584   0.617   0.055   4.262
 3895SOL    HW212585   0.713   0.003   4.141
 3896SOL     OW12586   2.161   1.669   6.510
 3896SOL    HW112587   2.199   1.654   6.602
 3896SOL    HW212588   2.079   1.726   6.517
 3897SOL     OW12589   3.308   6.043   0.812
 3897SOL    HW112590   3.342   6.074   0.901
 3897SOL    HW212591   3.266   5.953   0.822
 3898SOL     OW12592   4.119   3.158   1.302
 3898SOL    HW112593   4.062   3.076   1.291
 3898SOL    HW212594   4.067   3.238   1.271
 3899SOL     OW12595   3.122   6.906   5.218
 3899SOL    HW112596   3.047   6.929   5.156
 3899SOL    HW212597   3.160   6.817   5.193
 3900SOL     OW12598   4.300   4.653   2.643
 3900SOL    HW112599   4.268   4.691   2.557
 3900SOL    HW212600   4.357   4.573   2.626
 3901SOL     OW12601   3.345   1.326   6.566
 3901SOL    HW112602   3.322   1.344   6.661
 3901SOL    HW212603   3.434   1.280   6.561
 3902SOL     OW12604   4.786   2.818   2.778
 3902SOL    HW112605   4.810   2.871   2.696
 3902SOL    HW212606   4.824   2.864   2.859
 3903SOL     OW12607   3.688   5.096   6.750
 3903SOL    HW112608   3.752   5.127   6.680
 3903SOL    HW212609   3.714   5.136   6.838
 3904SOL     OW12610   1.617   6.514   0.969
 3904SOL    HW112611   1.594   6.419   0.950
 3904SOL    HW212612   1.674   6.550   0.894
 3905SOL     OW12613   0.192   6.390   5.408
 3905SOL    HW112614   0.283   6.425   5.433
 3905SOL    HW212615   0.192   6.365   5.312
 3906SOL     OW12616   0.998   6.264   5.547
 3906SOL    HW112617   0.933   6.297   5.479
 3906SOL    HW212618   0.985   6.166   5.561
 3907SOL     OW12619   5.304   1.998   3.979
 3907SOL    HW112620   5.280   2.091   3.950
 3907SOL    HW212621   5.311   1.940   3.898
 3908SOL     OW12622   2.732   3.913   5.891
 3908SOL    HW112623   2.663   3.922   5.962
 3908SOL    HW212624   2.823   3.923   5.931
 3909SOL     OW12625   4.359   5.972   3.841
 3909SOL    HW112626   4.381   5.941   3.749
 3909SOL    HW212627   4.439   6.017   3.881
 3910SOL     OW12628   3.471   3.682   2.573
 3910SOL    HW112629   3.517   3.762   2.533
 3910SOL    HW212630   3.505   3.599   2.529
 3911SOL     OW12631   5.777   2.204   5.387
 3911SOL    HW112632   5.847   2.144   5.427
 3911SOL    HW212633   5.704   2.148   5.349
 3912SOL     OW12634   5.832   3.125   6.403
 3912SOL    HW112635   5.890   3.103   6.324
 3912SOL    HW212636   5.773   3.203   6.380
 3913SOL     OW12637   1.265   6.872   1.312
 3913SOL    HW112638   1.290   6.963   1.278
 3913SOL    HW212639   1.278   6.805   1.239
 3914SOL     OW12640   3.097   5.775   6.008
 3914SOL    HW112641   3.095   5.677   5.985
 3914SOL    HW212642   3.144   5.825   5.935
 3915SOL     OW12643   5.090   5.760   1.776
 3915SOL    HW112644   5.035   5.725   1.852
 3915SOL    HW212645   5.073   5.858   1.765
 3916SOL     OW12646   0.002   0.066   3.432
 3916SOL    HW112647   7.013   0.038   3.337
 3916SOL    HW212648   6.977   0.005   3.493
 3917SOL     OW12649   2.829   0.173   6.620
 3917SOL    HW112650   2.888   0.142   6.545
 3917SOL    HW212651   2.884   0.183   6.703
 3918SOL     OW12652   6.159   3.427   0.234
 3918SOL    HW112653   6.117   3.399   0.321
 3918SOL    HW212654   6.088   3.455   0.170
 3919SOL     OW12655   3.405   6.422   0.458
 3919SOL    HW112656   3.367   6.497   0.512
 3919SOL    HW212657   3.366   6.335   0.490
 3920SOL     OW12658   2.358   0.867   6.628
 3920SOL    HW112659   2.303   0.801   6.576
 3920SOL    HW212660   2.450   0.831   6.640
 3921SOL     OW12661   0.366   3.283   1.003
 3921SOL    HW112662   0.451   3.282   0.951
 3921SOL    HW212663   0.376   3.224   1.084
 3922SOL     OW12664   0.191   4.954   0.907
 3922SOL    HW112665   0.246   4.884   0.861
 3922SOL    HW212666   0.104   4.914   0.936
 3923SOL     OW12667   0.309   5.501   0.328
 3923SOL    HW112668   0.279   5.585   0.373
 3923SOL    HW212669   0.254   5.487   0.245
 3924SOL     OW12670   6.346   5.311   4.154
 3924SOL    HW112671   6.384   5.299   4.063
 3924SOL    HW212672   6.411   5.277   4.222
 3925SOL     OW12673   0.594   4.668   1.198
 3925SOL    HW112674   0.543   4.727   1.135
 3925SOL    HW212675   0.656   4.725   1.253
 3926SOL     OW12676   2.820   5.898   3.373
 3926SOL    HW112677   2.730   5.855   3.358
 3926SOL    HW212678   2.856   5.930   3.286
 3927SOL     OW12679   2.496   3.495   6.394
 3927SOL    HW112680   2.471   3.521   6.487
 3927SOL    HW212681   2.416   3.504   6.335
 3928SOL     OW12682   6.916   6.564   6.247
 3928SOL    HW112683   7.015   6.577   6.239
 3928SOL    HW212684   6.897   6.492   6.314
 3929SOL     OW12685   1.285   1.622   4.704
 3929SOL    HW112686   1.229   1.605   4.785
 3929SOL    HW212687   1.360   1.556   4.700
 3930SOL     OW12688   3.084   1.818   4.229
 3930SOL    HW112689   3.008   1.765   4.191
 3930SOL    HW212690   3.132   1.764   4.297
 3931SOL     OW12691   3.599   6.597   2.377
 3931SOL    HW112692   3.611   6.533   2.301
 3931SOL    HW212693   3.689   6.628   2.409
 3932SOL     OW12694   2.163   3.946   3.408
 3932SOL    HW112695   2.183   3.937   3.311
 3932SOL    HW212696   2.176   3.858   3.453
 3933SOL     OW12697   2.051   0.723   6.037
 3933SOL    HW112698   2.091   0.661   6.105
 3933SOL    HW212699   2.087   0.815   6.051
 3934SOL     OW12700   4.715   5.619   0.497
 3934SOL    HW112701   4.726   5.668   0.411
 3934SOL    HW212702   4.767   5.533   0.494
 3935SOL     OW12703   4.559   6.825   2.262
 3935SOL    HW112704   4.551   6.796   2.357
 3935SOL    HW212705   4.468   6.833   2.221
 3936SOL     OW12706   1.127   4.082   2.510
 3936SOL    HW112707   1.109   4.039   2.422
 3936SOL    HW212708   1.129   4.181   2.499
 3937SOL     OW12709   0.500   2.029   2.608
 3937SOL    HW112710   0.471   2.007   2.515
 3937SOL    HW212711   0.600   2.032   2.611
 3938SOL     OW12712   5.971   3.288   2.894
 3938SOL    HW112713   5.956   3.376   2.850
 3938SOL    HW212714   5.936   3.215   2.835
 3939SOL     OW12715   1.937   2.364   1.805
 3939SOL    HW112716   1.866   2.428   1.833
 3939SOL    HW212717   1.994   2.408   1.735
 3940SOL     OW12718   4.630   4.737   1.124
 3940SOL    HW112719   4.546   4.685   1.106
 3940SOL    HW212720   4.658   4.722   1.219
 3941SOL     OW12721   5.564   3.176   0.518
 3941SOL    HW112722   5.552   3.221   0.430
 3941SOL    HW212723   5.486   3.198   0.578
 3942SOL     OW12724   6.442   6.507   0.875
 3942SOL    HW112725   6.520   6.463   0.918
 3942SOL    HW212726   6.359   6.484   0.926
 3943SOL     OW12727   0.111   3.028   4.743
 3943SOL    HW112728   0.117   2.984   4.833
 3943SOL    HW212729   0.142   2.965   4.672
 3944SOL     OW12730   5.903   2.302   5.155
 3944SOL    HW112731   5.858   2.257   5.233
 3944SOL    HW212732   5.925   2.233   5.085
 3945SOL     OW12733   0.187   7.009   0.973
 3945SOL    HW112734   0.159   6.978   1.064
 3945SOL    HW212735   0.189   6.932   0.911
 3946SOL     OW12736   3.624   4.937   3.807
 3946SOL    HW112737   3.641   4.904   3.900
 3946SOL    HW212738   3.693   4.899   3.745
 3947SOL     OW12739   0.108   4.291   5.816
 3947SOL    HW112740   0.051   4.368   5.786
 3947SOL    HW212741   0.181   4.325   5.875
 3948SOL     OW12742   6.234   3.306   1.756
 3948SOL    HW112743   6.296   3.303   1.677
 3948SOL    HW212744   6.236   3.217   1.803
 3949SOL     OW12745   5.544   6.392   2.506
 3949SOL    HW112746   5.520   6.443   2.424
 3949SOL    HW212747   5.543   6.294   2.485
 3950SOL     OW12748   1.598   6.026   0.257
 3950SOL    HW112749   1.610   6.058   0.162
 3950SOL    HW212750   1.674   5.966   0.282
 3951SOL     OW12751   5.444   5.607   2.078
 3951SOL    HW112752   5.432   5.621   1.980
 3951SOL    HW212753   5.538   5.579   2.098
 3952SOL     OW12754   6.146   1.062   6.903
 3952SOL    HW112755   6.135   1.154   6.940
 3952SOL    HW212756   6.239   1.050   6.870
 3953SOL     OW12757   3.030   3.543   2.224
 3953SOL    HW112758   3.033   3.522   2.322
 3953SOL    HW212759   3.123   3.565   2.193
 3954SOL     OW12760   4.198   4.040   5.649
 3954SOL    HW112761   4.107   4.033   5.690
 3954SOL    HW212762   4.216   4.136   5.625
 3955SOL     OW12763   4.025   1.171   4.984
 3955SOL    HW112764   3.945   1.128   4.943
 3955SOL    HW212765   4.002   1.204   5.076
 3956SOL     OW12766   2.606   1.406   0.632
 3956SOL    HW112767   2.612   1.396   0.532
 3956SOL    HW212768   2.694   1.381   0.673
 3957SOL     OW12769   4.314   1.906   3.799
 3957SOL    HW112770   4.377   1.954   3.860
 3957SOL    HW212771   4.309   1.955   3.712
 3958SOL     OW12772   5.158   6.524   6.049
 3958SOL    HW112773   5.233   6.512   6.114
 3958SOL    HW212774   5.119   6.435   6.026
 3959SOL     OW12775   5.631   5.850   6.629
 3959SOL    HW112776   5.559   5.915   6.604
 3959SOL    HW212777   5.648   5.788   6.553
 3960SOL     OW12778   6.292   2.598   4.070
 3960SOL    HW112779   6.314   2.542   4.150
 3960SOL    HW212780   6.209   2.563   4.026
 3961SOL     OW12781   5.176   6.845   4.182
 3961SOL    HW112782   5.271   6.821   4.168
 3961SOL    HW212783   5.123   6.763   4.201
 3962SOL     OW12784   6.481   5.356   4.543
 3962SOL    HW112785   6.482   5.311   4.454
 3962SOL    HW212786   6.410   5.426   4.544
 3963SOL     OW12787   3.361   6.120   1.809
 3963SOL    HW112788   3.303   6.048   1.771
 3963SOL    HW212789   3.352   6.121   1.909
 3964SOL     OW12790   6.119   2.362   4.127
 3964SOL    HW112791   6.026   2.326   4.132
 3964SOL    HW212792   6.173   2.325   4.202
 3965SOL     OW12793   4.914   4.326   4.505
 3965SOL    HW112794   4.942   4.235   4.474
 3965SOL    HW212795   4.848   4.364   4.440
 3966SOL     OW12796   3.103   6.560   6.604
 3966SOL    HW112797   3.027   6.623   6.619
 3966SOL    HW212798   3.182   6.590   6.658
 3967SOL     OW12799   1.698   3.935   3.946
 3967SOL    HW112800   1.790   3.963   3.916
 3967SOL    HW212801   1.707   3.861   4.014
 3968SOL     OW12802   4.462   6.504   0.539
 3968SOL    HW112803   4.533   6.575   0.537
 3968SOL    HW212804   4.495   6.426   0.593
 3969SOL     OW12805   0.020   4.531   3.361
 3969SOL    HW112806   0.107   4.508   3.318
 3969SOL    HW212807   6.984   4.452   3.355
 3970SOL     OW12808   4.389   6.490   1.216
 3970SOL    HW112809   4.482   6.470   1.187
 3970SOL    HW212810   4.390   6.531   1.307
 3971SOL     OW12811   0.875   5.984   3.632
 3971SOL    HW112812   0.875   6.000   3.731
 3971SOL    HW212813   0.961   5.939   3.606
 3972SOL     OW12814   1.482   3.515   7.018
 3972SOL    HW112815   1.539   3.441   0.028
 3972SOL    HW212816   1.400   3.525   0.048
 3973SOL     OW12817   1.689   4.210   1.083
 3973SOL    HW112818   1.672   4.131   1.024
 3973SOL    HW212819   1.719   4.287   1.028
 3974SOL     OW12820   3.035   0.377   6.107
 3974SOL    HW112821   2.964   0.413   6.046
 3974SOL    HW212822   3.055   0.282   6.083
 3975SOL     OW12823   6.743   2.852   0.103
 3975SOL    HW112824   6.675   2.920   0.076
 3975SOL    HW212825   6.792   2.820   0.022
 3976SOL     OW12826   1.189   4.363   2.560
 3976SOL    HW112827   1.236   4.298   2.620
 3976SOL    HW212828   1.233   4.452   2.567
 3977SOL     OW12829   0.713   2.888   6.950
 3977SOL    HW112830   0.634   2.886   7.011
 3977SOL    HW212831   0.683   2.894   6.855
 3978SOL     OW12832   5.582   3.934   3.493
 3978SOL    HW112833   5.637   4.000   3.544
 3978SOL    HW212834   5.617   3.925   3.400
 3979SOL     OW12835   3.860   6.105   6.250
 3979SOL    HW112836   3.858   6.181   6.186
 3979SOL    HW212837   3.850   6.018   6.201
 3980SOL     OW12838   5.415   4.770   5.703
 3980SOL    HW112839   5.433   4.855   5.654
 3980SOL    HW212840   5.317   4.753   5.706
 3981SOL     OW12841   4.471   5.423   6.981
 3981SOL    HW112842   4.469   5.332   7.024
 3981SOL    HW212843   4.380   5.465   6.990
 3982SOL     OW12844   2.719   6.249   2.846
 3982SOL    HW112845   2.641   6.246   2.909
 3982SOL    HW212846   2.689   6.223   2.754
 3983SOL     OW12847   3.197   6.101   4.462
 3983SOL    HW112848   3.142   6.117   4.544
 3983SOL    HW212849   3.178   6.172   4.394
 3984SOL     OW12850   6.120   2.927   2.992
 3984SOL    HW112851   6.141   3.009   2.939
 3984SOL    HW212852   6.096   2.853   2.930
 3985SOL     OW12853   4.549   5.463   6.346
 3985SOL    HW112854   4.461   5.505   6.370
 3985SOL    HW212855   4.585   5.505   6.263
 3986SOL     OW12856   5.227   0.690   2.684
 3986SOL    HW112857   5.173   0.687   2.768
 3986SOL    HW212858   5.167   0.711   2.606
 3987SOL     OW12859   3.419   5.422   5.534
 3987SOL    HW112860   3.431   5.521   5.542
 3987SOL    HW212861   3.408   5.382   5.625
 3988SOL     OW12862   4.536   5.735   0.925
 3988SOL    HW112863   4.496   5.801   0.989
 3988SOL    HW212864   4.482   5.733   0.841
 3989SOL     OW12865   6.822   2.725   1.492
 3989SOL    HW112866   6.744   2.786   1.482
 3989SOL    HW212867   6.906   2.774   1.466
 3990SOL     OW12868   6.879   1.445   1.380
 3990SOL    HW112869   6.838   1.458   1.290
 3990SOL    HW212870   6.965   1.394   1.371
 3991SOL     OW12871   4.670   1.461   3.423
 3991SOL    HW112872   4.598   1.510   3.473
 3991SOL    HW212873   4.738   1.527   3.391
 3992SOL     OW12874   4.566   1.608   1.753
 3992SOL    HW112875   4.645   1.652   1.708
 3992SOL    HW212876   4.554   1.647   1.844
 3993SOL     OW12877   1.193   3.210   1.548
 3993SOL    HW112878   1.174   3.301   1.585
 3993SOL    HW212879   1.269   3.215   1.484
 3994SOL     OW12880   2.519   5.538   4.720
 3994SOL    HW112881   2.472   5.565   4.636
 3994SOL    HW212882   2.573   5.455   4.702
 3995SOL     OW12883   1.491   2.421   3.899
 3995SOL    HW112884   1.427   2.344   3.892
 3995SOL    HW212885   1.541   2.431   3.813
 3996SOL     OW12886   6.692   5.865   4.412
 3996SOL    HW112887   6.735   5.798   4.472
 3996SOL    HW212888   6.715   5.845   4.317
 3997SOL     OW12889   2.963   0.328   3.063
 3997SOL    HW112890   2.935   0.412   3.016
 3997SOL    HW212891   2.925   0.249   3.015
 3998SOL     OW12892   4.390   1.827   2.852
 3998SOL    HW112893   4.382   1.867   2.760
 3998SOL    HW212894   4.454   1.750   2.850
 3999SOL     OW12895   4.490   1.241   4.435
 3999SOL    HW112896   4.461   1.207   4.525
 3999SOL    HW212897   4.475   1.339   4.431
 4000SOL     OW12898   4.828   5.398   4.695
 4000SOL    HW112899   4.863   5.398   4.601
 4000SOL    HW212900   4.729   5.382   4.693
 4001SOL     OW12901   0.686   1.645   5.310
 4001SOL    HW112902   0.746   1.715   5.271
 4001SOL    HW212903   0.696   1.560   5.258
 4002SOL     OW12904   2.095   5.004   1.946
 4002SOL    HW112905   2.027   4.941   1.984
 4002SOL    HW212906   2.089   5.093   1.993
 4003SOL     OW12907   3.854   1.854   4.719
 4003SOL    HW112908   3.879   1.941   4.678
 4003SOL    HW212909   3.917   1.783   4.687
 4004SOL     OW12910   6.778   1.574   6.653
 4004SOL    HW112911   6.803   1.668   6.627
 4004SOL    HW212912   6.857   1.529   6.694
 4005SOL     OW12913   6.649   4.978   4.327
 4005SOL    HW112914   6.685   4.887   4.308
 4005SOL    HW212915   6.683   5.009   4.416
 4006SOL     OW12916   3.806   6.376   3.434
 4006SOL    HW112917   3.763   6.449   3.382
 4006SOL    HW212918   3.901   6.367   3.406
 4007SOL     OW12919   0.715   1.526   5.845
 4007SOL    HW112920   0.708   1.516   5.944
 4007SOL    HW212921   0.652   1.464   5.800
 4008SOL     OW12922   3.222   1.683   4.935
 4008SOL    HW112923   3.147   1.647   4.880
 4008SOL    HW212924   3.225   1.637   5.024
 4009SOL     OW12925   3.948   3.999   2.829
 4009SOL    HW112926   3.990   3.960   2.912
 4009SOL    HW212927   3.981   4.092   2.816
 4010SOL     OW12928   1.167   3.363   0.647
 4010SOL    HW112929   1.175   3.385   0.744
 4010SOL    HW212930   1.071   3.369   0.620
 4011SOL     OW12931   0.707   1.312   0.604
 4011SOL    HW112932   0.800   1.295   0.639
 4011SOL    HW212933   0.705   1.398   0.553
 4012SOL     OW12934   5.191   3.284   3.497
 4012SOL    HW112935   5.138   3.362   3.463
 4012SOL    HW212936   5.204   3.218   3.423
 4013SOL     OW12937   5.414   2.845   2.798
 4013SOL    HW112938   5.463   2.932   2.799
 4013SOL    HW212939   5.414   2.806   2.891
 4014SOL     OW12940   5.527   4.624   2.886
 4014SOL    HW112941   5.527   4.527   2.911
 4014SOL    HW212942   5.536   4.633   2.787
 4015SOL     OW12943   5.159   3.643   0.271
 4015SOL    HW112944   5.130   3.649   0.176
 4015SOL    HW212945   5.236   3.705   0.286
 4016SOL     OW12946   3.125   6.411   4.509
 4016SOL    HW112947   3.123   6.427   4.608
 4016SOL    HW212948   3.062   6.337   4.486
 4017SOL     OW12949   5.206   6.583   6.370
 4017SOL    HW112950   5.136   6.643   6.332
 4017SOL    HW212951   5.290   6.635   6.385
 4018SOL     OW12952   2.107   0.164   6.716
 4018SOL    HW112953   2.205   0.142   6.707
 4018SOL    HW212954   2.071   0.120   6.799
 4019SOL     OW12955   5.354   6.438   4.160
 4019SOL    HW112956   5.452   6.419   4.170
 4019SOL    HW212957   5.340   6.537   4.163
 4020SOL     OW12958   5.505   1.759   4.361
 4020SOL    HW112959   5.482   1.853   4.333
 4020SOL    HW212960   5.604   1.748   4.361
 4021SOL     OW12961   4.882   3.178   6.955
 4021SOL    HW112962   4.811   3.246   6.937
 4021SOL    HW212963   4.972   3.221   6.947
 4022SOL     OW12964   5.305   0.918   1.010
 4022SOL    HW112965   5.262   0.920   1.100
 4022SOL    HW212966   5.365   0.997   0.999
 4023SOL     OW12967   6.686   5.653   5.463
 4023SOL    HW112968   6.762   5.627   5.523
 4023SOL    HW212969   6.658   5.747   5.484
 4024SOL     OW12970   4.131   4.557   5.712
 4024SOL    HW112971   4.118   4.558   5.811
 4024SOL    HW212972   4.043   4.539   5.667
 4025SOL     OW12973   0.123   3.813   4.206
 4025SOL    HW112974   0.157   3.903   4.176
 4025SOL    HW212975   0.181   3.780   4.280
 4026SOL     OW12976   5.833   1.504   5.278
 4026SOL    HW112977   5.800   1.421   5.322
 4026SOL    HW212978   5.826   1.494   5.179
 4027SOL     OW12979   2.732   5.116   2.799
 4027SOL    HW112980   2.816   5.086   2.754
 4027SOL    HW212981   2.703   5.204   2.759
 4028SOL     OW12982   1.367   5.691   2.848
 4028SOL    HW112983   1.295   5.685   2.779
 4028SOL    HW212984   1.412   5.602   2.858
 4029SOL     OW12985   1.768   4.313   3.252
 4029SOL    HW112986   1.787   4.332   3.156
 4029SOL    HW212987   1.850   4.274   3.295
 4030SOL     OW12988   2.646   0.884   6.464
 4030SOL    HW112989   2.560   0.866   6.416
 4030SOL    HW212990   2.695   0.799   6.477
 4031SOL     OW12991   6.488   6.329   4.261
 4031SOL    HW112992   6.407   6.369   4.302
 4031SOL    HW212993   6.466   6.238   4.224
 4032SOL     OW12994   3.565   0.126   4.951
 4032SOL    HW112995   3.658   0.090   4.955
 4032SOL    HW212996   3.553   0.177   4.866
 4033SOL     OW12997   3.568   3.731   6.375
 4033SOL    HW112998   3.503   3.670   6.421
 4033SOL    HW212999   3.646   3.678   6.342
 4034SOL     OW13000   5.990   3.637   5.444
 4034SOL    HW113001   5.957   3.568   5.509
 4034SOL    HW213002   5.970   3.607   5.351
 4035SOL     OW13003   0.142   5.879   2.182
 4035SOL    HW113004   0.086   5.957   2.154
 4035SOL    HW213005   0.112   5.847   2.272
 4036SOL     OW13006   6.229   5.953   1.264
 4036SOL    HW113007   6.269   5.891   1.196
 4036SOL    HW213008   6.129   5.948   1.259
 4037SOL     OW13009   0.651   3.776   6.456
 4037SOL    HW113010   0.711   3.856   6.458
 4037SOL    HW213011   0.610   3.767   6.366
 4038SOL     OW13012   6.613   5.215   3.152
 4038SOL    HW113013   6.625   5.313   3.169
 4038SOL    HW213014   6.620   5.165   3.238
 4039SOL     OW13015   2.797   5.007   1.276
 4039SOL    HW113016   2.725   4.959   1.325
 4039SOL    HW213017   2.780   5.105   1.279
 4040SOL     OW13018   3.018   0.174   6.850
 4040SOL    HW113019   3.056   0.086   6.823
 4040SOL    HW213020   2.938   0.159   6.909
 4041SOL     OW13021   0.251   6.026   3.294
 4041SOL    HW113022   0.188   6.104   3.299
 4041SOL    HW213023   0.204   5.944   3.326
 4042SOL     OW13024   5.602   5.187   1.841
 4042SOL    HW113025   5.614   5.179   1.940
 4042SOL    HW213026   5.512   5.151   1.816
 4043SOL     OW13027   0.225   3.304   0.746
 4043SOL    HW113028   0.208   3.206   0.744
 4043SOL    HW213029   0.277   3.328   0.828
 4044SOL     OW13030   5.538   4.955   2.545
 4044SOL    HW113031   5.592   5.015   2.486
 4044SOL    HW213032   5.590   4.936   2.628
 4045SOL     OW13033   2.972   5.460   5.527
 4045SOL    HW113034   3.044   5.399   5.493
 4045SOL    HW213035   2.947   5.431   5.620
 4046SOL     OW13036   0.822   4.058   0.493
 4046SOL    HW113037   0.899   4.120   0.505
 4046SOL    HW213038   0.808   4.039   0.396
 4047SOL     OW13039   3.171   4.044   3.484
 4047SOL    HW113040   3.101   4.114   3.470
 4047SOL    HW213041   3.161   4.004   3.575
 4048SOL     OW13042   5.382   2.345   0.670
 4048SOL    HW113043   5.297   2.291   0.667
 4048SOL    HW213044   5.437   2.324   0.589
 4049SOL     OW13045   6.620   5.980   6.917
 4049SOL    HW113046   6.647   5.981   7.014
 4049SOL    HW213047   6.633   6.070   6.877
 4050SOL     OW13048   2.251   0.977   2.273
 4050SOL    HW113049   2.273   1.027   2.356
 4050SOL    HW213050   2.179   1.026   2.223
 4051SOL     OW13051   3.033   4.217   0.826
 4051SOL    HW113052   3.054   4.125   0.859
 4051SOL    HW213053   2.946   4.247   0.865
 4052SOL     OW13054   1.249   0.249   0.907
 4052SOL    HW113055   1.191   0.252   0.825
 4052SOL    HW213056   1.201   0.294   0.983
 4053SOL     OW13057   2.567   5.863   2.098
 4053SOL    HW113058   2.628   5.937   2.069
 4053SOL    HW213059   2.575   5.850   2.197
 4054SOL     OW13060   5.356   1.624   6.238
 4054SOL    HW113061   5.421   1.648   6.309
 4054SOL    HW213062   5.265   1.615   6.277
 4055SOL     OW13063   4.684   3.582   6.070
 4055SOL    HW113064   4.724   3.538   6.150
 4055SOL    HW213065   4.655   3.512   6.005
 4056SOL     OW13066   4.293   3.224   0.167
 4056SOL    HW113067   4.304   3.125   0.171
 4056SOL    HW213068   4.317   3.257   0.076
 4057SOL     OW13069   6.405   2.267   0.673
 4057SOL    HW113070   6.460   2.326   0.732
 4057SOL    HW213071   6.430   2.283   0.578
 4058SOL     OW13072   0.923   3.906   4.040
 4058SOL    HW113073   0.854   3.844   4.003
 4058SOL    HW213074   1.014   3.867   4.025
 4059SOL     OW13075   6.973   1.928   5.086
 4059SOL    HW113076   0.004   1.860   5.041
 4059SOL    HW213077   6.941   1.893   5.174
 4060SOL     OW13078   2.298   6.696   6.068
 4060SOL    HW113079   2.225   6.628   6.074
 4060SOL    HW213080   2.372   6.660   6.011
 4061SOL     OW13081   2.033   2.565   1.628
 4061SOL    HW113082   2.011   2.648   1.576
 4061SOL    HW213083   2.122   2.576   1.672
 4062SOL     OW13084   2.586   0.955   3.121
 4062SOL    HW113085   2.509   1.012   3.094
 4062SOL    HW213086   2.662   0.969   3.057
 4063SOL     OW13087   3.881   6.799   6.020
 4063SOL    HW113088   3.954   6.776   6.085
 4063SOL    HW213089   3.793   6.798   6.067
 4064SOL     OW13090   6.073   6.997   4.521
 4064SOL    HW113091   6.007   0.035   4.482
 4064SOL    HW213092   6.030   6.945   4.595
 4065SOL     OW13093   0.979   4.384   6.077
 4065SOL    HW113094   1.048   4.346   6.140
 4065SOL    HW213095   1.011   4.372   5.983
 4066SOL     OW13096   4.851   4.279   2.310
 4066SOL    HW113097   4.846   4.288   2.409
 4066SOL    HW213098   4.925   4.338   2.275
 4067SOL     OW13099   5.205   0.537   1.345
 4067SOL    HW113100   5.190   0.496   1.255
 4067SOL    HW213101   5.299   0.517   1.376
 4068SOL     OW13102   5.124   0.251   4.654
 4068SOL    HW113103   5.130   0.191   4.575
 4068SOL    HW213104   5.169   0.208   4.732
 4069SOL     OW13105   6.580   6.080   0.813
 4069SOL    HW113106   6.627   6.011   0.758
 4069SOL    HW213107   6.568   6.046   0.906
 4070SOL     OW13108   0.169   3.601   2.722
 4070SOL    HW113109   0.143   3.586   2.627
 4070SOL    HW213110   0.263   3.633   2.727
 4071SOL     OW13111   2.743   6.925   4.763
 4071SOL    HW113112   2.664   6.891   4.713
 4071SOL    HW213113   2.771   7.013   4.725
 4072SOL     OW13114   0.158   0.513   4.799
 4072SOL    HW113115   0.087   0.490   4.732
 4072SOL    HW213116   0.188   0.429   4.845
 4073SOL     OW13117   2.735   4.379   1.675
 4073SOL    HW113118   2.711   4.456   1.616
 4073SOL    HW213119   2.781   4.413   1.757
 4074SOL     OW13120   0.101   2.922   1.875
 4074SOL    HW113121   0.096   2.833   1.830
 4074SOL    HW213122   0.107   2.909   1.974
 4075SOL     OW13123   6.707   0.932   3.567
 4075SOL    HW113124   6.668   1.021   3.545
 4075SOL    HW213125   6.639   0.876   3.613
 4076SOL     OW13126   1.636   3.813   3.407
 4076SOL    HW113127   1.612   3.758   3.486
 4076SOL    HW213128   1.736   3.818   3.398
 4077SOL     OW13129   3.826   0.538   1.731
 4077SOL    HW113130   3.732   0.509   1.716
 4077SOL    HW213131   3.836   0.634   1.706
 4078SOL     OW13132   4.926   4.279   2.590
 4078SOL    HW113133   4.887   4.358   2.638
 4078SOL    HW213134   5.018   4.303   2.559
 4079SOL     OW13135   4.287   1.106   3.020
 4079SOL    HW113136   4.311   1.168   2.945
 4079SOL    HW213137   4.189   1.109   3.036
 4080SOL     OW13138   3.960   3.687   4.010
 4080SOL    HW113139   4.032   3.639   3.959
 4080SOL    HW213140   3.981   3.684   4.108
 4081SOL     OW13141   2.545   0.109   7.016
 4081SOL    HW113142   2.494   0.024   7.011
 4081SOL    HW213143   2.488   0.185   6.984
 4082SOL     OW13144   1.668   1.575   5.847
 4082SOL    HW113145   1.636   1.588   5.941
 4082SOL    HW213146   1.748   1.515   5.847
 4083SOL     OW13147   5.675   3.982   2.338
 4083SOL    HW113148   5.617   3.900   2.346
 4083SOL    HW213149   5.767   3.956   2.311
 4084SOL     OW13150   3.913   5.997   3.244
 4084SOL    HW113151   3.819   6.030   3.253
 4084SOL    HW213152   3.959   6.049   3.173
 4085SOL     OW13153   1.580   4.551   2.402
 4085SOL    HW113154   1.672   4.553   2.363
 4085SOL    HW213155   1.551   4.643   2.426
 4086SOL     OW13156   6.365   5.289   5.343
 4086SOL    HW113157   6.395   5.196   5.319
 4086SOL    HW213158   6.288   5.283   5.406
 4087SOL     OW13159   1.213   1.543   1.234
 4087SOL    HW113160   1.300   1.591   1.244
 4087SOL    HW213161   1.140   1.610   1.220
 4088SOL     OW13162   0.244   2.188   4.939
 4088SOL    HW113163   0.317   2.206   4.873
 4088SOL    HW213164   0.268   2.230   5.027
 4089SOL     OW13165   6.517   6.526   2.645
 4089SOL    HW113166   6.473   6.464   2.581
 4089SOL    HW213167   6.598   6.482   2.684
 4090SOL     OW13168   3.578   2.577   5.498
 4090SOL    HW113169   3.647   2.523   5.450
 4090SOL    HW213170   3.493   2.577   5.445
 4091SOL     OW13171   4.469   0.000   3.284
 4091SOL    HW113172   4.397   7.016   3.353
 4091SOL    HW213173   4.447   0.078   3.226
 4092SOL     OW13174   4.452   1.879   6.533
 4092SOL    HW113175   4.393   1.817   6.585
 4092SOL    HW213176   4.546   1.844   6.536
 4093SOL     OW13177   5.580   4.218   1.141
 4093SOL    HW113178   5.551   4.125   1.164
 4093SOL    HW213179   5.506   4.265   1.094
 4094SOL     OW13180   6.136   5.862   0.423
 4094SOL    HW113181   6.201   5.921   0.374
 4094SOL    HW213182   6.046   5.869   0.381
 4095SOL     OW13183   1.412   5.010   6.995
 4095SOL    HW113184   1.343   5.018   0.041
 4095SOL    HW213185   1.482   4.944   7.022
 4096SOL     OW13186   0.835   6.531   5.866
 4096SOL    HW113187   0.799   6.539   5.959
 4096SOL    HW213188   0.764   6.557   5.800
 4097SOL     OW13189   1.845   4.072   5.805
 4097SOL    HW113190   1.920   4.090   5.741
 4097SOL    HW213191   1.786   4.152   5.810
 4098SOL     OW13192   1.668   5.717   2.048
 4098SOL    HW113193   1.765   5.703   2.028
 4098SOL    HW213194   1.659   5.779   2.126
 4099SOL     OW13195   0.199   2.542   5.887
 4099SOL    HW113196   0.176   2.475   5.958
 4099SOL    HW213197   0.278   2.510   5.835
 4100SOL     OW13198   1.838   0.882   3.109
 4100SOL    HW113199   1.767   0.840   3.166
 4100SOL    HW213200   1.905   0.928   3.168
 4101SOL     OW13201   5.626   5.907   5.982
 4101SOL    HW113202   5.633   5.817   6.025
 4101SOL    HW213203   5.717   5.948   5.976
 4102SOL     OW13204   2.866   5.432   0.768
 4102SOL    HW113205   2.768   5.446   0.779
 4102SOL    HW213206   2.903   5.394   0.853
 4103SOL     OW13207   2.378   5.253   2.473
 4103SOL    HW113208   2.395   5.287   2.380
 4103SOL    HW213209   2.308   5.310   2.517
 4104SOL     OW13210   2.530   5.515   5.263
 4104SOL    HW113211   2.447   5.534   5.316
 4104SOL    HW213212   2.546   5.416   5.262
 4105SOL     OW13213   3.981   0.477   1.964
 4105SOL    HW113214   3.952   0.540   2.036
 4105SOL    HW213215   3.928   0.495   1.881
 4106SOL     OW13216   1.561   6.487   2.950
 4106SOL    HW113217   1.469   6.507   2.984
 4106SOL    HW213218   1.577   6.537   2.865
 4107SOL     OW13219   2.863   2.179   1.238
 4107SOL    HW113220   2.948   2.223   1.268
 4107SOL    HW213221   2.878   2.081   1.230
 4108SOL     OW13222   0.482   5.601   5.357
 4108SOL    HW113223   0.420   5.554   5.420
 4108SOL    HW213224   0.576   5.590   5.389
 4109SOL     OW13225   5.721   0.257   5.035
 4109SOL    HW113226   5.732   0.194   4.957
 4109SOL    HW213227   5.649   0.323   5.015
 4110SOL     OW13228   4.929   2.388   0.521
 4110SOL    HW113229   4.947   2.292   0.539
 4110SOL    HW213230   4.846   2.416   0.571
 4111SOL     OW13231   6.245   4.858   4.229
 4111SOL    HW113232   6.229   4.767   4.192
 4111SOL    HW213233   6.230   4.927   4.158
 4112SOL     OW13234   3.529   4.880   5.248
 4112SOL    HW113235   3.624   4.866   5.217
 4112SOL    HW213236   3.527   4.888   5.347
 4113SOL     OW13237   5.393   6.080   5.712
 4113SOL    HW113238   5.408   6.084   5.811
 4113SOL    HW213239   5.481   6.067   5.665
 4114SOL     OW13240   5.845   1.700   3.606
 4114SOL    HW113241   5.944   1.710   3.620
 4114SOL    HW213242   5.825   1.699   3.509
 4115SOL     OW13243   4.718   0.512   4.700
 4115SOL    HW113244   4.790   0.456   4.740
 4115SOL    HW213245   4.758   0.590   4.653
 4116SOL     OW13246   5.591   3.563   3.153
 4116SOL    HW113247   5.610   3.484   3.212
 4116SOL    HW213248   5.590   3.534   3.058
 4117SOL     OW13249   0.555   2.586   3.122
 4117SOL    HW113250   0.522   2.680   3.122
 4117SOL    HW213251   0.577   2.558   3.029
 4118SOL     OW13252   1.074   1.057   1.883
 4118SOL    HW113253   1.055   1.145   1.927
 4118SOL    HW213254   1.007   1.041   1.810
 4119SOL     OW13255   6.102   0.953   4.561
 4119SOL    HW113256   6.141   0.912   4.478
 4119SOL    HW213257   6.007   0.923   4.571
 4120SOL     OW13258   2.015   0.019   0.417
 4120SOL    HW113259   2.112   7.021   0.425
 4120SOL    HW213260   2.001   0.076   0.336
 4121SOL     OW13261   6.338   0.146   1.426
 4121SOL    HW113262   6.363   0.054   1.396
 4121SOL    HW213263   6.382   0.166   1.514
 4122SOL     OW13264   1.079   4.446   3.448
 4122SOL    HW113265   1.164   4.438   3.500
 4122SOL    HW213266   1.008   4.390   3.490
 4123SOL     OW13267   5.699   4.443   2.022
 4123SOL    HW113268   5.720   4.350   2.051
 4123SOL    HW213269   5.784   4.492   2.005
 4124SOL     OW13270   5.648   6.033   0.498
 4124SOL    HW113271   5.685   6.126   0.500
 4124SOL    HW213272   5.611   6.011   0.589
 4125SOL     OW13273   1.347   3.097   0.323
 4125SOL    HW113274   1.428   3.045   0.296
 4125SOL    HW213275   1.265   3.047   0.297
 4126SOL     OW13276   1.988   4.548   3.104
 4126SOL    HW113277   1.928   4.470   3.082
 4126SOL    HW213278   1.995   4.607   3.023
 4127SOL     OW13279   4.543   2.598   4.463
 4127SOL    HW113280   4.613   2.558   4.522
 4127SOL    HW213281   4.460   2.542   4.466
 4128SOL     OW13282   6.311   2.951   6.788
 4128SOL    HW113283   6.386   2.920   6.847
 4128SOL    HW213284   6.240   2.880   6.784
 4129SOL     OW13285   3.078   6.672   2.025
 4129SOL    HW113286   3.157   6.619   1.994
 4129SOL    HW213287   3.097   6.711   2.115
 4130SOL     OW13288   4.799   1.281   6.964
 4130SOL    HW113289   4.710   1.325   6.946
 4130SOL    HW213290   4.785   1.200   7.020
 4131SOL     OW13291   5.314   5.939   4.282
 4131SOL    HW113292   5.340   6.036   4.278
 4131SOL    HW213293   5.263   5.915   4.200
 4132SOL     OW13294   0.224   3.279   2.593
 4132SOL    HW113295   0.291   3.350   2.611
 4132SOL    HW213296   0.266   3.208   2.536
 4133SOL     OW13297   5.218   6.248   3.924
 4133SOL    HW113298   5.218   6.173   3.859
 4133SOL    HW213299   5.171   6.327   3.885
 4134SOL     OW13300   1.858   2.972   1.343
 4134SOL    HW113301   1.806   3.051   1.377
 4134SOL    HW213302   1.863   2.977   1.243
 4135SOL     OW13303   5.918   0.690   0.778
 4135SOL    HW113304   5.928   0.789   0.767
 4135SOL    HW213305   5.983   0.658   0.847
 4136SOL     OW13306   0.797   5.165   0.149
 4136SOL    HW113307   0.850   5.080   0.148
 4136SOL    HW213308   0.857   5.242   0.172
 4137SOL     OW13309   0.246   2.056   5.397
 4137SOL    HW113310   0.249   1.972   5.343
 4137SOL    HW213311   0.202   2.129   5.343
 4138SOL     OW13312   5.518   6.303   6.520
 4138SOL    HW113313   5.433   6.325   6.566
 4138SOL    HW213314   5.582   6.379   6.530
 4139SOL     OW13315   1.246   4.133   2.078
 4139SOL    HW113316   1.344   4.116   2.090
 4139SOL    HW213317   1.232   4.197   2.002
 4140SOL     OW13318   2.092   6.617   0.532
 4140SOL    HW113319   2.028   6.668   0.474
 4140SOL    HW213320   2.144   6.681   0.589
 4141SOL     OW13321   5.115   6.805   5.947
 4141SOL    HW113322   5.059   6.789   5.866
 4141SOL    HW213323   5.117   6.722   6.003
 4142SOL     OW13324   0.094   6.867   1.941
 4142SOL    HW113325   0.094   6.768   1.929
 4142SOL    HW213326   0.009   6.905   1.904
 4143SOL     OW13327   6.363   3.844   6.772
 4143SOL    HW113328   6.377   3.826   6.675
 4143SOL    HW213329   6.300   3.776   6.810
 4144SOL     OW13330   5.151   0.578   1.775
 4144SOL    HW113331   5.154   0.541   1.868
 4144SOL    HW213332   5.057   0.573   1.741
 4145SOL     OW13333   4.360   0.824   1.054
 4145SOL    HW113334   4.324   0.732   1.035
 4145SOL    HW213335   4.426   0.849   0.984
 4146SOL     OW13336   2.972   1.302   1.666
 4146SOL    HW113337   2.920   1.328   1.747
 4146SOL    HW213338   2.916   1.314   1.584
 4147SOL     OW13339   5.344   4.131   0.102
 4147SOL    HW113340   5.273   4.170   0.043
 4147SOL    HW213341   5.301   4.089   0.182
 4148SOL     OW13342   3.387   0.569   6.175
 4148SOL    HW113343   3.364   0.476   6.203
 4148SOL    HW213344   3.303   0.623   6.168
 4149SOL     OW13345   1.935   2.393   6.300
 4149SOL    HW113346   1.952   2.406   6.202
 4149SOL    HW213347   1.891   2.305   6.315
 4150SOL     OW13348   0.100   1.268   1.342
 4150SOL    HW113349   0.069   1.190   1.288
 4150SOL    HW213350   0.122   1.238   1.435
 4151SOL     OW13351   3.080   5.622   4.386
 4151SOL    HW113352   3.032   5.577   4.462
 4151SOL    HW213353   3.166   5.660   4.420
 4152SOL     OW13354   2.742   3.823   1.283
 4152SOL    HW113355   2.836   3.843   1.255
 4152SOL    HW213356   2.714   3.885   1.356
 4153SOL     OW13357   5.819   6.690   0.079
 4153SOL    HW113358   5.828   6.746   7.023
 4153SOL    HW213359   5.796   6.749   0.157
 4154SOL     OW13360   0.924   6.790   3.438
 4154SOL    HW113361   0.897   6.868   3.382
 4154SOL    HW213362   0.882   6.798   3.529
 4155SOL     OW13363   5.294   1.350   2.488
 4155SOL    HW113364   5.326   1.429   2.541
 4155SOL    HW213365   5.270   1.276   2.550
 4156SOL     OW13366   0.344   5.512   6.136
 4156SOL    HW113367   0.277   5.575   6.097
 4156SOL    HW213368   0.339   5.424   6.089
 4157SOL     OW13369   4.211   6.241   0.639
 4157SOL    HW113370   4.301   6.283   0.648
 4157SOL    HW213371   4.213   6.150   0.680
 4158SOL     OW13372   6.748   0.881   6.371
 4158SOL    HW113373   6.801   0.830   6.440
 4158SOL    HW213374   6.783   0.974   6.365
 4159SOL     OW13375   3.469   0.946   4.184
 4159SOL    HW113376   3.415   1.028   4.203
 4159SOL    HW213377   3.472   0.930   4.085
 4160SOL     OW13378   1.190   0.671   5.763
 4160SOL    HW113379   1.116   0.726   5.801
 4160SOL    HW213380   1.247   0.637   5.837
 4161SOL     OW13381   3.142   3.548   5.242
 4161SOL    HW113382   3.101   3.466   5.280
 4161SOL    HW213383   3.141   3.622   5.310
 4162SOL     OW13384   4.706   6.979   0.827
 4162SOL    HW113385   4.799   6.978   0.865
 4162SOL    HW213386   4.674   6.886   0.813
 4163SOL     OW13387   3.878   6.337   1.334
 4163SOL    HW113388   3.838   6.422   1.302
 4163SOL    HW213389   3.821   6.260   1.304
 4164SOL     OW13390   5.955   1.615   0.029
 4164SOL    HW113391   5.999   1.526   0.022
 4164SOL    HW213392   5.914   1.625   0.120
 4165SOL     OW13393   3.394   1.200   4.855
 4165SOL    HW113394   3.493   1.206   4.857
 4165SOL    HW213395   3.367   1.108   4.825
 4166SOL     OW13396   5.459   1.972   2.383
 4166SOL    HW113397   5.554   1.953   2.356
 4166SOL    HW213398   5.455   2.057   2.435
 4167SOL     OW13399   3.656   6.247   4.618
 4167SOL    HW113400   3.749   6.249   4.655
 4167SOL    HW213401   3.658   6.275   4.522
 4168SOL     OW13402   5.661   3.344   7.021
 4168SOL    HW113403   5.727   3.282   6.977
 4168SOL    HW213404   5.687   3.439   7.003
 4169SOL     OW13405   5.136   4.416   0.074
 4169SOL    HW113406   5.206   4.440   0.141
 4169SOL    HW213407   5.180   4.380   7.017
 4170SOL     OW13408   0.781   3.195   5.191
 4170SOL    HW113409   0.816   3.132   5.261
 4170SOL    HW213410   0.771   3.286   5.231
 4171SOL     OW13411   0.157   6.852   6.115
 4171SOL    HW113412   0.183   6.813   6.026
 4171SOL    HW213413   0.181   6.949   6.117
 4172SOL     OW13414   3.566   3.149   0.178
 4172SOL    HW113415   3.545   3.101   0.263
 4172SOL    HW213416   3.482   3.164   0.126
 4173SOL     OW13417   5.689   1.697   5.750
 4173SOL    HW113418   5.760   1.693   5.820
 4173SOL    HW213419   5.721   1.651   5.667
 4174SOL     OW13420   2.414   6.658   3.858
 4174SOL    HW113421   2.438   6.729   3.924
 4174SOL    HW213422   2.367   6.583   3.905
 4175SOL     OW13423   1.955   3.341   6.320
 4175SOL    HW113424   2.043   3.296   6.308
 4175SOL    HW213425   1.918   3.367   6.231
 4176SOL     OW13426   4.390   6.980   5.105
 4176SOL    HW113427   4.450   6.904   5.129
 4176SOL    HW213428   4.430   0.007   5.030
 4177SOL     OW13429   5.413   6.148   4.147
 4177SOL    HW113430   5.417   6.082   4.072
 4177SOL    HW213431   5.384   6.237   4.111
 4178SOL     OW13432   2.623   6.435   0.792
 4178SOL    HW113433   2.705   6.379   0.807
 4178SOL    HW213434   2.573   6.445   0.877
 4179SOL     OW13435   3.849   1.747   0.197
 4179SOL    HW113436   3.826   1.683   0.271
 4179SOL    HW213437   3.769   1.760   0.139
 4180SOL     OW13438   4.036   4.380   0.024
 4180SOL    HW113439   3.956   4.348   0.075
 4180SOL    HW213440   4.047   4.324   6.968
 4181SOL     OW13441   5.021   6.355   6.356
 4181SOL    HW113442   4.959   6.433   6.359
 4181SOL    HW213443   5.116   6.387   6.361
 4182SOL     OW13444   6.152   5.340   5.526
 4182SOL    HW113445   6.173   5.385   5.612
 4182SOL    HW213446   6.094   5.261   5.543
 4183SOL     OW13447   5.491   2.727   6.955
 4183SOL    HW113448   5.555   2.664   7.000
 4183SOL    HW213449   5.530   2.819   6.953
 4184SOL     OW13450   3.516   5.704   3.786
 4184SOL    HW113451   3.576   5.769   3.741
 4184SOL    HW213452   3.562   5.615   3.793
 4185SOL     OW13453   4.425   4.519   3.398
 4185SOL    HW113454   4.511   4.473   3.423
 4185SOL    HW213455   4.400   4.493   3.305
 4186SOL     OW13456   1.902   4.636   0.785
 4186SOL    HW113457   1.981   4.650   0.726
 4186SOL    HW213458   1.919   4.680   0.874
 4187SOL     OW13459   1.367   3.716   5.997
 4187SOL    HW113460   1.284   3.704   5.942
 4187SOL    HW213461   1.447   3.691   5.942
 4188SOL     OW13462   5.388   0.266   5.994
 4188SOL    HW113463   5.398   0.173   5.959
 4188SOL    HW213464   5.291   0.289   6.002
 4189SOL     OW13465   3.677   5.200   3.725
 4189SOL    HW113466   3.648   5.105   3.736
 4189SOL    HW213467   3.724   5.231   3.807
 4190SOL     OW13468   6.887   5.762   1.708
 4190SOL    HW113469   6.834   5.828   1.655
 4190SOL    HW213470   6.962   5.809   1.755
 4191SOL     OW13471   4.961   2.948   5.917
 4191SOL    HW113472   4.957   2.945   5.818
 4191SOL    HW213473   5.026   3.018   5.946
 4192SOL     OW13474   1.958   3.582   6.504
 4192SOL    HW113475   1.909   3.627   6.579
 4192SOL    HW213476   1.917   3.493   6.486
 4193SOL     OW13477   4.935   6.559   1.676
 4193SOL    HW113478   5.016   6.504   1.655
 4193SOL    HW213479   4.925   6.564   1.775
 4194SOL     OW13480   5.631   0.033   6.759
 4194SOL    HW113481   5.634   6.977   6.818
 4194SOL    HW213482   5.617   0.005   6.664
 4195SOL     OW13483   1.762   6.090   0.695
 4195SOL    HW113484   1.675   6.052   0.727
 4195SOL    HW213485   1.795   6.036   0.617
 4196SOL     OW13486   6.212   3.150   2.890
 4196SOL    HW113487   6.285   3.196   2.840
 4196SOL    HW213488   6.133   3.211   2.895
 4197SOL     OW13489   4.168   0.742   6.724
 4197SOL    HW113490   4.142   0.830   6.766
 4197SOL    HW213491   4.231   0.694   6.786
 4198SOL     OW13492   6.329   1.995   1.891
 4198SOL    HW113493   6.248   1.987   1.949
 4198SOL    HW213494   6.375   2.082   1.910
 4199SOL     OW13495   1.212   3.543   0.169
 4199SOL    HW113496   1.115   3.549   0.191
 4199SOL    HW213497   1.261   3.619   0.212
 4200SOL     OW13498   4.997   1.268   2.823
 4200SOL    HW113499   5.075   1.235   2.770
 4200SOL    HW213500   4.958   1.193   2.877
 4201SOL     OW13501   4.751   0.280   5.601
 4201SOL    HW113502   4.839   0.326   5.597
 4201SOL    HW213503   4.715   0.268   5.508
 4202SOL     OW13504   4.541   3.989   1.251
 4202SOL    HW113505   4.555   3.900   1.295
 4202SOL    HW213506   4.581   4.061   1.308
 4203SOL     OW13507   6.332   3.756   4.509
 4203SOL    HW113508   6.391   3.786   4.434
 4203SOL    HW213509   6.362   3.665   4.540
 4204SOL     OW13510   2.776   4.209   5.824
 4204SOL    HW113511   2.873   4.233   5.815
 4204SOL    HW213512   2.766   4.110   5.830
 4205SOL     OW13513   5.744   5.183   6.269
 4205SOL    HW113514   5.784   5.146   6.185
 4205SOL    HW213515   5.652   5.218   6.251
 4206SOL     OW13516   2.439   2.656   4.821
 4206SOL    HW113517   2.513   2.590   4.806
 4206SOL    HW213518   2.458   2.709   4.903
 4207SOL     OW13519   3.019   2.356   1.368
 4207SOL    HW113520   3.116   2.373   1.351
 4207SOL    HW213521   2.994   2.398   1.456
 4208SOL     OW13522   1.692   2.479   3.087
 4208SOL    HW113523   1.604   2.432   3.074
 4208SOL    HW213524   1.754   2.455   3.013
 4209SOL     OW13525   6.639   5.076   2.923
 4209SOL    HW113526   6.579   5.091   2.845
 4209SOL    HW213527   6.613   5.138   2.998
 4210SOL     OW13528   3.389   5.444   5.208
 4210SOL    HW113529   3.415   5.445   5.305
 4210SOL    HW213530   3.387   5.350   5.175
 4211SOL     OW13531   4.982   3.102   6.256
 4211SOL    HW113532   4.886   3.123   6.241
 4211SOL    HW213533   5.005   3.114   6.352
 4212SOL     OW13534   0.261   2.964   2.650
 4212SOL    HW113535   0.172   2.965   2.695
 4212SOL    HW213536   0.328   3.012   2.708
 4213SOL     OW13537   3.050   0.880   3.826
 4213SOL    HW113538   3.028   0.977   3.812
 4213SOL    HW213539   2.987   0.840   3.892
 4214SOL     OW13540   6.503   5.913   4.075
 4214SOL    HW113541   6.424   5.950   4.124
 4214SOL    HW213542   6.582   5.971   4.092
 4215SOL     OW13543   5.999   7.025   5.000
 4215SOL    HW113544   6.086   0.006   5.048
 4215SOL    HW213545   5.992   0.071   4.931
 4216SOL     OW13546   1.480   5.386   2.579
 4216SOL    HW113547   1.518   5.455   2.640
 4216SOL    HW213548   1.456   5.305   2.632
 4217SOL     OW13549   0.407   0.610   2.870
 4217SOL    HW113550   0.427   0.518   2.901
 4217SOL    HW213551   0.311   0.616   2.842
 4218SOL     OW13552   2.742   0.530   1.999
 4218SOL    HW113553   2.755   0.434   1.975
 4218SOL    HW213554   2.816   0.585   1.960
 4219SOL     OW13555   2.513   5.313   1.988
 4219SOL    HW113556   2.450   5.353   1.921
 4219SOL    HW213557   2.607   5.318   1.953
 4220SOL     OW13558   5.200   1.775   0.730
 4220SOL    HW113559   5.260   1.698   0.753
 4220SOL    HW213560   5.254   1.860   0.729
 4221SOL     OW13561   0.496   6.711   1.137
 4221SOL    HW113562   0.402   6.678   1.149
 4221SOL    HW213563   0.554   6.635   1.108
 4222SOL     OW13564   5.484   3.815   4.341
 4222SOL    HW113565   5.541   3.750   4.290
 4222SOL    HW213566   5.491   3.905   4.299
 4223SOL     OW13567   3.263   4.155   2.696
 4223SOL    HW113568   3.213   4.237   2.669
 4223SOL    HW213569   3.349   4.180   2.740
 4224SOL     OW13570   4.675   4.130   5.305
 4224SOL    HW113571   4.747   4.117   5.373
 4224SOL    HW213572   4.598   4.071   5.325
 4225SOL     OW13573   0.697   1.477   6.113
 4225SOL    HW113574   0.747   1.392   6.128
 4225SOL    HW213575   0.674   1.518   6.201
 4226SOL     OW13576   4.913   5.434   3.891
 4226SOL    HW113577   4.945   5.527   3.903
 4226SOL    HW213578   4.987   5.370   3.912
 4227SOL     OW13579   5.970   5.888   1.238
 4227SOL    HW113580   6.017   5.800   1.238
 4227SOL    HW213581   5.871   5.873   1.234
 4228SOL     OW13582   1.988   5.187   3.288
 4228SOL    HW113583   2.037   5.117   3.235
 4228SOL    HW213584   1.956   5.147   3.373
 4229SOL     OW13585   6.322   6.436   6.054
 4229SOL    HW113586   6.363   6.456   6.144
 4229SOL    HW213587   6.332   6.339   6.034
 4230SOL     OW13588   0.462   1.931   2.317
 4230SOL    HW113589   0.491   1.836   2.328
 4230SOL    HW213590   0.392   1.937   2.246
 4231SOL     OW13591   0.055   0.358   5.796
 4231SOL    HW113592   0.111   0.286   5.837
 4231SOL    HW213593   7.004   0.380   5.857
 4232SOL     OW13594   2.317   4.425   2.383
 4232SOL    HW113595   2.341   4.340   2.338
 4232SOL    HW213596   2.389   4.493   2.368
 4233SOL     OW13597   4.885   5.272   2.533
 4233SOL    HW113598   4.883   5.293   2.631
 4233SOL    HW213599   4.815   5.326   2.486
 4234SOL     OW13600   2.828   5.439   6.391
 4234SOL    HW113601   2.837   5.351   6.436
 4234SOL    HW213602   2.792   5.507   6.455
 4235SOL     OW13603   6.552   6.085   0.390
 4235SOL    HW113604   6.611   6.123   0.320
 4235SOL    HW213605   6.552   5.985   0.383
 4236SOL     OW13606   0.427   5.232   3.882
 4236SOL    HW113607   0.436   5.197   3.789
 4236SOL    HW213608   0.363   5.309   3.882
 4237SOL     OW13609   0.265   5.019   4.480
 4237SOL    HW113610   0.208   5.095   4.509
 4237SOL    HW213611   0.238   4.936   4.527
 4238SOL     OW13612   1.944   6.007   3.288
 4238SOL    HW113613   1.974   5.943   3.358
 4238SOL    HW213614   1.876   6.069   3.327
 4239SOL     OW13615   3.902   1.067   3.659
 4239SOL    HW113616   3.950   1.153   3.674
 4239SOL    HW213617   3.832   1.055   3.729
 4240SOL     OW13618   4.261   6.848   1.568
 4240SOL    HW113619   4.165   6.877   1.567
 4240SOL    HW213620   4.307   6.889   1.647
 4241SOL     OW13621   0.633   4.387   6.265
 4241SOL    HW113622   0.658   4.478   6.296
 4241SOL    HW213623   0.660   4.319   6.334
 4242SOL     OW13624   3.731   2.009   2.548
 4242SOL    HW113625   3.771   2.057   2.626
 4242SOL    HW213626   3.718   2.072   2.472
 4243SOL     OW13627   2.238   2.184   2.899
 4243SOL    HW113628   2.295   2.262   2.925
 4243SOL    HW213629   2.155   2.183   2.955
 4244SOL     OW13630   2.899   2.944   5.524
 4244SOL    HW113631   2.866   3.002   5.450
 4244SOL    HW213632   2.826   2.931   5.591
 4245SOL     OW13633   6.575   0.540   5.637
 4245SOL    HW113634   6.618   0.515   5.551
 4245SOL    HW213635   6.537   0.633   5.630
 4246SOL     OW13636   1.042   5.346   6.230
 4246SOL    HW113637   0.969   5.413   6.220
 4246SOL    HW213638   1.065   5.308   6.140
 4247SOL     OW13639   0.253   4.790   5.193
 4247SOL    HW113640   0.239   4.887   5.170
 4247SOL    HW213641   0.259   4.736   5.109
 4248SOL     OW13642   1.892   3.647   6.747
 4248SOL    HW113643   1.847   3.732   6.777
 4248SOL    HW213644   1.937   3.604   6.826
 4249SOL     OW13645   4.969   3.200   5.740
 4249SOL    HW113646   4.969   3.171   5.835
 4249SOL    HW213647   4.881   3.179   5.698
 4250SOL     OW13648   0.069   4.237   3.989
 4250SOL    HW113649   0.027   4.327   3.975
 4250SOL    HW213650   0.064   4.184   3.904
 4251SOL     OW13651   5.428   4.798   6.106
 4251SOL    HW113652   5.452   4.866   6.037
 4251SOL    HW213653   5.458   4.707   6.074
 4252SOL     OW13654   6.466   4.873   5.588
 4252SOL    HW113655   6.471   4.866   5.488
 4252SOL    HW213656   6.543   4.822   5.628
 4253SOL     OW13657   3.012   0.112   3.554
 4253SOL    HW113658   2.999   0.049   3.477
 4253SOL    HW213659   2.947   0.188   3.546
 4254SOL     OW13660   3.937   3.591   3.637
 4254SOL    HW113661   3.872   3.606   3.711
 4254SOL    HW213662   3.966   3.495   3.638
 4255SOL     OW13663   0.503   1.952   4.519
 4255SOL    HW113664   0.461   1.887   4.583
 4255SOL    HW213665   0.467   1.937   4.427
 4256SOL     OW13666   1.123   0.515   1.439
 4256SOL    HW113667   1.027   0.490   1.427
 4256SOL    HW213668   1.174   0.437   1.474
 4257SOL     OW13669   4.528   2.481   4.798
 4257SOL    HW113670   4.432   2.452   4.806
 4257SOL    HW213671   4.575   2.464   4.884
 4258SOL     OW13672   5.714   6.258   1.866
 4258SOL    HW113673   5.791   6.298   1.817
 4258SOL    HW213674   5.645   6.330   1.883
 4259SOL     OW13675   3.099   2.877   1.792
 4259SOL    HW113676   3.036   2.811   1.751
 4259SOL    HW213677   3.048   2.955   1.827
 4260SOL     OW13678   3.878   5.484   4.967
 4260SOL    HW113679   3.890   5.548   4.891
 4260SOL    HW213680   3.801   5.513   5.023
 4261SOL     OW13681   1.125   1.293   2.887
 4261SOL    HW113682   1.222   1.310   2.907
 4261SOL    HW213683   1.081   1.252   2.967
 4262SOL     OW13684   1.243   6.834   5.026
 4262SOL    HW113685   1.282   6.781   4.951
 4262SOL    HW213686   1.237   6.777   5.108
 4263SOL     OW13687   4.404   5.803   0.055
 4263SOL    HW113688   4.382   5.899   0.072
 4263SOL    HW213689   4.348   5.769   7.006
 4264SOL     OW13690   1.976   0.832   1.261
 4264SOL    HW113691   1.932   0.917   1.232
 4264SOL    HW213692   2.073   0.850   1.280
 4265SOL     OW13693   2.353   1.509   1.215
 4265SOL    HW113694   2.399   1.590   1.179
 4265SOL    HW213695   2.288   1.475   1.147
 4266SOL     OW13696   2.433   5.053   0.360
 4266SOL    HW113697   2.528   5.030   0.383
 4266SOL    HW213698   2.391   4.977   0.311
 4267SOL     OW13699   1.471   3.260   4.879
 4267SOL    HW113700   1.474   3.353   4.915
 4267SOL    HW213701   1.500   3.196   4.950
 4268SOL     OW13702   0.539   1.769   0.944
 4268SOL    HW113703   0.461   1.757   0.882
 4268SOL    HW213704   0.542   1.693   1.009
 4269SOL     OW13705   3.038   3.906   1.215
 4269SOL    HW113706   3.115   3.845   1.197
 4269SOL    HW213707   3.072   4.000   1.224
 4270SOL     OW13708   3.777   3.019   0.003
 4270SOL    HW113709   3.722   3.076   0.064
 4270SOL    HW213710   3.870   3.057   7.023
 4271SOL     OW13711   1.999   0.536   0.850
 4271SOL    HW113712   2.085   0.492   0.879
 4271SOL    HW213713   1.962   0.590   0.925
 4272SOL     OW13714   1.351   4.838   3.523
 4272SOL    HW113715   1.393   4.908   3.580
 4272SOL    HW213716   1.263   4.810   3.562
 4273SOL     OW13717   0.083   6.231   3.244
 4273SOL    HW113718   0.031   6.314   3.263
 4273SOL    HW213719   0.063   6.199   3.151
 4274SOL     OW13720   1.555   0.340   3.470
 4274SOL    HW113721   1.513   0.288   3.396
 4274SOL    HW213722   1.557   0.284   3.553
 4275SOL     OW13723   0.365   0.447   5.859
 4275SOL    HW113724   0.347   0.502   5.777
 4275SOL    HW213725   0.307   0.478   5.934
 4276SOL     OW13726   2.068   3.448   3.134
 4276SOL    HW113727   2.040   3.537   3.171
 4276SOL    HW213728   2.060   3.378   3.206
 4277SOL     OW13729   0.493   5.981   6.055
 4277SOL    HW113730   0.509   6.045   6.130
 4277SOL    HW213731   0.420   5.918   6.079
 4278SOL     OW13732   1.381   6.456   6.507
 4278SOL    HW113733   1.442   6.435   6.431
 4278SOL    HW213734   1.381   6.379   6.572
 4279SOL     OW13735   3.928   5.652   3.597
 4279SOL    HW113736   3.913   5.690   3.506
 4279SOL    HW213737   3.874   5.702   3.664
 4280SOL     OW13738   4.841   3.051   4.398
 4280SOL    HW113739   4.864   3.075   4.304
 4280SOL    HW213740   4.771   2.980   4.399
 4281SOL     OW13741   2.170   4.158   4.510
 4281SOL    HW113742   2.189   4.110   4.595
 4281SOL    HW213743   2.234   4.235   4.500
 4282SOL     OW13744   0.889   0.992   0.082
 4282SOL    HW113745   0.965   0.948   0.130
 4282SOL    HW213746   0.853   1.067   0.138
 4283SOL     OW13747   2.876   1.385   3.865
 4283SOL    HW113748   2.805   1.455   3.851
 4283SOL    HW213749   2.934   1.412   3.942
 4284SOL     OW13750   6.595   2.625   2.959
 4284SOL    HW113751   6.681   2.660   2.922
 4284SOL    HW213752   6.568   2.680   3.039
 4285SOL     OW13753   0.760   6.393   3.607
 4285SOL    HW113754   0.855   6.381   3.576
 4285SOL    HW213755   0.724   6.479   3.570
 4286SOL     OW13756   5.065   5.173   0.312
 4286SOL    HW113757   5.042   5.084   0.352
 4286SOL    HW213758   5.012   5.186   0.228
 4287SOL     OW13759   3.978   5.706   6.058
 4287SOL    HW113760   3.955   5.612   6.034
 4287SOL    HW213761   3.894   5.760   6.066
 4288SOL     OW13762   0.530   6.420   4.573
 4288SOL    HW113763   0.624   6.385   4.574
 4288SOL    HW213764   0.529   6.514   4.605
 4289SOL     OW13765   0.745   4.238   6.598
 4289SOL    HW113766   0.799   4.316   6.630
 4289SOL    HW213767   0.745   4.166   6.667
 4290SOL     OW13768   1.406   1.930   2.727
 4290SOL    HW113769   1.504   1.913   2.737
 4290SOL    HW213770   1.388   2.028   2.728
 4291SOL     OW13771   6.758   3.717   1.780
 4291SOL    HW113772   6.739   3.781   1.706
 4291SOL    HW213773   6.675   3.704   1.835
 4292SOL     OW13774   5.494   6.015   5.338
 4292SOL    HW113775   5.552   6.018   5.257
 4292SOL    HW213776   5.431   5.937   5.331
 4293SOL     OW13777   0.967   1.894   0.305
 4293SOL    HW113778   1.061   1.918   0.329
 4293SOL    HW213779   0.957   1.893   0.206
 4294SOL     OW13780   4.687   2.196   5.823
 4294SOL    HW113781   4.785   2.203   5.836
 4294SOL    HW213782   4.655   2.106   5.853
 4295SOL     OW13783   3.268   4.857   5.600
 4295SOL    HW113784   3.240   4.767   5.566
 4295SOL    HW213785   3.187   4.913   5.614
 4296SOL     OW13786   2.071   1.791   2.581
 4296SOL    HW113787   2.069   1.864   2.512
 4296SOL    HW213788   2.060   1.703   2.536
 4297SOL     OW13789   5.425   0.272   0.022
 4297SOL    HW113790   5.497   0.342   0.019
 4297SOL    HW213791   5.379   0.275   0.110
 4298SOL     OW13792   1.529   4.612   1.970
 4298SOL    HW113793   1.434   4.618   2.001
 4298SOL    HW213794   1.544   4.523   1.926
 4299SOL     OW13795   1.302   5.508   4.943
 4299SOL    HW113796   1.283   5.416   4.911
 4299SOL    HW213797   1.242   5.573   4.895
 4300SOL     OW13798   6.001   0.208   5.595
 4300SOL    HW113799   6.058   0.219   5.677
 4300SOL    HW213800   6.053   0.162   5.524
 4301SOL     OW13801   2.828   0.617   0.660
 4301SOL    HW113802   2.840   0.531   0.611
 4301SOL    HW213803   2.732   0.646   0.656
 4302SOL     OW13804   0.561   0.524   7.025
 4302SOL    HW113805   0.654   0.558   7.010
 4302SOL    HW213806   0.502   0.600   0.026
 4303SOL     OW13807   0.585   4.233   2.230
 4303SOL    HW113808   0.643   4.227   2.148
 4303SOL    HW213809   0.626   4.297   2.295
 4304SOL     OW13810   2.273   3.480   5.953
 4304SOL    HW113811   2.258   3.448   6.046
 4304SOL    HW213812   2.370   3.500   5.939
 4305SOL     OW13813   0.688   1.362   5.035
 4305SOL    HW113814   0.629   1.394   4.961
 4305SOL    HW213815   0.661   1.269   5.061
 4306SOL     OW13816   6.066   5.662   5.628
 4306SOL    HW113817   6.136   5.611   5.677
 4306SOL    HW213818   5.981   5.608   5.624
 4307SOL     OW13819   6.186   3.612   1.221
 4307SOL    HW113820   6.142   3.685   1.272
 4307SOL    HW213821   6.226   3.648   1.137
 4308SOL     OW13822   3.171   0.390   5.301
 4308SOL    HW113823   3.221   0.371   5.217
 4308SOL    HW213824   3.153   0.305   5.350
 4309SOL     OW13825   1.062   0.810   1.297
 4309SOL    HW113826   1.100   0.724   1.263
 4309SOL    HW213827   1.035   0.800   1.393
 4310SOL     OW13828   1.639   6.911   2.662
 4310SOL    HW113829   1.696   6.930   2.742
 4310SOL    HW213830   1.556   6.967   2.666
 4311SOL     OW13831   1.125   5.028   5.089
 4311SOL    HW113832   1.188   5.105   5.090
 4311SOL    HW213833   1.123   4.988   4.997
 4312SOL     OW13834   1.626   5.709   2.392
 4312SOL    HW113835   1.688   5.707   2.470
 4312SOL    HW213836   1.609   5.616   2.360
 4313SOL     OW13837   5.077   1.148   1.118
 4313SOL    HW113838   5.096   1.108   1.028
 4313SOL    HW213839   5.047   1.076   1.180
 4314SOL     OW13840   0.005   2.934   1.597
 4314SOL    HW113841   6.967   2.991   1.545
 4314SOL    HW213842   0.061   2.992   1.655
 4315SOL     OW13843   1.171   1.351   1.964
 4315SOL    HW113844   1.111   1.431   1.964
 4315SOL    HW213845   1.132   1.280   2.023
 4316SOL     OW13846   6.900   1.435   2.473
 4316SOL    HW113847   6.843   1.517   2.470
 4316SOL    HW213848   6.910   1.404   2.568
 4317SOL     OW13849   3.946   1.055   3.158
 4317SOL    HW113850   3.939   1.040   3.256
 4317SOL    HW213851   4.027   1.110   3.138
 4318SOL     OW13852   7.015   2.147   4.950
 4318SOL    HW113853   7.006   2.077   5.020
 4318SOL    HW213854   0.086   2.162   4.930
 4319SOL     OW13855   4.303   2.950   6.418
 4319SOL    HW113856   4.384   2.923   6.366
 4319SOL    HW213857   4.228   2.887   6.398
 4320SOL     OW13858   0.130   6.624   3.609
 4320SOL    HW113859   0.130   6.647   3.706
 4320SOL    HW213860   0.069   6.547   3.592
 4321SOL     OW13861   0.355   0.101   4.317
 4321SOL    HW113862   0.323   0.154   4.396
 4321SOL    HW213863   0.400   0.163   4.252
 4322SOL     OW13864   6.780   0.924   0.233
 4322SOL    HW113865   6.688   0.887   0.247
 4322SOL    HW213866   6.830   0.865   0.169
 4323SOL     OW13867   0.061   2.368   4.158
 4323SOL    HW113868   0.078   2.452   4.211
 4323SOL    HW213869   0.000   2.388   4.082
 4324SOL     OW13870   6.065   2.755   5.363
 4324SOL    HW113871   6.089   2.841   5.409
 4324SOL    HW213872   5.974   2.762   5.324
 4325SOL     OW13873   2.520   2.384   6.390
 4325SOL    HW113874   2.554   2.466   6.345
 4325SOL    HW213875   2.587   2.350   6.456
 4326SOL     OW13876   0.111   2.277   5.267
 4326SOL    HW113877   0.014   2.255   5.268
 4326SOL    HW213878   0.129   2.354   5.328
 4327SOL     OW13879   4.614   0.702   3.278
 4327SOL    HW113880   4.538   0.715   3.342
 4327SOL    HW213881   4.577   0.683   3.187
 4328SOL     OW13882   6.111   4.927   0.848
 4328SOL    HW113883   6.166   4.935   0.931
 4328SOL    HW213884   6.166   4.888   0.774
 4329SOL     OW13885   5.280   1.574   5.964
 4329SOL    HW113886   5.286   1.476   5.980
 4329SOL    HW213887   5.280   1.622   6.052
 4330SOL     OW13888   1.055   0.463   6.317
 4330SOL    HW113889   0.997   0.521   6.374
 4330SOL    HW213890   1.123   0.519   6.271
 4331SOL     OW13891   5.446   3.099   6.221
 4331SOL    HW113892   5.422   3.020   6.277
 4331SOL    HW213893   5.410   3.087   6.128
 4332SOL     OW13894   6.097   4.501   2.009
 4332SOL    HW113895   6.157   4.551   1.947
 4332SOL    HW213896   6.055   4.424   1.962
 4333SOL     OW13897   6.703   1.813   4.967
 4333SOL    HW113898   6.737   1.898   4.926
 4333SOL    HW213899   6.690   1.826   5.065
 4334SOL     OW13900   4.055   6.886   1.909
 4334SOL    HW113901   4.048   6.789   1.889
 4334SOL    HW213902   4.045   6.901   2.008
 4335SOL     OW13903   4.051   4.179   6.351
 4335SOL    HW113904   3.969   4.214   6.395
 4335SOL    HW213905   4.026   4.118   6.275
 4336SOL     OW13906   0.891   0.330   5.577
 4336SOL    HW113907   0.800   0.370   5.585
 4336SOL    HW213908   0.907   0.267   5.652
 4337SOL     OW13909   1.132   5.875   6.226
 4337SOL    HW113910   1.039   5.894   6.195
 4337SOL    HW213911   1.158   5.782   6.200
 4338SOL     OW13912   5.415   6.432   2.962
 4338SOL    HW113913   5.329   6.403   3.005
 4338SOL    HW213914   5.434   6.374   2.883
 4339SOL     OW13915   6.806   0.975   0.501
 4339SOL    HW113916   6.745   0.923   0.562
 4339SOL    HW213917   6.792   0.945   0.407
 4340SOL     OW13918   4.885   3.358   1.395
 4340SOL    HW113919   4.814   3.290   1.412
 4340SOL    HW213920   4.843   3.449   1.389
 4341SOL     OW13921   1.485   3.607   0.895
 4341SOL    HW113922   1.481   3.702   0.862
 4341SOL    HW213923   1.524   3.606   0.987
 4342SOL     OW13924   0.120   2.795   2.893
 4342SOL    HW113925   0.042   2.807   2.832
 4342SOL    HW213926   0.194   2.748   2.845
 4343SOL     OW13927   3.231   3.585   1.585
 4343SOL    HW113928   3.222   3.640   1.501
 4343SOL    HW213929   3.168   3.621   1.654
 4344SOL     OW13930   2.466   3.264   1.713
 4344SOL    HW113931   2.549   3.259   1.768
 4344SOL    HW213932   2.415   3.347   1.739
 4345SOL     OW13933   2.859   0.502   5.937
 4345SOL    HW113934   2.886   0.595   5.915
 4345SOL    HW213935   2.761   0.491   5.924
 4346SOL     OW13936   6.945   3.738   2.047
 4346SOL    HW113937   6.944   3.791   1.963
 4346SOL    HW213938   6.973   3.644   2.028
 4347SOL     OW13939   5.036   6.128   2.444
 4347SOL    HW113940   5.105   6.084   2.503
 4347SOL    HW213941   4.946   6.117   2.484
 4348SOL     OW13942   1.076   3.239   0.333
 4348SOL    HW113943   1.174   3.238   0.312
 4348SOL    HW213944   1.047   3.149   0.365
 4349SOL     OW13945   5.973   1.501   0.991
 4349SOL    HW113946   6.009   1.580   1.041
 4349SOL    HW213947   5.979   1.419   1.048
 4350SOL     OW13948   3.283   0.480   3.732
 4350SOL    HW113949   3.189   0.495   3.704
 4350SOL    HW213950   3.338   0.561   3.713
 4351SOL     OW13951   3.589   0.155   0.396
 4351SOL    HW113952   3.497   0.194   0.388
 4351SOL    HW213953   3.613   0.108   0.311
 4352SOL     OW13954   6.272   1.901   1.487
 4352SOL    HW113955   6.342   1.922   1.419
 4352SOL    HW213956   6.219   1.984   1.508
 4353SOL     OW13957   3.225   5.686   0.624
 4353SOL    HW113958   3.165   5.610   0.601
 4353SOL    HW213959   3.247   5.682   0.722
 4354SOL     OW13960   2.573   1.557   1.473
 4354SOL    HW113961   2.661   1.599   1.495
 4354SOL    HW213962   2.588   1.475   1.418
 4355SOL     OW13963   4.706   0.019   6.466
 4355SOL    HW113964   4.665   0.110   6.473
 4355SOL    HW213965   4.785   0.023   6.406
 4356SOL     OW13966   3.451   3.768   1.223
 4356SOL    HW113967   3.432   3.682   1.176
 4356SOL    HW213968   3.549   3.786   1.221
 4357SOL     OW13969   5.188   0.809   0.582
 4357SOL    HW113970   5.118   0.818   0.512
 4357SOL    HW213971   5.152   0.757   0.659
 4358SOL     OW13972   6.354   0.432   0.729
 4358SOL    HW113973   6.416   0.389   0.795
 4358SOL    HW213974   6.267   0.453   0.773
 4359SOL     OW13975   6.925   3.837   4.502
 4359SOL    HW113976   6.914   3.783   4.419
 4359SOL    HW213977   6.841   3.832   4.556
 4360SOL     OW13978   2.753   3.343   1.367
 4360SOL    HW113979   2.656   3.350   1.346
 4360SOL    HW213980   2.764   3.310   1.461
 4361SOL     OW13981   5.143   1.757   2.806
 4361SOL    HW113982   5.220   1.819   2.823
 4361SOL    HW213983   5.177   1.665   2.788
 4362SOL     OW13984   5.026   4.012   2.724
 4362SOL    HW113985   4.977   4.079   2.668
 4362SOL    HW213986   5.078   3.950   2.664
 4363SOL     OW13987   4.933   0.387   6.355
 4363SOL    HW113988   5.027   0.357   6.340
 4363SOL    HW213989   4.870   0.314   6.330
 4364SOL     OW13990   4.480   3.928   5.382
 4364SOL    HW113991   4.532   3.843   5.369
 4364SOL    HW213992   4.389   3.918   5.340
 4365SOL     OW13993   4.903   2.573   0.083
 4365SOL    HW113994   4.886   2.510   0.008
 4365SOL    HW213995   4.820   2.625   0.103
 4366SOL     OW13996   4.874   5.023   0.732
 4366SOL    HW113997   4.840   4.978   0.815
 4366SOL    HW213998   4.970   4.999   0.718
 4367SOL     OW13999   5.918   6.388   1.096
 4367SOL    HW114000   5.834   6.442   1.093
 4367SOL    HW214001   5.903   6.305   1.149
 4368SOL     OW14002   4.373   5.565   2.017
 4368SOL    HW114003   4.405   5.507   2.092
 4368SOL    HW214004   4.413   5.656   2.026
 4369SOL     OW14005   3.194   5.593   1.187
 4369SOL    HW114006   3.217   5.495   1.189
 4369SOL    HW214007   3.279   5.646   1.188
 4370SOL     OW14008   5.069   3.780   1.404
 4370SOL    HW114009   5.030   3.808   1.492
 4370SOL    HW214010   5.079   3.861   1.345
 4371SOL     OW14011   1.410   1.895   1.915
 4371SOL    HW114012   1.319   1.860   1.936
 4371SOL    HW214013   1.413   1.993   1.936
 4372SOL     OW14014   4.402   0.103   3.726
 4372SOL    HW114015   4.494   0.071   3.749
 4372SOL    HW214016   4.396   0.201   3.744
 4373SOL     OW14017   0.821   1.853   5.226
 4373SOL    HW114018   0.885   1.922   5.257
 4373SOL    HW214019   0.797   1.870   5.130
 4374SOL     OW14020   3.765   1.322   6.967
 4374SOL    HW114021   3.769   1.384   0.020
 4374SOL    HW214022   3.857   1.289   6.946
 4375SOL     OW14023   3.329   5.441   4.588
 4375SOL    HW114024   3.287   5.390   4.513
 4375SOL    HW214025   3.265   5.448   4.664
 4376SOL     OW14026   0.142   2.303   2.789
 4376SOL    HW114027   0.058   2.354   2.809
 4376SOL    HW214028   0.209   2.319   2.862
 4377SOL     OW14029   0.204   4.741   5.716
 4377SOL    HW114030   0.225   4.711   5.623
 4377SOL    HW214031   0.140   4.818   5.713
 4378SOL     OW14032   3.218   1.696   4.427
 4378SOL    HW114033   3.143   1.652   4.476
 4378SOL    HW214034   3.263   1.762   4.488
 4379SOL     OW14035   3.659   1.670   6.013
 4379SOL    HW114036   3.739   1.632   5.967
 4379SOL    HW214037   3.613   1.597   6.065
 4380SOL     OW14038   6.856   2.018   3.177
 4380SOL    HW114039   6.927   2.088   3.181
 4380SOL    HW214040   6.780   2.051   3.121
 4381SOL     OW14041   1.295   4.615   6.484
 4381SOL    HW114042   1.293   4.655   6.393
 4381SOL    HW214043   1.214   4.558   6.497
 4382SOL     OW14044   1.448   5.020   4.868
 4382SOL    HW114045   1.485   4.965   4.793
 4382SOL    HW214046   1.517   5.086   4.897
 4383SOL     OW14047   0.313   4.311   0.238
 4383SOL    HW114048   0.387   4.375   0.217
 4383SOL    HW214049   0.340   4.254   0.315
 4384SOL     OW14050   4.676   6.841   4.253
 4384SOL    HW114051   4.756   6.823   4.310
 4384SOL    HW214052   4.597   6.858   4.312
 4385SOL     OW14053   4.958   0.500   5.880
 4385SOL    HW114054   5.014   0.450   5.946
 4385SOL    HW214055   4.862   0.497   5.908
 4386SOL     OW14056   2.090   3.396   3.616
 4386SOL    HW114057   2.157   3.372   3.546
 4386SOL    HW214058   2.006   3.344   3.603
 4387SOL     OW14059   4.527   2.028   1.019
 4387SOL    HW114060   4.484   2.048   1.107
 4387SOL    HW214061   4.490   2.089   0.949
 4388SOL     OW14062   6.132   2.986   0.416
 4388SOL    HW114063   6.060   3.026   0.359
 4388SOL    HW214064   6.189   3.059   0.454
 4389SOL     OW14065   2.426   1.422   6.456
 4389SOL    HW114066   2.357   1.461   6.516
 4389SOL    HW214067   2.458   1.335   6.494
 4390SOL     OW14068   0.158   1.278   1.605
 4390SOL    HW114069   0.170   1.370   1.566
 4390SOL    HW214070   0.106   1.285   1.691
 4391SOL     OW14071   6.964   6.265   1.874
 4391SOL    HW114072   0.014   6.199   1.874
 4391SOL    HW214073   6.911   6.255   1.958
 4392SOL     OW14074   2.240   2.932   6.037
 4392SOL    HW114075   2.155   2.956   6.084
 4392SOL    HW214076   2.252   2.833   6.038
 4393SOL     OW14077   6.344   0.127   1.870
 4393SOL    HW114078   6.294   0.167   1.948
 4393SOL    HW214079   6.287   0.057   1.828
 4394SOL     OW14080   6.758   1.473   2.976
 4394SOL    HW114081   6.787   1.567   2.960
 4394SOL    HW214082   6.763   1.453   3.074
 4395SOL     OW14083   2.013   3.563   1.098
 4395SOL    HW114084   2.044   3.471   1.074
 4395SOL    HW214085   2.088   3.628   1.086
 4396SOL     OW14086   2.234   1.588   2.459
 4396SOL    HW114087   2.324   1.597   2.418
 4396SOL    HW214088   2.164   1.582   2.387
 4397SOL     OW14089   3.659   1.208   4.904
 4397SOL    HW114090   3.633   1.173   4.994
 4397SOL    HW214091   3.738   1.157   4.871
 4398SOL     OW14092   2.504   2.797   5.856
 4398SOL    HW114093   2.521   2.785   5.954
 4398SOL    HW214094   2.407   2.782   5.837
 4399SOL     OW14095   2.960   5.961   1.590
 4399SOL    HW114096   3.049   5.925   1.619
 4399SOL    HW214097   2.950   5.952   1.491
 4400SOL     OW14098   1.385   5.974   5.433
 4400SOL    HW114099   1.410   5.981   5.336
 4400SOL    HW214100   1.336   6.057   5.460
 4401SOL     OW14101   2.956   0.266   5.718
 4401SOL    HW114102   2.963   0.261   5.818
 4401SOL    HW214103   2.935   0.360   5.690
 4402SOL     OW14104   0.628   0.980   2.269
 4402SOL    HW114105   0.700   0.998   2.336
 4402SOL    HW214106   0.560   1.053   2.273
 4403SOL     OW14107   6.346   6.669   2.819
 4403SOL    HW114108   6.428   6.638   2.771
 4403SOL    HW214109   6.327   6.607   2.896
 4404SOL     OW14110   0.908   6.126   5.183
 4404SOL    HW114111   0.862   6.148   5.098
 4404SOL    HW214112   0.995   6.080   5.163
 4405SOL     OW14113   0.739   5.352   3.087
 4405SOL    HW114114   0.835   5.367   3.065
 4405SOL    HW214115   0.720   5.385   3.180
 4406SOL     OW14116   6.053   4.203   2.773
 4406SOL    HW114117   6.035   4.221   2.676
 4406SOL    HW214118   5.967   4.208   2.824
 4407SOL     OW14119   4.962   0.556   1.247
 4407SOL    HW114120   5.051   0.558   1.292
 4407SOL    HW214121   4.905   0.631   1.282
 4408SOL     OW14122   4.644   0.419   0.081
 4408SOL    HW114123   4.673   0.431   0.176
 4408SOL    HW214124   4.689   0.487   0.023
 4409SOL     OW14125   3.737   0.741   3.673
 4409SOL    HW114126   3.766   0.800   3.598
 4409SOL    HW214127   3.785   0.653   3.667
 4410SOL     OW14128   1.643   0.103   0.715
 4410SOL    HW114129   1.561   0.067   0.757
 4410SOL    HW214130   1.620   0.145   0.627
 4411SOL     OW14131   4.613   4.371   4.617
 4411SOL    HW114132   4.635   4.338   4.525
 4411SOL    HW214133   4.658   4.313   4.685
 4412SOL     OW14134   4.995   6.517   1.012
 4412SOL    HW114135   5.034   6.593   1.065
 4412SOL    HW214136   5.029   6.522   0.918
 4413SOL     OW14137   5.187   6.407   4.623
 4413SOL    HW114138   5.126   6.484   4.606
 4413SOL    HW214139   5.156   6.357   4.704
 4414SOL     OW14140   5.861   4.032   1.389
 4414SOL    HW114141   5.826   4.039   1.482
 4414SOL    HW214142   5.952   4.074   1.385
 4415SOL     OW14143   0.790   4.109   1.487
 4415SOL    HW114144   0.849   4.179   1.529
 4415SOL    HW214145   0.749   4.146   1.404
 4416SOL     OW14146   4.980   3.345   4.206
 4416SOL    HW114147   4.943   3.259   4.171
 4416SOL    HW214148   4.958   3.419   4.142
 4417SOL     OW14149   6.992   4.211   1.953
 4417SOL    HW114150   0.055   4.181   1.917
 4417SOL    HW214151   6.926   4.136   1.946
 4418SOL     OW14152   6.727   2.642   5.171
 4418SOL    HW114153   6.631   2.649   5.145
 4418SOL    HW214154   6.782   2.704   5.115
 4419SOL     OW14155   6.099   6.312   6.391
 4419SOL    HW114156   6.111   6.260   6.306
 4419SOL    HW214157   6.006   6.349   6.394
 4420SOL     OW14158   3.842   0.657   0.678
 4420SOL    HW114159   3.893   0.665   0.764
 4420SOL    HW214160   3.787   0.574   0.680
 4421SOL     OW14161   2.766   2.320   0.552
 4421SOL    HW114162   2.691   2.254   0.548
 4421SOL    HW214163   2.853   2.273   0.537
 4422SOL     OW14164   0.818   3.032   6.539
 4422SOL    HW114165   0.738   3.069   6.588
 4422SOL    HW214166   0.899   3.041   6.597
 4423SOL     OW14167   6.138   4.582   4.218
 4423SOL    HW114168   6.121   4.498   4.271
 4423SOL    HW214169   6.062   4.598   4.156
 4424SOL     OW14170   3.884   5.219   2.668
 4424SOL    HW114171   3.954   5.160   2.707
 4424SOL    HW214172   3.915   5.254   2.580
 4425SOL     OW14173   0.527   6.009   0.690
 4425SOL    HW114174   0.575   6.075   0.632
 4425SOL    HW214175   0.446   6.052   0.730
 4426SOL     OW14176   0.738   0.748   4.258
 4426SOL    HW114177   0.740   0.756   4.358
 4426SOL    HW214178   0.787   0.666   4.230
 4427SOL     OW14179   3.698   6.142   0.183
 4427SOL    HW114180   3.732   6.227   0.143
 4427SOL    HW214181   3.621   6.108   0.129
 4428SOL     OW14182   6.125   5.875   2.902
 4428SOL    HW114183   6.208   5.924   2.874
 4428SOL    HW214184   6.086   5.919   2.983
 4429SOL     OW14185   2.140   5.382   2.563
 4429SOL    HW114186   2.054   5.398   2.516
 4429SOL    HW214187   2.155   5.453   2.631
 4430SOL     OW14188   5.642   4.193   4.148
 4430SOL    HW114189   5.578   4.221   4.219
 4430SOL    HW214190   5.612   4.106   4.108
 4431SOL     OW14191   4.663   0.162   4.747
 4431SOL    HW114192   4.756   0.199   4.749
 4431SOL    HW214193   4.630   0.161   4.652
 4432SOL     OW14194   2.270   3.534   6.287
 4432SOL    HW114195   2.217   3.613   6.254
 4432SOL    HW214196   2.242   3.512   6.380
 4433SOL     OW14197   0.271   0.292   4.941
 4433SOL    HW114198   0.231   0.201   4.935
 4433SOL    HW214199   0.369   0.285   4.958
 4434SOL     OW14200   6.685   0.406   2.272
 4434SOL    HW114201   6.714   0.494   2.310
 4434SOL    HW214202   6.590   0.388   2.299
 4435SOL     OW14203   1.877   4.619   1.584
 4435SOL    HW114204   1.808   4.589   1.519
 4435SOL    HW214205   1.872   4.563   1.667
 4436SOL     OW14206   4.864   2.287   1.780
 4436SOL    HW114207   4.879   2.371   1.729
 4436SOL    HW214208   4.918   2.213   1.740
 4437SOL     OW14209   0.133   5.669   0.059
 4437SOL    HW114210   0.112   5.585   0.110
 4437SOL    HW214211   0.201   5.649   7.014
 4438SOL     OW14212   3.649   1.995   4.867
 4438SOL    HW114213   3.717   1.946   4.813
 4438SOL    HW214214   3.590   2.047   4.805
 4439SOL     OW14215   3.025   5.454   2.182
 4439SOL    HW114216   3.103   5.394   2.160
 4439SOL    HW214217   3.003   5.509   2.101
 4440SOL     OW14218   1.968   5.508   6.176
 4440SOL    HW114219   2.040   5.541   6.116
 4440SOL    HW214220   1.947   5.412   6.154
 4441SOL     OW14221   6.213   1.154   0.924
 4441SOL    HW114222   6.166   1.192   1.004
 4441SOL    HW214223   6.185   1.059   0.911
 4442SOL     OW14224   1.739   4.426   0.933
 4442SOL    HW114225   1.666   4.459   0.994
 4442SOL    HW214226   1.789   4.504   0.896
 4443SOL     OW14227   1.122   5.839   5.504
 4443SOL    HW114228   1.204   5.891   5.480
 4443SOL    HW214229   1.053   5.900   5.542
 4444SOL     OW14230   4.315   6.323   0.280
 4444SOL    HW114231   4.337   6.338   0.184
 4444SOL    HW214232   4.253   6.395   0.311
 4445SOL     OW14233   1.914   3.324   0.635
 4445SOL    HW114234   1.966   3.240   0.620
 4445SOL    HW214235   1.825   3.302   0.674
 4446SOL     OW14236   5.822   2.571   1.374
 4446SOL    HW114237   5.823   2.512   1.293
 4446SOL    HW214238   5.815   2.515   1.456
 4447SOL     OW14239   5.371   5.582   6.037
 4447SOL    HW114240   5.328   5.575   6.127
 4447SOL    HW214241   5.471   5.580   6.048
 4448SOL     OW14242   2.239   6.388   2.512
 4448SOL    HW114243   2.256   6.319   2.583
 4448SOL    HW214244   2.322   6.403   2.459
 4449SOL     OW14245   3.978   1.983   5.439
 4449SOL    HW114246   3.995   1.906   5.377
 4449SOL    HW214247   3.935   2.058   5.388
 4450SOL     OW14248   2.594   5.452   0.709
 4450SOL    HW114249   2.600   5.418   0.615
 4450SOL    HW214250   2.520   5.519   0.716
 4451SOL     OW14251   5.134   6.349   3.037
 4451SOL    HW114252   5.036   6.362   3.045
 4451SOL    HW214253   5.155   6.252   3.030
 4452SOL     OW14254   5.275   4.683   3.529
 4452SOL    HW114255   5.241   4.710   3.620
 4452SOL    HW214256   5.368   4.717   3.516
 4453SOL     OW14257   0.005   5.600   1.402
 4453SOL    HW114258   6.962   5.673   1.408
 4453SOL    HW214259   0.028   5.568   1.494
 4454SOL     OW14260   6.961   0.990   6.929
 4454SOL    HW114261   7.021   1.065   6.954
 4454SOL    HW214262   6.964   0.920   7.001
 4455SOL     OW14263   0.885   0.542   3.957
 4455SOL    HW114264   0.802   0.562   3.905
 4455SOL    HW214265   0.957   0.513   3.895
 4456SOL     OW14266   1.612   5.641   4.135
 4456SOL    HW114267   1.618   5.724   4.191
 4456SOL    HW214268   1.668   5.653   4.053
 4457SOL     OW14269   1.378   2.161   4.676
 4457SOL    HW114270   1.442   2.209   4.616
 4457SOL    HW214271   1.375   2.065   4.651
 4458SOL     OW14272   2.063   2.173   5.441
 4458SOL    HW114273   2.072   2.075   5.459
 4458SOL    HW214274   2.145   2.205   5.394
 4459SOL     OW14275   1.515   4.597   3.415
 4459SOL    HW114276   1.517   4.647   3.329
 4459SOL    HW214277   1.459   4.647   3.482
 4460SOL     OW14278   7.015   3.448   5.187
 4460SOL    HW114279   7.016   3.516   5.115
 4460SOL    HW214280   6.983   3.489   5.272
 4461SOL     OW14281   2.525   0.112   0.291
 4461SOL    HW114282   2.491   0.176   0.360
 4461SOL    HW214283   2.524   0.156   0.202
 4462SOL     OW14284   0.488   4.394   2.580
 4462SOL    HW114285   0.511   4.298   2.561
 4462SOL    HW214286   0.534   4.453   2.514
 4463SOL     OW14287   5.585   1.923   6.799
 4463SOL    HW114288   5.633   2.006   6.772
 4463SOL    HW214289   5.627   1.886   6.883
 4464SOL     OW14290   0.854   3.353   1.122
 4464SOL    HW114291   0.757   3.331   1.115
 4464SOL    HW214292   0.893   3.307   1.202
 4465SOL     OW14293   4.783   4.911   0.977
 4465SOL    HW114294   4.726   4.838   1.015
 4465SOL    HW214295   4.874   4.907   1.017
 4466SOL     OW14296   0.977   3.068   2.466
 4466SOL    HW114297   1.056   3.120   2.498
 4466SOL    HW214298   0.896   3.094   2.518
 4467SOL     OW14299   5.366   4.555   2.010
 4467SOL    HW114300   5.336   4.480   1.952
 4467SOL    HW214301   5.286   4.603   2.046
 4468SOL     OW14302   1.727   3.594   0.215
 4468SOL    HW114303   1.793   3.577   0.288
 4468SOL    HW214304   1.634   3.580   0.251
 4469SOL     OW14305   1.079   6.282   2.404
 4469SOL    HW114306   1.150   6.275   2.474
 4469SOL    HW214307   1.026   6.197   2.402
 4470SOL     OW14308   0.769   0.412   3.066
 4470SOL    HW114309   0.826   0.385   2.989
 4470SOL    HW214310   0.699   0.342   3.082
 4471SOL     OW14311   1.711   0.725   6.539
 4471SOL    HW114312   1.661   0.750   6.622
 4471SOL    HW214313   1.649   0.681   6.475
 4472SOL     OW14314   2.499   3.302   1.269
 4472SOL    HW114315   2.504   3.390   1.221
 4472SOL    HW214316   2.445   3.313   1.353
 4473SOL     OW14317   0.927   3.084   5.388
 4473SOL    HW114318   0.985   3.006   5.364
 4473SOL    HW214319   0.965   3.131   5.467
 4474SOL     OW14320   1.493   6.444   1.373
 4474SOL    HW114321   1.542   6.509   1.315
 4474SOL    HW214322   1.522   6.456   1.468
 4475SOL     OW14323   0.998   3.236   0.918
 4475SOL    HW114324   0.938   3.284   0.982
 4475SOL    HW214325   1.081   3.208   0.965
 4476SOL     OW14326   4.670   0.812   3.699
 4476SOL    HW114327   4.579   0.847   3.678
 4476SOL    HW214328   4.667   0.758   3.783
 4477SOL     OW14329   6.531   1.434   4.745
 4477SOL    HW114330   6.529   1.469   4.838
 4477SOL    HW214331   6.621   1.393   4.727
 4478SOL     OW14332   1.082   0.400   2.392
 4478SOL    HW114333   1.031   0.343   2.456
 4478SOL    HW214334   1.084   0.356   2.302
 4479SOL     OW14335   2.946   3.282   0.284
 4479SOL    HW114336   3.015   3.209   0.287
 4479SOL    HW214337   2.860   3.245   0.248
 4480SOL     OW14338   7.013   0.868   3.370
 4480SOL    HW114339   0.017   0.783   3.326
 4480SOL    HW214340   6.963   0.847   3.454
 4481SOL     OW14341   1.875   4.000   6.074
 4481SOL    HW114342   1.781   3.997   6.107
 4481SOL    HW214343   1.877   4.031   5.979
 4482SOL     OW14344   2.860   6.733   1.329
 4482SOL    HW114345   2.941   6.731   1.386
 4482SOL    HW214346   2.778   6.730   1.387
 4483SOL     OW14347   1.683   2.719   1.340
 4483SOL    HW114348   1.754   2.790   1.346
 4483SOL    HW214349   1.725   2.632   1.314
 4484SOL     OW14350   4.339   0.194   0.628
 4484SOL    HW114351   4.413   0.166   0.566
 4484SOL    HW214352   4.367   0.176   0.723
 4485SOL     OW14353   0.183   1.934   5.619
 4485SOL    HW114354   0.208   1.992   5.541
 4485SOL    HW214355   0.218   1.841   5.604
 4486SOL     OW14356   5.292   5.029   3.845
 4486SOL    HW114357   5.321   5.034   3.750
 4486SOL    HW214358   5.343   4.957   3.892
 4487SOL     OW14359   0.028   3.455   6.869
 4487SOL    HW114360   0.034   3.432   6.772
 4487SOL    HW214361   6.991   3.532   6.880
 4488SOL     OW14362   5.564   4.698   3.487
 4488SOL    HW114363   5.583   4.638   3.564
 4488SOL    HW214364   5.647   4.710   3.433
 4489SOL     OW14365   3.561   5.924   5.862
 4489SOL    HW114366   3.498   5.967   5.927
 4489SOL    HW214367   3.650   5.969   5.868
 4490SOL     OW14368   4.931   1.791   1.921
 4490SOL    HW114369   4.863   1.859   1.949
 4490SOL    HW214370   4.992   1.771   1.998
 4491SOL     OW14371   0.245   4.807   3.066
 4491SOL    HW114372   0.146   4.823   3.059
 4491SOL    HW214373   0.286   4.816   2.975
 4492SOL     OW14374   6.737   1.031   2.054
 4492SOL    HW114375   6.641   1.037   2.084
 4492SOL    HW214376   6.796   1.061   2.129
 4493SOL     OW14377   5.410   0.989   5.953
 4493SOL    HW114378   5.382   0.894   5.965
 4493SOL    HW214379   5.491   0.994   5.894
 4494SOL     OW14380   0.919   1.675   2.519
 4494SOL    HW114381   0.883   1.620   2.594
 4494SOL    HW214382   0.849   1.684   2.448
 4495SOL     OW14383   3.723   6.029   1.626
 4495SOL    HW114384   3.749   6.017   1.722
 4495SOL    HW214385   3.736   6.124   1.598
 4496SOL     OW14386   2.175   5.179   5.446
 4496SOL    HW114387   2.169   5.108   5.516
 4496SOL    HW214388   2.141   5.143   5.359
 4497SOL     OW14389   5.094   6.648   4.956
 4497SOL    HW114390   5.033   6.571   4.937
 4497SOL    HW214391   5.184   6.614   4.982
 4498SOL     OW14392   1.823   5.327   3.583
 4498SOL    HW114393   1.770   5.262   3.529
 4498SOL    HW214394   1.845   5.407   3.527
 4499SOL     OW14395   5.078   1.777   2.187
 4499SOL    HW114396   5.036   1.836   2.256
 4499SOL    HW214397   5.177   1.781   2.196
 4500SOL     OW14398   3.447   6.409   0.182
 4500SOL    HW114399   3.546   6.410   0.165
 4500SOL    HW214400   3.430   6.407   0.280
 4501SOL     OW14401   5.329   0.749   3.090
 4501SOL    HW114402   5.258   0.695   3.043
 4501SOL    HW214403   5.337   0.838   3.046
 4502SOL     OW14404   0.680   3.558   7.000
 4502SOL    HW114405   0.588   3.544   6.964
 4502SOL    HW214406   0.679   3.551   0.074
 4503SOL     OW14407   3.026   1.405   3.449
 4503SOL    HW114408   3.067   1.486   3.491
 4503SOL    HW214409   2.926   1.411   3.453
 4504SOL     OW14410   0.660   3.386   3.880
 4504SOL    HW114411   0.712   3.463   3.916
 4504SOL    HW214412   0.656   3.392   3.780
 4505SOL     OW14413   6.693   3.695   3.920
 4505SOL    HW114414   6.631   3.646   3.859
 4505SOL    HW214415   6.716   3.784   3.881
 4506SOL     OW14416   4.066   4.222   6.821
 4506SOL    HW114417   3.979   4.174   6.830
 4506SOL    HW214418   4.071   4.265   6.731
 4507SOL     OW14419   5.566   2.101   2.868
 4507SOL    HW114420   5.634   2.048   2.919
 4507SOL    HW214421   5.612   2.177   2.821
 4508SOL     OW14422   6.898   4.147   0.864
 4508SOL    HW114423   6.820   4.117   0.919
 4508SOL    HW214424   6.884   4.121   0.769
 4509SOL     OW14425   4.587   1.105   2.674
 4509SOL    HW114426   4.572   1.018   2.628
 4509SOL    HW214427   4.653   1.160   2.622
 4510SOL     OW14428   4.878   1.626   3.575
 4510SOL    HW114429   4.878   1.527   3.584
 4510SOL    HW214430   4.946   1.654   3.508
 4511SOL     OW14431   0.796   3.820   0.003
 4511SOL    HW114432   0.731   3.746   7.009
 4511SOL    HW214433   0.797   3.885   6.952
 4512SOL     OW14434   2.835   3.819   6.272
 4512SOL    HW114435   2.772   3.741   6.270
 4512SOL    HW214436   2.799   3.890   6.333
 4513SOL     OW14437   0.341   1.748   0.716
 4513SOL    HW114438   0.243   1.728   0.729
 4513SOL    HW214439   0.356   1.776   0.622
 4514SOL     OW14440   4.199   5.464   7.001
 4514SOL    HW114441   4.110   5.503   6.979
 4514SOL    HW214442   4.208   5.374   6.959
 4515SOL     OW14443   4.821   6.709   6.103
 4515SOL    HW114444   4.764   6.627   6.107
 4515SOL    HW214445   4.864   6.715   6.013
 4516SOL     OW14446   3.675   1.757   5.059
 4516SOL    HW114447   3.635   1.681   5.009
 4516SOL    HW214448   3.647   1.844   5.017
 4517SOL     OW14449   3.711   0.107   4.321
 4517SOL    HW114450   3.633   0.164   4.346
 4517SOL    HW214451   3.694   0.063   4.233
 4518SOL     OW14452   6.714   6.312   0.727
 4518SOL    HW114453   6.730   6.364   0.811
 4518SOL    HW214454   6.660   6.231   0.748
 4519SOL     OW14455   5.551   6.227   6.248
 4519SOL    HW114456   5.628   6.165   6.230
 4519SOL    HW214457   5.549   6.250   6.345
 4520SOL     OW14458   4.847   5.174   4.885
 4520SOL    HW114459   4.908   5.096   4.873
 4520SOL    HW214460   4.870   5.245   4.818
 4521SOL     OW14461   5.234   2.298   4.146
 4521SOL    HW114462   5.290   2.244   4.208
 4521SOL    HW214463   5.235   2.394   4.174
 4522SOL     OW14464   5.702   4.224   3.859
 4522SOL    HW114465   5.642   4.300   3.834
 4522SOL    HW214466   5.766   4.256   3.929
 4523SOL     OW14467   1.314   2.501   0.386
 4523SOL    HW114468   1.320   2.426   0.320
 4523SOL    HW214469   1.404   2.517   0.427
 4524SOL     OW14470   1.832   3.789   1.739
 4524SOL    HW114471   1.800   3.883   1.754
 4524SOL    HW214472   1.923   3.777   1.779
 4525SOL     OW14473   3.389   2.092   5.988
 4525SOL    HW114474   3.356   2.163   5.925
 4525SOL    HW214475   3.314   2.064   6.048
 4526SOL     OW14476   0.768   6.932   5.183
 4526SOL    HW114477   0.827   6.851   5.179
 4526SOL    HW214478   0.821   7.010   5.216
 4527SOL     OW14479   1.110   2.729   2.729
 4527SOL    HW114480   1.160   2.694   2.651
 4527SOL    HW214481   1.173   2.773   2.792
 4528SOL     OW14482   4.951   1.974   4.234
 4528SOL    HW114483   4.947   1.940   4.328
 4528SOL    HW214484   4.870   2.031   4.215
 4529SOL     OW14485   1.406   2.824   3.130
 4529SOL    HW114486   1.437   2.911   3.168
 4529SOL    HW214487   1.306   2.818   3.139
 4530SOL     OW14488   4.155   4.375   6.142
 4530SOL    HW114489   4.103   4.294   6.171
 4530SOL    HW214490   4.253   4.356   6.147
 4531SOL     OW14491   1.095   6.341   5.143
 4531SOL    HW114492   1.034   6.323   5.066
 4531SOL    HW214493   1.085   6.269   5.211
 4532SOL     OW14494   5.722   0.503   2.221
 4532SOL    HW114495   5.727   0.482   2.123
 4532SOL    HW214496   5.696   0.420   2.271
 4533SOL     OW14497   2.949   6.157   0.856
 4533SOL    HW114498   2.946   6.097   0.776
 4533SOL    HW214499   2.974   6.103   0.937
 4534SOL     OW14500   6.297   1.694   5.079
 4534SOL    HW114501   6.249   1.744   5.151
 4534SOL    HW214502   6.231   1.663   5.010
 4535SOL     OW14503   1.818   6.889   0.513
 4535SOL    HW114504   1.888   6.936   0.460
 4535SOL    HW214505   1.771   6.823   0.456
 4536SOL     OW14506   4.082   0.382   5.389
 4536SOL    HW114507   4.001   0.333   5.422
 4536SOL    HW214508   4.056   0.438   5.310
 4537SOL     OW14509   3.739   3.802   3.077
 4537SOL    HW114510   3.694   3.833   3.161
 4537SOL    HW214511   3.698   3.848   2.998
 4538SOL     OW14512   1.724   2.933   0.419
 4538SOL    HW114513   1.809   2.895   0.455
 4538SOL    HW214514   1.670   2.971   0.494
 4539SOL     OW14515   0.685   4.847   5.276
 4539SOL    HW114516   0.632   4.762   5.274
 4539SOL    HW214517   0.651   4.910   5.206
 4540SOL     OW14518   1.445   1.344   0.153
 4540SOL    HW114519   1.400   1.427   0.187
 4540SOL    HW214520   1.377   1.271   0.144
 4541SOL     OW14521   4.287   2.908   0.458
 4541SOL    HW114522   4.298   2.854   0.374
 4541SOL    HW214523   4.194   2.944   0.462
 4542SOL     OW14524   7.001   2.226   0.265
 4542SOL    HW114525   6.985   2.311   0.316
 4542SOL    HW214526   0.070   2.222   0.237
 4543SOL     OW14527   4.280   1.253   0.490
 4543SOL    HW114528   4.342   1.282   0.563
 4543SOL    HW214529   4.186   1.261   0.521
 4544SOL     OW14530   4.595   5.937   6.897
 4544SOL    HW114531   4.515   5.956   6.841
 4544SOL    HW214532   4.568   5.880   6.975
 4545SOL     OW14533   2.723   2.960   6.135
 4545SOL    HW114534   2.631   2.933   6.110
 4545SOL    HW214535   2.743   3.050   6.096
 4546SOL     OW14536   4.698   6.509   5.201
 4546SOL    HW114537   4.725   6.427   5.252
 4546SOL    HW214538   4.772   6.576   5.206
 4547SOL     OW14539   6.819   0.088   1.049
 4547SOL    HW114540   6.883   0.151   1.094
 4547SOL    HW214541   6.854   0.065   0.958
 4548SOL     OW14542   3.765   0.921   1.444
 4548SOL    HW114543   3.711   0.918   1.360
 4548SOL    HW214544   3.862   0.926   1.422
 4549SOL     OW14545   6.806   5.621   3.523
 4549SOL    HW114546   6.901   5.591   3.538
 4549SOL    HW214547   6.805   5.692   3.452
 4550SOL     OW14548   2.389   5.921   0.037
 4550SOL    HW114549   2.411   5.850   0.105
 4550SOL    HW214550   2.433   5.899   6.976
 4551SOL     OW14551   3.614   3.166   6.482
 4551SOL    HW114552   3.546   3.238   6.471
 4551SOL    HW214553   3.574   3.078   6.455
 4552SOL     OW14554   5.562   0.805   6.228
 4552SOL    HW114555   5.536   0.896   6.261
 4552SOL    HW214556   5.596   0.750   6.304
 4553SOL     OW14557   0.145   6.829   0.748
 4553SOL    HW114558   0.059   6.805   0.792
 4553SOL    HW214559   0.134   6.822   0.649
 4554SOL     OW14560   5.511   6.001   2.764
 4554SOL    HW114561   5.451   5.923   2.746
 4554SOL    HW214562   5.487   6.042   2.853
 4555SOL     OW14563   0.773   0.554   3.644
 4555SOL    HW114564   0.714   0.501   3.583
 4555SOL    HW214565   0.755   0.651   3.630
 4556SOL     OW14566   5.450   5.106   4.464
 4556SOL    HW114567   5.522   5.174   4.477
 4556SOL    HW214568   5.361   5.151   4.464
 4557SOL     OW14569   0.456   6.223   5.351
 4557SOL    HW114570   0.498   6.186   5.433
 4557SOL    HW214571   0.376   6.167   5.326
 4558SOL     OW14572   0.792   4.489   3.963
 4558SOL    HW114573   0.721   4.558   3.977
 4558SOL    HW214574   0.813   4.482   3.865
 4559SOL     OW14575   0.386   3.309   3.895
 4559SOL    HW114576   0.478   3.344   3.916
 4559SOL    HW214577   0.363   3.236   3.959
 4560SOL     OW14578   6.516   3.222   4.549
 4560SOL    HW114579   6.563   3.175   4.624
 4560SOL    HW214580   6.564   3.203   4.463
 4561SOL     OW14581   5.389   3.893   4.836
 4561SOL    HW114582   5.431   3.814   4.880
 4561SOL    HW214583   5.450   3.929   4.766
 4562SOL     OW14584   4.834   0.893   0.791
 4562SOL    HW114585   4.908   0.918   0.853
 4562SOL    HW214586   4.859   0.811   0.740
 4563SOL     OW14587   1.314   3.734   2.765
 4563SOL    HW114588   1.363   3.666   2.710
 4563SOL    HW214589   1.352   3.735   2.858
 4564SOL     OW14590   2.198   3.944   2.344
 4564SOL    HW114591   2.209   3.846   2.328
 4564SOL    HW214592   2.179   3.960   2.441
 4565SOL     OW14593   2.173   6.183   4.643
 4565SOL    HW114594   2.139   6.137   4.725
 4565SOL    HW214595   2.225   6.119   4.588
 4566SOL     OW14596   6.599   5.410   2.552
 4566SOL    HW114597   6.536   5.379   2.623
 4566SOL    HW214598   6.583   5.359   2.468
 4567SOL     OW14599   1.505   0.750   0.450
 4567SOL    HW114600   1.457   0.728   0.535
 4567SOL    HW214601   1.599   0.715   0.456
 4568SOL     OW14602   6.987   4.489   4.572
 4568SOL    HW114603   0.018   4.430   4.630
 4568SOL    HW214604   7.016   4.481   4.477
 4569SOL     OW14605   6.815   2.630   3.595
 4569SOL    HW114606   6.757   2.594   3.668
 4569SOL    HW214607   6.908   2.644   3.630
 4570SOL     OW14608   4.802   5.460   1.497
 4570SOL    HW114609   4.715   5.465   1.448
 4570SOL    HW214610   4.807   5.372   1.545
 4571SOL     OW14611   2.008   2.593   4.918
 4571SOL    HW114612   1.920   2.625   4.886
 4571SOL    HW214613   1.995   2.531   4.996
 4572SOL     OW14614   5.312   3.237   1.669
 4572SOL    HW114615   5.282   3.332   1.679
 4572SOL    HW214616   5.243   3.176   1.707
 4573SOL     OW14617   2.908   4.863   1.070
 4573SOL    HW114618   2.963   4.941   1.041
 4573SOL    HW214619   2.829   4.896   1.122
 4574SOL     OW14620   4.668   6.996   1.929
 4574SOL    HW114621   4.635   6.914   1.881
 4574SOL    HW214622   4.626   7.000   2.019
 4575SOL     OW14623   6.988   1.496   5.287
 4575SOL    HW114624   0.011   1.431   5.346
 4575SOL    HW214625   6.980   1.458   5.195
 4576SOL     OW14626   3.199   3.967   6.693
 4576SOL    HW114627   3.208   3.927   6.784
 4576SOL    HW214628   3.275   4.029   6.676
 4577SOL     OW14629   0.292   1.671   2.218
 4577SOL    HW114630   0.215   1.613   2.246
 4577SOL    HW214631   0.358   1.617   2.167
 4578SOL     OW14632   2.055   0.545   2.484
 4578SOL    HW114633   2.085   0.636   2.511
 4578SOL    HW214634   2.124   0.478   2.511
 4579SOL     OW14635   3.400   0.839   2.207
 4579SOL    HW114636   3.375   0.773   2.136
 4579SOL    HW214637   3.318   0.867   2.257
 4580SOL     OW14638   1.031   0.192   1.482
 4580SOL    HW114639   1.007   0.163   1.389
 4580SOL    HW214640   1.126   0.222   1.484
 4581SOL     OW14641   3.646   0.126   1.154
 4581SOL    HW114642   3.613   0.219   1.142
 4581SOL    HW214643   3.740   0.119   1.122
 4582SOL     OW14644   5.988   1.243   4.863
 4582SOL    HW114645   6.067   1.294   4.898
 4582SOL    HW214646   5.991   1.244   4.763
 4583SOL     OW14647   1.718   5.845   6.739
 4583SOL    HW114648   1.793   5.908   6.758
 4583SOL    HW214649   1.653   5.888   6.677
 4584SOL     OW14650   6.103   0.855   4.303
 4584SOL    HW114651   6.024   0.796   4.283
 4584SOL    HW214652   6.156   0.868   4.219
 4585SOL     OW14653   1.215   3.409   2.512
 4585SOL    HW114654   1.199   3.399   2.414
 4585SOL    HW214655   1.291   3.473   2.527
 4586SOL     OW14656   0.336   4.465   6.171
 4586SOL    HW114657   0.370   4.393   6.231
 4586SOL    HW214658   0.413   4.522   6.141
 4587SOL     OW14659   3.797   3.398   5.842
 4587SOL    HW114660   3.852   3.332   5.791
 4587SOL    HW214661   3.847   3.484   5.851
 4588SOL     OW14662   2.343   4.875   6.574
 4588SOL    HW114663   2.302   4.909   6.489
 4588SOL    HW214664   2.272   4.861   6.643
 4589SOL     OW14665   4.468   6.315   2.180
 4589SOL    HW114666   4.563   6.285   2.192
 4589SOL    HW214667   4.467   6.405   2.138
 4590SOL     OW14668   1.793   4.942   1.648
 4590SOL    HW114669   1.788   4.855   1.697
 4590SOL    HW214670   1.878   4.947   1.596
 4591SOL     OW14671   2.233   1.940   5.507
 4591SOL    HW114672   2.272   1.981   5.424
 4591SOL    HW214673   2.292   1.960   5.585
 4592SOL     OW14674   2.341   2.512   2.618
 4592SOL    HW114675   2.308   2.417   2.616
 4592SOL    HW214676   2.433   2.514   2.659
 4593SOL     OW14677   1.947   5.491   5.691
 4593SOL    HW114678   1.907   5.573   5.650
 4593SOL    HW214679   2.041   5.480   5.657
 4594SOL     OW14680   0.916   7.022   3.276
 4594SOL    HW114681   0.942   0.059   3.349
 4594SOL    HW214682   0.967   0.018   3.193
 4595SOL     OW14683   5.495   1.627   6.483
 4595SOL    HW114684   5.570   1.592   6.539
 4595SOL    HW214685   5.434   1.681   6.541
 4596SOL     OW14686   0.596   1.695   2.382
 4596SOL    HW114687   0.574   1.661   2.474
 4596SOL    HW214688   0.570   1.628   2.314
 4597SOL     OW14689   2.085   5.098   0.679
 4597SOL    HW114690   2.012   5.059   0.623
 4597SOL    HW214691   2.121   5.029   0.741
 4598SOL     OW14692   0.753   2.548   0.399
 4598SOL    HW114693   0.656   2.543   0.372
 4598SOL    HW214694   0.799   2.618   0.343
 4599SOL     OW14695   2.948   6.017   3.145
 4599SOL    HW114696   2.913   6.046   3.055
 4599SOL    HW214697   2.978   6.096   3.197
 4600SOL     OW14698   0.003   6.547   5.906
 4600SOL    HW114699   0.018   6.490   5.825
 4600SOL    HW214700   6.932   6.568   5.914
 4601SOL     OW14701   1.766   1.285   5.227
 4601SOL    HW114702   1.700   1.325   5.290
 4601SOL    HW214703   1.755   1.327   5.136
 4602SOL     OW14704   4.769   7.002   5.531
 4602SOL    HW114705   4.702   6.938   5.493
 4602SOL    HW214706   4.721   0.046   5.584
 4603SOL     OW14707   4.536   6.838   0.286
 4603SOL    HW114708   4.579   6.889   0.211
 4603SOL    HW214709   4.441   6.867   0.295
 4604SOL     OW14710   0.138   0.087   3.716
 4604SOL    HW114711   0.204   0.017   3.743
 4604SOL    HW214712   0.115   0.075   3.619
 4605SOL     OW14713   4.083   1.268   2.348
 4605SOL    HW114714   3.998   1.220   2.326
 4605SOL    HW214715   4.121   1.231   2.433
 4606SOL     OW14716   6.572   0.180   4.365
 4606SOL    HW114717   6.549   0.166   4.269
 4606SOL    HW214718   6.632   0.107   4.396
 4607SOL     OW14719   2.489   1.805   1.626
 4607SOL    HW114720   2.492   1.742   1.548
 4607SOL    HW214721   2.482   1.899   1.593
 4608SOL     OW14722   0.385   2.702   6.093
 4608SOL    HW114723   0.364   2.796   6.118
 4608SOL    HW214724   0.348   2.682   6.002
 4609SOL     OW14725   5.281   4.424   6.229
 4609SOL    HW114726   5.230   4.472   6.300
 4609SOL    HW214727   5.274   4.325   6.244
 4610SOL     OW14728   4.432   3.933   6.211
 4610SOL    HW114729   4.487   3.870   6.266
 4610SOL    HW214730   4.448   3.914   6.114
 4611SOL     OW14731   0.476   0.538   6.727
 4611SOL    HW114732   0.503   0.530   6.823
 4611SOL    HW214733   0.553   0.572   6.673
 4612SOL     OW14734   1.238   0.859   2.272
 4612SOL    HW114735   1.286   0.783   2.316
 4612SOL    HW214736   1.159   0.886   2.328
 4613SOL     OW14737   1.326   5.110   4.049
 4613SOL    HW114738   1.287   5.023   4.020
 4613SOL    HW214739   1.424   5.098   4.068
 4614SOL     OW14740   6.531   5.061   2.662
 4614SOL    HW114741   6.622   5.033   2.632
 4614SOL    HW214742   6.489   5.118   2.591
 4615SOL     OW14743   0.567   4.646   6.782
 4615SOL    HW114744   0.472   4.650   6.814
 4615SOL    HW214745   0.577   4.704   6.701
 4616SOL     OW14746   1.509   5.064   5.779
 4616SOL    HW114747   1.600   5.035   5.750
 4616SOL    HW214748   1.474   5.133   5.716
 4617SOL     OW14749   0.761   4.356   4.743
 4617SOL    HW114750   0.822   4.382   4.818
 4617SOL    HW214751   0.666   4.361   4.775
 4618SOL     OW14752   2.200   4.242   5.144
 4618SOL    HW114753   2.253   4.260   5.226
 4618SOL    HW214754   2.247   4.174   5.088
 4619SOL     OW14755   4.930   5.882   6.644
 4619SOL    HW114756   5.022   5.877   6.682
 4619SOL    HW214757   4.906   5.978   6.630
 4620SOL     OW14758   0.455   4.905   2.266
 4620SOL    HW114759   0.497   4.994   2.284
 4620SOL    HW214760   0.471   4.844   2.344
 4621SOL     OW14761   2.381   0.374   2.371
 4621SOL    HW114762   2.453   0.306   2.386
 4621SOL    HW214763   2.320   0.377   2.450
 4622SOL     OW14764   6.127   6.769   0.595
 4622SOL    HW114765   6.149   6.859   0.633
 4622SOL    HW214766   6.141   6.699   0.664
 4623SOL     OW14767   3.158   4.868   2.376
 4623SOL    HW114768   3.125   4.951   2.332
 4623SOL    HW214769   3.219   4.893   2.452
 4624SOL     OW14770   5.402   1.555   0.093
 4624SOL    HW114771   5.431   1.529   0.001
 4624SOL    HW214772   5.471   1.613   0.135
 4625SOL     OW14773   1.066   0.288   2.139
 4625SOL    HW114774   1.096   0.376   2.104
 4625SOL    HW214775   1.018   0.238   2.068
 4626SOL     OW14776   4.179   4.049   1.688
 4626SOL    HW114777   4.232   3.994   1.623
 4626SOL    HW214778   4.242   4.098   1.748
 4627SOL     OW14779   5.747   6.233   5.049
 4627SOL    HW114780   5.797   6.237   4.962
 4627SOL    HW214781   5.808   6.201   5.121
 4628SOL     OW14782   6.468   3.134   2.367
 4628SOL    HW114783   6.465   3.159   2.270
 4628SOL    HW214784   6.559   3.102   2.390
 4629SOL     OW14785   1.210   5.223   0.810
 4629SOL    HW114786   1.223   5.245   0.713
 4629SOL    HW214787   1.198   5.307   0.862
 4630SOL     OW14788   1.731   3.379   1.633
 4630SOL    HW114789   1.825   3.411   1.632
 4630SOL    HW214790   1.720   3.305   1.567
 4631SOL     OW14791   5.648   1.564   1.271
 4631SOL    HW114792   5.633   1.656   1.236
 4631SOL    HW214793   5.605   1.497   1.211
 4632SOL     OW14794   2.412   5.273   3.615
 4632SOL    HW114795   2.356   5.225   3.548
 4632SOL    HW214796   2.489   5.215   3.642
 4633SOL     OW14797   5.043   3.833   3.940
 4633SOL    HW114798   5.119   3.769   3.949
 4633SOL    HW214799   5.061   3.895   3.864
 4634SOL     OW14800   3.827   2.932   4.930
 4634SOL    HW114801   3.728   2.917   4.918
 4634SOL    HW214802   3.878   2.865   4.876
 4635SOL     OW14803   3.595   0.194   2.040
 4635SOL    HW114804   3.671   0.251   2.074
 4635SOL    HW214805   3.604   0.181   1.942
 4636SOL     OW14806   1.648   5.577   6.689
 4636SOL    HW114807   1.695   5.662   6.711
 4636SOL    HW214808   1.677   5.506   6.753
 4637SOL     OW14809   1.964   2.687   3.497
 4637SOL    HW114810   1.883   2.636   3.470
 4637SOL    HW214811   1.938   2.763   3.557
 4638SOL     OW14812   4.038   4.594   6.692
 4638SOL    HW114813   4.070   4.524   6.628
 4638SOL    HW214814   4.097   4.594   6.773
 4639SOL     OW14815   3.861   2.731   1.476
 4639SOL    HW114816   3.787   2.714   1.541
 4639SOL    HW214817   3.855   2.824   1.441
 4640SOL     OW14818   0.680   2.229   0.306
 4640SOL    HW114819   0.605   2.214   0.370
 4640SOL    HW214820   0.767   2.234   0.355
 4641SOL     OW14821   1.357   6.263   5.064
 4641SOL    HW114822   1.365   6.256   4.964
 4641SOL    HW214823   1.263   6.287   5.088
 4642SOL     OW14824   5.858   1.403   5.851
 4642SOL    HW114825   5.940   1.428   5.902
 4642SOL    HW214826   5.872   1.314   5.807
 4643SOL     OW14827   1.118   2.040   6.840
 4643SOL    HW114828   1.164   2.001   6.760
 4643SOL    HW214829   1.019   2.038   6.825
 4644SOL     OW14830   1.495   1.707   0.978
 4644SOL    HW114831   1.486   1.618   0.934
 4644SOL    HW214832   1.406   1.737   1.013
 4645SOL     OW14833   5.847   2.786   5.099
 4645SOL    HW114834   5.816   2.753   5.188
 4645SOL    HW214835   5.780   2.850   5.062
 4646SOL     OW14836   1.370   3.904   2.309
 4646SOL    HW114837   1.271   3.905   2.294
 4646SOL    HW214838   1.395   3.974   2.375
 4647SOL     OW14839   1.517   5.932   1.930
 4647SOL    HW114840   1.419   5.913   1.942
 4647SOL    HW214841   1.570   5.851   1.956
 4648SOL     OW14842   2.664   1.493   4.395
 4648SOL    HW114843   2.611   1.561   4.446
 4648SOL    HW214844   2.668   1.408   4.447
 4649SOL     OW14845   4.795   3.607   1.310
 4649SOL    HW114846   4.736   3.645   1.380
 4649SOL    HW214847   4.811   3.676   1.239
 4650SOL     OW14848   3.987   4.828   0.391
 4650SOL    HW114849   3.926   4.841   0.469
 4650SOL    HW214850   4.049   4.751   0.410
 4651SOL     OW14851   1.581   3.200   0.085
 4651SOL    HW114852   1.588   3.108   0.122
 4651SOL    HW214853   1.487   3.233   0.096
 4652SOL     OW14854   6.252   6.906   5.696
 4652SOL    HW114855   6.165   6.922   5.742
 4652SOL    HW214856   6.326   6.917   5.762
 4653SOL     OW14857   0.926   6.634   0.437
 4653SOL    HW114858   0.885   6.706   0.381
 4653SOL    HW214859   0.939   6.552   0.382
 4654SOL     OW14860   0.810   0.897   5.359
 4654SOL    HW114861   0.711   0.895   5.375
 4654SOL    HW214862   0.836   0.986   5.321
 4655SOL     OW14863   5.387   5.204   3.246
 4655SOL    HW114864   5.417   5.210   3.151
 4655SOL    HW214865   5.310   5.140   3.252
 4656SOL     OW14866   6.543   0.470   1.407
 4656SOL    HW114867   6.489   0.387   1.421
 4656SOL    HW214868   6.563   0.481   1.310
 4657SOL     OW14869   3.573   1.950   2.096
 4657SOL    HW114870   3.531   1.955   2.006
 4657SOL    HW214871   3.617   2.037   2.118
 4658SOL     OW14872   1.628   0.957   6.998
 4658SOL    HW114873   1.544   0.965   0.026
 4658SOL    HW214874   1.616   1.005   6.911
 4659SOL     OW14875   2.481   5.158   1.160
 4659SOL    HW114876   2.415   5.084   1.149
 4659SOL    HW214877   2.548   5.154   1.086
 4660SOL     OW14878   0.182   5.084   4.850
 4660SOL    HW114879   0.250   5.012   4.867
 4660SOL    HW214880   0.178   5.104   4.752
 4661SOL     OW14881   0.343   1.116   5.156
 4661SOL    HW114882   0.367   1.111   5.059
 4661SOL    HW214883   0.292   1.034   5.182
 4662SOL     OW14884   2.546   0.165   6.536
 4662SOL    HW114885   2.508   0.151   6.445
 4662SOL    HW214886   2.645   0.155   6.532
 4663SOL     OW14887   0.601   6.922   1.330
 4663SOL    HW114888   0.633   6.854   1.396
 4663SOL    HW214889   0.508   6.899   1.301
 4664SOL     OW14890   6.496   6.111   5.402
 4664SOL    HW114891   6.470   6.034   5.344
 4664SOL    HW214892   6.595   6.125   5.397
 4665SOL     OW14893   0.147   1.803   2.476
 4665SOL    HW114894   0.199   1.812   2.561
 4665SOL    HW214895   0.188   1.732   2.419
 4666SOL     OW14896   1.953   2.698   5.903
 4666SOL    HW114897   1.917   2.791   5.899
 4666SOL    HW214898   2.053   2.700   5.897
 4667SOL     OW14899   6.250   2.237   1.202
 4667SOL    HW114900   6.171   2.193   1.244
 4667SOL    HW214901   6.276   2.187   1.119
 4668SOL     OW14902   4.822   1.917   5.327
 4668SOL    HW114903   4.794   1.922   5.231
 4668SOL    HW214904   4.741   1.922   5.386
 4669SOL     OW14905   5.835   6.363   6.330
 4669SOL    HW114906   5.791   6.393   6.414
 4669SOL    HW214907   5.829   6.436   6.261
 4670SOL     OW14908   0.865   3.402   0.124
 4670SOL    HW114909   0.939   3.426   0.061
 4670SOL    HW214910   0.884   3.442   0.214
 4671SOL     OW14911   6.819   2.043   1.876
 4671SOL    HW114912   6.800   2.126   1.823
 4671SOL    HW214913   6.858   2.069   1.964
 4672SOL     OW14914   4.254   3.022   0.830
 4672SOL    HW114915   4.305   2.954   0.777
 4672SOL    HW214916   4.172   3.049   0.779
 4673SOL     OW14917   4.869   1.402   0.604
 4673SOL    HW114918   4.910   1.489   0.632
 4673SOL    HW214919   4.872   1.393   0.505
 4674SOL     OW14920   0.992   3.001   0.436
 4674SOL    HW114921   0.966   3.010   0.532
 4674SOL    HW214922   0.962   2.912   0.401
 4675SOL     OW14923   1.854   6.709   0.300
 4675SOL    HW114924   1.950   6.725   0.277
 4675SOL    HW214925   1.836   6.611   0.300
 4676SOL     OW14926   0.209   5.582   4.579
 4676SOL    HW114927   0.259   5.584   4.665
 4676SOL    HW214928   0.112   5.599   4.597
 4677SOL     OW14929   4.987   6.846   0.057
 4677SOL    HW114930   5.066   6.791   0.028
 4677SOL    HW214931   4.963   6.822   0.151
 4678SOL     OW14932   2.195   5.202   0.422
 4678SOL    HW114933   2.278   5.159   0.387
 4678SOL    HW214934   2.169   5.159   0.508
 4679SOL     OW14935   1.769   6.391   5.774
 4679SOL    HW114936   1.831   6.326   5.732
 4679SOL    HW214937   1.820   6.470   5.808
 4680SOL     OW14938   1.023   5.487   5.918
 4680SOL    HW114939   0.946   5.436   5.958
 4680SOL    HW214940   1.083   5.518   5.991
 4681SOL     OW14941   6.586   6.179   5.797
 4681SOL    HW114942   6.587   6.242   5.720
 4681SOL    HW214943   6.660   6.204   5.861
 4682SOL     OW14944   2.900   6.916   0.582
 4682SOL    HW114945   2.927   7.004   0.543
 4682SOL    HW214946   2.953   6.897   0.664
 4683SOL     OW14947   0.647   5.028   3.842
 4683SOL    HW114948   0.705   5.057   3.919
 4683SOL    HW214949   0.555   5.066   3.853
 4684SOL     OW14950   1.998   0.929   4.756
 4684SOL    HW114951   2.042   0.979   4.830
 4684SOL    HW214952   1.899   0.945   4.758
 4685SOL     OW14953   5.132   4.829   4.132
 4685SOL    HW114954   5.086   4.917   4.122
 4685SOL    HW214955   5.229   4.840   4.110
 4686SOL     OW14956   4.738   5.475   5.899
 4686SOL    HW114957   4.756   5.402   5.833
 4686SOL    HW214958   4.640   5.481   5.917
 4687SOL     OW14959   4.417   0.865   4.845
 4687SOL    HW114960   4.442   0.772   4.818
 4687SOL    HW214961   4.494   0.927   4.827
 4688SOL     OW14962   0.280   0.291   1.257
 4688SOL    HW114963   0.214   0.237   1.310
 4688SOL    HW214964   0.234   0.329   1.177
 4689SOL     OW14965   1.880   5.988   4.641
 4689SOL    HW114966   1.935   5.907   4.623
 4689SOL    HW214967   1.859   6.035   4.555
 4690SOL     OW14968   3.108   2.179   0.135
 4690SOL    HW114969   3.138   2.161   0.041
 4690SOL    HW214970   3.022   2.132   0.152
 4691SOL     OW14971   2.798   4.613   0.052
 4691SOL    HW114972   2.792   4.514   0.065
 4691SOL    HW214973   2.887   4.646   0.083
 4692SOL     OW14974   1.017   4.900   3.349
 4692SOL    HW114975   0.987   4.993   3.370
 4692SOL    HW214976   1.024   4.889   3.250
 4693SOL     OW14977   0.801   2.105   2.536
 4693SOL    HW114978   0.786   2.202   2.556
 4693SOL    HW214979   0.786   2.088   2.439
 4694SOL     OW14980   1.619   0.915   4.934
 4694SOL    HW114981   1.557   0.981   4.975
 4694SOL    HW214982   1.647   0.947   4.843
 4695SOL     OW14983   3.586   3.610   2.858
 4695SOL    HW114984   3.543   3.625   2.770
 4695SOL    HW214985   3.554   3.679   2.923
 4696SOL     OW14986   0.653   2.385   6.548
 4696SOL    HW114987   0.691   2.312   6.606
 4696SOL    HW214988   0.601   2.344   6.473
 4697SOL     OW14989   0.911   4.927   6.543
 4697SOL    HW114990   0.841   4.962   6.605
 4697SOL    HW214991   0.999   4.971   6.565
 4698SOL     OW14992   5.263   3.076   2.145
 4698SOL    HW114993   5.208   3.121   2.075
 4698SOL    HW214994   5.293   3.142   2.213
 4699SOL     OW14995   6.773   0.604   3.131
 4699SOL    HW114996   6.837   0.570   3.199
 4699SOL    HW214997   6.782   0.703   3.123
 4700SOL     OW14998   5.135   0.015   5.007
 4700SOL    HW114999   5.157   6.968   4.943
 4700SOL    HW215000   5.116   7.001   5.097
 4701SOL     OW15001   2.603   1.091   5.990
 4701SOL    HW115002   2.572   1.045   6.073
 4701SOL    HW215003   2.544   1.066   5.913
 4702SOL     OW15004   3.655   2.996   0.852
 4702SOL    HW115005   3.661   3.095   0.856
 4702SOL    HW215006   3.559   2.968   0.847
 4703SOL     OW15007   0.795   6.347   2.170
 4703SOL    HW115008   0.768   6.258   2.133
 4703SOL    HW215009   0.890   6.367   2.144
 4704SOL     OW15010   4.624   6.792   6.379
 4704SOL    HW115011   4.637   6.886   6.409
 4704SOL    HW215012   4.661   6.729   6.447
 4705SOL     OW15013   3.551   2.889   4.968
 4705SOL    HW115014   3.506   2.895   4.879
 4705SOL    HW215015   3.484   2.858   5.036
 4706SOL     OW15016   5.686   2.843   0.278
 4706SOL    HW115017   5.758   2.807   0.219
 4706SOL    HW215018   5.723   2.915   0.336
 4707SOL     OW15019   2.895   4.222   1.075
 4707SOL    HW115020   2.855   4.262   1.157
 4707SOL    HW215021   2.828   4.164   1.029
 4708SOL     OW15022   2.163   2.873   2.367
 4708SOL    HW115023   2.162   2.972   2.381
 4708SOL    HW215024   2.071   2.837   2.378
 4709SOL     OW15025   2.769   3.998   0.445
 4709SOL    HW115026   2.864   4.028   0.442
 4709SOL    HW215027   2.755   3.939   0.524
 4710SOL     OW15028   4.696   2.380   1.285
 4710SOL    HW115029   4.655   2.434   1.211
 4710SOL    HW215030   4.680   2.426   1.373
 4711SOL     OW15031   2.530   0.399   3.671
 4711SOL    HW115032   2.496   0.325   3.728
 4711SOL    HW215033   2.586   0.361   3.597
 4712SOL     OW15034   1.291   3.292   6.793
 4712SOL    HW115035   1.246   3.381   6.790
 4712SOL    HW215036   1.373   3.295   6.736
 4713SOL     OW15037   0.567   6.178   1.021
 4713SOL    HW115038   0.560   6.172   0.921
 4713SOL    HW215039   0.653   6.137   1.051
 4714SOL     OW15040   4.408   2.079   1.242
 4714SOL    HW115041   4.353   2.155   1.277
 4714SOL    HW215042   4.455   2.034   1.318
 4715SOL     OW15043   5.140   3.814   4.951
 4715SOL    HW115044   5.213   3.864   4.905
 4715SOL    HW215045   5.051   3.846   4.919
 4716SOL     OW15046   2.003   5.149   6.426
 4716SOL    HW115047   1.913   5.107   6.442
 4716SOL    HW215048   2.034   5.194   6.509
 4717SOL     OW15049   1.861   4.895   4.727
 4717SOL    HW115050   1.941   4.937   4.770
 4717SOL    HW215051   1.824   4.824   4.787
 4718SOL     OW15052   4.812   6.807   6.871
 4718SOL    HW115053   4.738   6.750   6.906
 4718SOL    HW215054   4.886   6.811   6.939
 4719SOL     OW15055   4.721   3.022   1.164
 4719SOL    HW115056   4.771   3.108   1.152
 4719SOL    HW215057   4.632   3.041   1.205
 4720SOL     OW15058   2.017   1.828   3.733
 4720SOL    HW115059   1.929   1.875   3.745
 4720SOL    HW215060   2.014   1.772   3.651
 4721SOL     OW15061   1.886   1.578   1.866
 4721SOL    HW115062   1.922   1.656   1.917
 4721SOL    HW215063   1.886   1.497   1.925
 4722SOL     OW15064   2.475   1.212   2.468
 4722SOL    HW115065   2.540   1.141   2.497
 4722SOL    HW215066   2.425   1.247   2.547
 4723SOL     OW15067   3.349   0.637   5.211
 4723SOL    HW115068   3.414   0.562   5.223
 4723SOL    HW215069   3.260   0.611   5.248
 4724SOL     OW15070   4.367   5.740   1.142
 4724SOL    HW115071   4.380   5.659   1.086
 4724SOL    HW215072   4.344   5.712   1.236
 4725SOL     OW15073   5.979   5.018   2.686
 4725SOL    HW115074   5.967   4.959   2.766
 4725SOL    HW215075   5.947   4.970   2.604
 4726SOL     OW15076   6.225   0.044   4.242
 4726SOL    HW115077   6.255   7.025   4.326
 4726SOL    HW215078   6.243   7.010   4.164
 4727SOL     OW15079   4.678   6.666   1.598
 4727SOL    HW115080   4.610   6.595   1.614
 4727SOL    HW215081   4.767   6.637   1.633
 4728SOL     OW15082   6.696   6.127   6.521
 4728SOL    HW115083   6.632   6.069   6.470
 4728SOL    HW215084   6.775   6.072   6.549
 4729SOL     OW15085   3.561   0.391   1.140
 4729SOL    HW115086   3.558   0.456   1.216
 4729SOL    HW215087   3.474   0.394   1.091
 4730SOL     OW15088   1.331   0.642   6.530
 4730SOL    HW115089   1.377   0.701   6.596
 4730SOL    HW215090   1.257   0.694   6.486
 4731SOL     OW15091   4.969   1.556   5.734
 4731SOL    HW115092   4.941   1.593   5.822
 4731SOL    HW215093   4.935   1.463   5.724
 4732SOL     OW15094   0.580   6.828   6.335
 4732SOL    HW115095   0.534   6.741   6.322
 4732SOL    HW215096   0.568   6.859   6.430
 4733SOL     OW15097   5.515   3.972   3.089
 4733SOL    HW115098   5.497   3.891   3.145
 4733SOL    HW215099   5.613   3.991   3.090
 4734SOL     OW15100   6.566   3.547   6.115
 4734SOL    HW115101   6.544   3.619   6.181
 4734SOL    HW215102   6.496   3.543   6.045
 4735SOL     OW15103   0.360   4.004   3.811
 4735SOL    HW115104   0.412   4.089   3.809
 4735SOL    HW215105   0.262   4.025   3.801
 4736SOL     OW15106   1.371   0.209   2.424
 4736SOL    HW115107   1.389   0.199   2.326
 4736SOL    HW215108   1.449   0.252   2.468
 4737SOL     OW15109   3.268   5.209   2.481
 4737SOL    HW115110   3.315   5.122   2.499
 4737SOL    HW215111   3.253   5.257   2.567
 4738SOL     OW15112   1.127   0.399   3.475
 4738SOL    HW115113   1.221   0.423   3.454
 4738SOL    HW215114   1.065   0.449   3.414
 4739SOL     OW15115   3.503   6.794   1.765
 4739SOL    HW115116   3.462   6.729   1.700
 4739SOL    HW215117   3.603   6.788   1.759
 4740SOL     OW15118   1.001   2.045   5.033
 4740SOL    HW115119   0.910   2.006   5.021
 4740SOL    HW215120   1.067   1.995   4.976
 4741SOL     OW15121   3.872   3.939   3.926
 4741SOL    HW115122   3.876   3.864   3.993
 4741SOL    HW215123   3.806   4.007   3.956
 4742SOL     OW15124   4.218   0.880   3.238
 4742SOL    HW115125   4.120   0.899   3.247
 4742SOL    HW215126   4.243   0.879   3.141
 4743SOL     OW15127   0.687   5.145   0.918
 4743SOL    HW115128   0.606   5.139   0.860
 4743SOL    HW215129   0.724   5.238   0.914
 4744SOL     OW15130   0.996   4.862   1.573
 4744SOL    HW115131   0.952   4.817   1.495
 4744SOL    HW215132   1.072   4.918   1.540
 4745SOL     OW15133   1.943   3.221   0.029
 4745SOL    HW115134   1.847   3.222   0.057
 4745SOL    HW215135   2.000   3.257   0.102
 4746SOL     OW15136   5.804   6.068   4.342
 4746SOL    HW115137   5.852   6.011   4.408
 4746SOL    HW215138   5.794   6.018   4.256
 4747SOL     OW15139   4.077   0.599   0.993
 4747SOL    HW115140   4.007   0.668   0.975
 4747SOL    HW215141   4.046   0.539   1.066
 4748SOL     OW15142   2.105   0.202   3.806
 4748SOL    HW115143   2.107   0.106   3.777
 4748SOL    HW215144   2.072   0.259   3.730
 4749SOL     OW15145   2.486   1.305   1.331
 4749SOL    HW115146   2.426   1.380   1.303
 4749SOL    HW215147   2.431   1.223   1.346
 4750SOL     OW15148   5.677   3.177   5.957
 4750SOL    HW115149   5.651   3.272   5.973
 4750SOL    HW215150   5.595   3.120   5.957
 4751SOL     OW15151   3.766   1.685   2.543
 4751SOL    HW115152   3.693   1.620   2.520
 4751SOL    HW215153   3.767   1.699   2.642
 4752SOL     OW15154   6.341   6.790   6.804
 4752SOL    HW115155   6.304   6.791   6.897
 4752SOL    HW215156   6.266   6.774   6.739
 4753SOL     OW15157   3.190   5.904   5.222
 4753SOL    HW115158   3.284   5.924   5.250
 4753SOL    HW215159   3.170   5.808   5.239
 4754SOL     OW15160   5.863   4.700   0.492
 4754SOL    HW115161   5.783   4.640   0.492
 4754SOL    HW215162   5.873   4.743   0.402
 4755SOL     OW15163   6.927   1.050   2.248
 4755SOL    HW115164   6.962   0.962   2.218
 4755SOL    HW215165   6.990   1.122   2.220
 4756SOL     OW15166   0.202   3.869   4.866
 4756SOL    HW115167   0.279   3.820   4.907
 4756SOL    HW215168   0.205   3.857   4.767
 4757SOL     OW15169   2.207   3.572   1.421
 4757SOL    HW115170   2.258   3.492   1.391
 4757SOL    HW215171   2.241   3.602   1.511
 4758SOL     OW15172   1.804   5.301   1.996
 4758SOL    HW115173   1.789   5.254   1.909
 4758SOL    HW215174   1.749   5.258   2.067
 4759SOL     OW15175   0.594   6.717   3.219
 4759SOL    HW115176   0.635   6.685   3.133
 4759SOL    HW215177   0.504   6.756   3.200
 4760SOL     OW15178   0.993   0.642   2.296
 4760SOL    HW115179   0.937   0.629   2.214
 4760SOL    HW215180   1.034   0.554   2.323
 4761SOL     OW15181   4.299   6.196   2.365
 4761SOL    HW115182   4.327   6.214   2.459
 4761SOL    HW215183   4.369   6.229   2.302
 4762SOL     OW15184   1.032   0.874   2.468
 4762SOL    HW115185   1.063   0.834   2.554
 4762SOL    HW215186   0.985   0.805   2.414
 4763SOL     OW15187   5.127   4.171   1.579
 4763SOL    HW115188   5.191   4.217   1.518
 4763SOL    HW215189   5.174   4.100   1.630
 4764SOL     OW15190   4.551   2.885   6.845
 4764SOL    HW115191   4.590   2.951   6.908
 4764SOL    HW215192   4.609   2.878   6.764
 4765SOL     OW15193   3.519   1.546   5.732
 4765SOL    HW115194   3.441   1.595   5.692
 4765SOL    HW215195   3.486   1.476   5.795
 4766SOL     OW15196   1.168   0.767   3.495
 4766SOL    HW115197   1.171   0.856   3.539
 4766SOL    HW215198   1.255   0.719   3.510
 4767SOL     OW15199   2.647   4.685   2.695
 4767SOL    HW115200   2.717   4.738   2.648
 4767SOL    HW215201   2.563   4.686   2.641
 4768SOL     OW15202   4.553   2.639   6.393
 4768SOL    HW115203   4.596   2.556   6.356
 4768SOL    HW215204   4.476   2.613   6.451
 4769SOL     OW15205   3.286   3.098   0.612
 4769SOL    HW115206   3.188   3.086   0.594
 4769SOL    HW215207   3.309   3.057   0.700
 4770SOL     OW15208   0.054   1.920   3.863
 4770SOL    HW115209   6.985   1.951   3.862
 4770SOL    HW215210   0.107   1.976   3.927
 4771SOL     OW15211   2.948   1.047   4.091
 4771SOL    HW115212   2.978   1.056   3.996
 4771SOL    HW215213   2.856   1.085   4.102
 4772SOL     OW15214   2.801   5.218   2.421
 4772SOL    HW115215   2.775   5.303   2.375
 4772SOL    HW215216   2.719   5.171   2.452
 4773SOL     OW15217   3.213   5.606   3.946
 4773SOL    HW115218   3.251   5.659   4.022
 4773SOL    HW215219   3.143   5.660   3.900
 4774SOL     OW15220   0.686   4.377   0.231
 4774SOL    HW115221   0.784   4.364   0.242
 4774SOL    HW215222   0.652   4.439   0.303
 4775SOL     OW15223   5.371   5.173   4.143
 4775SOL    HW115224   5.353   5.075   4.135
 4775SOL    HW215225   5.284   5.221   4.157
 4776SOL     OW15226   6.945   1.783   5.324
 4776SOL    HW115227   6.978   1.689   5.314
 4776SOL    HW215228   6.950   1.810   5.420
 4777SOL     OW15229   1.059   6.583   3.320
 4777SOL    HW115230   1.089   6.530   3.399
 4777SOL    HW215231   1.027   6.672   3.351
 4778SOL     OW15232   1.502   0.354   0.999
 4778SOL    HW115233   1.435   0.301   0.947
 4778SOL    HW215234   1.536   0.429   0.943
 4779SOL     OW15235   4.768   1.607   4.568
 4779SOL    HW115236   4.826   1.538   4.524
 4779SOL    HW215237   4.821   1.689   4.587
 4780SOL     OW15238   5.139   2.732   4.462
 4780SOL    HW115239   5.067   2.719   4.529
 4780SOL    HW215240   5.228   2.712   4.504
 4781SOL     OW15241   3.088   5.218   1.617
 4781SOL    HW115242   3.056   5.277   1.542
 4781SOL    HW215243   3.022   5.145   1.631
 4782SOL     OW15244   1.095   0.336   3.015
 4782SOL    HW115245   1.193   0.325   2.997
 4782SOL    HW215246   1.060   0.413   2.962
 4783SOL     OW15247   1.067   4.043   6.817
 4783SOL    HW115248   0.968   4.054   6.806
 4783SOL    HW215249   1.090   3.946   6.816
 4784SOL     OW15250   6.041   2.687   6.932
 4784SOL    HW115251   6.079   2.595   6.919
 4784SOL    HW215252   6.037   2.734   6.844
 4785SOL     OW15253   0.576   1.602   4.479
 4785SOL    HW115254   0.477   1.593   4.485
 4785SOL    HW215255   0.619   1.515   4.505
 4786SOL     OW15256   1.799   6.439   0.318
 4786SOL    HW115257   1.851   6.367   0.362
 4786SOL    HW215258   1.727   6.399   0.262
 4787SOL     OW15259   4.523   1.617   5.445
 4787SOL    HW115260   4.560   1.650   5.358
 4787SOL    HW215261   4.424   1.611   5.438
 4788SOL     OW15262   6.822   5.728   0.817
 4788SOL    HW115263   6.824   5.751   0.914
 4788SOL    HW215264   6.779   5.638   0.804
 4789SOL     OW15265   5.627   1.272   1.745
 4789SOL    HW115266   5.626   1.372   1.749
 4789SOL    HW215267   5.539   1.239   1.712
 4790SOL     OW15268   0.746   2.640   6.454
 4790SOL    HW115269   0.709   2.556   6.493
 4790SOL    HW215270   0.708   2.655   6.363
 4791SOL     OW15271   1.045   0.811   6.641
 4791SOL    HW115272   1.110   0.862   6.584
 4791SOL    HW215273   0.981   0.761   6.582
 4792SOL     OW15274   0.544   3.986   1.637
 4792SOL    HW115275   0.543   4.047   1.716
 4792SOL    HW215276   0.628   3.999   1.586
 4793SOL     OW15277   1.189   3.055   5.040
 4793SOL    HW115278   1.243   3.060   5.124
 4793SOL    HW215279   1.124   3.131   5.037
 4794SOL     OW15280   5.899   1.532   6.198
 4794SOL    HW115281   5.821   1.473   6.177
 4794SOL    HW215282   5.925   1.521   6.294
 4795SOL     OW15283   0.059   6.523   6.946
 4795SOL    HW115284   7.022   6.522   6.868
 4795SOL    HW215285   0.140   6.576   6.923
 4796SOL     OW15286   5.924   1.913   5.732
 4796SOL    HW115287   5.853   1.975   5.698
 4796SOL    HW215288   5.881   1.835   5.778
 4797SOL     OW15289   2.847   5.389   5.252
 4797SOL    HW115290   2.817   5.423   5.341
 4797SOL    HW215291   2.885   5.297   5.263
 4798SOL     OW15292   3.599   6.145   6.882
 4798SOL    HW115293   3.538   6.112   6.954
 4798SOL    HW215294   3.660   6.071   6.854
 4799SOL     OW15295   4.206   3.834   1.140
 4799SOL    HW115296   4.116   3.799   1.115
 4799SOL    HW215297   4.274   3.800   1.075
 4800SOL     OW15298   0.932   4.432   7.006
 4800SOL    HW115299   1.014   4.480   6.973
 4800SOL    HW215300   0.857   4.447   6.942
 4801SOL     OW15301   4.878   3.431   3.442
 4801SOL    HW115302   4.900   3.523   3.475
 4801SOL    HW215303   4.846   3.375   3.519
 4802SOL     OW15304   6.772   0.610   4.617
 4802SOL    HW115305   6.866   0.589   4.588
 4802SOL    HW215306   6.762   0.708   4.632
 4803SOL     OW15307   5.381   3.674   5.809
 4803SOL    HW115308   5.322   3.710   5.737
 4803SOL    HW215309   5.381   3.574   5.805
 4804SOL     OW15310   5.477   3.154   0.862
 4804SOL    HW115311   5.539   3.080   0.837
 4804SOL    HW215312   5.411   3.122   0.930
 4805SOL     OW15313   5.820   0.570   5.488
 4805SOL    HW115314   5.747   0.557   5.422
 4805SOL    HW215315   5.818   0.497   5.555
 4806SOL     OW15316   1.763   2.964   3.270
 4806SOL    HW115317   1.749   2.892   3.203
 4806SOL    HW215318   1.802   3.045   3.225
 4807SOL     OW15319   1.162   3.684   0.946
 4807SOL    HW115320   1.079   3.679   1.002
 4807SOL    HW215321   1.196   3.591   0.930
 4808SOL     OW15322   2.654   6.571   3.452
 4808SOL    HW115323   2.680   6.540   3.360
 4808SOL    HW215324   2.721   6.638   3.484
 4809SOL     OW15325   2.774   3.858   0.812
 4809SOL    HW115326   2.854   3.815   0.854
 4809SOL    HW215327   2.754   3.815   0.724
 4810SOL     OW15328   1.665   5.671   4.618
 4810SOL    HW115329   1.658   5.593   4.555
 4810SOL    HW215330   1.627   5.645   4.707
 4811SOL     OW15331   3.216   3.092   5.024
 4811SOL    HW115332   3.131   3.137   5.051
 4811SOL    HW215333   3.225   3.007   5.076
 4812SOL     OW15334   1.923   6.376   0.981
 4812SOL    HW115335   1.862   6.303   1.011
 4812SOL    HW215336   1.954   6.357   0.887
 4813SOL     OW15337   0.794   2.568   5.027
 4813SOL    HW115338   0.867   2.558   4.959
 4813SOL    HW215339   0.724   2.629   4.992
 4814SOL     OW15340   4.841   1.444   0.331
 4814SOL    HW115341   4.851   1.543   0.336
 4814SOL    HW215342   4.908   1.406   0.267
 4815SOL     OW15343   6.773   4.071   3.214
 4815SOL    HW115344   6.856   4.118   3.185
 4815SOL    HW215345   6.711   4.137   3.258
 4816SOL     OW15346   2.310   0.261   3.096
 4816SOL    HW115347   2.360   0.337   3.057
 4816SOL    HW215348   2.369   0.180   3.099
 4817SOL     OW15349   4.407   3.181   6.939
 4817SOL    HW115350   4.402   3.088   6.975
 4817SOL    HW215351   4.440   3.179   6.845
 4818SOL     OW15352   4.689   6.062   5.700
 4818SOL    HW115353   4.759   6.013   5.648
 4818SOL    HW215354   4.707   6.160   5.696
 4819SOL     OW15355   3.759   6.991   0.739
 4819SOL    HW115356   3.699   6.926   0.786
 4819SOL    HW215357   3.833   7.018   0.800
 4820SOL     OW15358   0.431   5.459   1.345
 4820SOL    HW115359   0.471   5.375   1.310
 4820SOL    HW215360   0.496   5.504   1.406
 4821SOL     OW15361   6.806   5.755   1.341
 4821SOL    HW115362   6.728   5.693   1.332
 4821SOL    HW215363   6.783   5.829   1.404
 4822SOL     OW15364   0.410   3.652   2.235
 4822SOL    HW115365   0.370   3.575   2.284
 4822SOL    HW215366   0.395   3.640   2.136
 4823SOL     OW15367   6.536   1.945   2.611
 4823SOL    HW115368   6.617   1.985   2.569
 4823SOL    HW215369   6.472   1.915   2.540
 4824SOL     OW15370   4.675   1.095   2.966
 4824SOL    HW115371   4.650   1.186   2.998
 4824SOL    HW215372   4.666   1.091   2.866
 4825SOL     OW15373   2.313   4.380   4.480
 4825SOL    HW115374   2.305   4.465   4.533
 4825SOL    HW215375   2.352   4.401   4.390
 4826SOL     OW15376   0.691   5.967   6.857
 4826SOL    HW115377   0.618   5.976   6.924
 4826SOL    HW215378   0.754   5.895   6.885
 4827SOL     OW15379   5.187   0.416   6.820
 4827SOL    HW115380   5.223   0.330   6.784
 4827SOL    HW215381   5.180   0.483   6.747
 4828SOL     OW15382   6.763   2.556   6.833
 4828SOL    HW115383   6.847   2.554   6.779
 4828SOL    HW215384   6.718   2.467   6.827
 4829SOL     OW15385   2.418   1.110   5.581
 4829SOL    HW115386   2.330   1.102   5.536
 4829SOL    HW215387   2.420   1.051   5.662
 4830SOL     OW15388   5.995   4.911   4.898
 4830SOL    HW115389   6.006   4.976   4.974
 4830SOL    HW215390   6.067   4.842   4.902
 4831SOL     OW15391   0.079   1.795   6.728
 4831SOL    HW115392   7.012   1.823   6.704
 4831SOL    HW215393   0.145   1.861   6.692
 4832SOL     OW15394   1.943   2.616   6.452
 4832SOL    HW115395   1.928   2.543   6.386
 4832SOL    HW215396   1.954   2.577   6.543
 4833SOL     OW15397   6.589   2.387   2.084
 4833SOL    HW115398   6.599   2.448   2.005
 4833SOL    HW215399   6.672   2.390   2.140
 4834SOL     OW15400   5.848   0.438   3.265
 4834SOL    HW115401   5.905   0.410   3.342
 4834SOL    HW215402   5.871   0.381   3.185
 4835SOL     OW15403   2.332   2.432   5.688
 4835SOL    HW115404   2.256   2.367   5.682
 4835SOL    HW215405   2.349   2.472   5.597
 4836SOL     OW15406   5.961   4.827   3.434
 4836SOL    HW115407   5.940   4.797   3.526
 4836SOL    HW215408   5.877   4.833   3.380
 4837SOL     OW15409   0.097   5.275   1.927
 4837SOL    HW115410   0.146   5.304   1.845
 4837SOL    HW215411   0.029   5.344   1.952
 4838SOL     OW15412   2.994   6.691   2.770
 4838SOL    HW115413   3.057   6.717   2.697
 4838SOL    HW215414   2.920   6.636   2.732
 4839SOL     OW15415   0.544   0.039   6.175
 4839SOL    HW115416   0.554   6.985   6.234
 4839SOL    HW215417   0.622   0.101   6.189
 4840SOL     OW15418   6.551   5.306   5.784
 4840SOL    HW115419   6.646   5.277   5.771
 4840SOL    HW215420   6.519   5.356   5.704
 4841SOL     OW15421   1.163   5.272   1.791
 4841SOL    HW115422   1.177   5.354   1.734
 4841SOL    HW215423   1.071   5.236   1.776
 4842SOL     OW15424   3.524   6.832   0.441
 4842SOL    HW115425   3.436   6.805   0.479
 4842SOL    HW215426   3.515   6.851   0.344
 4843SOL     OW15427   2.175   3.915   0.618
 4843SOL    HW115428   2.142   3.831   0.662
 4843SOL    HW215429   2.274   3.921   0.627
 4844SOL     OW15430   0.114   1.347   5.477
 4844SOL    HW115431   0.091   1.387   5.566
 4844SOL    HW215432   0.115   1.248   5.485
 4845SOL     OW15433   5.918   6.577   3.747
 4845SOL    HW115434   5.918   6.478   3.733
 4845SOL    HW215435   5.928   6.623   3.659
 4846SOL     OW15436   0.346   4.360   5.129
 4846SOL    HW115437   0.273   4.348   5.196
 4846SOL    HW215438   0.434   4.367   5.175
 4847SOL     OW15439   5.214   3.727   4.130
 4847SOL    HW115440   5.298   3.740   4.078
 4847SOL    HW215441   5.226   3.650   4.193
 4848SOL     OW15442   3.160   3.664   1.158
 4848SOL    HW115443   3.147   3.614   1.243
 4848SOL    HW215444   3.220   3.611   1.097
 4849SOL     OW15445   2.542   6.470   6.799
 4849SOL    HW115446   2.514   6.420   6.717
 4849SOL    HW215447   2.609   6.415   6.850
 4850SOL     OW15448   3.571   6.850   3.160
 4850SOL    HW115449   3.605   6.923   3.219
 4850SOL    HW215450   3.498   6.885   3.101
 4851SOL     OW15451   5.301   1.830   5.552
 4851SOL    HW115452   5.218   1.875   5.518
 4851SOL    HW215453   5.281   1.733   5.569
 4852SOL     OW15454   0.959   2.028   1.575
 4852SOL    HW115455   1.003   1.992   1.493
 4852SOL    HW215456   1.027   2.035   1.648
 4853SOL     OW15457   3.311   0.578   0.718
 4853SOL    HW115458   3.223   0.617   0.694
 4853SOL    HW215459   3.303   0.478   0.725
 4854SOL     OW15460   4.428   0.075   5.492
 4854SOL    HW115461   4.401   7.005   5.488
 4854SOL    HW215462   4.372   0.128   5.429
 4855SOL     OW15463   0.270   2.695   2.527
 4855SOL    HW115464   0.177   2.686   2.491
 4855SOL    HW215465   0.284   2.788   2.561
 4856SOL     OW15466   7.020   4.886   3.027
 4856SOL    HW115467   7.013   4.984   3.007
 4856SOL    HW215468   6.965   4.864   3.107
 4857SOL     OW15469   6.811   1.101   5.989
 4857SOL    HW115470   6.787   1.189   5.948
 4857SOL    HW215471   6.733   1.039   5.984
 4858SOL     OW15472   1.356   0.008   2.989
 4858SOL    HW115473   1.454   0.022   3.005
 4858SOL    HW215474   1.343   6.964   2.918
 4859SOL     OW15475   3.617   6.793   5.659
 4859SOL    HW115476   3.538   6.758   5.609
 4859SOL    HW215477   3.629   6.890   5.638
 4860SOL     OW15478   2.814   5.245   0.082
 4860SOL    HW115479   2.787   5.171   0.021
 4860SOL    HW215480   2.888   5.297   0.039
 4861SOL     OW15481   4.251   4.051   5.977
 4861SOL    HW115482   4.208   3.987   6.040
 4861SOL    HW215483   4.181   4.098   5.923
 4862SOL     OW15484   2.134   0.552   0.532
 4862SOL    HW115485   2.116   0.647   0.506
 4862SOL    HW215486   2.050   0.499   0.527
 4863SOL     OW15487   5.014   3.472   5.761
 4863SOL    HW115488   5.087   3.523   5.716
 4863SOL    HW215489   5.025   3.374   5.742
 4864SOL     OW15490   3.299   1.471   4.242
 4864SOL    HW115491   3.269   1.500   4.333
 4864SOL    HW215492   3.385   1.421   4.249
 4865SOL     OW15493   1.239   5.754   5.137
 4865SOL    HW115494   1.307   5.712   5.196
 4865SOL    HW215495   1.198   5.684   5.078
 4866SOL     OW15496   0.205   4.184   5.531
 4866SOL    HW115497   0.282   4.151   5.585
 4866SOL    HW215498   0.121   4.177   5.585
 4867SOL     OW15499   3.699   1.287   3.472
 4867SOL    HW115500   3.769   1.306   3.403
 4867SOL    HW215501   3.631   1.360   3.470
 4868SOL     OW15502   0.148   5.929   1.602
 4868SOL    HW115503   0.193   5.934   1.691
 4868SOL    HW215504   0.213   5.955   1.530
 4869SOL     OW15505   0.111   0.744   0.561
 4869SOL    HW115506   0.145   0.838   0.573
 4869SOL    HW215507   0.024   0.747   0.512
 4870SOL     OW15508   1.745   0.662   0.494
 4870SOL    HW115509   1.792   0.575   0.484
 4870SOL    HW215510   1.789   0.716   0.566
 4871SOL     OW15511   0.785   1.897   4.113
 4871SOL    HW115512   0.728   1.816   4.095
 4871SOL    HW215513   0.859   1.900   4.045
 4872SOL     OW15514   5.108   0.501   3.063
 4872SOL    HW115515   5.136   0.556   3.142
 4872SOL    HW215516   5.106   0.404   3.088
 4873SOL     OW15517   6.443   0.038   3.763
 4873SOL    HW115518   6.422   0.117   3.705
 4873SOL    HW215519   6.526   0.056   3.815
 4874SOL     OW15520   5.931   4.460   2.518
 4874SOL    HW115521   5.998   4.532   2.535
 4874SOL    HW215522   5.913   4.452   2.420
 4875SOL     OW15523   6.890   6.935   4.666
 4875SOL    HW115524   6.826   6.979   4.729
 4875SOL    HW215525   6.913   6.844   4.699
 4876SOL     OW15526   5.937   1.600   2.265
 4876SOL    HW115527   5.998   1.675   2.293
 4876SOL    HW215528   5.970   1.514   2.304
 4877SOL     OW15529   0.688   1.558   0.475
 4877SOL    HW115530   0.678   1.617   0.555
 4877SOL    HW215531   0.629   1.591   0.401
 4878SOL     OW15532   6.371   4.419   4.352
 4878SOL    HW115533   6.407   4.373   4.271
 4878SOL    HW215534   6.271   4.413   4.350
 4879SOL     OW15535   5.709   1.116   2.828
 4879SOL    HW115536   5.649   1.037   2.817
 4879SOL    HW215537   5.655   1.200   2.823
 4880SOL     OW15538   0.317   3.325   6.586
 4880SOL    HW115539   0.221   3.341   6.608
 4880SOL    HW215540   0.358   3.264   6.655
 4881SOL     OW15541   6.703   3.773   2.170
 4881SOL    HW115542   6.798   3.774   2.136
 4881SOL    HW215543   6.699   3.721   2.255
 4882SOL     OW15544   5.052   2.142   4.005
 4882SOL    HW115545   5.024   2.086   4.084
 4882SOL    HW215546   5.121   2.207   4.033
 4883SOL     OW15547   0.017   4.094   6.473
 4883SOL    HW115548   0.073   4.054   6.546
 4883SOL    HW215549   0.039   4.050   6.386
 4884SOL     OW15550   1.792   2.486   1.560
 4884SOL    HW115551   1.784   2.501   1.462
 4884SOL    HW215552   1.874   2.531   1.594
 4885SOL     OW15553   1.035   6.125   6.574
 4885SOL    HW115554   1.100   6.126   6.650
 4885SOL    HW215555   1.085   6.140   6.488
 4886SOL     OW15556   3.592   0.836   1.929
 4886SOL    HW115557   3.592   0.935   1.918
 4886SOL    HW215558   3.674   0.798   1.887
 4887SOL     OW15559   4.988   5.448   0.495
 4887SOL    HW115560   5.056   5.392   0.449
 4887SOL    HW215561   4.946   5.395   0.569
 4888SOL     OW15562   3.817   6.788   2.709
 4888SOL    HW115563   3.869   6.734   2.775
 4888SOL    HW215564   3.765   6.859   2.757
 4889SOL     OW15565   5.287   3.309   3.759
 4889SOL    HW115566   5.248   3.288   3.669
 4889SOL    HW215567   5.382   3.277   3.761
 4890SOL     OW15568   6.548   2.439   4.862
 4890SOL    HW115569   6.626   2.483   4.819
 4890SOL    HW215570   6.464   2.487   4.836
 4891SOL     OW15571   3.259   5.627   0.272
 4891SOL    HW115572   3.284   5.550   0.330
 4891SOL    HW215573   3.187   5.599   0.208
 4892SOL     OW15574   5.274   4.844   1.812
 4892SOL    HW115575   5.210   4.872   1.884
 4892SOL    HW215576   5.337   4.775   1.849
 4893SOL     OW15577   2.936   2.847   0.834
 4893SOL    HW115578   2.873   2.924   0.823
 4893SOL    HW215579   2.910   2.793   0.913
 4894SOL     OW15580   4.765   5.819   0.281
 4894SOL    HW115581   4.719   5.770   0.207
 4894SOL    HW215582   4.859   5.788   0.289
 4895SOL     OW15583   6.423   3.636   5.210
 4895SOL    HW115584   6.515   3.676   5.214
 4895SOL    HW215585   6.399   3.617   5.115
 4896SOL     OW15586   2.372   4.764   5.197
 4896SOL    HW115587   2.462   4.743   5.158
 4896SOL    HW215588   2.380   4.778   5.295
 4897SOL     OW15589   3.005   1.878   5.920
 4897SOL    HW115590   3.019   1.822   5.838
 4897SOL    HW215591   2.952   1.960   5.896
 4898SOL     OW15592   4.843   2.399   3.280
 4898SOL    HW115593   4.756   2.447   3.272
 4898SOL    HW215594   4.918   2.465   3.287
 4899SOL     OW15595   6.377   5.449   1.100
 4899SOL    HW115596   6.308   5.435   1.172
 4899SOL    HW215597   6.446   5.376   1.106
 4900SOL     OW15598   3.314   5.341   6.033
 4900SOL    HW115599   3.337   5.388   5.947
 4900SOL    HW215600   3.391   5.283   6.060
 4901SOL     OW15601   2.469   0.509   6.564
 4901SOL    HW115602   2.468   0.470   6.472
 4901SOL    HW215603   2.375   0.527   6.593
 4902SOL     OW15604   2.168   0.121   5.722
 4902SOL    HW115605   2.157   0.064   5.642
 4902SOL    HW215606   2.253   0.098   5.769
 4903SOL     OW15607   5.177   3.680   2.886
 4903SOL    HW115608   5.103   3.650   2.825
 4903SOL    HW215609   5.186   3.616   2.962
 4904SOL     OW15610   2.738   0.746   2.204
 4904SOL    HW115611   2.673   0.816   2.175
 4904SOL    HW215612   2.757   0.684   2.128
 4905SOL     OW15613   2.446   1.401   1.644
 4905SOL    HW115614   2.507   1.323   1.633
 4905SOL    HW215615   2.482   1.479   1.592
 4906SOL     OW15616   5.682   3.631   5.008
 4906SOL    HW115617   5.676   3.570   5.088
 4906SOL    HW215618   5.602   3.616   4.949
 4907SOL     OW15619   4.667   1.836   0.493
 4907SOL    HW115620   4.629   1.768   0.556
 4907SOL    HW215621   4.598   1.859   0.424
 4908SOL     OW15622   2.353   6.644   6.843
 4908SOL    HW115623   2.441   6.602   6.862
 4908SOL    HW215624   2.324   6.620   6.750
 4909SOL     OW15625   4.866   6.492   4.920
 4909SOL    HW115626   4.832   6.582   4.946
 4909SOL    HW215627   4.824   6.464   4.833
 4910SOL     OW15628   4.400   2.225   6.588
 4910SOL    HW115629   4.406   2.127   6.568
 4910SOL    HW215630   4.476   2.252   6.648
 4911SOL     OW15631   6.432   4.656   3.769
 4911SOL    HW115632   6.477   4.647   3.680
 4911SOL    HW215633   6.473   4.731   3.821
 4912SOL     OW15634   5.981   3.588   4.514
 4912SOL    HW115635   6.015   3.510   4.567
 4912SOL    HW215636   5.978   3.669   4.572
 4913SOL     OW15637   1.410   4.161   5.946
 4913SOL    HW115638   1.428   4.250   5.906
 4913SOL    HW215639   1.491   4.103   5.936
 4914SOL     OW15640   2.927   6.748   4.328
 4914SOL    HW115641   2.864   6.713   4.398
 4914SOL    HW215642   2.966   6.672   4.277
 4915SOL     OW15643   4.690   6.972   4.939
 4915SOL    HW115644   4.665   0.014   4.870
 4915SOL    HW215645   4.707   7.019   5.026
 4916SOL     OW15646   6.196   3.036   3.542
 4916SOL    HW115647   6.283   3.077   3.568
 4916SOL    HW215648   6.167   3.072   3.453
 4917SOL     OW15649   4.912   6.177   0.171
 4917SOL    HW115650   4.922   6.078   0.173
 4917SOL    HW215651   4.816   6.201   0.162
 4918SOL     OW15652   4.648   6.278   4.234
 4918SOL    HW115653   4.560   6.245   4.201
 4918SOL    HW215654   4.709   6.293   4.157
 4919SOL     OW15655   4.845   4.098   1.866
 4919SOL    HW115656   4.917   4.168   1.868
 4919SOL    HW215657   4.767   4.132   1.813
 4920SOL     OW15658   6.273   0.951   5.585
 4920SOL    HW115659   6.257   1.035   5.636
 4920SOL    HW215660   6.193   0.891   5.592
 4921SOL     OW15661   6.374   0.494   2.427
 4921SOL    HW115662   6.359   0.503   2.525
 4921SOL    HW215663   6.424   0.574   2.394
 4922SOL     OW15664   3.837   0.073   6.037
 4922SOL    HW115665   3.833   7.000   6.030
 4922SOL    HW215666   3.932   0.103   6.037
 4923SOL     OW15667   3.856   1.125   2.315
 4923SOL    HW115668   3.758   1.141   2.332
 4923SOL    HW215669   3.885   1.043   2.364
 4924SOL     OW15670   2.881   1.935   4.746
 4924SOL    HW115671   2.931   1.938   4.833
 4924SOL    HW215672   2.943   1.960   4.671
 4925SOL     OW15673   5.348   0.113   3.634
 4925SOL    HW115674   5.318   0.157   3.549
 4925SOL    HW215675   5.445   0.090   3.626
 4926SOL     OW15676   4.388   2.216   2.221
 4926SOL    HW115677   4.292   2.190   2.236
 4926SOL    HW215678   4.392   2.312   2.192
 4927SOL     OW15679   2.341   2.214   0.605
 4927SOL    HW115680   2.317   2.309   0.584
 4927SOL    HW215681   2.321   2.195   0.701
 4928SOL     OW15682   1.003   1.744   1.333
 4928SOL    HW115683   0.917   1.717   1.376
 4928SOL    HW215684   0.988   1.754   1.234
 4929SOL     OW15685   6.662   0.355   4.994
 4929SOL    HW115686   6.742   0.411   4.974
 4929SOL    HW215687   6.581   0.394   4.949
 4930SOL     OW15688   4.782   5.917   2.290
 4930SOL    HW115689   4.830   5.887   2.208
 4930SOL    HW215690   4.724   5.843   2.324
 4931SOL     OW15691   4.308   0.376   1.313
 4931SOL    HW115692   4.394   0.414   1.279
 4931SOL    HW215693   4.327   0.293   1.365
 4932SOL     OW15694   3.659   4.127   3.737
 4932SOL    HW115695   3.680   4.200   3.672
 4932SOL    HW215696   3.682   4.157   3.829
 4933SOL     OW15697   1.861   0.874   5.076
 4933SOL    HW115698   1.783   0.888   5.014
 4933SOL    HW215699   1.858   0.942   5.149
 4934SOL     OW15700   2.148   0.044   2.849
 4934SOL    HW115701   2.247   0.052   2.864
 4934SOL    HW215702   2.131   0.007   2.758
 4935SOL     OW15703   6.485   6.988   4.723
 4935SOL    HW115704   6.471   0.057   4.751
 4935SOL    HW215705   6.405   6.933   4.749
 4936SOL     OW15706   4.537   2.672   0.407
 4936SOL    HW115707   4.601   2.717   0.345
 4936SOL    HW215708   4.574   2.674   0.500
 4937SOL     OW15709   3.848   2.805   5.450
 4937SOL    HW115710   3.910   2.737   5.410
 4937SOL    HW215711   3.781   2.759   5.508
 4938SOL     OW15712   2.853   4.879   6.474
 4938SOL    HW115713   2.798   4.906   6.394
 4938SOL    HW215714   2.793   4.837   6.542
 4939SOL     OW15715   5.133   3.112   6.512
 4939SOL    HW115716   5.149   3.205   6.545
 4939SOL    HW215717   5.212   3.054   6.534
 4940SOL     OW15718   1.186   6.044   3.289
 4940SOL    HW115719   1.169   5.968   3.227
 4940SOL    HW215720   1.111   6.110   3.282
 4941SOL     OW15721   6.497   0.415   0.021
 4941SOL    HW115722   6.458   0.445   0.108
 4941SOL    HW215723   6.587   0.457   0.008
 4942SOL     OW15724   5.430   2.720   5.836
 4942SOL    HW115725   5.455   2.729   5.933
 4942SOL    HW215726   5.338   2.680   5.829
 4943SOL     OW15727   6.405   3.251   1.505
 4943SOL    HW115728   6.402   3.324   1.436
 4943SOL    HW215729   6.384   3.163   1.461
 4944SOL     OW15730   1.886   3.578   2.278
 4944SOL    HW115731   1.847   3.500   2.229
 4944SOL    HW215732   1.812   3.636   2.312
 4945SOL     OW15733   6.609   6.248   3.846
 4945SOL    HW115734   6.523   6.212   3.808
 4945SOL    HW215735   6.674   6.261   3.771
 4946SOL     OW15736   6.536   4.474   2.744
 4946SOL    HW115737   6.467   4.543   2.765
 4946SOL    HW215738   6.505   4.385   2.777
 4947SOL     OW15739   5.547   0.010   0.193
 4947SOL    HW115740   5.512   0.069   0.120
 4947SOL    HW215741   5.504   0.035   0.280
 4948SOL     OW15742   2.602   1.223   2.085
 4948SOL    HW115743   2.627   1.317   2.063
 4948SOL    HW215744   2.526   1.222   2.150
 4949SOL     OW15745   5.539   2.350   5.625
 4949SOL    HW115746   5.453   2.300   5.616
 4949SOL    HW215747   5.533   2.435   5.572
 4950SOL     OW15748   3.455   5.205   4.036
 4950SOL    HW115749   3.501   5.154   3.963
 4950SOL    HW215750   3.486   5.172   4.125
 4951SOL     OW15751   4.672   2.703   3.852
 4951SOL    HW115752   4.642   2.620   3.804
 4951SOL    HW215753   4.647   2.696   3.949
 4952SOL     OW15754   6.186   5.382   4.424
 4952SOL    HW115755   6.195   5.306   4.358
 4952SOL    HW215756   6.099   5.374   4.472
 4953SOL     OW15757   0.714   5.269   1.828
 4953SOL    HW115758   0.728   5.217   1.912
 4953SOL    HW215759   0.795   5.326   1.811
 4954SOL     OW15760   0.197   6.746   5.859
 4954SOL    HW115761   0.253   6.713   5.783
 4954SOL    HW215762   0.164   6.667   5.912
 4955SOL     OW15763   1.292   0.502   1.809
 4955SOL    HW115764   1.240   0.417   1.820
 4955SOL    HW215765   1.382   0.482   1.771
 4956SOL     OW15766   6.158   5.694   2.708
 4956SOL    HW115767   6.099   5.619   2.736
 4956SOL    HW215768   6.161   5.763   2.780
 4957SOL     OW15769   1.377   5.269   4.598
 4957SOL    HW115770   1.447   5.290   4.667
 4957SOL    HW215771   1.398   5.181   4.555
 4958SOL     OW15772   6.744   6.234   0.203
 4958SOL    HW115773   6.804   6.300   0.247
 4958SOL    HW215774   6.665   6.281   0.164
 4959SOL     OW15775   1.259   2.351   0.170
 4959SOL    HW115776   1.192   2.285   0.202
 4959SOL    HW215777   1.230   2.388   0.082
 4960SOL     OW15778   4.137   6.189   5.487
 4960SOL    HW115779   4.068   6.163   5.420
 4960SOL    HW215780   4.227   6.192   5.443
 4961SOL     OW15781   5.580   6.839   4.776
 4961SOL    HW115782   5.568   6.802   4.869
 4961SOL    HW215783   5.511   6.909   4.759
 4962SOL     OW15784   5.956   2.120   2.376
 4962SOL    HW115785   6.038   2.153   2.424
 4962SOL    HW215786   5.962   2.145   2.279
 4963SOL     OW15787   0.795   4.470   1.610
 4963SOL    HW115788   0.774   4.562   1.645
 4963SOL    HW215789   0.720   4.408   1.632
 4964SOL     OW15790   3.740   1.034   3.937
 4964SOL    HW115791   3.674   1.105   3.962
 4964SOL    HW215792   3.695   0.944   3.939
 4965SOL     OW15793   0.046   5.672   4.987
 4965SOL    HW115794   7.018   5.597   5.025
 4965SOL    HW215795   0.131   5.681   5.039
 4966SOL     OW15796   5.315   5.637   5.756
 4966SOL    HW115797   5.319   5.628   5.856
 4966SOL    HW215798   5.239   5.697   5.732
 4967SOL     OW15799   5.546   0.726   7.008
 4967SOL    HW115800   5.479   0.653   7.024
 4967SOL    HW215801   5.501   0.815   7.013
 4968SOL     OW15802   5.435   3.392   6.842
 4968SOL    HW115803   5.468   3.360   6.753
 4968SOL    HW215804   5.495   3.358   6.914
 4969SOL     OW15805   0.851   0.443   1.477
 4969SOL    HW115806   0.818   0.451   1.383
 4969SOL    HW215807   0.793   0.379   1.527
 4970SOL     OW15808   2.210   1.947   6.081
 4970SOL    HW115809   2.152   1.930   6.001
 4970SOL    HW215810   2.195   1.875   6.149
 4971SOL     OW15811   6.390   5.895   3.281
 4971SOL    HW115812   6.439   5.945   3.352
 4971SOL    HW215813   6.363   5.805   3.316
 4972SOL     OW15814   2.025   2.414   4.356
 4972SOL    HW115815   2.015   2.444   4.261
 4972SOL    HW215816   2.024   2.314   4.359
 4973SOL     OW15817   4.497   5.781   3.285
 4973SOL    HW115818   4.474   5.875   3.262
 4973SOL    HW215819   4.421   5.721   3.259
 4974SOL     OW15820   3.621   6.919   6.072
 4974SOL    HW115821   3.627   6.978   6.153
 4974SOL    HW215822   3.602   6.975   5.991
 4975SOL     OW15823   3.942   6.112   6.939
 4975SOL    HW115824   3.949   6.143   0.008
 4975SOL    HW215825   4.027   6.065   6.913
 4976SOL     OW15826   2.659   1.210   4.793
 4976SOL    HW115827   2.670   1.127   4.739
 4976SOL    HW215828   2.736   1.271   4.776
 4977SOL     OW15829   3.695   3.058   2.301
 4977SOL    HW115830   3.723   2.989   2.233
 4977SOL    HW215831   3.725   3.148   2.270
 4978SOL     OW15832   6.006   3.601   6.280
 4978SOL    HW115833   5.932   3.659   6.246
 4978SOL    HW215834   5.970   3.540   6.350
 4979SOL     OW15835   1.293   1.813   3.688
 4979SOL    HW115836   1.212   1.755   3.697
 4979SOL    HW215837   1.270   1.896   3.637
 4980SOL     OW15838   2.514   4.979   2.457
 4980SOL    HW115839   2.460   5.061   2.441
 4980SOL    HW215840   2.511   4.955   2.554
 4981SOL     OW15841   5.210   5.821   6.085
 4981SOL    HW115842   5.294   5.850   6.131
 4981SOL    HW215843   5.232   5.750   6.018
 4982SOL     OW15844   2.962   1.769   6.599
 4982SOL    HW115845   3.049   1.817   6.583
 4982SOL    HW215846   2.979   1.686   6.651
 4983SOL     OW15847   6.848   1.673   4.340
 4983SOL    HW115848   6.751   1.665   4.362
 4983SOL    HW215849   6.881   1.763   4.369
 4984SOL     OW15850   5.537   5.769   3.946
 4984SOL    HW115851   5.464   5.702   3.933
 4984SOL    HW215852   5.625   5.726   3.929
 4985SOL     OW15853   5.710   3.895   1.208
 4985SOL    HW115854   5.776   3.887   1.133
 4985SOL    HW215855   5.752   3.944   1.284
 4986SOL     OW15856   3.352   5.371   3.855
 4986SOL    HW115857   3.324   5.466   3.866
 4986SOL    HW215858   3.352   5.326   3.944
 4987SOL     OW15859   1.554   2.933   0.204
 4987SOL    HW115860   1.635   2.933   0.264
 4987SOL    HW215861   1.517   2.841   0.198
 4988SOL     OW15862   2.248   2.041   4.682
 4988SOL    HW115863   2.299   1.978   4.741
 4988SOL    HW215864   2.229   1.996   4.595
 4989SOL     OW15865   0.156   0.771   1.148
 4989SOL    HW115866   0.136   0.853   1.094
 4989SOL    HW215867   0.225   0.716   1.100
 4990SOL     OW15868   1.932   1.792   6.365
 4990SOL    HW115869   1.842   1.818   6.331
 4990SOL    HW215870   1.954   1.847   6.446
 4991SOL     OW15871   2.730   2.041   5.614
 4991SOL    HW115872   2.711   1.944   5.628
 4991SOL    HW215873   2.789   2.075   5.687
 4992SOL     OW15874   4.343   0.253   4.571
 4992SOL    HW115875   4.426   0.308   4.568
 4992SOL    HW215876   4.345   0.186   4.496
 4993SOL     OW15877   1.165   6.183   4.526
 4993SOL    HW115878   1.129   6.259   4.473
 4993SOL    HW215879   1.193   6.109   4.464
 4994SOL     OW15880   0.051   6.661   2.776
 4994SOL    HW115881   0.136   6.648   2.725
 4994SOL    HW215882   0.031   6.759   2.783
 4995SOL     OW15883   6.171   2.940   4.804
 4995SOL    HW115884   6.149   2.849   4.770
 4995SOL    HW215885   6.101   2.970   4.868
 4996SOL     OW15886   0.580   1.640   3.668
 4996SOL    HW115887   0.511   1.574   3.697
 4996SOL    HW215888   0.636   1.667   3.746
 4997SOL     OW15889   6.915   2.607   3.340
 4997SOL    HW115890   6.893   2.598   3.437
 4997SOL    HW215891   6.864   2.684   3.301
 4998SOL     OW15892   1.047   5.570   5.467
 4998SOL    HW115893   1.103   5.649   5.494
 4998SOL    HW215894   1.070   5.543   5.373
 4999SOL     OW15895   6.743   4.788   1.048
 4999SOL    HW115896   6.773   4.717   0.984
 4999SOL    HW215897   6.671   4.843   1.005
 5000SOL     OW15898   6.030   5.885   3.290
 5000SOL    HW115899   6.073   5.952   3.349
 5000SOL    HW215900   6.074   5.796   3.302
 5001SOL     OW15901   4.942   3.489   5.286
 5001SOL    HW115902   4.882   3.486   5.205
 5001SOL    HW215903   4.904   3.430   5.357
 5002SOL     OW15904   1.566   2.365   1.623
 5002SOL    HW115905   1.634   2.436   1.603
 5002SOL    HW215906   1.604   2.299   1.687
 5003SOL     OW15907   5.636   5.720   4.574
 5003SOL    HW115908   5.538   5.729   4.556
 5003SOL    HW215909   5.685   5.707   4.487
 5004SOL     OW15910   2.280   5.101   6.093
 5004SOL    HW115911   2.238   5.032   6.153
 5004SOL    HW215912   2.227   5.186   6.098
 5005SOL     OW15913   5.308   1.951   6.810
 5005SOL    HW115914   5.268   2.027   6.861
 5005SOL    HW215915   5.408   1.958   6.812
 5006SOL     OW15916   4.397   5.235   1.646
 5006SOL    HW115917   4.389   5.332   1.671
 5006SOL    HW215918   4.400   5.227   1.546
 5007SOL     OW15919   3.513   0.831   4.539
 5007SOL    HW115920   3.487   0.914   4.589
 5007SOL    HW215921   3.440   0.806   4.475
 5008SOL     OW15922   6.086   2.126   4.300
 5008SOL    HW115923   6.169   2.113   4.354
 5008SOL    HW215924   6.084   2.059   4.225
 5009SOL     OW15925   3.133   6.933   2.251
 5009SOL    HW115926   3.109   6.974   2.163
 5009SOL    HW215927   3.117   6.834   2.246
 5010SOL     OW15928   3.425   3.952   6.139
 5010SOL    HW115929   3.387   4.012   6.069
 5010SOL    HW215930   3.522   3.936   6.120
 5011SOL     OW15931   0.678   2.231   4.801
 5011SOL    HW115932   0.706   2.327   4.797
 5011SOL    HW215933   0.750   2.174   4.761
 5012SOL     OW15934   6.579   2.102   0.016
 5012SOL    HW115935   6.635   2.038   6.990
 5012SOL    HW215936   6.562   2.064   0.107
 5013SOL     OW15937   4.955   1.595   5.182
 5013SOL    HW115938   5.034   1.534   5.174
 5013SOL    HW215939   4.937   1.614   5.279
 5014SOL     OW15940   1.050   4.445   6.490
 5014SOL    HW115941   1.042   4.387   6.571
 5014SOL    HW215942   0.978   4.513   6.491
 5015SOL     OW15943   4.933   2.381   4.181
 5015SOL    HW115944   4.888   2.292   4.185
 5015SOL    HW215945   5.004   2.386   4.251
 5016SOL     OW15946   1.927   5.708   1.252
 5016SOL    HW115947   1.863   5.746   1.319
 5016SOL    HW215948   2.017   5.751   1.264
 5017SOL     OW15949   0.165   1.540   1.575
 5017SOL    HW115950   0.072   1.577   1.579
 5017SOL    HW215951   0.208   1.567   1.488
 5018SOL     OW15952   6.105   5.539   4.105
 5018SOL    HW115953   6.030   5.494   4.152
 5018SOL    HW215954   6.191   5.522   4.155
 5019SOL     OW15955   2.878   5.793   4.719
 5019SOL    HW115956   2.816   5.743   4.779
 5019SOL    HW215957   2.875   5.891   4.742
 5020SOL     OW15958   4.893   5.154   0.091
 5020SOL    HW115959   4.944   5.102   0.022
 5020SOL    HW215960   4.897   5.252   0.068
 5021SOL     OW15961   2.809   4.956   5.309
 5021SOL    HW115962   2.823   4.862   5.339
 5021SOL    HW215963   2.827   4.963   5.211
 5022SOL     OW15964   2.015   2.761   6.199
 5022SOL    HW115965   1.978   2.738   6.289
 5022SOL    HW215966   1.998   2.857   6.179
 5023SOL     OW15967   6.292   3.594   3.617
 5023SOL    HW115968   6.295   3.494   3.617
 5023SOL    HW215969   6.384   3.630   3.631
 5024SOL     OW15970   4.889   4.130   5.485
 5024SOL    HW115971   4.874   4.170   5.575
 5024SOL    HW215972   4.987   4.134   5.463
 5025SOL     OW15973   5.838   6.770   4.973
 5025SOL    HW115974   5.741   6.787   4.993
 5025SOL    HW215975   5.889   6.855   4.988
 5026SOL     OW15976   1.304   5.879   2.587
 5026SOL    HW115977   1.390   5.906   2.631
 5026SOL    HW215978   1.272   5.793   2.627
 5027SOL     OW15979   1.173   5.874   3.069
 5027SOL    HW115980   1.078   5.866   3.038
 5027SOL    HW215981   1.230   5.810   3.018
 5028SOL     OW15982   0.628   6.853   2.833
 5028SOL    HW115983   0.683   6.855   2.750
 5028SOL    HW215984   0.548   6.912   2.822
 5029SOL     OW15985   5.838   0.844   4.552
 5029SOL    HW115986   5.786   0.830   4.636
 5029SOL    HW215987   5.832   0.762   4.495
 5030SOL     OW15988   1.236   5.957   0.801
 5030SOL    HW115989   1.319   5.925   0.755
 5030SOL    HW215990   1.259   6.027   0.867
 5031SOL     OW15991   4.889   0.205   6.999
 5031SOL    HW115992   4.812   0.146   6.976
 5031SOL    HW215993   4.855   0.294   0.004
 5032SOL     OW15994   1.868   5.779   3.106
 5032SOL    HW115995   1.838   5.847   3.173
 5032SOL    HW215996   1.950   5.812   3.060
 5033SOL     OW15997   1.207   4.411   4.875
 5033SOL    HW115998   1.255   4.372   4.797
 5033SOL    HW215999   1.221   4.353   4.956
 5034SOL     OW16000   1.223   2.770   5.904
 5034SOL    HW116001   1.205   2.850   5.961
 5034SOL    HW216002   1.213   2.687   5.959
 5035SOL     OW16003   7.004   4.449   0.804
 5035SOL    HW116004   0.035   4.397   0.867
 5035SOL    HW216005   7.023   4.547   0.814
 5036SOL     OW16006   1.294   1.422   2.509
 5036SOL    HW116007   1.336   1.485   2.574
 5036SOL    HW216008   1.263   1.340   2.558
 5037SOL     OW16009   5.554   3.595   1.123
 5037SOL    HW116010   5.611   3.669   1.088
 5037SOL    HW216011   5.587   3.507   1.089
 5038SOL     OW16012   3.084   5.514   5.952
 5038SOL    HW116013   3.155   5.449   5.979
 5038SOL    HW216014   3.008   5.465   5.910
 5039SOL     OW16015   0.578   2.066   4.114
 5039SOL    HW116016   0.583   2.106   4.022
 5039SOL    HW216017   0.663   2.017   4.134
 5040SOL     OW16018   2.084   3.036   6.952
 5040SOL    HW116019   2.028   3.109   6.991
 5040SOL    HW216020   2.123   3.066   6.865
 5041SOL     OW16021   0.753   5.570   0.157
 5041SOL    HW116022   0.672   5.552   0.213
 5041SOL    HW216023   0.821   5.618   0.211
 5042SOL     OW16024   5.920   1.005   6.088
 5042SOL    HW116025   5.872   0.926   6.050
 5042SOL    HW216026   5.857   1.060   6.142
 5043SOL     OW16027   5.699   5.972   4.104
 5043SOL    HW116028   5.624   5.977   4.169
 5043SOL    HW216029   5.670   5.921   4.023
 5044SOL     OW16030   0.374   4.088   2.408
 5044SOL    HW116031   0.448   4.136   2.361
 5044SOL    HW216032   0.287   4.106   2.361
 5045SOL     OW16033   5.244   3.318   5.452
 5045SOL    HW116034   5.198   3.229   5.457
 5045SOL    HW216035   5.210   3.369   5.373
 5046SOL     OW16036   3.564   3.246   5.865
 5046SOL    HW116037   3.581   3.148   5.861
 5046SOL    HW216038   3.651   3.295   5.867
 5047SOL     OW16039   6.935   1.456   1.712
 5047SOL    HW116040   6.912   1.454   1.810
 5047SOL    HW216041   6.879   1.524   1.666
 5048SOL     OW16042   5.590   4.197   0.035
 5048SOL    HW116043   5.493   4.176   0.047
 5048SOL    HW216044   5.603   4.296   0.027
 5049SOL     OW16045   1.141   0.563   0.042
 5049SOL    HW116046   1.226   0.614   0.055
 5049SOL    HW216047   1.133   0.492   0.111
 5050SOL     OW16048   1.491   4.097   1.295
 5050SOL    HW116049   1.410   4.062   1.248
 5050SOL    HW216050   1.549   4.145   1.229
 5051SOL     OW16051   2.431   4.090   5.864
 5051SOL    HW116052   2.354   4.029   5.846
 5051SOL    HW216053   2.491   4.049   5.933
 5052SOL     OW16054   6.547   2.762   1.452
 5052SOL    HW116055   6.567   2.709   1.369
 5052SOL    HW216056   6.479   2.713   1.507
 5053SOL     OW16057   0.839   4.012   1.233
 5053SOL    HW116058   0.884   3.996   1.321
 5053SOL    HW216059   0.842   4.110   1.212
 5054SOL     OW16060   4.067   5.452   5.157
 5054SOL    HW116061   4.045   5.364   5.198
 5054SOL    HW216062   4.004   5.471   5.082
 5055SOL     OW16063   0.851   6.927   4.115
 5055SOL    HW116064   0.864   6.840   4.068
 5055SOL    HW216065   0.928   6.988   4.096
 5056SOL     OW16066   2.971   1.210   6.696
 5056SOL    HW116067   2.920   1.147   6.637
 5056SOL    HW216068   3.044   1.160   6.743
 5057SOL     OW16069   0.672   3.716   3.056
 5057SOL    HW116070   0.583   3.670   3.055
 5057SOL    HW216071   0.735   3.663   3.112
 5058SOL     OW16072   3.734   1.978   6.953
 5058SOL    HW116073   3.804   2.048   6.966
 5058SOL    HW216074   3.644   2.015   6.979
 5059SOL     OW16075   5.437   2.523   2.963
 5059SOL    HW116076   5.374   2.457   2.922
 5059SOL    HW216077   5.389   2.608   2.982
 5060SOL     OW16078   0.272   3.230   5.712
 5060SOL    HW116079   0.197   3.281   5.754
 5060SOL    HW216080   0.312   3.285   5.639
 5061SOL     OW16081   4.427   2.297   6.203
 5061SOL    HW116082   4.521   2.326   6.218
 5061SOL    HW216083   4.416   2.201   6.228
 5062SOL     OW16084   5.537   1.308   2.944
 5062SOL    HW116085   5.577   1.252   3.016
 5062SOL    HW216086   5.598   1.384   2.923
 5063SOL     OW16087   0.306   0.729   0.340
 5063SOL    HW116088   0.302   0.822   0.305
 5063SOL    HW216089   0.351   0.728   0.429
 5064SOL     OW16090   6.790   5.021   0.392
 5064SOL    HW116091   6.708   5.042   0.339
 5064SOL    HW216092   6.763   4.984   0.482
 5065SOL     OW16093   0.976   1.920   2.624
 5065SOL    HW116094   0.907   1.990   2.608
 5065SOL    HW216095   0.942   1.832   2.588
 5066SOL     OW16096   0.752   5.243   3.655
 5066SOL    HW116097   0.770   5.189   3.737
 5066SOL    HW216098   0.832   5.241   3.596
 5067SOL     OW16099   4.383   2.797   0.670
 5067SOL    HW116100   4.326   2.720   0.701
 5067SOL    HW216101   4.348   2.831   0.583
 5068SOL     OW16102   1.213   6.394   0.996
 5068SOL    HW116103   1.205   6.405   0.897
 5068SOL    HW216104   1.225   6.483   1.039
 5069SOL     OW16105   3.950   4.798   6.111
 5069SOL    HW116106   3.859   4.809   6.151
 5069SOL    HW216107   3.963   4.863   6.036
 5070SOL     OW16108   0.937   3.673   6.361
 5070SOL    HW116109   0.843   3.703   6.352
 5070SOL    HW216110   0.998   3.752   6.358
 5071SOL     OW16111   1.582   6.624   2.721
 5071SOL    HW116112   1.612   6.705   2.671
 5071SOL    HW216113   1.585   6.544   2.660
 5072SOL     OW16114   0.648   2.278   2.853
 5072SOL    HW116115   0.573   2.290   2.919
 5072SOL    HW216116   0.693   2.190   2.870
 5073SOL     OW16117   1.864   1.544   4.368
 5073SOL    HW116118   1.852   1.499   4.279
 5073SOL    HW216119   1.961   1.559   4.386
 5074SOL     OW16120   4.080   2.098   1.421
 5074SOL    HW116121   4.024   2.172   1.456
 5074SOL    HW216122   4.104   2.036   1.497
 5075SOL     OW16123   6.229   1.900   6.860
 5075SOL    HW116124   6.321   1.876   6.828
 5075SOL    HW216125   6.162   1.883   6.788
 5076SOL     OW16126   0.012   1.589   6.113
 5076SOL    HW116127   0.028   1.504   6.163
 5076SOL    HW216128   0.093   1.612   6.059
 5077SOL     OW16129   0.786   5.367   4.306
 5077SOL    HW116130   0.694   5.327   4.305
 5077SOL    HW216131   0.839   5.326   4.380
 5078SOL     OW16132   5.578   1.594   3.177
 5078SOL    HW116133   5.504   1.544   3.223
 5078SOL    HW216134   5.587   1.560   3.083
 5079SOL     OW16135   1.667   3.703   5.904
 5079SOL    HW116136   1.744   3.697   5.839
 5079SOL    HW216137   1.623   3.614   5.912
 5080SOL     OW16138   6.532   5.934   6.421
 5080SOL    HW116139   6.435   5.946   6.445
 5080SOL    HW216140   6.569   5.855   6.469
 5081SOL     OW16141   3.763   4.326   5.968
 5081SOL    HW116142   3.733   4.415   6.003
 5081SOL    HW216143   3.698   4.295   5.898
 5082SOL     OW16144   5.400   0.085   2.727
 5082SOL    HW116145   5.336   0.163   2.733
 5082SOL    HW216146   5.374   0.017   2.795
 5083SOL     OW16147   0.330   0.734   3.407
 5083SOL    HW116148   0.285   0.671   3.470
 5083SOL    HW216149   0.425   0.747   3.435
 5084SOL     OW16150   3.551   5.320   5.766
 5084SOL    HW116151   3.586   5.241   5.817
 5084SOL    HW216152   3.608   5.400   5.784
 5085SOL     OW16153   1.069   3.448   6.476
 5085SOL    HW116154   1.019   3.522   6.431
 5085SOL    HW216155   1.017   3.417   6.556
 5086SOL     OW16156   0.678   4.634   2.198
 5086SOL    HW116157   0.635   4.684   2.123
 5086SOL    HW216158   0.776   4.626   2.182
 5087SOL     OW16159   6.475   5.290   1.714
 5087SOL    HW116160   6.449   5.333   1.628
 5087SOL    HW216161   6.540   5.216   1.696
 5088SOL     OW16162   4.500   4.829   2.376
 5088SOL    HW116163   4.531   4.791   2.288
 5088SOL    HW216164   4.578   4.836   2.438
 5089SOL     OW16165   4.416   5.688   5.833
 5089SOL    HW116166   4.330   5.714   5.877
 5089SOL    HW216167   4.457   5.610   5.881
 5090SOL     OW16168   2.165   6.702   4.618
 5090SOL    HW116169   2.124   6.786   4.653
 5090SOL    HW216170   2.169   6.634   4.691
 5091SOL     OW16171   5.949   5.534   4.768
 5091SOL    HW116172   6.030   5.484   4.799
 5091SOL    HW216173   5.896   5.563   4.848
 5092SOL     OW16174   3.435   2.875   4.709
 5092SOL    HW116175   3.410   2.784   4.677
 5092SOL    HW216176   3.489   2.922   4.639
 5093SOL     OW16177   3.403   2.067   3.241
 5093SOL    HW116178   3.382   2.111   3.154
 5093SOL    HW216179   3.319   2.054   3.294
 5094SOL     OW16180   2.305   4.750   4.841
 5094SOL    HW116181   2.233   4.747   4.910
 5094SOL    HW216182   2.366   4.672   4.851
 5095SOL     OW16183   5.936   2.416   3.140
 5095SOL    HW116184   5.854   2.362   3.118
 5095SOL    HW216185   5.946   2.422   3.240
 5096SOL     OW16186   6.392   3.310   5.240
 5096SOL    HW116187   6.476   3.255   5.230
 5096SOL    HW216188   6.394   3.385   5.175
 5097SOL     OW16189   0.772   0.303   5.993
 5097SOL    HW116190   0.681   0.283   5.956
 5097SOL    HW216191   0.840   0.245   5.947
 5098SOL     OW16192   2.975   1.859   0.491
 5098SOL    HW116193   2.973   1.863   0.591
 5098SOL    HW216194   2.882   1.847   0.456
 5099SOL     OW16195   1.581   5.698   1.636
 5099SOL    HW116196   1.502   5.735   1.586
 5099SOL    HW216197   1.557   5.686   1.732
 5100SOL     OW16198   0.269   3.557   1.556
 5100SOL    HW116199   0.236   3.601   1.640
 5100SOL    HW216200   0.307   3.467   1.578
 5101SOL     OW16201   4.783   1.919   6.087
 5101SOL    HW116202   4.722   1.938   6.010
 5101SOL    HW216203   4.729   1.889   6.165
 5102SOL     OW16204   5.789   4.702   5.326
 5102SOL    HW116205   5.828   4.671   5.413
 5102SOL    HW216206   5.822   4.794   5.305
 5103SOL     OW16207   0.418   0.207   5.212
 5103SOL    HW116208   0.328   0.221   5.252
 5103SOL    HW216209   0.413   0.136   5.142
 5104SOL     OW16210   3.663   2.950   3.744
 5104SOL    HW116211   3.580   2.950   3.800
 5104SOL    HW216212   3.647   2.901   3.659
 5105SOL     OW16213   4.682   2.232   6.658
 5105SOL    HW116214   4.699   2.190   6.747
 5105SOL    HW216215   4.756   2.295   6.636
 5106SOL     OW16216   4.170   0.633   1.382
 5106SOL    HW116217   4.083   0.643   1.333
 5106SOL    HW216218   4.207   0.542   1.365
 5107SOL     OW16219   6.579   4.358   0.112
 5107SOL    HW116220   6.675   4.334   0.120
 5107SOL    HW216221   6.526   4.277   0.086
 5108SOL     OW16222   4.413   3.923   0.948
 5108SOL    HW116223   4.487   3.887   0.891
 5108SOL    HW216224   4.446   3.936   1.042
 5109SOL     OW16225   1.534   2.337   2.025
 5109SOL    HW116226   1.548   2.364   1.929
 5109SOL    HW216227   1.616   2.359   2.078
 5110SOL     OW16228   3.464   6.732   5.021
 5110SOL    HW116229   3.560   6.725   4.995
 5110SOL    HW216230   3.406   6.692   4.950
 5111SOL     OW16231   2.469   6.381   6.544
 5111SOL    HW116232   2.389   6.324   6.524
 5111SOL    HW216233   2.454   6.473   6.508
 5112SOL     OW16234   0.758   4.080   2.530
 5112SOL    HW116235   0.811   4.164   2.519
 5112SOL    HW216236   0.805   4.020   2.595
 5113SOL     OW16237   3.011   4.872   1.426
 5113SOL    HW116238   2.972   4.801   1.485
 5113SOL    HW216239   2.939   4.911   1.369
 5114SOL     OW16240   4.911   3.785   1.135
 5114SOL    HW116241   4.949   3.823   1.219
 5114SOL    HW216242   4.954   3.698   1.115
 5115SOL     OW16243   1.327   3.760   0.300
 5115SOL    HW116244   1.412   3.808   0.280
 5115SOL    HW216245   1.335   3.711   0.387
 5116SOL     OW16246   0.730   5.904   5.929
 5116SOL    HW116247   0.725   5.807   5.903
 5116SOL    HW216248   0.641   5.933   5.966
 5117SOL     OW16249   0.297   3.716   4.399
 5117SOL    HW116250   0.373   3.740   4.339
 5117SOL    HW216251   0.252   3.633   4.366
 5118SOL     OW16252   5.301   5.202   0.915
 5118SOL    HW116253   5.206   5.214   0.945
 5118SOL    HW216254   5.358   5.274   0.955
 5119SOL     OW16255   5.435   1.249   0.075
 5119SOL    HW116256   5.424   1.334   0.127
 5119SOL    HW216257   5.466   1.270   7.009
 5120SOL     OW16258   5.293   6.100   0.492
 5120SOL    HW116259   5.256   6.041   0.420
 5120SOL    HW216260   5.279   6.057   0.581
 5121SOL     OW16261   2.233   3.709   6.828
 5121SOL    HW116262   2.156   3.667   6.876
 5121SOL    HW216263   2.271   3.783   6.884
 5122SOL     OW16264   5.129   5.627   3.561
 5122SOL    HW116265   5.169   5.604   3.650
 5122SOL    HW216266   5.038   5.585   3.554
 5123SOL     OW16267   4.441   2.311   1.686
 5123SOL    HW116268   4.530   2.308   1.640
 5123SOL    HW216269   4.444   2.252   1.766
 5124SOL     OW16270   0.385   5.988   4.639
 5124SOL    HW116271   0.337   6.038   4.711
 5124SOL    HW216272   0.318   5.947   4.577
 5125SOL     OW16273   5.150   2.981   3.784
 5125SOL    HW116274   5.156   2.954   3.688
 5125SOL    HW216275   5.068   3.037   3.798
 5126SOL     OW16276   2.685   0.423   2.853
 5126SOL    HW116277   2.655   0.449   2.761
 5126SOL    HW216278   2.722   0.503   2.901
 5127SOL     OW16279   2.164   6.081   0.991
 5127SOL    HW116280   2.261   6.063   0.976
 5127SOL    HW216281   2.125   6.124   0.909
 5128SOL     OW16282   3.744   0.523   2.380
 5128SOL    HW116283   3.698   0.607   2.408
 5128SOL    HW216284   3.676   0.454   2.356
 5129SOL     OW16285   6.186   5.487   0.078
 5129SOL    HW116286   6.232   5.417   0.024
 5129SOL    HW216287   6.105   5.520   0.029
 5130SOL     OW16288   5.827   4.775   2.205
 5130SOL    HW116289   5.856   4.795   2.111
 5130SOL    HW216290   5.865   4.688   2.234
 5131SOL     OW16291   2.333   2.109   1.867
 5131SOL    HW116292   2.270   2.170   1.915
 5131SOL    HW216293   2.415   2.159   1.842
 5132SOL     OW16294   2.410   6.161   6.191
 5132SOL    HW116295   2.482   6.139   6.255
 5132SOL    HW216296   2.429   6.118   6.103
 5133SOL     OW16297   4.029   5.154   4.727
 5133SOL    HW116298   4.035   5.177   4.824
 5133SOL    HW216299   3.966   5.077   4.716
 5134SOL     OW16300   0.907   2.707   7.003
 5134SOL    HW116301   0.847   2.782   6.976
 5134SOL    HW216302   0.869   2.620   6.971
 5135SOL     OW16303   6.097   1.599   2.599
 5135SOL    HW116304   6.030   1.638   2.535
 5135SOL    HW216305   6.063   1.512   2.633
 5136SOL     OW16306   3.565   1.735   0.073
 5136SOL    HW116307   3.484   1.765   0.024
 5136SOL    HW216308   3.539   1.691   0.158
 5137SOL     OW16309   4.373   3.676   0.074
 5137SOL    HW116310   4.357   3.585   0.038
 5137SOL    HW216311   4.358   3.744   0.003
 5138SOL     OW16312   2.485   2.739   6.108
 5138SOL    HW116313   2.393   2.702   6.097
 5138SOL    HW216314   2.536   2.683   6.174
 5139SOL     OW16315   0.437   6.606   4.246
 5139SOL    HW116316   0.408   6.676   4.311
 5139SOL    HW216317   0.480   6.650   4.167
 5140SOL     OW16318   3.123   3.168   2.575
 5140SOL    HW116319   3.183   3.235   2.532
 5140SOL    HW216320   3.029   3.202   2.572
 5141SOL     OW16321   1.498   3.037   5.049
 5141SOL    HW116322   1.595   3.035   5.075
 5141SOL    HW216323   1.444   3.074   5.125
 5142SOL     OW16324   5.305   2.969   1.866
 5142SOL    HW116325   5.263   2.937   1.780
 5142SOL    HW216326   5.285   3.066   1.878
 5143SOL     OW16327   6.970   5.238   6.516
 5143SOL    HW116328   6.882   5.204   6.482
 5143SOL    HW216329   6.967   5.337   6.522
 5144SOL     OW16330   2.366   1.241   4.738
 5144SOL    HW116331   2.349   1.277   4.830
 5144SOL    HW216332   2.432   1.167   4.743
 5145SOL     OW16333   3.445   5.175   6.811
 5145SOL    HW116334   3.526   5.154   6.756
 5145SOL    HW216335   3.453   5.131   6.900
 5146SOL     OW16336   3.791   5.426   1.368
 5146SOL    HW116337   3.834   5.509   1.332
 5146SOL    HW216338   3.708   5.451   1.419
 5147SOL     OW16339   0.593   5.589   6.255
 5147SOL    HW116340   0.506   5.549   6.226
 5147SOL    HW216341   0.576   5.678   6.298
 5148SOL     OW16342   6.953   0.762   1.462
 5148SOL    HW116343   6.920   0.852   1.435
 5148SOL    HW216344   6.875   0.700   1.474
 5149SOL     OW16345   6.402   0.478   4.938
 5149SOL    HW116346   6.397   0.507   4.843
 5149SOL    HW216347   6.315   0.437   4.965
 5150SOL     OW16348   2.753   5.241   5.989
 5150SOL    HW116349   2.792   5.277   5.905
 5150SOL    HW216350   2.733   5.316   6.052
 5151SOL     OW16351   5.215   6.908   6.344
 5151SOL    HW116352   5.118   6.883   6.333
 5151SOL    HW216353   5.262   6.896   6.257
 5152SOL     OW16354   7.010   4.874   6.393
 5152SOL    HW116355   0.045   4.943   6.433
 5152SOL    HW216356   6.962   4.913   6.315
 5153SOL     OW16357   3.200   3.301   1.182
 5153SOL    HW116358   3.267   3.296   1.256
 5153SOL    HW216359   3.108   3.312   1.221
 5154SOL     OW16360   1.359   3.835   5.278
 5154SOL    HW116361   1.429   3.843   5.349
 5154SOL    HW216362   1.282   3.895   5.301
 5155SOL     OW16363   4.099   0.811   2.512
 5155SOL    HW116364   4.007   0.837   2.484
 5155SOL    HW216365   4.107   0.818   2.612
 5156SOL     OW16366   5.516   3.694   5.439
 5156SOL    HW116367   5.561   3.660   5.521
 5156SOL    HW216368   5.446   3.761   5.465
 5157SOL     OW16369   6.924   2.723   3.887
 5157SOL    HW116370   6.928   2.803   3.826
 5157SOL    HW216371   6.830   2.690   3.891
 5158SOL     OW16372   4.073   0.826   1.970
 5158SOL    HW116373   4.157   0.861   1.930
 5158SOL    HW216374   4.088   0.805   2.067
 5159SOL     OW16375   1.431   3.871   5.020
 5159SOL    HW116376   1.385   3.842   5.104
 5159SOL    HW216377   1.527   3.890   5.039
 5160SOL     OW16378   2.426   2.278   3.173
 5160SOL    HW116379   2.403   2.181   3.181
 5160SOL    HW216380   2.491   2.303   3.244
 5161SOL     OW16381   1.834   2.447   6.716
 5161SOL    HW116382   1.882   2.532   6.740
 5161SOL    HW216383   1.764   2.428   6.785
 5162SOL     OW16384   6.144   5.774   5.144
 5162SOL    HW116385   6.050   5.783   5.113
 5162SOL    HW216386   6.145   5.753   5.242
 5163SOL     OW16387   6.398   3.475   1.344
 5163SOL    HW116388   6.451   3.556   1.322
 5163SOL    HW216389   6.309   3.480   1.299
 5164SOL     OW16390   6.584   6.779   4.889
 5164SOL    HW116391   6.623   6.804   4.978
 5164SOL    HW216392   6.542   6.860   4.847
 5165SOL     OW16393   5.743   4.503   5.162
 5165SOL    HW116394   5.771   4.578   5.222
 5165SOL    HW216395   5.643   4.502   5.155
 5166SOL     OW16396   0.139   0.683   3.209
 5166SOL    HW116397   0.208   0.683   3.282
 5166SOL    HW216398   0.154   0.761   3.148
 5167SOL     OW16399   2.039   6.953   4.732
 5167SOL    HW116400   2.035   7.013   4.812
 5167SOL    HW216401   1.987   6.994   4.657
 5168SOL     OW16402   3.076   1.464   2.109
 5168SOL    HW116403   3.048   1.560   2.103
 5168SOL    HW216404   3.171   1.455   2.082
 5169SOL     OW16405   3.356   5.949   6.729
 5169SOL    HW116406   3.265   5.988   6.742
 5169SOL    HW216407   3.379   5.892   6.808
 5170SOL     OW16408   4.300   4.972   4.512
 5170SOL    HW116409   4.314   5.061   4.469
 5170SOL    HW216410   4.203   4.948   4.508
 5171SOL     OW16411   2.629   4.371   5.653
 5171SOL    HW116412   2.672   4.305   5.716
 5171SOL    HW216413   2.615   4.327   5.564
 5172SOL     OW16414   1.796   3.430   6.094
 5172SOL    HW116415   1.842   3.470   6.015
 5172SOL    HW216416   1.733   3.497   6.132
 5173SOL     OW16417   0.454   2.128   4.731
 5173SOL    HW116418   0.530   2.191   4.748
 5173SOL    HW216419   0.483   2.059   4.665
 5174SOL     OW16420   2.970   4.699   6.719
 5174SOL    HW116421   3.060   4.659   6.736
 5174SOL    HW216422   2.899   4.640   6.757
 5175SOL     OW16423   1.064   5.445   0.405
 5175SOL    HW116424   1.046   5.415   0.311
 5175SOL    HW216425   1.007   5.393   0.468
 5176SOL     OW16426   5.868   3.424   6.658
 5176SOL    HW116427   5.769   3.421   6.644
 5176SOL    HW216428   5.912   3.363   6.592
 5177SOL     OW16429   4.660   5.344   0.192
 5177SOL    HW116430   4.691   5.285   0.266
 5177SOL    HW216431   4.699   5.313   0.105
 5178SOL     OW16432   3.302   4.675   0.506
 5178SOL    HW116433   3.336   4.766   0.482
 5178SOL    HW216434   3.312   4.614   0.427
 5179SOL     OW16435   2.850   6.149   5.672
 5179SOL    HW116436   2.775   6.215   5.667
 5179SOL    HW216437   2.865   6.122   5.767
 5180SOL     OW16438   4.872   1.648   5.951
 5180SOL    HW116439   4.931   1.596   6.013
 5180SOL    HW216440   4.850   1.737   5.992
 5181SOL     OW16441   2.961   6.187   2.903
 5181SOL    HW116442   3.012   6.267   2.935
 5181SOL    HW216443   2.865   6.211   2.893
 5182SOL     OW16444   4.877   4.094   0.738
 5182SOL    HW116445   4.853   4.018   0.798
 5182SOL    HW216446   4.795   4.150   0.722
 5183SOL     OW16447   2.902   1.177   3.222
 5183SOL    HW116448   2.925   1.083   3.250
 5183SOL    HW216449   2.848   1.221   3.294
 5184SOL     OW16450   0.915   1.817   3.192
 5184SOL    HW116451   0.917   1.867   3.279
 5184SOL    HW216452   0.979   1.860   3.128
 5185SOL     OW16453   4.565   0.418   2.063
 5185SOL    HW116454   4.534   0.511   2.045
 5185SOL    HW216455   4.609   0.413   2.153
 5186SOL     OW16456   5.247   3.602   6.811
 5186SOL    HW116457   5.162   3.586   6.861
 5186SOL    HW216458   5.312   3.528   6.829
 5187SOL     OW16459   4.799   4.057   4.367
 5187SOL    HW116460   4.790   4.006   4.453
 5187SOL    HW216461   4.880   4.025   4.318
 5188SOL     OW16462   0.941   0.809   3.287
 5188SOL    HW116463   0.955   0.908   3.298
 5188SOL    HW216464   0.997   0.760   3.353
 5189SOL     OW16465   4.763   5.422   5.597
 5189SOL    HW116466   4.710   5.506   5.605
 5189SOL    HW216467   4.860   5.442   5.607
 5190SOL     OW16468   1.664   1.895   2.661
 5190SOL    HW116469   1.693   1.825   2.595
 5190SOL    HW216470   1.682   1.986   2.624
 5191SOL     OW16471   5.000   1.241   2.314
 5191SOL    HW116472   5.019   1.340   2.319
 5191SOL    HW216473   5.012   1.210   2.220
 5192SOL     OW16474   6.430   3.875   2.304
 5192SOL    HW116475   6.425   3.949   2.371
 5192SOL    HW216476   6.504   3.813   2.329
 5193SOL     OW16477   3.954   4.867   3.222
 5193SOL    HW116478   3.888   4.932   3.262
 5193SOL    HW216479   3.987   4.806   3.294
 5194SOL     OW16480   5.480   0.464   0.337
 5194SOL    HW116481   5.561   0.417   0.373
 5194SOL    HW216482   5.421   0.490   0.413
 5195SOL     OW16483   0.400   5.237   5.544
 5195SOL    HW116484   0.380   5.139   5.552
 5195SOL    HW216485   0.481   5.250   5.486
 5196SOL     OW16486   1.527   3.428   3.046
 5196SOL    HW116487   1.468   3.359   3.087
 5196SOL    HW216488   1.614   3.431   3.096
 5197SOL     OW16489   3.343   6.343   5.449
 5197SOL    HW116490   3.339   6.244   5.459
 5197SOL    HW216491   3.342   6.386   5.539
 5198SOL     OW16492   4.232   1.245   6.498
 5198SOL    HW116493   4.249   1.183   6.421
 5198SOL    HW216494   4.205   1.335   6.462
 5199SOL     OW16495   0.703   6.273   3.331
 5199SOL    HW116496   0.639   6.202   3.301
 5199SOL    HW216497   0.655   6.340   3.389
 5200SOL     OW16498   5.807   6.562   6.141
 5200SOL    HW116499   5.896   6.582   6.100
 5200SOL    HW216500   5.738   6.552   6.069
 5201SOL     OW16501   6.872   3.817   5.283
 5201SOL    HW116502   6.966   3.844   5.259
 5201SOL    HW216503   6.867   3.800   5.381
 5202SOL     OW16504   3.729   2.854   6.184
 5202SOL    HW116505   3.736   2.835   6.086
 5202SOL    HW216506   3.820   2.876   6.220
 5203SOL     OW16507   0.186   0.010   5.515
 5203SOL    HW116508   0.252   6.961   5.524
 5203SOL    HW216509   0.098   7.008   5.554
 5204SOL     OW16510   1.980   0.350   2.125
 5204SOL    HW116511   2.053   0.314   2.183
 5204SOL    HW216512   1.894   0.307   2.150
 5205SOL     OW16513   5.905   6.820   1.782
 5205SOL    HW116514   5.834   6.860   1.724
 5205SOL    HW216515   5.910   6.871   1.868
 5206SOL     OW16516   0.831   4.712   4.952
 5206SOL    HW116517   0.770   4.643   4.990
 5206SOL    HW216518   0.864   4.772   5.025
 5207SOL     OW16519   4.874   1.828   4.688
 5207SOL    HW116520   4.789   1.823   4.740
 5207SOL    HW216521   4.948   1.857   4.749
 5208SOL     OW16522   6.924   1.325   0.750
 5208SOL    HW116523   6.855   1.340   0.679
 5208SOL    HW216524   6.915   1.232   0.785
 5209SOL     OW16525   4.530   5.715   2.846
 5209SOL    HW116526   4.587   5.655   2.902
 5209SOL    HW216527   4.434   5.699   2.867
 5210SOL     OW16528   6.281   3.889   2.051
 5210SOL    HW116529   6.326   3.876   2.139
 5210SOL    HW216530   6.270   3.987   2.033
 5211SOL     OW16531   4.743   2.910   4.824
 5211SOL    HW116532   4.658   2.930   4.775
 5211SOL    HW216533   4.725   2.840   4.894
 5212SOL     OW16534   6.750   3.875   0.112
 5212SOL    HW116535   6.758   3.776   0.122
 5212SOL    HW216536   6.706   3.896   0.025
 5213SOL     OW16537   2.974   3.188   4.701
 5213SOL    HW116538   2.879   3.181   4.672
 5213SOL    HW216539   2.982   3.258   4.772
 5214SOL     OW16540   6.221   3.067   5.119
 5214SOL    HW116541   6.266   3.133   5.180
 5214SOL    HW216542   6.127   3.097   5.102
 5215SOL     OW16543   0.509   4.655   5.258
 5215SOL    HW116544   0.445   4.673   5.183
 5215SOL    HW216545   0.460   4.656   5.345
 5216SOL     OW16546   0.298   4.084   0.081
 5216SOL    HW116547   0.246   4.003   0.107
 5216SOL    HW216548   0.281   4.158   0.147
 5217SOL     OW16549   3.167   0.891   1.930
 5217SOL    HW116550   3.245   0.949   1.953
 5217SOL    HW216551   3.196   0.818   1.867
 5218SOL     OW16552   6.491   6.654   0.404
 5218SOL    HW116553   6.519   6.692   0.316
 5218SOL    HW216554   6.471   6.729   0.468
 5219SOL     OW16555   4.018   1.921   4.345
 5219SOL    HW116556   4.096   1.952   4.291
 5219SOL    HW216557   3.949   1.993   4.348
 5220SOL     OW16558   2.192   4.595   4.612
 5220SOL    HW116559   2.187   4.673   4.549
 5220SOL    HW216560   2.229   4.626   4.700
 5221SOL     OW16561   4.163   0.172   0.414
 5221SOL    HW116562   4.237   0.225   0.373
 5221SOL    HW216563   4.180   0.160   0.511
 5222SOL     OW16564   5.484   2.637   2.130
 5222SOL    HW116565   5.416   2.676   2.068
 5222SOL    HW216566   5.459   2.542   2.152
 5223SOL     OW16567   6.950   1.528   0.488
 5223SOL    HW116568   6.920   1.615   0.450
 5223SOL    HW216569   6.873   1.482   0.532
 5224SOL     OW16570   1.999   1.815   4.573
 5224SOL    HW116571   1.998   1.863   4.661
 5224SOL    HW216572   2.007   1.881   4.499
 5225SOL     OW16573   6.814   3.584   6.201
 5225SOL    HW116574   6.723   3.555   6.170
 5225SOL    HW216575   6.878   3.579   6.125
 5226SOL     OW16576   0.345   0.284   4.045
 5226SOL    HW116577   0.362   0.382   4.035
 5226SOL    HW216578   0.247   0.266   4.035
 5227SOL     OW16579   2.978   2.371   6.677
 5227SOL    HW116580   2.953   2.450   6.732
 5227SOL    HW216581   2.964   2.287   6.731
 5228SOL     OW16582   0.416   2.239   6.062
 5228SOL    HW116583   0.486   2.259   5.993
 5228SOL    HW216584   0.422   2.308   6.135
 5229SOL     OW16585   3.913   1.587   1.786
 5229SOL    HW116586   4.000   1.628   1.811
 5229SOL    HW216587   3.914   1.490   1.811
 5230SOL     OW16588   6.036   0.786   2.155
 5230SOL    HW116589   5.982   0.836   2.223
 5230SOL    HW216590   6.070   0.849   2.086
 5231SOL     OW16591   6.857   3.995   2.513
 5231SOL    HW116592   6.904   4.053   2.580
 5231SOL    HW216593   6.905   3.908   2.506
 5232SOL     OW16594   2.278   1.375   5.969
 5232SOL    HW116595   2.200   1.437   5.961
 5232SOL    HW216596   2.321   1.363   5.880
 5233SOL     OW16597   2.029   6.704   3.794
 5233SOL    HW116598   2.107   6.723   3.733
 5233SOL    HW216599   2.049   6.738   3.885
 5234SOL     OW16600   3.824   2.530   6.170
 5234SOL    HW116601   3.732   2.534   6.133
 5234SOL    HW216602   3.822   2.551   6.268
 5235SOL     OW16603   2.752   2.918   1.711
 5235SOL    HW116604   2.662   2.899   1.748
 5235SOL    HW216605   2.795   2.833   1.681
 5236SOL     OW16606   2.772   5.236   1.929
 5236SOL    HW116607   2.855   5.196   1.968
 5236SOL    HW216608   2.797   5.302   1.859
 5237SOL     OW16609   0.870   1.303   1.282
 5237SOL    HW116610   0.795   1.366   1.301
 5237SOL    HW216611   0.847   1.212   1.316
 5238SOL     OW16612   6.024   1.372   3.355
 5238SOL    HW116613   5.959   1.315   3.404
 5238SOL    HW216614   6.108   1.321   3.339
 5239SOL     OW16615   2.557   3.445   6.945
 5239SOL    HW116616   2.497   3.490   7.010
 5239SOL    HW216617   2.652   3.475   6.960
 5240SOL     OW16618   1.612   3.620   4.773
 5240SOL    HW116619   1.537   3.612   4.838
 5240SOL    HW216620   1.629   3.717   4.754
 5241SOL     OW16621   2.490   5.006   2.799
 5241SOL    HW116622   2.588   5.025   2.811
 5241SOL    HW216623   2.441   5.027   2.884
 5242SOL     OW16624   4.421   5.981   5.773
 5242SOL    HW116625   4.512   6.021   5.772
 5242SOL    HW216626   4.428   5.881   5.777
 5243SOL     OW16627   2.262   5.482   4.105
 5243SOL    HW116628   2.317   5.561   4.080
 5243SOL    HW216629   2.182   5.476   4.045
 5244SOL     OW16630   5.644   6.596   6.844
 5244SOL    HW116631   5.555   6.567   6.879
 5244SOL    HW216632   5.716   6.542   6.887
 5245SOL     OW16633   3.239   3.943   1.976
 5245SOL    HW116634   3.169   3.999   1.932
 5245SOL    HW216635   3.316   3.932   1.914
 5246SOL     OW16636   6.661   2.728   5.442
 5246SOL    HW116637   6.586   2.707   5.504
 5246SOL    HW216638   6.667   2.657   5.372
 5247SOL     OW16639   4.665   1.290   4.723
 5247SOL    HW116640   4.726   1.344   4.781
 5247SOL    HW216641   4.709   1.274   4.634
 5248SOL     OW16642   4.317   0.979   2.526
 5248SOL    HW116643   4.253   0.904   2.509
 5248SOL    HW216644   4.393   0.973   2.462
 5249SOL     OW16645   0.422   5.477   2.249
 5249SOL    HW116646   0.481   5.551   2.283
 5249SOL    HW216647   0.341   5.518   2.205
 5250SOL     OW16648   1.862   5.047   6.933
 5250SOL    HW116649   1.841   5.104   7.012
 5250SOL    HW216650   1.791   4.978   6.921
 5251SOL     OW16651   2.408   4.297   6.326
 5251SOL    HW116652   2.400   4.200   6.306
 5251SOL    HW216653   2.505   4.323   6.329
 5252SOL     OW16654   3.854   5.590   3.902
 5252SOL    HW116655   3.771   5.539   3.879
 5252SOL    HW216656   3.917   5.531   3.951
 5253SOL     OW16657   0.220   6.313   4.182
 5253SOL    HW116658   0.242   6.338   4.277
 5253SOL    HW216659   0.303   6.283   4.136
 5254SOL     OW16660   4.221   6.350   1.984
 5254SOL    HW116661   4.247   6.303   2.069
 5254SOL    HW216662   4.258   6.442   1.985
 5255SOL     OW16663   0.613   1.611   6.398
 5255SOL    HW116664   0.684   1.541   6.404
 5255SOL    HW216665   0.600   1.653   6.488
 5256SOL     OW16666   4.024   1.567   2.552
 5256SOL    HW116667   3.925   1.574   2.539
 5256SOL    HW216668   4.056   1.479   2.519
 5257SOL     OW16669   5.938   0.881   6.849
 5257SOL    HW116670   6.016   0.944   6.860
 5257SOL    HW216671   5.971   0.793   6.814
 5258SOL     OW16672   6.176   2.208   4.986
 5258SOL    HW116673   6.207   2.293   5.028
 5258SOL    HW216674   6.176   2.134   5.054
 5259SOL     OW16675   4.563   6.168   4.650
 5259SOL    HW116676   4.554   6.069   4.637
 5259SOL    HW216677   4.472   6.210   4.644
 5260SOL     OW16678   1.749   0.076   2.251
 5260SOL    HW116679   1.730   7.017   2.300
 5260SOL    HW216680   1.761   0.057   2.153
 5261SOL     OW16681   6.897   5.042   6.896
 5261SOL    HW116682   6.961   5.090   6.955
 5261SOL    HW216683   6.947   4.989   6.828
 5262SOL     OW16684   2.068   2.210   1.992
 5262SOL    HW116685   2.017   2.284   1.947
 5262SOL    HW216686   2.015   2.126   1.988
 5263SOL     OW16687   0.050   5.852   1.875
 5263SOL    HW116688   0.104   5.935   1.877
 5263SOL    HW216689   7.008   5.854   1.949
 5264SOL     OW16690   5.822   2.462   2.879
 5264SOL    HW116691   5.893   2.504   2.935
 5264SOL    HW216692   5.847   2.367   2.860
 5265SOL     OW16693   1.280   6.063   6.068
 5265SOL    HW116694   1.214   6.023   6.132
 5265SOL    HW216695   1.365   6.011   6.071
 5266SOL     OW16696   0.903   0.354   6.537
 5266SOL    HW116697   0.884   0.278   6.474
 5266SOL    HW216698   0.864   0.334   6.626
 5267SOL     OW16699   6.406   1.649   4.613
 5267SOL    HW116700   6.440   1.582   4.680
 5267SOL    HW216701   6.324   1.613   4.569
 5268SOL     OW16702   5.332   0.252   5.189
 5268SOL    HW116703   5.368   0.344   5.207
 5268SOL    HW216704   5.253   0.235   5.247
 5269SOL     OW16705   1.146   0.530   4.106
 5269SOL    HW116706   1.046   0.530   4.104
 5269SOL    HW216707   1.180   0.472   4.032
 5270SOL     OW16708   1.607   1.603   6.353
 5270SOL    HW116709   1.697   1.565   6.372
 5270SOL    HW216710   1.585   1.591   6.256
 5271SOL     OW16711   1.387   6.646   6.118
 5271SOL    HW116712   1.341   6.645   6.207
 5271SOL    HW216713   1.321   6.668   6.046
 5272SOL     OW16714   4.594   0.006   6.139
 5272SOL    HW116715   4.513   0.000   6.197
 5272SOL    HW216716   4.585   6.968   6.063
 5273SOL     OW16717   2.017   1.681   3.501
 5273SOL    HW116718   1.943   1.615   3.489
 5273SOL    HW216719   2.030   1.732   3.416
 5274SOL     OW16720   6.703   4.351   1.307
 5274SOL    HW116721   6.638   4.300   1.252
 5274SOL    HW216722   6.676   4.447   1.310
 5275SOL     OW16723   5.699   0.046   6.467
 5275SOL    HW116724   5.608   0.041   6.425
 5275SOL    HW216725   5.752   0.117   6.421
 5276SOL     OW16726   2.534   6.550   1.020
 5276SOL    HW116727   2.538   6.622   1.090
 5276SOL    HW216728   2.448   6.500   1.030
 5277SOL     OW16729   1.373   2.948   1.094
 5277SOL    HW116730   1.302   2.878   1.101
 5277SOL    HW216731   1.424   2.952   1.180
 5278SOL     OW16732   4.162   3.439   4.870
 5278SOL    HW116733   4.153   3.518   4.809
 5278SOL    HW216734   4.259   3.421   4.887
 5279SOL     OW16735   1.619   0.077   3.038
 5279SOL    HW116736   1.678   7.023   3.031
 5279SOL    HW216737   1.666   0.156   2.997
 5280SOL     OW16738   3.555   1.036   3.537
 5280SOL    HW116739   3.646   1.077   3.535
 5280SOL    HW216740   3.490   1.095   3.489
 5281SOL     OW16741   6.727   2.853   3.467
 5281SOL    HW116742   6.749   2.778   3.530
 5281SOL    HW216743   6.812   2.897   3.437
 5282SOL     OW16744   4.847   2.200   1.485
 5282SOL    HW116745   4.778   2.261   1.447
 5282SOL    HW216746   4.809   2.150   1.563
 5283SOL     OW16747   5.915   4.979   5.239
 5283SOL    HW116748   5.863   5.014   5.317
 5283SOL    HW216749   5.900   5.037   5.160
 5284SOL     OW16750   5.602   2.675   3.929
 5284SOL    HW116751   5.573   2.765   3.897
 5284SOL    HW216752   5.694   2.655   3.896
 5285SOL     OW16753   4.365   5.030   2.536
 5285SOL    HW116754   4.372   4.954   2.473
 5285SOL    HW216755   4.451   5.081   2.537
 5286SOL     OW16756   1.602   5.124   1.928
 5286SOL    HW116757   1.659   5.144   1.848
 5286SOL    HW216758   1.555   5.037   1.913
 5287SOL     OW16759   0.117   0.902   3.036
 5287SOL    HW116760   0.030   0.900   2.987
 5287SOL    HW216761   0.126   0.989   3.084
 5288SOL     OW16762   4.048   0.736   0.510
 5288SOL    HW116763   3.965   0.711   0.560
 5288SOL    HW216764   4.105   0.794   0.568
 5289SOL     OW16765   1.766   0.281   1.573
 5289SOL    HW116766   1.788   0.196   1.524
 5289SOL    HW216767   1.773   0.359   1.510
 5290SOL     OW16768   5.351   6.573   6.827
 5290SOL    HW116769   5.283   6.604   6.893
 5290SOL    HW216770   5.306   6.527   6.751
 5291SOL     OW16771   1.044   4.994   0.722
 5291SOL    HW116772   1.097   5.061   0.775
 5291SOL    HW216773   1.074   4.902   0.745
 5292SOL     OW16774   5.420   1.186   1.557
 5292SOL    HW116775   5.478   1.123   1.506
 5292SOL    HW216776   5.432   1.279   1.521
 5293SOL     OW16777   1.982   1.060   3.940
 5293SOL    HW116778   1.894   1.086   3.980
 5293SOL    HW216779   1.991   0.960   3.941
 5294SOL     OW16780   3.536   1.989   6.632
 5294SOL    HW116781   3.499   1.968   6.722
 5294SOL    HW216782   3.480   2.061   6.590
 5295SOL     OW16783   0.119   2.262   3.813
 5295SOL    HW116784   0.168   2.187   3.858
 5295SOL    HW216785   0.069   2.228   3.734
 5296SOL     OW16786   0.351   4.125   6.199
 5296SOL    HW116787   0.253   4.116   6.217
 5296SOL    HW216788   0.396   4.164   6.279
 5297SOL     OW16789   1.347   2.167   1.936
 5297SOL    HW116790   1.407   2.240   1.969
 5297SOL    HW216791   1.271   2.155   1.999
 5298SOL     OW16792   1.093   3.394   2.253
 5298SOL    HW116793   1.040   3.343   2.184
 5298SOL    HW216794   1.042   3.475   2.281
 5299SOL     OW16795   3.725   0.494   6.680
 5299SOL    HW116796   3.729   0.547   6.595
 5299SOL    HW216797   3.765   0.404   6.664
 5300SOL     OW16798   6.825   4.764   4.500
 5300SOL    HW116799   6.794   4.722   4.415
 5300SOL    HW216800   6.882   4.699   4.550
 5301SOL     OW16801   5.741   6.846   6.073
 5301SOL    HW116802   5.735   6.746   6.076
 5301SOL    HW216803   5.687   6.881   5.997
 5302SOL     OW16804   6.976   3.700   2.863
 5302SOL    HW116805   6.984   3.797   2.841
 5302SOL    HW216806   0.037   3.654   2.846
 5303SOL     OW16807   2.580   5.025   1.974
 5303SOL    HW116808   2.594   4.998   2.069
 5303SOL    HW216809   2.649   5.093   1.948
 5304SOL     OW16810   5.542   2.043   5.971
 5304SOL    HW116811   5.477   2.080   6.036
 5304SOL    HW216812   5.564   1.948   5.994
 5305SOL     OW16813   3.888   1.756   5.214
 5305SOL    HW116814   3.809   1.763   5.153
 5305SOL    HW216815   3.936   1.670   5.198
 5306SOL     OW16816   2.242   6.483   4.005
 5306SOL    HW116817   2.263   6.470   4.102
 5306SOL    HW216818   2.168   6.550   3.996
 5307SOL     OW16819   4.759   6.700   6.616
 5307SOL    HW116820   4.793   6.606   6.606
 5307SOL    HW216821   4.794   6.738   6.702
 5308SOL     OW16822   6.304   1.492   0.931
 5308SOL    HW116823   6.389   1.479   0.879
 5308SOL    HW216824   6.318   1.563   0.999
 5309SOL     OW16825   3.468   4.467   6.450
 5309SOL    HW116826   3.461   4.424   6.360
 5309SOL    HW216827   3.421   4.555   6.448
 5310SOL     OW16828   5.403   2.475   0.310
 5310SOL    HW116829   5.415   2.553   0.371
 5310SOL    HW216830   5.310   2.440   0.319
 5311SOL     OW16831   6.649   5.440   0.005
 5311SOL    HW116832   6.600   5.526   7.014
 5311SOL    HW216833   6.707   5.451   0.085
 5312SOL     OW16834   0.745   4.160   2.013
 5312SOL    HW116835   0.672   4.182   1.948
 5312SOL    HW216836   0.834   4.187   1.973
 5313SOL     OW16837   0.842   6.215   6.253
 5313SOL    HW116838   0.911   6.270   6.205
 5313SOL    HW216839   0.862   6.118   6.238
 5314SOL     OW16840   4.955   4.235   1.191
 5314SOL    HW116841   5.003   4.316   1.159
 5314SOL    HW216842   4.873   4.220   1.134
 5315SOL     OW16843   5.309   0.190   3.019
 5315SOL    HW116844   5.298   0.090   3.018
 5315SOL    HW216845   5.324   0.223   2.925
 5316SOL     OW16846   5.622   5.365   5.136
 5316SOL    HW116847   5.530   5.367   5.096
 5316SOL    HW216848   5.640   5.451   5.183
 5317SOL     OW16849   0.269   4.688   1.517
 5317SOL    HW116850   0.338   4.682   1.589
 5317SOL    HW216851   0.227   4.779   1.519
 5318SOL     OW16852   7.022   2.889   3.442
 5318SOL    HW116853   0.051   2.816   3.483
 5318SOL    HW216854   7.001   2.864   3.347
 5319SOL     OW16855   3.100   6.064   2.673
 5319SOL    HW116856   3.037   6.076   2.751
 5319SOL    HW216857   3.144   6.151   2.652
 5320SOL     OW16858   6.802   1.812   0.633
 5320SOL    HW116859   6.876   1.878   0.641
 5320SOL    HW216860   6.714   1.859   0.639
 5321SOL     OW16861   2.556   5.389   0.118
 5321SOL    HW116862   2.520   5.352   0.033
 5321SOL    HW216863   2.646   5.350   0.136
 5322SOL     OW16864   2.921   6.231   6.968
 5322SOL    HW116865   2.979   6.284   0.004
 5322SOL    HW216866   2.916   6.136   7.000
 5323SOL     OW16867   6.775   3.604   0.091
 5323SOL    HW116868   6.677   3.602   0.108
 5323SOL    HW216869   6.816   3.519   0.124
 5324SOL     OW16870   4.129   3.414   2.040
 5324SOL    HW116871   4.170   3.417   2.131
 5324SOL    HW216872   4.166   3.488   1.984
 5325SOL     OW16873   3.102   0.107   5.376
 5325SOL    HW116874   3.126   0.027   5.322
 5325SOL    HW216875   3.002   0.112   5.387
 5326SOL     OW16876   5.585   0.381   4.196
 5326SOL    HW116877   5.584   0.434   4.111
 5326SOL    HW216878   5.644   0.301   4.185
 5327SOL     OW16879   6.425   6.824   4.083
 5327SOL    HW116880   6.435   6.763   4.004
 5327SOL    HW216881   6.375   6.906   4.055
 5328SOL     OW16882   2.545   4.892   5.658
 5328SOL    HW116883   2.498   4.946   5.729
 5328SOL    HW216884   2.559   4.948   5.577
 5329SOL     OW16885   0.550   6.764   5.771
 5329SOL    HW116886   0.600   6.699   5.715
 5329SOL    HW216887   0.587   6.765   5.864
 5330SOL     OW16888   4.823   3.658   0.089
 5330SOL    HW116889   4.794   3.681   0.182
 5330SOL    HW216890   4.744   3.661   0.028
 5331SOL     OW16891   6.014   0.609   0.187
 5331SOL    HW116892   6.045   0.524   0.145
 5331SOL    HW216893   5.942   0.650   0.131
 5332SOL     OW16894   0.757   3.268   6.924
 5332SOL    HW116895   0.666   3.283   6.885
 5332SOL    HW216896   0.775   3.339   6.992
 5333SOL     OW16897   0.344   6.823   4.366
 5333SOL    HW116898   0.355   6.921   4.347
 5333SOL    HW216899   0.290   6.781   4.293
 5334SOL     OW16900   3.370   6.183   0.574
 5334SOL    HW116901   3.342   6.135   0.657
 5334SOL    HW216902   3.453   6.142   0.539
 5335SOL     OW16903   6.549   4.891   1.788
 5335SOL    HW116904   6.624   4.826   1.778
 5335SOL    HW216905   6.546   4.925   1.882
 5336SOL     OW16906   1.648   3.113   5.677
 5336SOL    HW116907   1.615   3.120   5.772
 5336SOL    HW216908   1.742   3.146   5.672
 5337SOL     OW16909   6.564   2.317   0.962
 5337SOL    HW116910   6.570   2.376   0.882
 5337SOL    HW216911   6.534   2.370   1.041
 5338SOL     OW16912   6.669   2.339   1.744
 5338SOL    HW116913   6.719   2.373   1.665
 5338SOL    HW216914   6.584   2.294   1.714
 5339SOL     OW16915   4.894   3.817   2.331
 5339SOL    HW116916   4.807   3.768   2.326
 5339SOL    HW216917   4.886   3.905   2.284
 5340SOL     OW16918   5.612   3.379   0.958
 5340SOL    HW116919   5.568   3.301   0.914
 5340SOL    HW216920   5.662   3.347   1.039
 5341SOL     OW16921   4.461   4.787   3.491
 5341SOL    HW116922   4.376   4.830   3.458
 5341SOL    HW216923   4.460   4.690   3.468
 5342SOL     OW16924   5.741   5.149   4.771
 5342SOL    HW116925   5.840   5.141   4.761
 5342SOL    HW216926   5.705   5.203   4.694
 5343SOL     OW16927   3.816   3.750   0.574
 5343SOL    HW116928   3.865   3.665   0.555
 5343SOL    HW216929   3.867   3.804   0.642
 5344SOL     OW16930   6.823   1.888   6.932
 5344SOL    HW116931   6.870   1.961   6.980
 5344SOL    HW216932   6.857   1.799   6.963
 5345SOL     OW16933   3.817   0.904   6.777
 5345SOL    HW116934   3.728   0.883   6.816
 5345SOL    HW216935   3.848   0.827   6.720
 5346SOL     OW16936   2.483   6.105   2.956
 5346SOL    HW116937   2.452   6.039   2.887
 5346SOL    HW216938   2.453   6.075   3.047
 5347SOL     OW16939   6.097   2.664   5.069
 5347SOL    HW116940   6.006   2.705   5.084
 5347SOL    HW216941   6.166   2.736   5.069
 5348SOL     OW16942   5.664   2.881   4.805
 5348SOL    HW116943   5.684   2.792   4.765
 5348SOL    HW216944   5.739   2.944   4.784
 5349SOL     OW16945   1.075   4.171   0.466
 5349SOL    HW116946   1.020   4.250   0.439
 5349SOL    HW216947   1.167   4.179   0.426
 5350SOL     OW16948   1.239   0.074   6.476
 5350SOL    HW116949   1.236   0.173   6.460
 5350SOL    HW216950   1.236   0.056   6.574
 5351SOL     OW16951   0.411   6.460   3.152
 5351SOL    HW116952   0.355   6.408   3.218
 5351SOL    HW216953   0.435   6.549   3.191
 5352SOL     OW16954   0.238   2.963   6.216
 5352SOL    HW116955   0.326   2.982   6.260
 5352SOL    HW216956   0.182   2.905   6.275
 5353SOL     OW16957   2.434   6.429   2.841
 5353SOL    HW116958   2.475   6.378   2.766
 5353SOL    HW216959   2.339   6.450   2.820
 5354SOL     OW16960   2.044   6.514   1.585
 5354SOL    HW116961   2.045   6.543   1.489
 5354SOL    HW216962   2.031   6.594   1.644
 5355SOL     OW16963   4.613   4.368   5.490
 5355SOL    HW116964   4.679   4.342   5.560
 5355SOL    HW216965   4.545   4.295   5.479
 5356SOL     OW16966   6.592   6.805   1.068
 5356SOL    HW116967   6.671   6.743   1.061
 5356SOL    HW216968   6.550   6.816   0.978
 5357SOL     OW16969   6.697   3.111   2.524
 5357SOL    HW116970   6.790   3.146   2.520
 5357SOL    HW216971   6.651   3.148   2.605
 5358SOL     OW16972   5.327   6.728   5.302
 5358SOL    HW116973   5.285   6.639   5.282
 5358SOL    HW216974   5.274   6.800   5.258
 5359SOL     OW16975   3.153   1.939   6.544
 5359SOL    HW116976   3.232   1.979   6.590
 5359SOL    HW216977   3.151   1.969   6.449
 5360SOL     OW16978   5.023   5.701   2.367
 5360SOL    HW116979   4.971   5.728   2.286
 5360SOL    HW216980   4.963   5.650   2.429
 5361SOL     OW16981   1.137   4.032   2.783
 5361SOL    HW116982   1.113   4.048   2.687
 5361SOL    HW216983   1.054   4.017   2.836
 5362SOL     OW16984   5.655   1.704   3.955
 5362SOL    HW116985   5.671   1.802   3.941
 5362SOL    HW216986   5.557   1.685   3.946
 5363SOL     OW16987   6.207   3.959   6.414
 5363SOL    HW116988   6.123   3.904   6.417
 5363SOL    HW216989   6.215   4.002   6.324
 5364SOL     OW16990   4.660   2.323   1.959
 5364SOL    HW116991   4.717   2.364   2.031
 5364SOL    HW216992   4.717   2.303   1.879
 5365SOL     OW16993   3.294   2.660   6.452
 5365SOL    HW116994   3.282   2.757   6.429
 5365SOL    HW216995   3.302   2.606   6.368
 5366SOL     OW16996   0.232   4.487   3.767
 5366SOL    HW116997   0.236   4.570   3.711
 5366SOL    HW216998   0.138   4.452   3.768
 5367SOL     OW16999   6.215   5.147   1.200
 5367SOL    HW117000   6.138   5.208   1.219
 5367SOL    HW217001   6.272   5.139   1.282
 5368SOL     OW17002   6.989   6.017   4.802
 5368SOL    HW117003   6.901   5.996   4.844
 5368SOL    HW217004   7.012   6.113   4.819
 5369SOL     OW17005   3.640   0.783   2.307
 5369SOL    HW117006   3.546   0.802   2.280
 5369SOL    HW217007   3.694   0.761   2.226
 5370SOL     OW17008   2.409   2.306   0.028
 5370SOL    HW117009   2.317   2.302   7.015
 5370SOL    HW217010   2.445   2.399   0.017
 5371SOL     OW17011   6.062   5.323   3.003
 5371SOL    HW117012   6.107   5.236   2.986
 5371SOL    HW217013   5.983   5.308   3.063
 5372SOL     OW17014   1.099   1.089   4.666
 5372SOL    HW117015   1.179   1.036   4.695
 5372SOL    HW217016   1.059   1.134   4.745
 5373SOL     OW17017   4.368   6.655   0.992
 5373SOL    HW117018   4.298   6.597   0.952
 5373SOL    HW217019   4.399   6.616   1.079
 5374SOL     OW17020   1.961   3.489   1.487
 5374SOL    HW117021   1.880   3.526   1.440
 5374SOL    HW217022   2.041   3.544   1.463
 5375SOL     OW17023   2.834   4.921   5.029
 5375SOL    HW117024   2.920   4.968   5.011
 5375SOL    HW217025   2.835   4.830   4.986
 5376SOL     OW17026   6.502   6.802   2.284
 5376SOL    HW117027   6.588   6.787   2.234
 5376SOL    HW217028   6.459   6.714   2.303
 5377SOL     OW17029   0.679   3.099   1.223
 5377SOL    HW117030   0.702   3.058   1.311
 5377SOL    HW217031   0.583   3.126   1.222
 5378SOL     OW17032   4.759   0.599   5.063
 5378SOL    HW117033   4.774   0.690   5.102
 5378SOL    HW217034   4.795   0.596   4.970
 5379SOL     OW17035   3.453   2.068   4.203
 5379SOL    HW117036   3.525   2.010   4.241
 5379SOL    HW217037   3.428   2.138   4.269
 5380SOL     OW17038   4.439   6.861   1.324
 5380SOL    HW117039   4.522   6.908   1.355
 5380SOL    HW217040   4.383   6.837   1.403
 5381SOL     OW17041   2.822   1.918   2.258
 5381SOL    HW117042   2.816   1.992   2.191
 5381SOL    HW217043   2.829   1.958   2.350
 5382SOL     OW17044   3.456   0.307   2.825
 5382SOL    HW117045   3.485   0.285   2.732
 5382SOL    HW217046   3.535   0.339   2.878
 5383SOL     OW17047   2.262   4.446   5.437
 5383SOL    HW117048   2.199   4.409   5.505
 5383SOL    HW217049   2.315   4.521   5.477
 5384SOL     OW17050   5.039   5.946   5.901
 5384SOL    HW117051   5.060   5.923   5.806
 5384SOL    HW217052   5.088   5.885   5.963
 5385SOL     OW17053   3.964   4.015   1.066
 5385SOL    HW117054   4.052   4.062   1.077
 5385SOL    HW217055   3.981   3.920   1.041
 5386SOL     OW17056   3.751   5.493   3.278
 5386SOL    HW117057   3.690   5.531   3.347
 5386SOL    HW217058   3.697   5.456   3.202
 5387SOL     OW17059   1.167   2.523   5.450
 5387SOL    HW117060   1.113   2.439   5.451
 5387SOL    HW217061   1.141   2.581   5.527
 5388SOL     OW17062   6.612   6.663   3.102
 5388SOL    HW117063   6.669   6.580   3.103
 5388SOL    HW217064   6.570   6.673   3.011
 5389SOL     OW17065   6.774   2.057   4.834
 5389SOL    HW117066   6.871   2.050   4.859
 5389SOL    HW217067   6.766   2.085   4.739
 5390SOL     OW17068   5.716   2.281   3.532
 5390SOL    HW117069   5.713   2.344   3.454
 5390SOL    HW217070   5.690   2.189   3.502
 5391SOL     OW17071   4.911   3.267   0.643
 5391SOL    HW117072   4.851   3.262   0.723
 5391SOL    HW217073   4.873   3.210   0.570
 5392SOL     OW17074   5.197   0.902   3.703
 5392SOL    HW117075   5.246   0.963   3.765
 5392SOL    HW217076   5.101   0.898   3.731
 5393SOL     OW17077   4.778   2.741   2.478
 5393SOL    HW117078   4.719   2.763   2.399
 5393SOL    HW217079   4.810   2.647   2.470
 5394SOL     OW17080   0.617   3.671   3.563
 5394SOL    HW117081   0.533   3.655   3.615
 5394SOL    HW217082   0.600   3.653   3.466
 5395SOL     OW17083   0.797   0.452   1.792
 5395SOL    HW117084   0.817   0.368   1.742
 5395SOL    HW217085   0.728   0.506   1.742
 5396SOL     OW17086   3.536   2.191   7.022
 5396SOL    HW117087   3.565   2.172   0.090
 5396SOL    HW217088   3.455   2.137   7.001
 5397SOL     OW17089   6.982   0.069   3.123
 5397SOL    HW117090   6.922   7.017   3.103
 5397SOL    HW217091   6.987   0.129   3.043
 5398SOL     OW17092   6.002   2.328   3.686
 5398SOL    HW117093   5.949   2.256   3.643
 5398SOL    HW217094   6.086   2.344   3.635
 5399SOL     OW17095   2.742   2.539   0.395
 5399SOL    HW117096   2.768   2.466   0.459
 5399SOL    HW217097   2.664   2.509   0.340
 5400SOL     OW17098   4.293   3.023   1.098
 5400SOL    HW117099   4.194   3.032   1.110
 5400SOL    HW217100   4.315   3.011   1.001
 5401SOL     OW17101   4.794   3.285   1.125
 5401SOL    HW117102   4.718   3.348   1.139
 5401SOL    HW217103   4.880   3.330   1.145
 5402SOL     OW17104   1.949   5.434   1.338
 5402SOL    HW117105   1.925   5.527   1.312
 5402SOL    HW217106   2.048   5.424   1.341
 5403SOL     OW17107   6.807   2.971   5.167
 5403SOL    HW117108   6.821   2.926   5.078
 5403SOL    HW217109   6.841   2.912   5.240
 5404SOL     OW17110   4.218   6.691   6.979
 5404SOL    HW117111   4.199   6.701   6.882
 5404SOL    HW217112   4.191   6.600   7.010
 5405SOL     OW17113   5.818   5.302   6.492
 5405SOL    HW117114   5.779   5.280   6.402
 5405SOL    HW217115   5.897   5.243   6.509
 5406SOL     OW17116   2.172   1.629   4.843
 5406SOL    HW117117   2.092   1.681   4.814
 5406SOL    HW217118   2.254   1.687   4.837
 5407SOL     OW17119   1.986   2.118   2.339
 5407SOL    HW117120   2.048   2.196   2.334
 5407SOL    HW217121   2.025   2.041   2.288
 5408SOL     OW17122   2.475   2.214   3.974
 5408SOL    HW117123   2.523   2.272   4.041
 5408SOL    HW217124   2.376   2.226   3.986
 5409SOL     OW17125   6.944   4.428   3.772
 5409SOL    HW117126   6.900   4.498   3.829
 5409SOL    HW217127   6.889   4.414   3.689
 5410SOL     OW17128   6.092   1.260   0.224
 5410SOL    HW117129   6.087   1.204   0.306
 5410SOL    HW217130   6.082   1.357   0.250
 5411SOL     OW17131   2.743   6.254   1.879
 5411SOL    HW117132   2.811   6.203   1.827
 5411SOL    HW217133   2.676   6.293   1.817
 5412SOL     OW17134   2.660   2.415   5.521
 5412SOL    HW117135   2.639   2.421   5.619
 5412SOL    HW217136   2.745   2.463   5.502
 5413SOL     OW17137   6.968   5.298   5.588
 5413SOL    HW117138   6.943   5.280   5.492
 5413SOL    HW217139   6.903   5.250   5.648
 5414SOL     OW17140   5.946   5.816   5.813
 5414SOL    HW117141   6.011   5.748   5.780
 5414SOL    HW217142   5.914   5.790   5.904
 5415SOL     OW17143   2.439   6.898   6.911
 5415SOL    HW117144   2.414   6.805   6.885
 5415SOL    HW217145   2.516   6.929   6.855
 5416SOL     OW17146   4.378   5.029   6.039
 5416SOL    HW117147   4.467   5.037   5.993
 5416SOL    HW217148   4.332   4.946   6.009
 5417SOL     OW17149   4.830   0.195   1.967
 5417SOL    HW117150   4.849   0.203   2.065
 5417SOL    HW217151   4.752   0.134   1.953
 5418SOL     OW17152   0.120   3.212   6.248
 5418SOL    HW117153   0.179   3.282   6.207
 5418SOL    HW217154   0.156   3.121   6.227
 5419SOL     OW17155   4.236   2.738   6.181
 5419SOL    HW117156   4.314   2.798   6.166
 5419SOL    HW217157   4.251   2.652   6.132
 5420SOL     OW17158   1.456   1.465   0.875
 5420SOL    HW117159   1.545   1.430   0.904
 5420SOL    HW217160   1.384   1.422   0.931
 5421SOL     OW17161   3.685   5.260   0.887
 5421SOL    HW117162   3.713   5.278   0.793
 5421SOL    HW217163   3.765   5.270   0.947
 5422SOL     OW17164   2.419   0.117   3.843
 5422SOL    HW117165   2.333   0.164   3.865
 5422SOL    HW217166   2.474   0.108   3.927
 5423SOL     OW17167   3.920   5.461   3.061
 5423SOL    HW117168   4.019   5.469   3.055
 5423SOL    HW217169   3.893   5.438   3.154
 5424SOL     OW17170   4.415   2.831   5.723
 5424SOL    HW117171   4.399   2.930   5.719
 5424SOL    HW217172   4.496   2.809   5.669
 5425SOL     OW17173   1.963   5.728   4.586
 5425SOL    HW117174   2.010   5.661   4.644
 5425SOL    HW217175   1.865   5.714   4.593
 5426SOL     OW17176   1.298   3.278   0.056
 5426SOL    HW117177   1.238   3.353   0.084
 5426SOL    HW217178   1.311   3.281   6.983
 5427SOL     OW17179   4.887   1.802   0.324
 5427SOL    HW117180   4.856   1.751   0.244
 5427SOL    HW217181   4.808   1.837   0.374
 5428SOL     OW17182   4.896   5.775   2.078
 5428SOL    HW117183   4.861   5.722   2.001
 5428SOL    HW217184   4.960   5.844   2.044
 5429SOL     OW17185   3.071   6.482   2.924
 5429SOL    HW117186   3.166   6.490   2.953
 5429SOL    HW217187   3.047   6.559   2.865
 5430SOL     OW17188   0.955   3.653   5.427
 5430SOL    HW117189   0.909   3.692   5.347
 5430SOL    HW217190   0.993   3.727   5.483
 5431SOL     OW17191   5.189   3.870   1.009
 5431SOL    HW117192   5.141   3.903   1.090
 5431SOL    HW217193   5.176   3.935   0.934
 5432SOL     OW17194   1.321   5.423   5.476
 5432SOL    HW117195   1.380   5.345   5.497
 5432SOL    HW217196   1.231   5.409   5.517
 5433SOL     OW17197   3.347   6.698   2.294
 5433SOL    HW117198   3.422   6.670   2.354
 5433SOL    HW217199   3.380   6.707   2.200
 5434SOL     OW17200   4.991   6.630   4.233
 5434SOL    HW117201   4.894   6.610   4.249
 5434SOL    HW217202   5.024   6.574   4.157
 5435SOL     OW17203   0.920   3.058   6.888
 5435SOL    HW117204   0.865   2.983   6.925
 5435SOL    HW217205   0.867   3.143   6.891
 5436SOL     OW17206   1.292   4.200   0.937
 5436SOL    HW117207   1.295   4.228   1.033
 5436SOL    HW217208   1.220   4.132   0.924
 5437SOL     OW17209   3.199   0.151   5.635
 5437SOL    HW117210   3.104   0.170   5.661
 5437SOL    HW217211   3.205   0.143   5.535
 5438SOL     OW17212   4.220   6.757   3.551
 5438SOL    HW117213   4.128   6.775   3.518
 5438SOL    HW217214   4.219   6.677   3.611
 5439SOL     OW17215   1.614   3.570   2.001
 5439SOL    HW117216   1.572   3.541   1.915
 5439SOL    HW217217   1.565   3.650   2.036
 5440SOL     OW17218   5.074   6.103   2.736
 5440SOL    HW117219   5.007   6.034   2.709
 5440SOL    HW217220   5.161   6.058   2.760
 5441SOL     OW17221   5.974   0.193   4.837
 5441SOL    HW117222   5.899   0.192   4.770
 5441SOL    HW217223   6.040   0.264   4.814
 5442SOL     OW17224   2.537   6.146   0.122
 5442SOL    HW117225   2.440   6.163   0.140
 5442SOL    HW217226   2.589   6.154   0.208
 5443SOL     OW17227   5.375   1.442   3.257
 5443SOL    HW117228   5.337   1.452   3.349
 5443SOL    HW217229   5.336   1.360   3.214
 5444SOL     OW17230   2.423   1.536   6.196
 5444SOL    HW117231   2.445   1.493   6.284
 5444SOL    HW217232   2.381   1.468   6.136
 5445SOL     OW17233   0.163   5.920   5.828
 5445SOL    HW117234   0.085   5.982   5.826
 5445SOL    HW217235   0.248   5.972   5.834
 5446SOL     OW17236   2.541   4.139   0.389
 5446SOL    HW117237   2.612   4.078   0.425
 5446SOL    HW217238   2.566   4.166   0.295
 5447SOL     OW17239   5.233   2.470   1.785
 5447SOL    HW117240   5.224   2.444   1.881
 5447SOL    HW217241   5.279   2.559   1.778
 5448SOL     OW17242   5.874   5.594   1.045
 5448SOL    HW117243   5.966   5.575   1.012
 5448SOL    HW217244   5.828   5.656   0.981
 5449SOL     OW17245   2.228   0.323   2.571
 5449SOL    HW117246   2.190   0.247   2.518
 5449SOL    HW217247   2.232   0.297   2.668
 5450SOL     OW17248   4.584   4.547   1.937
 5450SOL    HW117249   4.609   4.582   1.846
 5450SOL    HW217250   4.584   4.447   1.935
 5451SOL     OW17251   0.269   5.572   3.484
 5451SOL    HW117252   0.338   5.532   3.424
 5451SOL    HW217253   0.311   5.596   3.571
 5452SOL     OW17254   2.320   4.268   3.729
 5452SOL    HW117255   2.225   4.300   3.726
 5452SOL    HW217256   2.381   4.346   3.720
 5453SOL     OW17257   5.781   4.960   4.246
 5453SOL    HW117258   5.698   4.907   4.259
 5453SOL    HW217259   5.856   4.918   4.297
 5454SOL     OW17260   6.494   3.712   2.698
 5454SOL    HW117261   6.537   3.781   2.756
 5454SOL    HW217262   6.468   3.633   2.753
 5455SOL     OW17263   1.844   1.882   2.914
 5455SOL    HW117264   1.857   1.890   2.815
 5455SOL    HW217265   1.766   1.938   2.941
 5456SOL     OW17266   6.076   3.010   7.022
 5456SOL    HW117267   6.125   3.023   0.083
 5456SOL    HW217268   6.084   2.915   6.992
 5457SOL     OW17269   5.750   0.691   0.568
 5457SOL    HW117270   5.779   0.676   0.662
 5457SOL    HW217271   5.652   0.672   0.560
 5458SOL     OW17272   6.007   4.335   6.481
 5458SOL    HW117273   6.037   4.392   6.405
 5458SOL    HW217274   6.068   4.349   6.559
 5459SOL     OW17275   2.045   3.440   4.954
 5459SOL    HW117276   2.075   3.453   4.859
 5459SOL    HW217277   1.947   3.459   4.961
 5460SOL     OW17278   6.614   1.428   0.958
 5460SOL    HW117279   6.634   1.503   0.895
 5460SOL    HW217280   6.601   1.465   1.050
 5461SOL     OW17281   5.715   0.420   5.736
 5461SOL    HW117282   5.640   0.474   5.775
 5461SOL    HW217283   5.684   0.326   5.721
 5462SOL     OW17284   5.742   5.065   0.700
 5462SOL    HW117285   5.739   5.066   0.600
 5462SOL    HW217286   5.798   4.989   0.732
 5463SOL     OW17287   3.272   5.014   0.051
 5463SOL    HW117288   3.369   5.039   0.058
 5463SOL    HW217289   3.218   5.075   0.108
 5464SOL     OW17290   2.421   5.546   4.450
 5464SOL    HW117291   2.347   5.608   4.424
 5464SOL    HW217292   2.490   5.545   4.378
 5465SOL     OW17293   0.125   1.710   5.014
 5465SOL    HW117294   0.118   1.617   5.050
 5465SOL    HW217295   0.215   1.748   5.036
 5466SOL     OW17296   5.726   2.221   4.809
 5466SOL    HW117297   5.780   2.142   4.780
 5466SOL    HW217298   5.787   2.301   4.818
 5467SOL     OW17299   4.419   4.547   3.117
 5467SOL    HW117300   4.366   4.616   3.067
 5467SOL    HW217301   4.481   4.500   3.054
 5468SOL     OW17302   0.443   2.506   1.520
 5468SOL    HW117303   0.469   2.487   1.614
 5468SOL    HW217304   0.432   2.421   1.470
 5469SOL     OW17305   4.419   0.639   3.045
 5469SOL    HW117306   4.444   0.736   3.043
 5469SOL    HW217307   4.442   0.596   2.958
 5470SOL     OW17308   2.879   4.893   3.067
 5470SOL    HW117309   2.859   4.803   3.027
 5470SOL    HW217310   2.955   4.885   3.131
 5471SOL     OW17311   5.489   1.293   3.760
 5471SOL    HW117312   5.438   1.299   3.674
 5471SOL    HW217313   5.564   1.359   3.758
 5472SOL     OW17314   2.644   5.236   0.952
 5472SOL    HW117315   2.572   5.242   0.884
 5472SOL    HW217316   2.718   5.178   0.918
 5473SOL     OW17317   3.057   4.805   2.015
 5473SOL    HW117318   2.984   4.737   2.011
 5473SOL    HW217319   3.101   4.801   2.105
 5474SOL     OW17320   1.387   5.446   1.427
 5474SOL    HW117321   1.391   5.356   1.384
 5474SOL    HW217322   1.460   5.454   1.495
 5475SOL     OW17323   6.981   1.217   5.144
 5475SOL    HW117324   0.018   1.173   5.208
 5475SOL    HW217325   0.006   1.247   5.064
 5476SOL     OW17326   3.017   1.250   4.410
 5476SOL    HW117327   3.010   1.350   4.418
 5476SOL    HW217328   2.929   1.213   4.382
 5477SOL     OW17329   2.230   4.047   2.651
 5477SOL    HW117330   2.285   4.035   2.734
 5477SOL    HW217331   2.223   4.144   2.629
 5478SOL     OW17332   6.784   3.193   5.444
 5478SOL    HW117333   6.743   3.219   5.357
 5478SOL    HW217334   6.718   3.141   5.498
 5479SOL     OW17335   5.483   4.331   4.794
 5479SOL    HW117336   5.579   4.310   4.813
 5479SOL    HW217337   5.427   4.308   4.873
 5480SOL     OW17338   2.717   2.272   6.519
 5480SOL    HW117339   2.772   2.193   6.492
 5480SOL    HW217340   2.771   2.331   6.578
 5481SOL     OW17341   3.442   0.210   0.863
 5481SOL    HW117342   3.519   0.231   0.924
 5481SOL    HW217343   3.474   0.151   0.789
 5482SOL     OW17344   5.694   4.658   2.631
 5482SOL    HW117345   5.737   4.697   2.549
 5482SOL    HW217346   5.747   4.683   2.712
 5483SOL     OW17347   6.049   1.766   1.094
 5483SOL    HW117348   6.041   1.768   0.995
 5483SOL    HW217349   6.146   1.767   1.120
 5484SOL     OW17350   5.844   7.007   5.670
 5484SOL    HW117351   5.853   0.080   5.668
 5484SOL    HW217352   5.884   6.968   5.587
 5485SOL     OW17353   2.399   1.525   3.844
 5485SOL    HW117354   2.336   1.462   3.797
 5485SOL    HW217355   2.469   1.556   3.778
 5486SOL     OW17356   6.089   1.480   3.846
 5486SOL    HW117357   6.057   1.516   3.933
 5486SOL    HW217358   6.028   1.407   3.814
 5487SOL     OW17359   4.394   6.055   1.389
 5487SOL    HW117360   4.306   6.091   1.357
 5487SOL    HW217361   4.377   5.986   1.459
 5488SOL     OW17362   4.951   0.107   6.348
 5488SOL    HW117363   4.978   0.087   6.253
 5488SOL    HW217364   5.031   0.099   6.407
 5489SOL     OW17365   6.735   2.880   2.651
 5489SOL    HW117366   6.647   2.843   2.681
 5489SOL    HW217367   6.720   2.940   2.572
 5490SOL     OW17368   2.867   1.018   6.534
 5490SOL    HW117369   2.920   1.004   6.450
 5490SOL    HW217370   2.771   0.994   6.518
 5491SOL     OW17371   5.915   6.519   1.362
 5491SOL    HW117372   5.893   6.608   1.322
 5491SOL    HW217373   5.896   6.447   1.295
 5492SOL     OW17374   1.498   1.255   5.808
 5492SOL    HW117375   1.496   1.308   5.723
 5492SOL    HW217376   1.581   1.278   5.860
 5493SOL     OW17377   3.960   1.011   6.371
 5493SOL    HW117378   3.971   1.053   6.461
 5493SOL    HW217379   4.036   0.950   6.352
 5494SOL     OW17380   5.742   3.141   2.513
 5494SOL    HW117381   5.770   3.107   2.423
 5494SOL    HW217382   5.817   3.127   2.578
 5495SOL     OW17383   3.632   3.142   5.073
 5495SOL    HW117384   3.548   3.190   5.100
 5495SOL    HW217385   3.608   3.055   5.031
 5496SOL     OW17386   4.604   5.027   1.982
 5496SOL    HW117387   4.526   5.003   2.039
 5496SOL    HW217388   4.578   5.099   1.917
 5497SOL     OW17389   5.445   6.627   0.372
 5497SOL    HW117390   5.533   6.580   0.359
 5497SOL    HW217391   5.374   6.560   0.391
 5498SOL     OW17392   4.021   1.032   3.411
 5498SOL    HW117393   3.996   1.056   3.505
 5498SOL    HW217394   4.108   1.077   3.388
 5499SOL     OW17395   0.659   0.646   5.264
 5499SOL    HW117396   0.602   0.723   5.292
 5499SOL    HW217397   0.722   0.622   5.338
 5500SOL     OW17398   1.458   6.242   0.361
 5500SOL    HW117399   1.365   6.214   0.337
 5500SOL    HW217400   1.523   6.174   0.328
 5501SOL     OW17401   2.080   1.596   2.237
 5501SOL    HW117402   2.130   1.624   2.155
 5501SOL    HW217403   2.043   1.504   2.224
 5502SOL     OW17404   5.548   4.640   0.653
 5502SOL    HW117405   5.588   4.695   0.726
 5502SOL    HW217406   5.578   4.545   0.662
 5503SOL     OW17407   6.678   0.855   4.027
 5503SOL    HW117408   6.684   0.814   4.118
 5503SOL    HW217409   6.616   0.934   4.030
 5504SOL     OW17410   2.487   2.188   4.616
 5504SOL    HW117411   2.400   2.150   4.584
 5504SOL    HW217412   2.486   2.287   4.604
 5505SOL     OW17413   3.424   5.399   0.807
 5505SOL    HW117414   3.504   5.341   0.825
 5505SOL    HW217415   3.444   5.493   0.833
 5506SOL     OW17416   1.560   6.462   5.213
 5506SOL    HW117417   1.513   6.449   5.125
 5506SOL    HW217418   1.584   6.558   5.224
 5507SOL     OW17419   2.451   5.216   5.263
 5507SOL    HW117420   2.381   5.183   5.327
 5507SOL    HW217421   2.430   5.182   5.171
 5508SOL     OW17422   2.802   1.773   5.332
 5508SOL    HW117423   2.766   1.840   5.268
 5508SOL    HW217424   2.902   1.767   5.323
 5509SOL     OW17425   0.045   6.959   5.769
 5509SOL    HW117426   0.083   0.011   5.819
 5509SOL    HW217427   0.082   6.874   5.807
 5510SOL     OW17428   0.412   0.475   5.438
 5510SOL    HW117429   0.488   0.459   5.501
 5510SOL    HW217430   0.337   0.412   5.459
 5511SOL     OW17431   0.432   2.466   0.747
 5511SOL    HW117432   0.332   2.471   0.743
 5511SOL    HW217433   0.460   2.374   0.774
 5512SOL     OW17434   6.554   6.415   0.120
 5512SOL    HW117435   6.560   6.412   0.020
 5512SOL    HW217436   6.458   6.418   0.147
 5513SOL     OW17437   2.318   6.584   4.957
 5513SOL    HW117438   2.342   6.519   5.029
 5513SOL    HW217439   2.229   6.559   4.918
 5514SOL     OW17440   5.869   5.682   3.510
 5514SOL    HW117441   5.968   5.695   3.514
 5514SOL    HW217442   5.830   5.693   3.601
 5515SOL     OW17443   1.469   3.971   3.749
 5515SOL    HW117444   1.405   3.929   3.685
 5515SOL    HW217445   1.551   3.915   3.756
 5516SOL     OW17446   2.210   2.950   0.140
 5516SOL    HW117447   2.190   2.996   0.226
 5516SOL    HW217448   2.143   2.977   0.071
 5517SOL     OW17449   3.133   0.558   2.366
 5517SOL    HW117450   3.106   0.629   2.301
 5517SOL    HW217451   3.070   0.559   2.444
 5518SOL     OW17452   4.732   3.426   6.298
 5518SOL    HW117453   4.680   3.343   6.276
 5518SOL    HW217454   4.753   3.426   6.396
 5519SOL     OW17455   5.244   3.883   2.212
 5519SOL    HW117456   5.294   3.896   2.297
 5519SOL    HW217457   5.199   3.793   2.213
 5520SOL     OW17458   1.382   2.673   1.017
 5520SOL    HW117459   1.399   2.669   0.918
 5520SOL    HW217460   1.412   2.588   1.059
 5521SOL     OW17461   5.286   4.139   6.317
 5521SOL    HW117462   5.234   4.144   6.402
 5521SOL    HW217463   5.292   4.044   6.287
 5522SOL     OW17464   1.958   2.831   1.572
 5522SOL    HW117465   2.009   2.892   1.633
 5522SOL    HW217466   1.932   2.881   1.490
 5523SOL     OW17467   2.326   6.502   1.646
 5523SOL    HW117468   2.233   6.492   1.610
 5523SOL    HW217469   2.358   6.596   1.630
 5524SOL     OW17470   6.498   6.549   5.807
 5524SOL    HW117471   6.446   6.533   5.890
 5524SOL    HW217472   6.515   6.462   5.761
 5525SOL     OW17473   6.427   6.920   3.003
 5525SOL    HW117474   6.471   6.931   3.092
 5525SOL    HW217475   6.497   6.899   2.934
 5526SOL     OW17476   5.581   4.056   4.705
 5526SOL    HW117477   5.528   4.081   4.625
 5526SOL    HW217478   5.622   4.138   4.746
 5527SOL     OW17479   3.563   2.867   0.287
 5527SOL    HW117480   3.654   2.886   0.250
 5527SOL    HW217481   3.521   2.791   0.237
 5528SOL     OW17482   6.472   2.839   2.761
 5528SOL    HW117483   6.501   2.766   2.822
 5528SOL    HW217484   6.380   2.819   2.726
 5529SOL     OW17485   1.346   0.983   4.749
 5529SOL    HW117486   1.375   1.065   4.797
 5529SOL    HW217487   1.358   0.903   4.808
 5530SOL     OW17488   0.225   2.796   6.844
 5530SOL    HW117489   0.256   2.706   6.875
 5530SOL    HW217490   0.235   2.862   6.919
 5531SOL     OW17491   2.751   2.846   0.587
 5531SOL    HW117492   2.747   2.869   0.490
 5531SOL    HW217493   2.841   2.809   0.609
 5532SOL     OW17494   2.287   2.886   1.679
 5532SOL    HW117495   2.207   2.945   1.693
 5532SOL    HW217496   2.319   2.895   1.585
 5533SOL     OW17497   2.947   0.218   0.767
 5533SOL    HW117498   2.970   0.168   0.683
 5533SOL    HW217499   2.851   0.243   0.766
 5534SOL     OW17500   0.855   3.851   5.252
 5534SOL    HW117501   0.948   3.854   5.215
 5534SOL    HW217502   0.791   3.884   5.182
 5535SOL     OW17503   4.919   5.269   3.263
 5535SOL    HW117504   4.839   5.245   3.207
 5535SOL    HW217505   4.990   5.307   3.205
 5536SOL     OW17506   2.224   1.266   4.272
 5536SOL    HW117507   2.169   1.189   4.305
 5536SOL    HW217508   2.164   1.331   4.226
 5537SOL     OW17509   3.660   1.682   3.606
 5537SOL    HW117510   3.731   1.707   3.672
 5537SOL    HW217511   3.627   1.590   3.626
 5538SOL     OW17512   4.757   2.291   2.940
 5538SOL    HW117513   4.828   2.254   3.000
 5538SOL    HW217514   4.707   2.216   2.898
 5539SOL     OW17515   1.094   0.245   6.164
 5539SOL    HW117516   1.102   0.296   6.079
 5539SOL    HW217517   1.045   0.301   6.231
 5540SOL     OW17518   4.561   6.776   5.151
 5540SOL    HW117519   4.624   6.837   5.102
 5540SOL    HW217520   4.570   6.683   5.116
 5541SOL     OW17521   4.601   2.576   5.318
 5541SOL    HW117522   4.681   2.635   5.325
 5541SOL    HW217523   4.602   2.527   5.231
 5542SOL     OW17524   4.914   4.547   6.971
 5542SOL    HW117525   4.987   4.486   7.002
 5542SOL    HW217526   4.826   4.510   6.999
 5543SOL     OW17527   0.555   0.264   5.817
 5543SOL    HW117528   0.520   0.171   5.836
 5543SOL    HW217529   0.478   0.327   5.811
 5544SOL     OW17530   3.862   5.197   6.941
 5544SOL    HW117531   3.945   5.143   6.955
 5544SOL    HW217532   3.887   5.293   6.928
 5545SOL     OW17533   5.075   2.426   3.547
 5545SOL    HW117534   5.043   2.454   3.457
 5545SOL    HW217535   5.068   2.327   3.556
 5546SOL     OW17536   0.757   6.292   3.949
 5546SOL    HW117537   0.692   6.299   4.024
 5546SOL    HW217538   0.801   6.380   3.934
 5547SOL     OW17539   5.019   1.813   4.457
 5547SOL    HW117540   4.965   1.824   4.541
 5547SOL    HW217541   5.113   1.788   4.481
 5548SOL     OW17542   1.225   3.680   4.722
 5548SOL    HW117543   1.186   3.623   4.794
 5548SOL    HW217544   1.249   3.623   4.644
 5549SOL     OW17545   4.548   3.804   0.267
 5549SOL    HW117546   4.508   3.722   0.225
 5549SOL    HW217547   4.549   3.879   0.201
 5550SOL     OW17548   3.115   4.167   1.250
 5550SOL    HW117549   3.018   4.175   1.227
 5550SOL    HW217550   3.170   4.197   1.172
 5551SOL     OW17551   1.148   4.386   2.252
 5551SOL    HW117552   1.147   4.302   2.198
 5551SOL    HW217553   1.243   4.417   2.264
 5552SOL     OW17554   0.534   0.954   0.755
 5552SOL    HW117555   0.563   0.932   0.662
 5552SOL    HW217556   0.614   0.980   0.809
 5553SOL     OW17557   5.844   5.692   1.564
 5553SOL    HW117558   5.758   5.650   1.593
 5553SOL    HW217559   5.846   5.788   1.594
 5554SOL     OW17560   0.218   2.689   1.782
 5554SOL    HW117561   0.264   2.688   1.871
 5554SOL    HW217562   0.276   2.735   1.716
 5555SOL     OW17563   0.806   4.838   1.916
 5555SOL    HW117564   0.720   4.805   1.953
 5555SOL    HW217565   0.814   4.936   1.932
 5556SOL     OW17566   6.540   1.752   5.461
 5556SOL    HW117567   6.500   1.661   5.454
 5556SOL    HW217568   6.592   1.759   5.546
 5557SOL     OW17569   3.256   0.043   2.611
 5557SOL    HW117570   3.235   6.971   2.604
 5557SOL    HW217571   3.199   0.094   2.546
 5558SOL     OW17572   3.947   3.993   6.110
 5558SOL    HW117573   3.867   3.940   6.082
 5558SOL    HW217574   4.019   3.930   6.140
 5559SOL     OW17575   3.508   0.492   3.417
 5559SOL    HW117576   3.495   0.566   3.483
 5559SOL    HW217577   3.420   0.463   3.380
 5560SOL     OW17578   0.284   5.044   3.379
 5560SOL    HW117579   0.261   5.125   3.324
 5560SOL    HW217580   0.260   5.060   3.474
 5561SOL     OW17581   2.860   0.716   3.590
 5561SOL    HW117582   2.843   0.814   3.608
 5561SOL    HW217583   2.837   0.695   3.495
 5562SOL     OW17584   4.669   2.993   0.893
 5562SOL    HW117585   4.690   3.030   0.984
 5562SOL    HW217586   4.646   3.068   0.831
 5563SOL     OW17587   1.523   4.355   2.575
 5563SOL    HW117588   1.552   4.438   2.527
 5563SOL    HW217589   1.484   4.290   2.510
 5564SOL     OW17590   4.273   6.934   6.773
 5564SOL    HW117591   4.267   6.896   6.865
 5564SOL    HW217592   4.357   6.988   6.765
 5565SOL     OW17593   2.819   2.028   6.486
 5565SOL    HW117594   2.742   1.975   6.451
 5565SOL    HW217595   2.882   1.968   6.535
 5566SOL     OW17596   1.497   5.270   5.044
 5566SOL    HW117597   1.498   5.362   5.084
 5566SOL    HW217598   1.422   5.218   5.082
 5567SOL     OW17599   1.603   5.142   6.639
 5567SOL    HW117600   1.525   5.187   6.597
 5567SOL    HW217601   1.666   5.210   6.677
 5568SOL     OW17602   4.803   5.461   2.318
 5568SOL    HW117603   4.741   5.397   2.274
 5568SOL    HW217604   4.897   5.442   2.288
 5569SOL     OW17605   1.813   2.336   2.864
 5569SOL    HW117606   1.872   2.285   2.927
 5569SOL    HW217607   1.865   2.359   2.782
 5570SOL     OW17608   0.146   3.419   1.073
 5570SOL    HW117609   0.205   3.341   1.051
 5570SOL    HW217610   0.200   3.503   1.070
 5571SOL     OW17611   6.556   4.639   6.695
 5571SOL    HW117612   6.598   4.729   6.709
 5571SOL    HW217613   6.545   4.622   6.597
 5572SOL     OW17614   1.200   4.476   5.712
 5572SOL    HW117615   1.203   4.562   5.764
 5572SOL    HW217616   1.107   4.438   5.717
 5573SOL     OW17617   3.049   4.899   3.282
 5573SOL    HW117618   3.042   4.909   3.381
 5573SOL    HW217619   3.143   4.920   3.253
 5574SOL     OW17620   1.149   1.128   6.037
 5574SOL    HW117621   1.085   1.143   5.961
 5574SOL    HW217622   1.160   1.213   6.088
 5575SOL     OW17623   0.626   0.279   1.942
 5575SOL    HW117624   0.695   0.344   1.910
 5575SOL    HW217625   0.537   0.301   1.902
 5576SOL     OW17626   2.008   5.390   3.112
 5576SOL    HW117627   2.107   5.398   3.105
 5576SOL    HW217628   1.984   5.327   3.186
 5577SOL     OW17629   3.332   1.802   6.348
 5577SOL    HW117630   3.284   1.868   6.289
 5577SOL    HW217631   3.266   1.742   6.393
 5578SOL     OW17632   4.057   3.780   3.433
 5578SOL    HW117633   4.005   3.864   3.450
 5578SOL    HW217634   4.063   3.727   3.518
 5579SOL     OW17635   6.078   3.153   2.048
 5579SOL    HW117636   6.015   3.086   2.009
 5579SOL    HW217637   6.169   3.141   2.008
 5580SOL     OW17638   5.977   2.378   5.873
 5580SOL    HW117639   5.883   2.352   5.852
 5580SOL    HW217640   6.002   2.460   5.821
 5581SOL     OW17641   1.410   0.904   5.731
 5581SOL    HW117642   1.359   0.826   5.694
 5581SOL    HW217643   1.346   0.968   5.773
 5582SOL     OW17644   2.970   2.829   6.163
 5582SOL    HW117645   3.025   2.875   6.093
 5582SOL    HW217646   2.873   2.842   6.143
 5583SOL     OW17647   5.545   6.937   1.305
 5583SOL    HW117648   5.517   0.007   1.310
 5583SOL    HW217649   5.616   6.920   1.373
 5584SOL     OW17650   0.663   3.931   5.035
 5584SOL    HW117651   0.681   3.968   4.944
 5584SOL    HW217652   0.575   3.884   5.035
 5585SOL     OW17653   6.184   4.845   1.417
 5585SOL    HW117654   6.223   4.892   1.496
 5585SOL    HW217655   6.096   4.887   1.394
 5586SOL     OW17656   1.220   6.301   2.040
 5586SOL    HW117657   1.200   6.223   2.099
 5586SOL    HW217658   1.317   6.324   2.046
 5587SOL     OW17659   5.901   1.556   4.677
 5587SOL    HW117660   5.998   1.577   4.693
 5587SOL    HW217661   5.894   1.474   4.620
 5588SOL     OW17662   3.334   6.492   0.883
 5588SOL    HW117663   3.303   6.441   0.802
 5588SOL    HW217664   3.433   6.501   0.881
 5589SOL     OW17665   0.700   4.757   5.795
 5589SOL    HW117666   0.623   4.697   5.812
 5589SOL    HW217667   0.705   4.779   5.697
 5590SOL     OW17668   5.415   5.565   3.388
 5590SOL    HW117669   5.489   5.516   3.434
 5590SOL    HW217670   5.334   5.566   3.446
 5591SOL     OW17671   4.829   0.980   2.552
 5591SOL    HW117672   4.795   1.074   2.543
 5591SOL    HW217673   4.760   0.924   2.597
 5592SOL     OW17674   6.827   5.669   4.562
 5592SOL    HW117675   6.905   5.706   4.613
 5592SOL    HW217676   6.779   5.603   4.619
 5593SOL     OW17677   2.133   4.334   1.350
 5593SOL    HW117678   2.208   4.392   1.381
 5593SOL    HW217679   2.104   4.275   1.426
 5594SOL     OW17680   5.878   6.837   5.275
 5594SOL    HW117681   5.788   6.819   5.315
 5594SOL    HW217682   5.948   6.835   5.347
 5595SOL     OW17683   0.241   1.454   0.994
 5595SOL    HW117684   0.158   1.481   0.945
 5595SOL    HW217685   0.225   1.368   1.042
 5596SOL     OW17686   4.157   6.535   3.059
 5596SOL    HW117687   4.228   6.506   2.995
 5596SOL    HW217688   4.125   6.456   3.111
 5597SOL     OW17689   4.910   3.114   2.307
 5597SOL    HW117690   4.861   3.085   2.225
 5597SOL    HW217691   4.953   3.203   2.290
 5598SOL     OW17692   2.907   0.632   4.008
 5598SOL    HW117693   2.907   0.652   4.106
 5598SOL    HW217694   2.822   0.584   3.984
 5599SOL     OW17695   1.073   1.653   3.704
 5599SOL    HW117696   1.047   1.565   3.744
 5599SOL    HW217697   0.991   1.700   3.671
 5600SOL     OW17698   2.670   2.697   5.340
 5600SOL    HW117699   2.638   2.791   5.351
 5600SOL    HW217700   2.734   2.674   5.414
 5601SOL     OW17701   1.545   0.249   6.694
 5601SOL    HW117702   1.512   0.290   6.779
 5601SOL    HW217703   1.478   0.182   6.661
 5602SOL     OW17704   1.858   1.050   0.098
 5602SOL    HW117705   1.772   1.039   0.048
 5602SOL    HW217706   1.867   1.145   0.128
 5603SOL     OW17707   6.766   3.264   4.975
 5603SOL    HW117708   6.836   3.234   4.910
 5603SOL    HW217709   6.743   3.360   4.958
 5604SOL     OW17710   5.356   0.842   6.620
 5604SOL    HW117711   5.422   0.768   6.634
 5604SOL    HW217712   5.366   0.910   6.692
 5605SOL     OW17713   1.382   1.568   6.457
 5605SOL    HW117714   1.355   1.488   6.404
 5605SOL    HW217715   1.476   1.592   6.436
 5606SOL     OW17716   6.091   6.355   2.898
 5606SOL    HW117717   6.157   6.413   2.945
 5606SOL    HW217718   6.097   6.262   2.934
 5607SOL     OW17719   5.194   6.750   0.708
 5607SOL    HW117720   5.242   6.817   0.651
 5607SOL    HW217721   5.192   6.782   0.802
 5608SOL     OW17722   3.504   6.468   5.194
 5608SOL    HW117723   3.481   6.433   5.285
 5608SOL    HW217724   3.588   6.424   5.162
 5609SOL     OW17725   1.729   5.993   4.944
 5609SOL    HW117726   1.639   5.968   4.910
 5609SOL    HW217727   1.724   6.006   5.043
 5610SOL     OW17728   5.427   6.725   6.579
 5610SOL    HW117729   5.430   6.824   6.567
 5610SOL    HW217730   5.416   6.703   6.676
 5611SOL     OW17731   1.595   4.656   4.227
 5611SOL    HW117732   1.527   4.611   4.169
 5611SOL    HW217733   1.561   4.746   4.255
 5612SOL     OW17734   3.776   6.418   4.290
 5612SOL    HW117735   3.677   6.422   4.275
 5612SOL    HW217736   3.823   6.462   4.213
 5613SOL     OW17737   2.627   5.354   2.636
 5613SOL    HW117738   2.688   5.386   2.564
 5613SOL    HW217739   2.539   5.400   2.628
 5614SOL     OW17740   4.910   2.194   4.602
 5614SOL    HW117741   4.852   2.274   4.614
 5614SOL    HW217742   4.915   2.143   4.687
 5615SOL     OW17743   1.037   1.419   1.676
 5615SOL    HW117744   1.129   1.422   1.714
 5615SOL    HW217745   1.042   1.397   1.579
 5616SOL     OW17746   2.914   6.691   4.980
 5616SOL    HW117747   2.887   6.631   4.904
 5616SOL    HW217748   2.966   6.638   5.047
 5617SOL     OW17749   0.194   1.180   5.869
 5617SOL    HW117750   0.232   1.110   5.808
 5617SOL    HW217751   0.129   1.237   5.819
 5618SOL     OW17752   6.457   5.261   3.869
 5618SOL    HW117753   6.428   5.180   3.819
 5618SOL    HW217754   6.503   5.324   3.807
 5619SOL     OW17755   2.099   3.229   4.202
 5619SOL    HW117756   2.014   3.274   4.175
 5619SOL    HW217757   2.109   3.143   4.152
 5620SOL     OW17758   5.382   2.123   6.195
 5620SOL    HW117759   5.449   2.181   6.241
 5620SOL    HW217760   5.342   2.060   6.262
 5621SOL     OW17761   2.810   1.810   5.002
 5621SOL    HW117762   2.861   1.887   5.040
 5621SOL    HW217763   2.873   1.735   4.982
 5622SOL     OW17764   5.674   1.726   4.746
 5622SOL    HW117765   5.762   1.693   4.711
 5622SOL    HW217766   5.689   1.810   4.799
 5623SOL     OW17767   0.235   6.010   6.486
 5623SOL    HW117768   0.136   6.020   6.479
 5623SOL    HW217769   0.278   6.100   6.492
 5624SOL     OW17770   1.229   4.113   3.019
 5624SOL    HW117771   1.326   4.123   3.041
 5624SOL    HW217772   1.220   4.070   2.929
 5625SOL     OW17773   6.261   1.969   6.064
 5625SOL    HW117774   6.316   1.917   5.999
 5625SOL    HW217775   6.199   2.030   6.014
 5626SOL     OW17776   5.686   6.493   5.442
 5626SOL    HW117777   5.775   6.488   5.487
 5626SOL    HW217778   5.694   6.463   5.347
 5627SOL     OW17779   1.537   0.509   1.686
 5627SOL    HW117780   1.567   0.596   1.647
 5627SOL    HW217781   1.589   0.434   1.644
 5628SOL     OW17782   0.903   1.702   4.297
 5628SOL    HW117783   0.887   1.757   4.215
 5628SOL    HW217784   1.001   1.689   4.311
 5629SOL     OW17785   3.748   3.561   3.441
 5629SOL    HW117786   3.743   3.469   3.480
 5629SOL    HW217787   3.826   3.609   3.481
 5630SOL     OW17788   6.380   3.785   1.068
 5630SOL    HW117789   6.339   3.859   1.121
 5630SOL    HW217790   6.399   3.818   0.975
 5631SOL     OW17791   6.226   1.012   6.280
 5631SOL    HW117792   6.166   0.977   6.208
 5631SOL    HW217793   6.314   0.964   6.276
 5632SOL     OW17794   3.557   2.253   1.227
 5632SOL    HW117795   3.628   2.195   1.267
 5632SOL    HW217796   3.536   2.327   1.291
 5633SOL     OW17797   0.198   2.913   5.928
 5633SOL    HW117798   0.210   2.885   6.024
 5633SOL    HW217799   0.153   3.002   5.925
 5634SOL     OW17800   4.552   5.733   5.358
 5634SOL    HW117801   4.562   5.669   5.435
 5634SOL    HW217802   4.524   5.823   5.393
 5635SOL     OW17803   2.623   1.521   0.132
 5635SOL    HW117804   2.685   1.600   0.130
 5635SOL    HW217805   2.583   1.508   0.042
 5636SOL     OW17806   4.472   0.751   4.179
 5636SOL    HW117807   4.381   0.792   4.181
 5636SOL    HW217808   4.533   0.807   4.124
 5637SOL     OW17809   5.838   7.001   2.654
 5637SOL    HW117810   5.898   6.948   2.714
 5637SOL    HW217811   5.894   0.034   2.596
 5638SOL     OW17812   0.243   3.180   0.316
 5638SOL    HW117813   0.169   3.191   0.383
 5638SOL    HW217814   0.320   3.134   0.360
 5639SOL     OW17815   4.246   0.226   6.545
 5639SOL    HW117816   4.148   0.240   6.533
 5639SOL    HW217817   4.267   0.211   6.642
 5640SOL     OW17818   1.351   6.969   3.314
 5640SOL    HW117819   1.379   0.039   3.304
 5640SOL    HW217820   1.361   6.922   3.226
 5641SOL     OW17821   6.551   6.040   4.771
 5641SOL    HW117822   6.619   6.083   4.711
 5641SOL    HW217823   6.486   5.987   4.716
 5642SOL     OW17824   1.807   0.501   0.244
 5642SOL    HW117825   1.900   0.465   0.252
 5642SOL    HW217826   1.806   0.597   0.271
 5643SOL     OW17827   5.183   2.296   0.313
 5643SOL    HW117828   5.118   2.360   0.273
 5643SOL    HW217829   5.143   2.256   0.396
 5644SOL     OW17830   2.597   0.390   5.925
 5644SOL    HW117831   2.509   0.379   5.879
 5644SOL    HW217832   2.639   0.301   5.938
 5645SOL     OW17833   4.872   4.103   3.900
 5645SOL    HW117834   4.971   4.094   3.899
 5645SOL    HW217835   4.830   4.019   3.864
 5646SOL     OW17836   1.408   4.572   2.857
 5646SOL    HW117837   1.463   4.625   2.792
 5646SOL    HW217838   1.311   4.593   2.844
 5647SOL     OW17839   4.212   5.463   2.647
 5647SOL    HW117840   4.192   5.365   2.651
 5647SOL    HW217841   4.202   5.495   2.553
 5648SOL     OW17842   5.552   6.537   3.596
 5648SOL    HW117843   5.578   6.620   3.646
 5648SOL    HW217844   5.580   6.546   3.501
 5649SOL     OW17845   0.548   0.805   4.759
 5649SOL    HW117846   0.625   0.807   4.695
 5649SOL    HW217847   0.478   0.742   4.725
 5650SOL     OW17848   0.612   3.803   6.189
 5650SOL    HW117849   0.645   3.890   6.153
 5650SOL    HW217850   0.672   3.729   6.159
 5651SOL     OW17851   3.073   0.909   1.446
 5651SOL    HW117852   3.073   0.929   1.349
 5651SOL    HW217853   2.995   0.953   1.490
 5652SOL     OW17854   0.202   6.074   1.885
 5652SOL    HW117855   0.262   6.108   1.812
 5652SOL    HW217856   0.224   6.121   1.971
 5653SOL     OW17857   0.310   0.324   2.686
 5653SOL    HW117858   0.338   0.306   2.780
 5653SOL    HW217859   0.210   0.329   2.682
 5654SOL     OW17860   3.433   6.100   6.044
 5654SOL    HW117861   3.340   6.102   6.080
 5654SOL    HW217862   3.464   6.194   6.027
 5655SOL     OW17863   6.327   3.379   4.287
 5655SOL    HW117864   6.283   3.295   4.257
 5655SOL    HW217865   6.385   3.359   4.367
 5656SOL     OW17866   0.437   4.763   1.715
 5656SOL    HW117867   0.434   4.691   1.784
 5656SOL    HW217868   0.420   4.851   1.759
 5657SOL     OW17869   6.139   6.412   5.698
 5657SOL    HW117870   6.235   6.429   5.675
 5657SOL    HW217871   6.124   6.314   5.708
 5658SOL     OW17872   3.010   2.399   5.355
 5658SOL    HW117873   3.090   2.378   5.298
 5658SOL    HW217874   2.939   2.330   5.339
 5659SOL     OW17875   2.619   3.870   5.610
 5659SOL    HW117876   2.629   3.909   5.701
 5659SOL    HW217877   2.702   3.889   5.557
 5660SOL     OW17878   3.905   0.722   4.284
 5660SOL    HW117879   3.885   0.631   4.322
 5660SOL    HW217880   3.821   0.777   4.285
 5661SOL     OW17881   0.402   6.117   5.822
 5661SOL    HW117882   0.436   6.091   5.912
 5661SOL    HW217883   0.342   6.196   5.830
 5662SOL     OW17884   2.803   5.793   0.697
 5662SOL    HW117885   2.827   5.724   0.766
 5662SOL    HW217886   2.721   5.841   0.725
 5663SOL     OW17887   3.485   1.590   6.269
 5663SOL    HW117888   3.445   1.675   6.302
 5663SOL    HW217889   3.574   1.577   6.314
 5664SOL     OW17890   4.944   6.015   5.105
 5664SOL    HW117891   4.882   6.066   5.045
 5664SOL    HW217892   4.891   5.953   5.162
 5665SOL     OW17893   2.284   1.187   0.843
 5665SOL    HW117894   2.282   1.189   0.743
 5665SOL    HW217895   2.369   1.144   0.873
 5666SOL     OW17896   6.291   3.597   4.809
 5666SOL    HW117897   6.213   3.540   4.783
 5666SOL    HW217898   6.258   3.687   4.839
 5667SOL     OW17899   2.486   4.701   4.093
 5667SOL    HW117900   2.446   4.636   4.029
 5667SOL    HW217901   2.577   4.727   4.062
 5668SOL     OW17902   4.433   4.598   4.022
 5668SOL    HW117903   4.447   4.668   4.091
 5668SOL    HW217904   4.354   4.623   3.965
 5669SOL     OW17905   5.657   3.467   6.013
 5669SOL    HW117906   5.754   3.462   6.037
 5669SOL    HW217907   5.630   3.563   6.002
 5670SOL     OW17908   0.753   3.245   4.268
 5670SOL    HW117909   0.704   3.191   4.337
 5670SOL    HW217910   0.813   3.310   4.314
 5671SOL     OW17911   5.752   6.098   2.721
 5671SOL    HW117912   5.831   6.082   2.662
 5671SOL    HW217913   5.691   6.019   2.716
 5672SOL     OW17914   6.113   3.400   4.695
 5672SOL    HW117915   6.026   3.355   4.711
 5672SOL    HW217916   6.175   3.337   4.648
 5673SOL     OW17917   1.231   2.234   0.523
 5673SOL    HW117918   1.258   2.320   0.479
 5673SOL    HW217919   1.245   2.241   0.621
 5674SOL     OW17920   3.208   5.246   5.497
 5674SOL    HW117921   3.173   5.253   5.404
 5674SOL    HW217922   3.289   5.303   5.507
 5675SOL     OW17923   3.761   1.901   0.767
 5675SOL    HW117924   3.668   1.895   0.801
 5675SOL    HW217925   3.818   1.952   0.832
 5676SOL     OW17926   3.638   1.421   1.998
 5676SOL    HW117927   3.660   1.518   1.989
 5676SOL    HW217928   3.713   1.367   1.959
 5677SOL     OW17929   1.414   1.066   6.089
 5677SOL    HW117930   1.319   1.076   6.061
 5677SOL    HW217931   1.473   1.076   6.009
 5678SOL     OW17932   4.031   1.956   2.059
 5678SOL    HW117933   4.002   1.976   2.153
 5678SOL    HW217934   3.953   1.967   1.997
 5679SOL     OW17935   1.253   4.023   5.635
 5679SOL    HW117936   1.270   4.117   5.606
 5679SOL    HW217937   1.328   3.964   5.607
 5680SOL     OW17938   0.876   6.061   4.073
 5680SOL    HW117939   0.828   5.977   4.048
 5680SOL    HW217940   0.836   6.138   4.023
 5681SOL     OW17941   1.794   3.666   3.038
 5681SOL    HW117942   1.804   3.573   3.076
 5681SOL    HW217943   1.737   3.662   2.956
 5682SOL     OW17944   2.040   4.454   0.079
 5682SOL    HW117945   2.043   4.553   0.088
 5682SOL    HW217946   2.115   4.413   0.130
 5683SOL     OW17947   6.780   5.988   6.131
 5683SOL    HW117948   6.816   5.914   6.187
 5683SOL    HW217949   6.833   5.996   6.046
 5684SOL     OW17950   2.151   3.781   4.133
 5684SOL    HW117951   2.189   3.860   4.182
 5684SOL    HW217952   2.195   3.697   4.166
 5685SOL     OW17953   1.880   2.167   1.504
 5685SOL    HW117954   1.924   2.103   1.567
 5685SOL    HW217955   1.890   2.260   1.539
 5686SOL     OW17956   5.844   5.514   5.588
 5686SOL    HW117957   5.823   5.453   5.511
 5686SOL    HW217958   5.784   5.492   5.665
 5687SOL     OW17959   1.077   0.371   6.855
 5687SOL    HW117960   1.126   0.440   6.908
 5687SOL    HW217961   1.096   0.384   6.757
 5688SOL     OW17962   1.265   2.934   2.539
 5688SOL    HW117963   1.171   2.960   2.561
 5688SOL    HW217964   1.270   2.836   2.522
 5689SOL     OW17965   0.371   1.465   0.614
 5689SOL    HW117966   0.377   1.541   0.679
 5689SOL    HW217967   0.402   1.381   0.658
 5690SOL     OW17968   3.632   5.404   7.022
 5690SOL    HW117969   3.594   5.314   0.016
 5690SOL    HW217970   3.675   5.442   0.079
 5691SOL     OW17971   4.934   3.108   3.312
 5691SOL    HW117972   5.030   3.100   3.285
 5691SOL    HW217973   4.884   3.161   3.244
 5692SOL     OW17974   6.616   4.721   2.229
 5692SOL    HW117975   6.599   4.647   2.163
 5692SOL    HW217976   6.596   4.688   2.321
 5693SOL     OW17977   3.182   0.969   2.325
 5693SOL    HW117978   3.172   1.044   2.260
 5693SOL    HW217979   3.136   0.888   2.289
 5694SOL     OW17980   6.959   6.625   0.992
 5694SOL    HW117981   0.011   6.566   0.969
 5694SOL    HW217982   6.950   6.696   0.922
 5695SOL     OW17983   1.768   0.796   2.347
 5695SOL    HW117984   1.778   0.698   2.329
 5695SOL    HW217985   1.757   0.845   2.261
 5696SOL     OW17986   6.554   1.262   3.243
 5696SOL    HW117987   6.641   1.243   3.289
 5696SOL    HW217988   6.557   1.228   3.150
 5697SOL     OW17989   5.927   1.686   0.309
 5697SOL    HW117990   5.992   1.658   0.380
 5697SOL    HW217991   5.933   1.785   0.295
 5698SOL     OW17992   2.949   2.080   3.147
 5698SOL    HW117993   2.979   2.009   3.210
 5698SOL    HW217994   3.025   2.142   3.127
 5699SOL     OW17995   2.317   2.664   2.364
 5699SOL    HW117996   2.288   2.614   2.445
 5699SOL    HW217997   2.263   2.748   2.356
 5700SOL     OW17998   5.564   0.737   2.167
 5700SOL    HW117999   5.657   0.716   2.199
 5700SOL    HW218000   5.516   0.653   2.145
 5701SOL     OW18001   1.983   1.216   0.790
 5701SOL    HW118002   2.040   1.147   0.836
 5701SOL    HW218003   2.039   1.295   0.767
 5702SOL     OW18004   1.437   6.208   4.805
 5702SOL    HW118005   1.432   6.109   4.796
 5702SOL    HW218006   1.533   6.237   4.802
 5703SOL     OW18007   0.952   3.301   5.840
 5703SOL    HW118008   0.973   3.381   5.896
 5703SOL    HW218009   0.853   3.288   5.837
 5704SOL     OW18010   4.489   5.921   4.456
 5704SOL    HW118011   4.536   5.863   4.523
 5704SOL    HW218012   4.391   5.923   4.476
 5705SOL     OW18013   6.122   1.616   4.866
 5705SOL    HW118014   6.063   1.572   4.934
 5705SOL    HW218015   6.189   1.550   4.832
 5706SOL     OW18016   5.587   0.704   1.486
 5706SOL    HW118017   5.604   0.765   1.409
 5706SOL    HW218018   5.495   0.666   1.479
 5707SOL     OW18019   5.889   6.164   1.234
 5707SOL    HW118020   5.961   6.095   1.221
 5707SOL    HW218021   5.825   6.132   1.304
 5708SOL     OW18022   4.545   6.756   1.850
 5708SOL    HW118023   4.445   6.756   1.852
 5708SOL    HW218024   4.578   6.726   1.761
 5709SOL     OW18025   6.440   2.461   2.319
 5709SOL    HW118026   6.460   2.555   2.345
 5709SOL    HW218027   6.494   2.436   2.238
 5710SOL     OW18028   5.416   1.258   0.383
 5710SOL    HW118029   5.331   1.289   0.426
 5710SOL    HW218030   5.425   1.160   0.395
 5711SOL     OW18031   4.173   1.407   2.937
 5711SOL    HW118032   4.256   1.391   2.884
 5711SOL    HW218033   4.158   1.506   2.947
 5712SOL     OW18034   6.633   5.734   6.616
 5712SOL    HW118035   6.694   5.740   6.695
 5712SOL    HW218036   6.545   5.696   6.645
 5713SOL     OW18037   1.232   1.179   0.084
 5713SOL    HW118038   1.176   1.181   0.167
 5713SOL    HW218039   1.221   1.265   0.034
 5714SOL     OW18040   4.816   0.233   1.017
 5714SOL    HW118041   4.815   0.262   1.113
 5714SOL    HW218042   4.793   0.136   1.012
 5715SOL     OW18043   0.319   6.131   0.794
 5715SOL    HW118044   0.244   6.167   0.738
 5715SOL    HW218045   0.282   6.090   0.877
 5716SOL     OW18046   6.873   4.842   5.728
 5716SOL    HW118047   6.866   4.831   5.827
 5716SOL    HW218048   6.845   4.757   5.683
 5717SOL     OW18049   0.051   6.192   2.402
 5717SOL    HW118050   6.983   6.210   2.431
 5717SOL    HW218051   0.114   6.220   2.475
 5718SOL     OW18052   1.560   4.751   6.002
 5718SOL    HW118053   1.521   4.796   5.921
 5718SOL    HW218054   1.643   4.702   5.976
 5719SOL     OW18055   3.508   3.584   1.582
 5719SOL    HW118056   3.413   3.601   1.558
 5719SOL    HW218057   3.542   3.659   1.639
 5720SOL     OW18058   2.612   3.792   6.813
 5720SOL    HW118059   2.549   3.744   6.752
 5720SOL    HW218060   2.647   3.729   6.882
 5721SOL     OW18061   0.896   3.071   0.712
 5721SOL    HW118062   0.887   2.982   0.758
 5721SOL    HW218063   0.942   3.135   0.774
 5722SOL     OW18064   1.535   0.572   6.076
 5722SOL    HW118065   1.555   0.570   6.174
 5722SOL    HW218066   1.621   0.574   6.025
 5723SOL     OW18067   4.579   4.036   0.140
 5723SOL    HW118068   4.650   4.031   0.210
 5723SOL    HW218069   4.505   4.096   0.172
 5724SOL     OW18070   6.787   1.986   6.404
 5724SOL    HW118071   6.704   2.013   6.356
 5724SOL    HW218072   6.830   1.909   6.356
 5725SOL     OW18073   6.588   4.218   4.839
 5725SOL    HW118074   6.528   4.262   4.772
 5725SOL    HW218075   6.653   4.285   4.874
 5726SOL     OW18076   4.325   4.592   2.057
 5726SOL    HW118077   4.301   4.687   2.040
 5726SOL    HW218078   4.410   4.570   2.009
 5727SOL     OW18079   1.044   3.111   6.250
 5727SOL    HW118080   0.969   3.065   6.298
 5727SOL    HW218081   1.016   3.204   6.227
 5728SOL     OW18082   2.144   5.820   3.963
 5728SOL    HW118083   2.101   5.910   3.960
 5728SOL    HW218084   2.123   5.777   4.051
 5729SOL     OW18085   2.778   1.901   4.171
 5729SOL    HW118086   2.679   1.894   4.160
 5729SOL    HW218087   2.805   1.997   4.169
 5730SOL     OW18088   6.390   4.966   4.428
 5730SOL    HW118089   6.349   4.926   4.346
 5730SOL    HW218090   6.484   4.994   4.408
 5731SOL     OW18091   6.708   6.723   2.555
 5731SOL    HW118092   6.631   6.667   2.586
 5731SOL    HW218093   6.784   6.663   2.530
 5732SOL     OW18094   5.222   0.291   3.402
 5732SOL    HW118095   5.189   0.253   3.315
 5732SOL    HW218096   5.146   0.298   3.466
 5733SOL     OW18097   2.980   0.687   5.086
 5733SOL    HW118098   2.925   0.760   5.048
 5733SOL    HW218099   3.076   0.715   5.088
 5734SOL     OW18100   2.154   6.082   4.094
 5734SOL    HW118101   2.137   6.176   4.062
 5734SOL    HW218102   2.136   6.077   4.192
 5735SOL     OW18103   2.574   0.717   1.478
 5735SOL    HW118104   2.545   0.799   1.528
 5735SOL    HW218105   2.587   0.740   1.381
 5736SOL     OW18106   1.599   4.608   1.322
 5736SOL    HW118107   1.577   4.545   1.248
 5736SOL    HW218108   1.547   4.693   1.310
 5737SOL     OW18109   5.917   3.925   0.303
 5737SOL    HW118110   5.979   3.993   0.267
 5737SOL    HW218111   5.921   3.925   0.403
 5738SOL     OW18112   0.966   5.827   4.457
 5738SOL    HW118113   0.901   5.821   4.533
 5738SOL    HW218114   1.059   5.832   4.493
 5739SOL     OW18115   0.743   2.328   0.808
 5739SOL    HW118116   0.727   2.238   0.767
 5739SOL    HW218117   0.704   2.331   0.900
 5740SOL     OW18118   4.552   4.995   0.338
 5740SOL    HW118119   4.546   5.004   0.239
 5740SOL    HW218120   4.619   5.060   0.374
 5741SOL     OW18121   0.114   2.175   1.808
 5741SOL    HW118122   0.072   2.255   1.764
 5741SOL    HW218123   0.133   2.106   1.739
 5742SOL     OW18124   0.060   5.221   3.637
 5742SOL    HW118125   6.992   5.218   3.672
 5742SOL    HW218126   0.091   5.128   3.617
 5743SOL     OW18127   0.645   0.819   5.042
 5743SOL    HW118128   0.639   0.734   5.095
 5743SOL    HW218129   0.591   0.810   4.958
 5744SOL     OW18130   6.123   0.560   2.309
 5744SOL    HW118131   6.215   0.564   2.347
 5744SOL    HW218132   6.096   0.651   2.277
 5745SOL     OW18133   6.607   3.691   2.441
 5745SOL    HW118134   6.581   3.598   2.418
 5745SOL    HW218135   6.581   3.711   2.536
 5746SOL     OW18136   0.750   3.588   6.099
 5746SOL    HW118137   0.845   3.561   6.087
 5746SOL    HW218138   0.694   3.544   6.028
 5747SOL     OW18139   6.761   6.657   3.713
 5747SOL    HW118140   6.772   6.654   3.812
 5747SOL    HW218141   6.818   6.587   3.671
 5748SOL     OW18142   1.151   1.437   4.113
 5748SOL    HW118143   1.249   1.449   4.099
 5748SOL    HW218144   1.136   1.379   4.194
 5749SOL     OW18145   0.369   1.602   3.281
 5749SOL    HW118146   0.385   1.630   3.376
 5749SOL    HW218147   0.455   1.576   3.238
 5750SOL     OW18148   4.171   5.898   2.698
 5750SOL    HW118149   4.154   5.911   2.600
 5750SOL    HW218150   4.262   5.930   2.721
 5751SOL     OW18151   1.246   1.800   6.700
 5751SOL    HW118152   1.343   1.821   6.688
 5751SOL    HW218153   1.195   1.833   6.620
 5752SOL     OW18154   2.185   0.808   6.847
 5752SOL    HW118155   2.148   0.879   6.786
 5752SOL    HW218156   2.149   0.820   6.939
 5753SOL     OW18157   4.205   1.445   6.238
 5753SOL    HW118158   4.115   1.411   6.209
 5753SOL    HW218159   4.203   1.545   6.243
 5754SOL     OW18160   5.951   5.945   0.669
 5754SOL    HW118161   5.971   5.865   0.614
 5754SOL    HW218162   5.969   5.926   0.766
 5755SOL     OW18163   3.287   3.780   2.200
 5755SOL    HW118164   3.386   3.765   2.194
 5755SOL    HW218165   3.257   3.837   2.123
 5756SOL     OW18166   6.250   0.352   3.891
 5756SOL    HW118167   6.311   0.410   3.838
 5756SOL    HW218168   6.196   0.409   3.954
 5757SOL     OW18169   6.922   6.783   1.716
 5757SOL    HW118170   6.922   6.722   1.795
 5757SOL    HW218171   6.885   6.872   1.742
 5758SOL     OW18172   2.685   0.782   5.850
 5758SOL    HW118173   2.613   0.768   5.918
 5758SOL    HW218174   2.669   0.870   5.804
 5759SOL     OW18175   0.535   1.330   5.761
 5759SOL    HW118176   0.518   1.355   5.666
 5759SOL    HW218177   0.554   1.232   5.767
 5760SOL     OW18178   6.545   5.898   1.758
 5760SOL    HW118179   6.492   5.941   1.686
 5760SOL    HW218180   6.488   5.831   1.806
 5761SOL     OW18181   3.384   0.714   4.318
 5761SOL    HW118182   3.427   0.636   4.271
 5761SOL    HW218183   3.405   0.798   4.268
 5762SOL     OW18184   4.649   0.354   1.455
 5762SOL    HW118185   4.601   0.413   1.390
 5762SOL    HW218186   4.656   0.400   1.543
 5763SOL     OW18187   3.710   0.732   1.124
 5763SOL    HW118188   3.632   0.698   1.071
 5763SOL    HW218189   3.717   0.831   1.112
 5764SOL     OW18190   3.454   2.759   6.969
 5764SOL    HW118191   3.506   2.796   6.892
 5764SOL    HW218192   3.365   2.804   6.973
 5765SOL     OW18193   6.819   5.041   5.984
 5765SOL    HW118194   6.897   4.989   6.019
 5765SOL    HW218195   6.809   5.125   6.036
 5766SOL     OW18196   2.428   1.796   3.222
 5766SOL    HW118197   2.478   1.715   3.251
 5766SOL    HW218198   2.335   1.770   3.194
 5767SOL     OW18199   4.659   6.261   0.225
 5767SOL    HW118200   4.575   6.208   0.215
 5767SOL    HW218201   4.644   6.336   0.289
 5768SOL     OW18202   5.356   6.974   2.442
 5768SOL    HW118203   5.337   7.011   2.533
 5768SOL    HW218204   5.299   6.893   2.426
 5769SOL     OW18205   0.121   4.964   3.627
 5769SOL    HW118206   0.124   4.946   3.725
 5769SOL    HW218207   0.063   4.896   3.583
 5770SOL     OW18208   4.851   2.679   0.831
 5770SOL    HW118209   4.885   2.758   0.780
 5770SOL    HW218210   4.902   2.671   0.917
 5771SOL     OW18211   0.826   0.211   1.680
 5771SOL    HW118212   0.916   0.211   1.635
 5771SOL    HW218213   0.765   0.147   1.632
 5772SOL     OW18214   5.983   5.153   5.634
 5772SOL    HW118215   5.888   5.182   5.650
 5772SOL    HW218216   6.021   5.117   5.719
 5773SOL     OW18217   5.007   6.251   5.666
 5773SOL    HW118218   5.106   6.259   5.651
 5773SOL    HW218219   4.963   6.217   5.583
 5774SOL     OW18220   1.567   4.383   1.818
 5774SOL    HW118221   1.665   4.365   1.808
 5774SOL    HW218222   1.532   4.425   1.734
 5775SOL     OW18223   1.531   1.337   0.429
 5775SOL    HW118224   1.500   1.312   0.337
 5775SOL    HW218225   1.520   1.259   0.490
 5776SOL     OW18226   5.044   0.423   5.636
 5776SOL    HW118227   5.028   0.477   5.554
 5776SOL    HW218228   5.021   0.477   5.717
 5777SOL     OW18229   4.446   6.562   4.978
 5777SOL    HW118230   4.486   6.479   5.017
 5777SOL    HW218231   4.498   6.588   4.896
 5778SOL     OW18232   2.270   6.625   3.608
 5778SOL    HW118233   2.296   6.548   3.550
 5778SOL    HW218234   2.311   6.613   3.699
 5779SOL     OW18235   3.090   6.288   2.177
 5779SOL    HW118236   3.096   6.337   2.265
 5779SOL    HW218237   3.015   6.326   2.123
 5780SOL     OW18238   0.008   4.488   7.015
 5780SOL    HW118239   7.002   4.410   6.961
 5780SOL    HW218240   0.045   4.455   0.076
 5781SOL     OW18241   5.001   4.896   5.626
 5781SOL    HW118242   4.960   4.981   5.594
 5781SOL    HW218243   5.065   4.862   5.557
 5782SOL     OW18244   4.519   1.632   2.736
 5782SOL    HW118245   4.560   1.692   2.667
 5782SOL    HW218246   4.458   1.567   2.691
 5783SOL     OW18247   3.009   6.280   3.632
 5783SOL    HW118248   2.942   6.208   3.610
 5783SOL    HW218249   2.962   6.358   3.672
 5784SOL     OW18250   6.960   0.011   2.256
 5784SOL    HW118251   0.013   6.991   2.297
 5784SOL    HW218252   6.991   0.083   2.195
 5785SOL     OW18253   2.668   0.966   5.627
 5785SOL    HW118254   2.579   1.009   5.612
 5785SOL    HW218255   2.693   0.913   5.546
 5786SOL     OW18256   2.176   1.111   6.113
 5786SOL    HW118257   2.224   1.196   6.093
 5786SOL    HW218258   2.086   1.132   6.153
 5787SOL     OW18259   0.867   2.431   6.199
 5787SOL    HW118260   0.864   2.332   6.192
 5787SOL    HW218261   0.894   2.469   6.110
 5788SOL     OW18262   0.517   2.296   2.102
 5788SOL    HW118263   0.616   2.309   2.107
 5788SOL    HW218264   0.497   2.201   2.079
 5789SOL     OW18265   3.304   1.709   6.830
 5789SOL    HW118266   3.297   1.684   6.733
 5789SOL    HW218267   3.310   1.809   6.838
 5790SOL     OW18268   6.145   6.349   2.625
 5790SOL    HW118269   6.092   6.391   2.551
 5790SOL    HW218270   6.110   6.381   2.713
 5791SOL     OW18271   3.802   0.809   1.703
 5791SOL    HW118272   3.761   0.813   1.612
 5791SOL    HW218273   3.849   0.895   1.721
 5792SOL     OW18274   4.732   1.623   2.442
 5792SOL    HW118275   4.801   1.575   2.496
 5792SOL    HW218276   4.700   1.703   2.493
 5793SOL     OW18277   4.349   1.616   0.462
 5793SOL    HW118278   4.266   1.626   0.517
 5793SOL    HW218279   4.429   1.637   0.519
 5794SOL     OW18280   3.348   6.474   6.969
 5794SOL    HW118281   3.402   6.422   6.903
 5794SOL    HW218282   3.386   6.461   0.035
 5795SOL     OW18283   0.383   6.738   2.062
 5795SOL    HW118284   0.355   6.834   2.065
 5795SOL    HW218285   0.327   6.689   1.995
 5796SOL     OW18286   4.808   1.081   5.924
 5796SOL    HW118287   4.733   1.052   5.984
 5796SOL    HW218288   4.888   1.026   5.943
 5797SOL     OW18289   6.087   1.550   5.968
 5797SOL    HW118290   6.179   1.515   5.950
 5797SOL    HW218291   6.082   1.581   6.063
 5798SOL     OW18292   2.263   2.795   4.538
 5798SOL    HW118293   2.248   2.793   4.637
 5798SOL    HW218294   2.247   2.888   4.504
 5799SOL     OW18295   2.770   0.987   3.598
 5799SOL    HW118296   2.759   1.064   3.661
 5799SOL    HW218297   2.688   0.977   3.542
 5800SOL     OW18298   1.787   5.826   1.456
 5800SOL    HW118299   1.730   5.896   1.413
 5800SOL    HW218300   1.730   5.769   1.515
 5801SOL     OW18301   1.496   2.266   3.469
 5801SOL    HW118302   1.494   2.251   3.370
 5801SOL    HW218303   1.461   2.358   3.489
 5802SOL     OW18304   0.099   6.430   2.166
 5802SOL    HW118305   0.070   6.434   2.070
 5802SOL    HW218306   0.044   6.494   2.220
 5803SOL     OW18307   0.149   6.937   4.527
 5803SOL    HW118308   0.084   7.013   4.526
 5803SOL    HW218309   0.197   6.934   4.439
 5804SOL     OW18310   6.273   2.735   3.154
 5804SOL    HW118311   6.246   2.651   3.106
 5804SOL    HW218312   6.255   2.814   3.095
 5805SOL     OW18313   0.766   1.453   1.811
 5805SOL    HW118314   0.762   1.552   1.824
 5805SOL    HW218315   0.856   1.428   1.776
 5806SOL     OW18316   6.533   3.907   1.954
 5806SOL    HW118317   6.582   3.866   2.031
 5806SOL    HW218318   6.435   3.905   1.972
 5807SOL     OW18319   0.763   0.910   2.766
 5807SOL    HW118320   0.701   0.966   2.821
 5807SOL    HW218321   0.767   0.947   2.673
 5808SOL     OW18322   5.898   5.724   6.093
 5808SOL    HW118323   5.959   5.797   6.124
 5808SOL    HW218324   5.882   5.659   6.167
 5809SOL     OW18325   6.592   3.918   5.296
 5809SOL    HW118326   6.553   3.906   5.388
 5809SOL    HW218327   6.681   3.872   5.292
 5810SOL     OW18328   0.938   6.309   4.938
 5810SOL    HW118329   0.840   6.290   4.939
 5810SOL    HW218330   0.954   6.403   4.905
 5811SOL     OW18331   3.141   5.217   0.205
 5811SOL    HW118332   3.097   5.271   0.276
 5811SOL    HW218333   3.104   5.242   0.115
 5812SOL     OW18334   6.046   2.590   5.704
 5812SOL    HW118335   6.016   2.662   5.766
 5812SOL    HW218336   5.990   2.592   5.622
 5813SOL     OW18337   6.673   5.366   0.991
 5813SOL    HW118338   6.649   5.418   0.909
 5813SOL    HW218339   6.715   5.279   0.964
 5814SOL     OW18340   4.949   1.549   2.642
 5814SOL    HW118341   4.949   1.470   2.704
 5814SOL    HW218342   5.001   1.624   2.684
 5815SOL     OW18343   0.373   4.831   4.826
 5815SOL    HW118344   0.309   4.815   4.750
 5815SOL    HW218345   0.392   4.744   4.871
 5816SOL     OW18346   6.762   3.738   1.091
 5816SOL    HW118347   6.695   3.738   1.166
 5816SOL    HW218348   6.852   3.715   1.127
 5817SOL     OW18349   0.077   2.170   3.491
 5817SOL    HW118350   0.138   2.093   3.507
 5817SOL    HW218351   7.010   2.145   3.518
 5818SOL     OW18352   2.746   1.638   3.817
 5818SOL    HW118353   2.794   1.717   3.856
 5818SOL    HW218354   2.665   1.668   3.768
 5819SOL     OW18355   4.161   4.594   1.634
 5819SOL    HW118356   4.209   4.510   1.661
 5819SOL    HW218357   4.070   4.570   1.599
 5820SOL     OW18358   0.914   6.057   2.314
 5820SOL    HW118359   0.881   6.060   2.408
 5820SOL    HW218360   0.845   6.098   2.253
 5821SOL     OW18361   4.926   5.971   1.809
 5821SOL    HW118362   4.869   5.996   1.887
 5821SOL    HW218363   4.879   5.993   1.724
 5822SOL     OW18364   1.137   4.149   3.344
 5822SOL    HW118365   1.217   4.204   3.322
 5822SOL    HW218366   1.102   4.105   3.261
 5823SOL     OW18367   1.872   6.620   5.013
 5823SOL    HW118368   1.838   6.684   4.944
 5823SOL    HW218369   1.853   6.657   5.104
 5824SOL     OW18370   1.655   5.249   2.380
 5824SOL    HW118371   1.586   5.206   2.321
 5824SOL    HW218372   1.610   5.308   2.446
 5825SOL     OW18373   3.278   2.112   4.425
 5825SOL    HW118374   3.180   2.129   4.425
 5825SOL    HW218375   3.297   2.025   4.470
 5826SOL     OW18376   1.232   6.184   5.837
 5826SOL    HW118377   1.258   6.160   5.930
 5826SOL    HW218378   1.155   6.247   5.839
 5827SOL     OW18379   1.101   4.957   4.203
 5827SOL    HW118380   1.059   4.992   4.119
 5827SOL    HW218381   1.123   4.860   4.192
 5828SOL     OW18382   4.931   0.199   5.054
 5828SOL    HW118383   4.987   0.119   5.030
 5828SOL    HW218384   4.987   0.265   5.104
 5829SOL     OW18385   1.635   1.062   2.722
 5829SOL    HW118386   1.638   1.111   2.635
 5829SOL    HW218387   1.726   1.025   2.742
 5830SOL     OW18388   4.552   4.875   3.982
 5830SOL    HW118389   4.492   4.824   4.043
 5830SOL    HW218390   4.616   4.930   4.036
 5831SOL     OW18391   2.225   1.392   3.705
 5831SOL    HW118392   2.211   1.336   3.787
 5831SOL    HW218393   2.144   1.387   3.647
 5832SOL     OW18394   3.074   5.531   3.554
 5832SOL    HW118395   3.064   5.453   3.616
 5832SOL    HW218396   3.141   5.595   3.591
 5833SOL     OW18397   2.676   4.596   1.506
 5833SOL    HW118398   2.628   4.669   1.554
 5833SOL    HW218399   2.620   4.564   1.429
 5834SOL     OW18400   6.681   0.560   6.572
 5834SOL    HW118401   6.650   0.511   6.653
 5834SOL    HW218402   6.778   0.540   6.557
 5835SOL     OW18403   3.303   0.859   3.333
 5835SOL    HW118404   3.397   0.868   3.365
 5835SOL    HW218405   3.250   0.805   3.398
 5836SOL     OW18406   5.746   4.850   1.111
 5836SOL    HW118407   5.816   4.921   1.103
 5836SOL    HW218408   5.745   4.795   1.027
 5837SOL     OW18409   1.988   3.927   6.946
 5837SOL    HW118410   1.960   3.877   0.002
 5837SOL    HW218411   1.912   3.927   6.880
 5838SOL     OW18412   3.452   3.435   0.229
 5838SOL    HW118413   3.460   3.357   0.291
 5838SOL    HW218414   3.356   3.462   0.221
 5839SOL     OW18415   2.511   1.937   0.966
 5839SOL    HW118416   2.458   2.011   0.926
 5839SOL    HW218417   2.607   1.946   0.938
 5840SOL     OW18418   6.211   3.446   2.694
 5840SOL    HW118419   6.214   3.355   2.653
 5840SOL    HW218420   6.193   3.514   2.624
 5841SOL     OW18421   5.007   1.354   6.817
 5841SOL    HW118422   5.054   1.428   6.865
 5841SOL    HW218423   4.934   1.318   6.875
 5842SOL     OW18424   3.297   1.746   2.415
 5842SOL    HW118425   3.235   1.687   2.466
 5842SOL    HW218426   3.314   1.830   2.466
 5843SOL     OW18427   3.051   2.956   1.421
 5843SOL    HW118428   3.067   2.971   1.324
 5843SOL    HW218429   3.010   3.039   1.461
 5844SOL     OW18430   6.196   5.428   4.870
 5844SOL    HW118431   6.250   5.449   4.952
 5844SOL    HW218432   6.246   5.459   4.789
 5845SOL     OW18433   2.134   5.885   2.974
 5845SOL    HW118434   2.122   5.953   2.902
 5845SOL    HW218435   2.230   5.855   2.974
 5846SOL     OW18436   0.638   4.262   5.401
 5846SOL    HW118437   0.567   4.307   5.454
 5846SOL    HW218438   0.723   4.315   5.406
 5847SOL     OW18439   2.138   3.641   5.690
 5847SOL    HW118440   2.219   3.699   5.678
 5847SOL    HW218441   2.080   3.648   5.609
 5848SOL     OW18442   2.901   6.414   2.031
 5848SOL    HW118443   2.903   6.513   2.020
 5848SOL    HW218444   2.843   6.373   1.961
 5849SOL     OW18445   3.230   6.462   6.226
 5849SOL    HW118446   3.132   6.476   6.213
 5849SOL    HW218447   3.252   6.464   6.323
 5850SOL     OW18448   5.834   2.773   0.644
 5850SOL    HW118449   5.804   2.868   0.655
 5850SOL    HW218450   5.899   2.750   0.716
 5851SOL     OW18451   1.231   3.001   6.096
 5851SOL    HW118452   1.315   2.974   6.144
 5851SOL    HW218453   1.160   3.025   6.163
 5852SOL     OW18454   4.051   4.789   3.473
 5852SOL    HW118455   4.135   4.740   3.496
 5852SOL    HW218456   4.067   4.887   3.479
 5853SOL     OW18457   4.641   4.951   6.842
 5853SOL    HW118458   4.710   4.878   6.846
 5853SOL    HW218459   4.685   5.036   6.813
 5854SOL     OW18460   2.488   4.203   5.288
 5854SOL    HW118461   2.479   4.119   5.233
 5854SOL    HW218462   2.460   4.184   5.382
 5855SOL     OW18463   0.993   2.076   4.557
 5855SOL    HW118464   0.898   2.045   4.545
 5855SOL    HW218465   1.055   2.006   4.521
 5856SOL     OW18466   0.261   0.953   2.445
 5856SOL    HW118467   0.333   0.904   2.494
 5856SOL    HW218468   0.264   0.928   2.348
 5857SOL     OW18469   6.256   5.748   6.822
 5857SOL    HW118470   6.183   5.756   6.890
 5857SOL    HW218471   6.230   5.799   6.740
 5858SOL     OW18472   3.362   1.849   0.831
 5858SOL    HW118473   3.306   1.850   0.914
 5858SOL    HW218474   3.372   1.942   0.796
 5859SOL     OW18475   6.323   4.571   1.545
 5859SOL    HW118476   6.227   4.600   1.541
 5859SOL    HW218477   6.371   4.604   1.464
 5860SOL     OW18478   1.655   2.996   1.698
 5860SOL    HW118479   1.664   2.897   1.698
 5860SOL    HW218480   1.581   3.023   1.761
 5861SOL     OW18481   4.758   6.371   4.649
 5861SOL    HW118482   4.690   6.298   4.651
 5861SOL    HW218483   4.809   6.366   4.563
 5862SOL     OW18484   0.219   5.197   1.431
 5862SOL    HW118485   0.225   5.209   1.332
 5862SOL    HW218486   0.262   5.275   1.477
 5863SOL     OW18487   3.910   0.041   5.601
 5863SOL    HW118488   3.937   0.136   5.592
 5863SOL    HW218489   3.897   0.001   5.510
 5864SOL     OW18490   3.991   3.871   3.050
 5864SOL    HW118491   4.061   3.841   3.114
 5864SOL    HW218492   3.901   3.840   3.081
 5865SOL     OW18493   6.867   6.085   1.233
 5865SOL    HW118494   6.794   6.027   1.199
 5865SOL    HW218495   6.884   6.066   1.329
 5866SOL     OW18496   3.235   3.750   3.561
 5866SOL    HW118497   3.313   3.721   3.505
 5866SOL    HW218498   3.150   3.723   3.517
 5867SOL     OW18499   5.111   0.786   0.266
 5867SOL    HW118500   5.026   0.734   0.278
 5867SOL    HW218501   5.169   0.740   0.198
 5868SOL     OW18502   1.587   0.954   0.314
 5868SOL    HW118503   1.509   0.946   0.251
 5868SOL    HW218504   1.585   0.878   0.379
 5869SOL     OW18505   2.163   5.511   3.566
 5869SOL    HW118506   2.154   5.561   3.651
 5869SOL    HW218507   2.167   5.413   3.585
 5870SOL     OW18508   3.985   6.675   3.794
 5870SOL    HW118509   3.939   6.629   3.717
 5870SOL    HW218510   4.073   6.631   3.811
 5871SOL     OW18511   4.131   3.642   3.201
 5871SOL    HW118512   4.101   3.678   3.290
 5871SOL    HW218513   4.221   3.599   3.211
 5872SOL     OW18514   4.041   5.106   1.796
 5872SOL    HW118515   3.994   5.159   1.725
 5872SOL    HW218516   3.995   5.019   1.809
 5873SOL     OW18517   3.718   6.938   2.049
 5873SOL    HW118518   3.681   6.872   1.984
 5873SOL    HW218519   3.670   7.025   2.040
 5874SOL     OW18520   0.621   3.107   4.058
 5874SOL    HW118521   0.647   3.171   4.131
 5874SOL    HW218522   0.545   3.146   4.006
 5875SOL     OW18523   3.913   2.461   1.337
 5875SOL    HW118524   3.867   2.545   1.366
 5875SOL    HW218525   3.960   2.477   1.250
 5876SOL     OW18526   4.111   3.584   2.592
 5876SOL    HW118527   4.088   3.679   2.569
 5876SOL    HW218528   4.141   3.580   2.687
 5877SOL     OW18529   4.599   4.838   1.782
 5877SOL    HW118530   4.508   4.862   1.748
 5877SOL    HW218531   4.613   4.879   1.872
 5878SOL     OW18532   0.769   3.942   2.286
 5878SOL    HW118533   0.757   3.987   2.374
 5878SOL    HW218534   0.853   3.975   2.242
 5879SOL     OW18535   1.943   4.183   5.143
 5879SOL    HW118536   2.042   4.182   5.126
 5879SOL    HW218537   1.906   4.091   5.126
 5880SOL     OW18538   2.325   5.462   0.289
 5880SOL    HW118539   2.394   5.424   0.227
 5880SOL    HW218540   2.240   5.411   0.279
 5881SOL     OW18541   1.612   5.947   4.611
 5881SOL    HW118542   1.704   5.978   4.636
 5881SOL    HW218543   1.600   5.852   4.638
 5882SOL     OW18544   4.944   0.407   2.845
 5882SOL    HW118545   5.019   0.446   2.897
 5882SOL    HW218546   4.857   0.441   2.880
 5883SOL     OW18547   0.827   3.547   5.649
 5883SOL    HW118548   0.851   3.602   5.568
 5883SOL    HW218549   0.892   3.472   5.659
 5884SOL     OW18550   6.939   1.504   3.659
 5884SOL    HW118551   6.874   1.557   3.606
 5884SOL    HW218552   7.024   1.556   3.671
 5885SOL     OW18553   6.465   5.033   0.382
 5885SOL    HW118554   6.453   5.019   0.480
 5885SOL    HW218555   6.496   4.948   0.340
 5886SOL     OW18556   6.121   2.153   5.896
 5886SOL    HW118557   6.064   2.233   5.880
 5886SOL    HW218558   6.128   2.099   5.812
 5887SOL     OW18559   3.521   6.949   2.369
 5887SOL    HW118560   3.431   6.968   2.329
 5887SOL    HW218561   3.584   7.022   2.344
 5888SOL     OW18562   7.007   6.114   2.155
 5888SOL    HW118563   0.056   6.121   2.221
 5888SOL    HW218564   6.947   6.193   2.166
 5889SOL     OW18565   3.285   6.758   0.825
 5889SOL    HW118566   3.186   6.765   0.839
 5889SOL    HW218567   3.312   6.662   0.822
 5890SOL     OW18568   4.295   5.379   6.138
 5890SOL    HW118569   4.255   5.333   6.218
 5890SOL    HW218570   4.232   5.374   6.061
 5891SOL     OW18571   2.407   3.118   6.534
 5891SOL    HW118572   2.425   3.161   6.623
 5891SOL    HW218573   2.481   3.141   6.471
 5892SOL     OW18574   3.227   5.298   1.226
 5892SOL    HW118575   3.326   5.299   1.208
 5892SOL    HW218576   3.203   5.214   1.274
 5893SOL     OW18577   0.529   3.119   2.032
 5893SOL    HW118578   0.597   3.178   2.076
 5893SOL    HW218579   0.472   3.075   2.101
 5894SOL     OW18580   1.987   4.639   3.596
 5894SOL    HW118581   2.069   4.629   3.540
 5894SOL    HW218582   2.006   4.701   3.672
 5895SOL     OW18583   4.649   5.048   3.311
 5895SOL    HW118584   4.673   5.087   3.400
 5895SOL    HW218585   4.676   4.952   3.309
 5896SOL     OW18586   5.895   2.454   5.447
 5896SOL    HW118587   5.836   2.378   5.418
 5896SOL    HW218588   5.963   2.419   5.512
 5897SOL     OW18589   4.488   4.467   0.276
 5897SOL    HW118590   4.492   4.541   0.343
 5897SOL    HW218591   4.392   4.446   0.256
 5898SOL     OW18592   1.783   5.643   2.611
 5898SOL    HW118593   1.814   5.693   2.692
 5898SOL    HW218594   1.837   5.559   2.601
 5899SOL     OW18595   4.972   0.446   3.755
 5899SOL    HW118596   4.982   0.353   3.721
 5899SOL    HW218597   4.949   0.507   3.679
 5900SOL     OW18598   3.756   5.145   2.138
 5900SOL    HW118599   3.772   5.231   2.187
 5900SOL    HW218600   3.719   5.165   2.048
 5901SOL     OW18601   2.960   6.499   3.246
 5901SOL    HW118602   2.870   6.486   3.204
 5901SOL    HW218603   3.020   6.547   3.183
 5902SOL     OW18604   0.135   1.757   0.504
 5902SOL    HW118605   0.166   1.750   0.409
 5902SOL    HW218606   0.060   1.693   0.519
 5903SOL     OW18607   1.214   2.172   6.334
 5903SOL    HW118608   1.276   2.236   6.289
 5903SOL    HW218609   1.156   2.127   6.266
 5904SOL     OW18610   0.147   2.976   2.368
 5904SOL    HW118611   0.071   3.035   2.342
 5904SOL    HW218612   0.135   2.945   2.462
 5905SOL     OW18613   7.014   3.519   2.410
 5905SOL    HW118614   6.948   3.451   2.379
 5905SOL    HW218615   0.075   3.506   2.362
 5906SOL     OW18616   5.996   1.642   3.349
 5906SOL    HW118617   6.076   1.702   3.341
 5906SOL    HW218618   6.023   1.556   3.391
 5907SOL     OW18619   1.676   0.922   1.832
 5907SOL    HW118620   1.615   0.975   1.773
 5907SOL    HW218621   1.623   0.853   1.882
 5908SOL     OW18622   0.435   3.008   5.146
 5908SOL    HW118623   0.487   2.925   5.165
 5908SOL    HW218624   0.358   3.016   5.209
 5909SOL     OW18625   6.996   4.240   6.084
 5909SOL    HW118626   6.949   4.318   6.127
 5909SOL    HW218627   7.000   4.255   5.985
 5910SOL     OW18628   1.656   1.738   3.372
 5910SOL    HW118629   1.642   1.832   3.343
 5910SOL    HW218630   1.679   1.681   3.293
 5911SOL     OW18631   5.582   4.721   6.582
 5911SOL    HW118632   5.667   4.669   6.572
 5911SOL    HW218633   5.505   4.665   6.552
 5912SOL     OW18634   0.839   1.760   2.110
 5912SOL    HW118635   0.758   1.705   2.129
 5912SOL    HW218636   0.811   1.853   2.084
 5913SOL     OW18637   0.224   2.951   1.296
 5913SOL    HW118638   0.222   2.862   1.341
 5913SOL    HW218639   0.159   2.951   1.219
 5914SOL     OW18640   1.145   6.369   0.739
 5914SOL    HW118641   1.231   6.381   0.690
 5914SOL    HW218642   1.108   6.279   0.718
 5915SOL     OW18643   5.190   0.754   5.289
 5915SOL    HW118644   5.147   0.799   5.368
 5915SOL    HW218645   5.141   0.780   5.206
 5916SOL     OW18646   0.867   0.752   3.003
 5916SOL    HW118647   0.878   0.765   3.102
 5916SOL    HW218648   0.913   0.827   2.955
 5917SOL     OW18649   3.540   3.656   0.891
 5917SOL    HW118650   3.473   3.620   0.956
 5917SOL    HW218651   3.607   3.584   0.870
 5918SOL     OW18652   3.327   6.657   5.641
 5918SOL    HW118653   3.241   6.649   5.691
 5918SOL    HW218654   3.308   6.691   5.549
 5919SOL     OW18655   3.121   3.651   4.529
 5919SOL    HW118656   3.176   3.734   4.518
 5919SOL    HW218657   3.084   3.648   4.622
 5920SOL     OW18658   1.787   0.528   5.340
 5920SOL    HW118659   1.741   0.614   5.363
 5920SOL    HW218660   1.787   0.515   5.241
 5921SOL     OW18661   3.346   4.795   1.391
 5921SOL    HW118662   3.246   4.804   1.392
 5921SOL    HW218663   3.380   4.797   1.485
 5922SOL     OW18664   5.314   2.269   2.594
 5922SOL    HW118665   5.292   2.355   2.546
 5922SOL    HW218666   5.401   2.233   2.560
 5923SOL     OW18667   5.904   0.969   2.327
 5923SOL    HW118668   6.001   0.994   2.336
 5923SOL    HW218669   5.857   0.985   2.414
 5924SOL     OW18670   0.395   6.006   3.021
 5924SOL    HW118671   0.391   6.019   3.120
 5924SOL    HW218672   0.343   5.925   2.996
 5925SOL     OW18673   4.288   0.531   0.855
 5925SOL    HW118674   4.279   0.583   0.770
 5925SOL    HW218675   4.204   0.538   0.908
 5926SOL     OW18676   4.919   3.411   3.151
 5926SOL    HW118677   4.920   3.507   3.122
 5926SOL    HW218678   4.889   3.405   3.246
 5927SOL     OW18679   1.126   0.369   1.142
 5927SOL    HW118680   1.131   0.416   1.230
 5927SOL    HW218681   1.081   0.280   1.154
 5928SOL     OW18682   3.056   0.148   5.968
 5928SOL    HW118683   3.134   0.159   5.906
 5928SOL    HW218684   3.045   0.051   5.989
 5929SOL     OW18685   1.904   0.933   0.952
 5929SOL    HW118686   1.903   0.842   0.993
 5929SOL    HW218687   1.993   0.975   0.968
 5930SOL     OW18688   6.852   4.869   2.220
 5930SOL    HW118689   6.764   4.821   2.226
 5930SOL    HW218690   6.860   4.932   2.297
 5931SOL     OW18691   5.044   0.822   5.072
 5931SOL    HW118692   4.953   0.837   5.111
 5931SOL    HW218693   5.038   0.754   4.999
 5932SOL     OW18694   2.565   5.472   1.014
 5932SOL    HW118695   2.606   5.383   0.996
 5932SOL    HW218696   2.514   5.503   0.934
 5933SOL     OW18697   6.141   5.644   4.362
 5933SOL    HW118698   6.148   5.551   4.400
 5933SOL    HW218699   6.226   5.666   4.314
 5934SOL     OW18700   2.816   4.365   0.168
 5934SOL    HW118701   2.829   4.375   0.266
 5934SOL    HW218702   2.744   4.297   0.151
 5935SOL     OW18703   1.639   0.260   5.091
 5935SOL    HW118704   1.736   0.250   5.114
 5935SOL    HW218705   1.583   0.227   5.167
 5936SOL     OW18706   3.671   2.866   1.878
 5936SOL    HW118707   3.722   2.872   1.792
 5936SOL    HW218708   3.582   2.825   1.862
 5937SOL     OW18709   0.718   2.896   0.827
 5937SOL    HW118710   0.631   2.909   0.779
 5937SOL    HW218711   0.738   2.798   0.833
 5938SOL     OW18712   1.075   3.294   3.739
 5938SOL    HW118713   1.044   3.200   3.750
 5938SOL    HW218714   1.045   3.348   3.817
 5939SOL     OW18715   5.160   2.220   6.049
 5939SOL    HW118716   5.174   2.312   6.085
 5939SOL    HW218717   5.202   2.153   6.110
 5940SOL     OW18718   4.301   4.948   1.080
 5940SOL    HW118719   4.359   4.920   1.156
 5940SOL    HW218720   4.349   5.018   1.026
 5941SOL     OW18721   1.741   1.950   3.788
 5941SOL    HW118722   1.669   1.900   3.741
 5941SOL    HW218723   1.749   2.042   3.749
 5942SOL     OW18724   4.695   2.433   6.291
 5942SOL    HW118725   4.729   2.480   6.210
 5942SOL    HW218726   4.752   2.352   6.309
 5943SOL     OW18727   2.315   4.924   2.187
 5943SOL    HW118728   2.236   4.978   2.159
 5943SOL    HW218729   2.299   4.888   2.279
 5944SOL     OW18730   0.054   3.484   5.812
 5944SOL    HW118731   0.049   3.468   5.713
 5944SOL    HW218732   6.992   3.521   5.843
 5945SOL     OW18733   0.288   6.421   4.423
 5945SOL    HW118734   0.369   6.423   4.482
 5945SOL    HW218735   0.308   6.467   4.337
 5946SOL     OW18736   3.057   2.533   6.962
 5946SOL    HW118737   3.143   2.483   6.974
 5946SOL    HW218738   3.076   2.625   6.929
 5947SOL     OW18739   3.251   3.814   5.857
 5947SOL    HW118740   3.179   3.751   5.886
 5947SOL    HW218741   3.251   3.894   5.917
 5948SOL     OW18742   5.042   2.944   1.069
 5948SOL    HW118743   5.045   3.030   1.017
 5948SOL    HW218744   5.060   2.963   1.165
 5949SOL     OW18745   1.020   4.960   4.476
 5949SOL    HW118746   1.065   4.993   4.393
 5949SOL    HW218747   1.088   4.924   4.539
 5950SOL     OW18748   2.043   6.082   4.929
 5950SOL    HW118749   2.023   6.174   4.962
 5950SOL    HW218750   1.964   6.048   4.877
 5951SOL     OW18751   6.834   3.474   6.491
 5951SOL    HW118752   6.802   3.534   6.563
 5951SOL    HW218753   6.835   3.523   6.404
 5952SOL     OW18754   3.863   4.163   1.727
 5952SOL    HW118755   3.849   4.148   1.629
 5952SOL    HW218756   3.938   4.106   1.759
 5953SOL     OW18757   0.405   2.965   6.545
 5953SOL    HW118758   0.434   2.963   6.450
 5953SOL    HW218759   0.308   2.986   6.550
 5954SOL     OW18760   2.818   5.557   3.715
 5954SOL    HW118761   2.882   5.499   3.665
 5954SOL    HW218762   2.725   5.520   3.705
 5955SOL     OW18763   4.376   2.573   6.809
 5955SOL    HW118764   4.338   2.539   6.723
 5955SOL    HW218765   4.473   2.595   6.795
 5956SOL     OW18766   3.827   1.797   6.761
 5956SOL    HW118767   3.792   1.870   6.820
 5956SOL    HW218768   3.826   1.711   6.811
 5957SOL     OW18769   6.944   3.201   3.783
 5957SOL    HW118770   6.932   3.279   3.844
 5957SOL    HW218771   6.978   3.233   3.694
 5958SOL     OW18772   2.005   6.490   2.035
 5958SOL    HW118773   2.006   6.431   1.954
 5958SOL    HW218774   2.099   6.508   2.064
 5959SOL     OW18775   4.914   4.519   3.381
 5959SOL    HW118776   4.915   4.619   3.387
 5959SOL    HW218777   4.825   4.485   3.411
 5960SOL     OW18778   6.958   6.542   6.712
 5960SOL    HW118779   6.886   6.607   6.736
 5960SOL    HW218780   6.977   6.548   6.614
 5961SOL     OW18781   1.444   2.085   3.659
 5961SOL    HW118782   1.473   1.993   3.635
 5961SOL    HW218783   1.472   2.149   3.587
 5962SOL     OW18784   5.584   5.406   0.757
 5962SOL    HW118785   5.509   5.367   0.703
 5962SOL    HW218786   5.563   5.399   0.854
 5963SOL     OW18787   2.269   3.836   1.338
 5963SOL    HW118788   2.300   3.887   1.418
 5963SOL    HW218789   2.266   3.739   1.360
 5964SOL     OW18790   1.576   6.216   4.512
 5964SOL    HW118791   1.489   6.265   4.515
 5964SOL    HW218792   1.567   6.128   4.557
 5965SOL     OW18793   2.056   0.467   1.381
 5965SOL    HW118794   1.999   0.449   1.301
 5965SOL    HW218795   2.045   0.563   1.409
 5966SOL     OW18796   2.537   1.688   4.985
 5966SOL    HW118797   2.534   1.649   5.077
 5966SOL    HW218798   2.620   1.742   4.974
 5967SOL     OW18799   4.957   2.457   5.819
 5967SOL    HW118800   4.930   2.502   5.734
 5967SOL    HW218801   4.931   2.360   5.815
 5968SOL     OW18802   6.286   1.695   3.378
 5968SOL    HW118803   6.368   1.643   3.354
 5968SOL    HW218804   6.270   1.688   3.477
 5969SOL     OW18805   5.404   6.340   1.583
 5969SOL    HW118806   5.367   6.249   1.599
 5969SOL    HW218807   5.370   6.376   1.496
 5970SOL     OW18808   6.642   1.179   0.306
 5970SOL    HW118809   6.557   1.190   0.255
 5970SOL    HW218810   6.715   1.149   0.244
 5971SOL     OW18811   6.638   5.439   3.726
 5971SOL    HW118812   6.671   5.498   3.653
 5971SOL    HW218813   6.706   5.368   3.745
 5972SOL     OW18814   6.702   5.129   0.046
 5972SOL    HW118815   6.689   5.228   0.038
 5972SOL    HW218816   6.781   5.101   7.016
 5973SOL     OW18817   3.565   0.451   1.762
 5973SOL    HW118818   3.502   0.497   1.825
 5973SOL    HW218819   3.539   0.355   1.753
 5974SOL     OW18820   5.696   0.888   4.808
 5974SOL    HW118821   5.643   0.892   4.893
 5974SOL    HW218822   5.677   0.970   4.753
 5975SOL     OW18823   3.831   4.388   0.372
 5975SOL    HW118824   3.739   4.347   0.379
 5975SOL    HW218825   3.871   4.394   0.463
 5976SOL     OW18826   0.912   2.156   6.133
 5976SOL    HW118827   0.914   2.163   6.033
 5976SOL    HW218828   0.979   2.089   6.163
 5977SOL     OW18829   0.425   5.731   1.564
 5977SOL    HW118830   0.440   5.830   1.571
 5977SOL    HW218831   0.346   5.705   1.619
 5978SOL     OW18832   3.038   3.679   6.404
 5978SOL    HW118833   3.125   3.707   6.363
 5978SOL    HW218834   2.962   3.724   6.355
 5979SOL     OW18835   5.955   1.344   1.620
 5979SOL    HW118836   5.933   1.439   1.599
 5979SOL    HW218837   5.872   1.288   1.616
 5980SOL     OW18838   3.907   2.933   0.386
 5980SOL    HW118839   3.903   2.880   0.301
 5980SOL    HW218840   3.960   3.016   0.370
 5981SOL     OW18841   4.428   1.908   0.677
 5981SOL    HW118842   4.426   1.994   0.727
 5981SOL    HW218843   4.351   1.905   0.614
 5982SOL     OW18844   5.900   2.473   0.935
 5982SOL    HW118845   5.835   2.479   0.859
 5982SOL    HW218846   5.929   2.564   0.962
 5983SOL     OW18847   0.628   1.270   4.127
 5983SOL    HW118848   0.586   1.228   4.207
 5983SOL    HW218849   0.614   1.211   4.047
 5984SOL     OW18850   6.751   6.052   1.917
 5984SOL    HW118851   6.774   6.010   2.005
 5984SOL    HW218852   6.679   5.998   1.872
 5985SOL     OW18853   0.176   4.343   2.438
 5985SOL    HW118854   0.240   4.419   2.451
 5985SOL    HW218855   0.141   4.345   2.344
 5986SOL     OW18856   4.050   3.351   3.518
 5986SOL    HW118857   4.079   3.273   3.573
 5986SOL    HW218858   4.041   3.323   3.423
 5987SOL     OW18859   0.316   6.259   3.882
 5987SOL    HW118860   0.397   6.217   3.839
 5987SOL    HW218861   0.315   6.357   3.862
 5988SOL     OW18862   1.669   2.207   7.025
 5988SOL    HW118863   1.713   2.119   7.008
 5988SOL    HW218864   1.600   2.197   0.071
 5989SOL     OW18865   2.818   6.446   5.901
 5989SOL    HW118866   2.893   6.383   5.921
 5989SOL    HW218867   2.835   6.533   5.948
 5990SOL     OW18868   2.330   4.015   1.848
 5990SOL    HW118869   2.364   4.102   1.884
 5990SOL    HW218870   2.252   3.984   1.902
 5991SOL     OW18871   5.129   1.121   0.055
 5991SOL    HW118872   5.211   1.179   0.051
 5991SOL    HW218873   5.134   1.051   7.010
 5992SOL     OW18874   2.510   4.620   2.320
 5992SOL    HW118875   2.495   4.600   2.223
 5992SOL    HW218876   2.605   4.647   2.334
 5993SOL     OW18877   5.821   0.756   0.021
 5993SOL    HW118878   5.861   0.817   6.979
 5993SOL    HW218879   5.722   0.751   0.008
 5994SOL     OW18880   0.521   5.193   1.229
 5994SOL    HW118881   0.459   5.129   1.183
 5994SOL    HW218882   0.615   5.175   1.200
 5995SOL     OW18883   5.488   4.430   1.380
 5995SOL    HW118884   5.538   4.516   1.375
 5995SOL    HW218885   5.525   4.365   1.314
 5996SOL     OW18886   2.861   1.009   1.583
 5996SOL    HW118887   2.859   1.062   1.668
 5996SOL    HW218888   2.796   0.933   1.591
 5997SOL     OW18889   6.502   0.809   4.825
 5997SOL    HW118890   6.517   0.777   4.918
 5997SOL    HW218891   6.419   0.865   4.823
 5998SOL     OW18892   5.497   5.997   0.280
 5998SOL    HW118893   5.569   5.971   0.344
 5998SOL    HW218894   5.487   6.096   0.280
 5999SOL     OW18895   6.364   2.979   0.991
 5999SOL    HW118896   6.311   2.976   0.906
 5999SOL    HW218897   6.309   3.020   1.063
 6000SOL     OW18898   0.428   5.655   1.945
 6000SOL    HW118899   0.499   5.712   1.987
 6000SOL    HW218900   0.349   5.650   2.006
 6001SOL     OW18901   0.031   6.092   6.174
 6001SOL    HW118902   7.023   6.068   6.265
 6001SOL    HW218903   0.045   6.190   6.169
 6002SOL     OW18904   5.624   4.672   4.590
 6002SOL    HW118905   5.631   4.597   4.525
 6002SOL    HW218906   5.715   4.707   4.612
 6003SOL     OW18907   2.262   0.510   4.837
 6003SOL    HW118908   2.274   0.455   4.755
 6003SOL    HW218909   2.179   0.564   4.829
 6004SOL     OW18910   5.492   3.058   4.917
 6004SOL    HW118911   5.413   3.063   4.856
 6004SOL    HW218912   5.557   2.990   4.882
 6005SOL     OW18913   3.743   4.005   0.471
 6005SOL    HW118914   3.760   3.912   0.505
 6005SOL    HW218915   3.653   4.008   0.428
 6006SOL     OW18916   3.082   6.580   5.971
 6006SOL    HW118917   3.077   6.628   5.883
 6006SOL    HW218918   3.090   6.482   5.954
 6007SOL     OW18919   2.811   6.983   4.150
 6007SOL    HW118920   2.826   6.893   4.191
 6007SOL    HW218921   2.851   0.028   4.208
 6008SOL     OW18922   2.430   3.576   6.711
 6008SOL    HW118923   2.452   3.494   6.764
 6008SOL    HW218924   2.351   3.623   6.753
 6009SOL     OW18925   2.093   5.574   2.253
 6009SOL    HW118926   2.029   5.535   2.187
 6009SOL    HW218927   2.180   5.525   2.247
 6010SOL     OW18928   0.335   5.578   6.402
 6010SOL    HW118929   0.301   5.500   6.454
 6010SOL    HW218930   0.309   5.569   6.306
 6011SOL     OW18931   5.348   1.928   3.458
 6011SOL    HW118932   5.333   2.024   3.432
 6011SOL    HW218933   5.384   1.877   3.380
 6012SOL     OW18934   6.287   1.402   5.618
 6012SOL    HW118935   6.230   1.463   5.673
 6012SOL    HW218936   6.294   1.438   5.525
 6013SOL     OW18937   5.888   1.965   3.249
 6013SOL    HW118938   5.846   1.879   3.222
 6013SOL    HW218939   5.988   1.954   3.250
 6014SOL     OW18940   4.112   3.364   3.895
 6014SOL    HW118941   4.104   3.309   3.979
 6014SOL    HW218942   4.208   3.375   3.872
 6015SOL     OW18943   6.744   0.165   3.292
 6015SOL    HW118944   6.835   0.139   3.261
 6015SOL    HW218945   6.676   0.107   3.247
 6016SOL     OW18946   4.543   2.189   4.298
 6016SOL    HW118947   4.526   2.288   4.299
 6016SOL    HW218948   4.458   2.141   4.277
 6017SOL     OW18949   1.197   2.666   5.208
 6017SOL    HW118950   1.154   2.622   5.129
 6017SOL    HW218951   1.186   2.608   5.289
 6018SOL     OW18952   2.246   1.207   3.932
 6018SOL    HW118953   2.308   1.142   3.888
 6018SOL    HW218954   2.166   1.159   3.967
 6019SOL     OW18955   6.897   3.140   6.199
 6019SOL    HW118956   6.842   3.224   6.207
 6019SOL    HW218957   6.988   3.156   6.235
 6020SOL     OW18958   0.391   5.733   4.768
 6020SOL    HW118959   0.481   5.690   4.774
 6020SOL    HW218960   0.401   5.831   4.755
 6021SOL     OW18961   5.699   6.786   4.199
 6021SOL    HW118962   5.740   6.861   4.251
 6021SOL    HW218963   5.748   6.775   4.112
 6022SOL     OW18964   6.507   3.628   1.784
 6022SOL    HW118965   6.476   3.583   1.867
 6022SOL    HW218966   6.429   3.665   1.734
 6023SOL     OW18967   3.853   0.200   2.853
 6023SOL    HW118968   3.894   0.225   2.765
 6023SOL    HW218969   3.796   0.119   2.841
 6024SOL     OW18970   0.263   6.687   6.860
 6024SOL    HW118971   0.306   6.719   6.944
 6024SOL    HW218972   0.219   6.764   6.814
 6025SOL     OW18973   3.579   0.451   5.205
 6025SOL    HW118974   3.653   0.517   5.220
 6025SOL    HW218975   3.550   0.413   5.292
 6026SOL     OW18976   5.032   6.378   3.651
 6026SOL    HW118977   4.992   6.309   3.713
 6026SOL    HW218978   5.036   6.341   3.559
 6027SOL     OW18979   5.991   4.203   6.085
 6027SOL    HW118980   6.073   4.152   6.112
 6027SOL    HW218981   5.936   4.225   6.166
 6028SOL     OW18982   6.377   5.490   6.431
 6028SOL    HW118983   6.378   5.536   6.519
 6028SOL    HW218984   6.434   5.540   6.366
 6029SOL     OW18985   2.475   1.595   2.322
 6029SOL    HW118986   2.482   1.694   2.334
 6029SOL    HW218987   2.567   1.555   2.324
 6030SOL     OW18988   6.337   2.835   5.006
 6030SOL    HW118989   6.356   2.876   5.095
 6030SOL    HW218990   6.275   2.894   4.955
 6031SOL     OW18991   0.037   0.397   3.708
 6031SOL    HW118992   0.027   0.411   3.807
 6031SOL    HW218993   6.973   0.379   3.668
 6032SOL     OW18994   3.153   0.232   3.241
 6032SOL    HW118995   3.115   0.150   3.285
 6032SOL    HW218996   3.085   0.270   3.179
 6033SOL     OW18997   0.787   1.582   2.758
 6033SOL    HW118998   0.727   1.636   2.817
 6033SOL    HW218999   0.878   1.578   2.798
 6034SOL     OW19000   0.772   0.453   1.216
 6034SOL    HW119001   0.732   0.545   1.224
 6034SOL    HW219002   0.703   0.389   1.182
 6035SOL     OW19003   2.010   1.345   2.693
 6035SOL    HW119004   2.019   1.269   2.629
 6035SOL    HW219005   2.028   1.313   2.786
 6036SOL     OW19006   6.862   3.385   0.213
 6036SOL    HW119007   6.947   3.332   0.215
 6036SOL    HW219008   6.793   3.335   0.160
 6037SOL     OW19009   4.536   0.016   6.690
 6037SOL    HW119010   4.583   0.014   6.602
 6037SOL    HW219011   4.508   0.110   6.710
 6038SOL     OW19012   2.214   1.999   0.393
 6038SOL    HW119013   2.296   2.041   0.354
 6038SOL    HW219014   2.240   1.945   0.473
 6039SOL     OW19015   2.931   3.366   3.603
 6039SOL    HW119016   2.980   3.279   3.602
 6039SOL    HW219017   2.926   3.403   3.510
 6040SOL     OW19018   6.890   0.743   0.801
 6040SOL    HW119019   6.853   0.699   0.720
 6040SOL    HW219020   6.906   0.840   0.783
 6041SOL     OW19021   0.609   3.127   4.448
 6041SOL    HW119022   0.550   3.202   4.478
 6041SOL    HW219023   0.559   3.071   4.382
 6042SOL     OW19024   2.983   5.706   2.619
 6042SOL    HW119025   3.052   5.730   2.687
 6042SOL    HW219026   3.026   5.690   2.531
 6043SOL     OW19027   2.074   4.536   1.181
 6043SOL    HW119028   2.022   4.617   1.210
 6043SOL    HW219029   2.047   4.457   1.235
 6044SOL     OW19030   6.556   3.934   6.940
 6044SOL    HW119031   6.510   3.986   7.012
 6044SOL    HW219032   6.488   3.879   6.890
 6045SOL     OW19033   4.442   1.179   4.146
 6045SOL    HW119034   4.457   1.221   4.236
 6045SOL    HW219035   4.358   1.126   4.148
 6046SOL     OW19036   3.546   3.910   2.411
 6046SOL    HW119037   3.477   3.982   2.399
 6046SOL    HW219038   3.538   3.844   2.337
 6047SOL     OW19039   6.981   1.024   0.711
 6047SOL    HW119040   6.908   1.046   0.646
 6047SOL    HW219041   0.044   1.030   0.664
 6048SOL     OW19042   6.178   6.117   3.401
 6048SOL    HW119043   6.267   6.160   3.416
 6048SOL    HW219044   6.107   6.187   3.404
 6049SOL     OW19045   5.905   4.820   0.245
 6049SOL    HW119046   5.858   4.841   0.159
 6049SOL    HW219047   5.978   4.888   0.259
 6050SOL     OW19048   2.132   5.637   3.204
 6050SOL    HW119049   2.038   5.604   3.205
 6050SOL    HW219050   2.137   5.724   3.155
 6051SOL     OW19051   0.399   2.122   2.852
 6051SOL    HW119052   0.366   2.217   2.855
 6051SOL    HW219053   0.432   2.101   2.760
 6052SOL     OW19054   5.125   5.761   0.099
 6052SOL    HW119055   5.161   5.668   0.102
 6052SOL    HW219056   5.029   5.759   0.071
 6053SOL     OW19057   3.646   2.170   6.053
 6053SOL    HW119058   3.714   2.158   5.981
 6053SOL    HW219059   3.555   2.159   6.015
 6054SOL     OW19060   4.159   3.827   6.129
 6054SOL    HW119061   4.197   3.773   6.054
 6054SOL    HW219062   4.203   3.801   6.214
 6055SOL     OW19063   3.182   4.739   1.773
 6055SOL    HW119064   3.138   4.773   1.856
 6055SOL    HW219065   3.116   4.686   1.720
 6056SOL     OW19066   5.315   6.689   3.073
 6056SOL    HW119067   5.306   6.685   3.172
 6056SOL    HW219068   5.384   6.623   3.043
 6057SOL     OW19069   5.520   1.368   4.141
 6057SOL    HW119070   5.468   1.305   4.199
 6057SOL    HW219071   5.504   1.346   4.045
 6058SOL     OW19072   6.799   3.958   6.600
 6058SOL    HW119073   6.757   3.926   6.515
 6058SOL    HW219074   6.785   4.057   6.609
 6059SOL     OW19075   4.076   1.990   6.539
 6059SOL    HW119076   4.025   1.910   6.572
 6059SOL    HW219077   4.153   2.007   6.601
 6060SOL     OW19078   2.461   2.097   1.450
 6060SOL    HW119079   2.434   2.030   1.381
 6060SOL    HW219080   2.429   2.188   1.421
 6061SOL     OW19081   2.337   4.697   6.240
 6061SOL    HW119082   2.405   4.691   6.313
 6061SOL    HW219083   2.251   4.732   6.277
 6062SOL     OW19084   1.857   2.142   4.770
 6062SOL    HW119085   1.805   2.144   4.685
 6062SOL    HW219086   1.819   2.208   4.834
 6063SOL     OW19087   4.146   3.736   5.527
 6063SOL    HW119088   4.075   3.778   5.583
 6063SOL    HW219089   4.234   3.745   5.574
 6064SOL     OW19090   5.887   5.451   0.113
 6064SOL    HW119091   5.852   5.497   0.194
 6064SOL    HW219092   5.946   5.375   0.140
 6065SOL     OW19093   1.546   5.412   1.103
 6065SOL    HW119094   1.556   5.438   1.007
 6065SOL    HW219095   1.473   5.466   1.144
 6066SOL     OW19096   5.100   5.869   2.895
 6066SOL    HW119097   5.018   5.865   2.837
 6066SOL    HW219098   5.181   5.850   2.839
 6067SOL     OW19099   6.671   5.359   5.533
 6067SOL    HW119100   6.650   5.417   5.454
 6067SOL    HW219101   6.696   5.267   5.501
 6068SOL     OW19102   4.502   2.147   3.596
 6068SOL    HW119103   4.437   2.135   3.521
 6068SOL    HW219104   4.573   2.076   3.591
 6069SOL     OW19105   1.071   5.130   5.660
 6069SOL    HW119106   1.107   5.224   5.657
 6069SOL    HW219107   1.076   5.090   5.569
 6070SOL     OW19108   2.696   0.461   1.514
 6070SOL    HW119109   2.636   0.540   1.531
 6070SOL    HW219110   2.737   0.470   1.424
 6071SOL     OW19111   6.683   6.612   6.435
 6071SOL    HW119112   6.741   6.534   6.413
 6071SOL    HW219113   6.650   6.603   6.529
 6072SOL     OW19114   0.346   2.529   6.924
 6072SOL    HW119115   0.383   2.438   6.908
 6072SOL    HW219116   0.264   2.523   6.981
 6073SOL     OW19117   4.467   4.484   6.654
 6073SOL    HW119118   4.395   4.486   6.724
 6073SOL    HW219119   4.436   4.428   6.577
 6074SOL     OW19120   1.394   5.945   2.320
 6074SOL    HW119121   1.363   5.901   2.405
 6074SOL    HW219122   1.493   5.935   2.312
 6075SOL     OW19123   6.714   6.664   0.118
 6075SOL    HW119124   6.808   6.658   0.151
 6075SOL    HW219125   6.670   6.575   0.126
 6076SOL     OW19126   6.997   6.074   3.027
 6076SOL    HW119127   6.976   6.096   2.932
 6076SOL    HW219128   0.011   5.982   3.032
 6077SOL     OW19129   4.807   5.900   2.965
 6077SOL    HW119130   4.822   5.949   2.879
 6077SOL    HW219131   4.728   5.840   2.956
 6078SOL     OW19132   5.629   4.079   0.295
 6078SOL    HW119133   5.598   4.139   0.221
 6078SOL    HW219134   5.621   3.984   0.266
 6079SOL     OW19135   3.415   1.960   0.116
 6079SOL    HW119136   3.494   1.942   0.174
 6079SOL    HW219137   3.332   1.960   0.171
 6080SOL     OW19138   5.901   3.410   5.563
 6080SOL    HW119139   5.846   3.342   5.516
 6080SOL    HW219140   5.985   3.368   5.599
 6081SOL     OW19141   1.948   4.818   3.804
 6081SOL    HW119142   1.876   4.812   3.872
 6081SOL    HW219143   2.037   4.823   3.850
 6082SOL     OW19144   4.166   1.504   1.269
 6082SOL    HW119145   4.264   1.505   1.251
 6082SOL    HW219146   4.121   1.576   1.216
 6083SOL     OW19147   5.264   0.844   5.554
 6083SOL    HW119148   5.333   0.917   5.552
 6083SOL    HW219149   5.195   0.865   5.623
 6084SOL     OW19150   6.370   5.250   3.487
 6084SOL    HW119151   6.402   5.195   3.410
 6084SOL    HW219152   6.374   5.195   3.571
 6085SOL     OW19153   0.616   6.445   1.110
 6085SOL    HW119154   0.679   6.454   1.033
 6085SOL    HW219155   0.594   6.348   1.125
 6086SOL     OW19156   4.796   3.179   0.333
 6086SOL    HW119157   4.733   3.128   0.392
 6086SOL    HW219158   4.855   3.114   0.285
 6087SOL     OW19159   3.899   1.295   6.227
 6087SOL    HW119160   3.903   1.197   6.242
 6087SOL    HW219161   3.853   1.314   6.140
 6088SOL     OW19162   3.898   6.244   2.978
 6088SOL    HW119163   3.938   6.185   2.907
 6088SOL    HW219164   3.845   6.316   2.934
 6089SOL     OW19165   6.087   5.240   2.582
 6089SOL    HW119166   6.049   5.163   2.633
 6089SOL    HW219167   6.057   5.326   2.624
 6090SOL     OW19168   3.932   6.294   4.682
 6090SOL    HW119169   3.955   6.350   4.602
 6090SOL    HW219170   3.995   6.216   4.686
 6091SOL     OW19171   0.382   2.992   2.246
 6091SOL    HW119172   0.408   2.897   2.229
 6091SOL    HW219173   0.311   2.995   2.316
 6092SOL     OW19174   1.617   6.899   1.137
 6092SOL    HW119175   1.694   6.892   1.075
 6092SOL    HW219176   1.597   6.809   1.176
 6093SOL     OW19177   3.547   3.449   2.424
 6093SOL    HW119178   3.499   3.391   2.358
 6093SOL    HW219179   3.608   3.391   2.479
 6094SOL     OW19180   0.293   6.644   5.617
 6094SOL    HW119181   0.356   6.566   5.623
 6094SOL    HW219182   0.343   6.725   5.585
 6095SOL     OW19183   5.669   5.115   2.346
 6095SOL    HW119184   5.613   5.087   2.269
 6095SOL    HW219185   5.650   5.210   2.369
 6096SOL     OW19186   4.846   6.194   2.871
 6096SOL    HW119187   4.868   6.257   2.944
 6096SOL    HW219188   4.927   6.175   2.816
 6097SOL     OW19189   1.923   4.769   1.013
 6097SOL    HW119190   1.978   4.799   1.091
 6097SOL    HW219191   1.828   4.797   1.027
 6098SOL     OW19192   6.143   1.742   5.312
 6098SOL    HW119193   6.137   1.770   5.408
 6098SOL    HW219194   6.053   1.747   5.270
 6099SOL     OW19195   3.083   6.878   5.550
 6099SOL    HW119196   2.994   6.902   5.513
 6099SOL    HW219197   3.152   6.942   5.516
 6100SOL     OW19198   6.511   5.403   6.036
 6100SOL    HW119199   6.425   5.454   6.048
 6100SOL    HW219200   6.521   5.377   5.940
 6101SOL     OW19201   0.992   2.770   0.973
 6101SOL    HW119202   0.927   2.722   0.915
 6101SOL    HW219203   0.955   2.859   1.001
 6102SOL     OW19204   2.442   0.123   2.559
 6102SOL    HW119205   2.530   0.143   2.516
 6102SOL    HW219206   2.387   0.066   2.498
 6103SOL     OW19207   5.699   0.437   2.833
 6103SOL    HW119208   5.688   0.367   2.903
 6103SOL    HW219209   5.656   0.522   2.864
 6104SOL     OW19210   0.154   0.183   5.307
 6104SOL    HW119211   0.168   0.108   5.372
 6104SOL    HW219212   0.131   0.266   5.358
 6105SOL     OW19213   3.816   5.278   6.560
 6105SOL    HW119214   3.728   5.320   6.542
 6105SOL    HW219215   3.885   5.349   6.576
 6106SOL     OW19216   6.359   3.549   5.917
 6106SOL    HW119217   6.347   3.454   5.887
 6106SOL    HW219218   6.316   3.610   5.851
 6107SOL     OW19219   6.849   4.828   4.844
 6107SOL    HW119220   6.773   4.804   4.784
 6107SOL    HW219221   6.910   4.750   4.855
 6108SOL     OW19222   3.323   0.574   5.843
 6108SOL    HW119223   3.274   0.588   5.929
 6108SOL    HW219224   3.334   0.662   5.796
 6109SOL     OW19225   6.544   6.718   3.549
 6109SOL    HW119226   6.571   6.646   3.484
 6109SOL    HW219227   6.608   6.720   3.625
 6110SOL     OW19228   0.813   1.827   4.553
 6110SOL    HW119229   0.717   1.838   4.528
 6110SOL    HW219230   0.858   1.768   4.485
 6111SOL     OW19231   3.033   3.228   1.487
 6111SOL    HW119232   2.952   3.235   1.545
 6111SOL    HW219233   3.042   3.311   1.432
 6112SOL     OW19234   4.831   6.173   4.064
 6112SOL    HW119235   4.766   6.103   4.036
 6112SOL    HW219236   4.909   6.130   4.111
 6113SOL     OW19237   3.382   4.986   1.194
 6113SOL    HW119238   3.314   5.021   1.259
 6113SOL    HW219239   3.436   4.915   1.238
 6114SOL     OW19240   5.437   3.633   1.415
 6114SOL    HW119241   5.471   3.602   1.326
 6114SOL    HW219242   5.342   3.605   1.427
 6115SOL     OW19243   5.711   1.069   4.402
 6115SOL    HW119244   5.670   1.024   4.322
 6115SOL    HW219245   5.757   1.001   4.458
 6116SOL     OW19246   6.207   2.510   0.484
 6116SOL    HW119247   6.191   2.516   0.583
 6116SOL    HW219248   6.127   2.471   0.440
 6117SOL     OW19249   3.161   1.968   1.307
 6117SOL    HW119250   3.138   1.916   1.390
 6117SOL    HW219251   3.209   2.052   1.333
 6118SOL     OW19252   5.938   0.143   1.631
 6118SOL    HW119253   6.013   0.167   1.693
 6118SOL    HW219254   5.961   0.170   1.538
 6119SOL     OW19255   0.515   1.162   6.157
 6119SOL    HW119256   0.516   1.092   6.085
 6119SOL    HW219257   0.489   1.250   6.118
 6120SOL     OW19258   3.168   1.183   3.584
 6120SOL    HW119259   3.129   1.255   3.527
 6120SOL    HW219260   3.267   1.195   3.590
 6121SOL     OW19261   4.025   1.271   5.665
 6121SOL    HW119262   4.086   1.305   5.593
 6121SOL    HW219263   4.016   1.340   5.737
 6122SOL     OW19264   4.890   4.320   5.014
 6122SOL    HW119265   4.968   4.348   5.070
 6122SOL    HW219266   4.892   4.370   4.927
 6123SOL     OW19267   6.478   2.010   5.169
 6123SOL    HW119268   6.562   1.959   5.187
 6123SOL    HW219269   6.494   2.076   5.097
 6124SOL     OW19270   1.907   5.974   3.768
 6124SOL    HW119271   1.823   6.002   3.723
 6124SOL    HW219272   1.983   6.032   3.739
 6125SOL     OW19273   3.172   1.169   5.675
 6125SOL    HW119274   3.073   1.154   5.679
 6125SOL    HW219275   3.219   1.096   5.724
 6126SOL     OW19276   6.253   3.105   6.582
 6126SOL    HW119277   6.156   3.123   6.597
 6126SOL    HW219278   6.290   3.055   6.660
 6127SOL     OW19279   4.826   2.131   3.376
 6127SOL    HW119280   4.790   2.070   3.306
 6127SOL    HW219281   4.815   2.226   3.347
 6128SOL     OW19282   6.035   5.122   4.695
 6128SOL    HW119283   6.131   5.141   4.677
 6128SOL    HW219284   6.027   5.046   4.759
 6129SOL     OW19285   2.150   6.207   3.095
 6129SOL    HW119286   2.244   6.192   3.126
 6129SOL    HW219287   2.087   6.153   3.152
 6130SOL     OW19288   6.929   2.113   0.016
 6130SOL    HW119289   7.005   2.149   6.987
 6130SOL    HW219290   6.937   2.149   0.109
 6131SOL     OW19291   6.301   3.200   2.588
 6131SOL    HW119292   6.360   3.178   2.510
 6131SOL    HW219293   6.289   3.119   2.645
 6132SOL     OW19294   4.746   5.737   6.766
 6132SOL    HW119295   4.815   5.787   6.715
 6132SOL    HW219296   4.681   5.802   6.806
 6133SOL     OW19297   0.118   2.468   3.364
 6133SOL    HW119298   0.091   2.380   3.403
 6133SOL    HW219299   0.037   2.519   3.336
 6134SOL     OW19300   0.961   6.978   4.965
 6134SOL    HW119301   1.060   6.969   4.955
 6134SOL    HW219302   0.916   6.920   4.898
 6135SOL     OW19303   6.212   6.182   0.024
 6135SOL    HW119304   6.248   6.251   0.086
 6135SOL    HW219305   6.113   6.180   0.029
 6136SOL     OW19306   0.868   2.738   2.822
 6136SOL    HW119307   0.953   2.748   2.769
 6136SOL    HW219308   0.798   2.696   2.765
 6137SOL     OW19309   6.962   4.523   1.210
 6137SOL    HW119310   6.890   4.526   1.140
 6137SOL    HW219311   6.944   4.591   1.280
 6138SOL     OW19312   4.822   0.754   2.926
 6138SOL    HW119313   4.813   0.657   2.948
 6138SOL    HW219314   4.861   0.802   3.004
 6139SOL     OW19315   1.450   1.924   5.742
 6139SOL    HW119316   1.546   1.898   5.750
 6139SOL    HW219317   1.440   1.995   5.671
 6140SOL     OW19318   2.304   0.331   4.304
 6140SOL    HW119319   2.266   0.304   4.215
 6140SOL    HW219320   2.305   0.430   4.311
 6141SOL     OW19321   0.597   0.651   0.740
 6141SOL    HW119322   0.526   0.652   0.810
 6141SOL    HW219323   0.640   0.561   0.738
 6142SOL     OW19324   0.460   7.024   1.570
 6142SOL    HW119325   0.461   0.001   1.670
 6142SOL    HW219326   0.550   0.026   1.535
 6143SOL     OW19327   1.966   2.924   5.544
 6143SOL    HW119328   1.996   2.954   5.454
 6143SOL    HW219329   2.026   2.962   5.614
 6144SOL     OW19330   3.337   6.244   2.862
 6144SOL    HW119331   3.356   6.330   2.908
 6144SOL    HW219332   3.240   6.240   2.838
 6145SOL     OW19333   5.601   3.461   4.335
 6145SOL    HW119334   5.602   3.484   4.432
 6145SOL    HW219335   5.515   3.416   4.312
 6146SOL     OW19336   6.351   1.716   5.908
 6146SOL    HW119337   6.399   1.629   5.917
 6146SOL    HW219338   6.259   1.707   5.946
 6147SOL     OW19339   1.508   1.903   5.056
 6147SOL    HW119340   1.446   1.903   4.977
 6147SOL    HW219341   1.537   1.810   5.075
 6148SOL     OW19342   4.008   5.464   6.606
 6148SOL    HW119343   4.088   5.405   6.616
 6148SOL    HW219344   4.021   5.546   6.662
 6149SOL     OW19345   4.143   1.771   1.867
 6149SOL    HW119346   4.105   1.819   1.946
 6149SOL    HW219347   4.239   1.749   1.884
 6150SOL     OW19348   0.247   5.156   4.116
 6150SOL    HW119349   0.269   5.244   4.073
 6150SOL    HW219350   0.190   5.172   4.196
 6151SOL     OW19351   4.002   5.314   2.362
 6151SOL    HW119352   3.943   5.359   2.294
 6151SOL    HW219353   4.085   5.368   2.375
 6152SOL     OW19354   0.581   4.047   3.324
 6152SOL    HW119355   0.542   4.032   3.415
 6152SOL    HW219356   0.518   4.012   3.255
 6153SOL     OW19357   5.840   6.281   1.531
 6153SOL    HW119358   5.869   6.361   1.477
 6153SOL    HW219359   5.882   6.286   1.622
 6154SOL     OW19360   3.536   5.351   3.168
 6154SOL    HW119361   3.510   5.298   3.248
 6154SOL    HW219362   3.598   5.298   3.110
 6155SOL     OW19363   1.787   1.790   4.284
 6155SOL    HW119364   1.816   1.699   4.313
 6155SOL    HW219365   1.776   1.790   4.184
 6156SOL     OW19366   4.575   4.435   2.935
 6156SOL    HW119367   4.611   4.341   2.938
 6156SOL    HW219368   4.650   4.499   2.952
 6157SOL     OW19369   0.526   2.439   1.768
 6157SOL    HW119370   0.468   2.478   1.839
 6157SOL    HW219371   0.507   2.341   1.759
 6158SOL     OW19372   3.272   0.646   6.466
 6158SOL    HW119373   3.247   0.561   6.420
 6158SOL    HW219374   3.368   0.667   6.448
 6159SOL     OW19375   6.401   1.229   0.742
 6159SOL    HW119376   6.473   1.295   0.765
 6159SOL    HW219377   6.356   1.198   0.825
 6160SOL     OW19378   1.201   6.893   0.777
 6160SOL    HW119379   1.160   6.804   0.761
 6160SOL    HW219380   1.299   6.883   0.793
 6161SOL     OW19381   6.178   4.138   7.015
 6161SOL    HW119382   6.191   4.113   6.919
 6161SOL    HW219383   6.087   4.110   0.018
 6162SOL     OW19384   6.208   5.795   0.972
 6162SOL    HW119385   6.238   5.879   0.926
 6162SOL    HW219386   6.137   5.751   0.916
 6163SOL     OW19387   5.136   5.593   2.695
 6163SOL    HW119388   5.141   5.502   2.735
 6163SOL    HW219389   5.041   5.612   2.668
 6164SOL     OW19390   3.803   3.765   4.558
 6164SOL    HW119391   3.759   3.748   4.470
 6164SOL    HW219392   3.737   3.809   4.619
 6165SOL     OW19393   3.510   0.701   6.676
 6165SOL    HW119394   3.446   0.698   6.752
 6165SOL    HW219395   3.590   0.644   6.697
 6166SOL     OW19396   3.176   1.417   5.936
 6166SOL    HW119397   3.134   1.461   6.016
 6166SOL    HW219398   3.212   1.328   5.962
 6167SOL     OW19399   1.453   3.754   2.094
 6167SOL    HW119400   1.418   3.824   2.155
 6167SOL    HW219401   1.400   3.670   2.106
 6168SOL     OW19402   1.227   4.050   3.930
 6168SOL    HW119403   1.312   4.067   3.880
 6168SOL    HW219404   1.167   4.130   3.921
 6169SOL     OW19405   2.822   1.068   0.844
 6169SOL    HW119406   2.758   1.071   0.767
 6169SOL    HW219407   2.895   1.003   0.825
 6170SOL     OW19408   2.599   4.586   0.857
 6170SOL    HW119409   2.606   4.563   0.955
 6170SOL    HW219410   2.639   4.676   0.841
 6171SOL     OW19411   2.328   4.150   2.225
 6171SOL    HW119412   2.414   4.101   2.215
 6171SOL    HW219413   2.259   4.090   2.266
 6172SOL     OW19414   2.355   4.976   1.798
 6172SOL    HW119415   2.413   4.981   1.880
 6172SOL    HW219416   2.260   4.992   1.824
 6173SOL     OW19417   0.773   5.524   2.822
 6173SOL    HW119418   0.851   5.488   2.874
 6173SOL    HW219419   0.740   5.607   2.866
 6174SOL     OW19420   5.866   4.462   1.745
 6174SOL    HW119421   5.784   4.513   1.719
 6174SOL    HW219422   5.933   4.466   1.670
 6175SOL     OW19423   5.593   0.058   4.138
 6175SOL    HW119424   5.586   7.019   4.062
 6175SOL    HW219425   5.549   0.018   4.219
 6176SOL     OW19426   6.753   3.134   0.542
 6176SOL    HW119427   6.790   3.114   0.451
 6176SOL    HW219428   6.659   3.168   0.533
 6177SOL     OW19429   5.783   2.818   2.839
 6177SOL    HW119430   5.794   2.843   2.935
 6177SOL    HW219431   5.688   2.792   2.822
 6178SOL     OW19432   0.114   3.783   1.199
 6178SOL    HW119433   0.109   3.861   1.136
 6178SOL    HW219434   0.024   3.766   1.239
 6179SOL     OW19435   0.342   1.389   5.945
 6179SOL    HW119436   0.297   1.300   5.935
 6179SOL    HW219437   0.425   1.391   5.889
 6180SOL     OW19438   3.292   0.882   6.686
 6180SOL    HW119439   3.227   0.921   6.620
 6180SOL    HW219440   3.327   0.795   6.650
 6181SOL     OW19441   4.504   6.631   6.151
 6181SOL    HW119442   4.558   6.683   6.216
 6181SOL    HW219443   4.408   6.659   6.157
 6182SOL     OW19444   4.619   6.780   5.428
 6182SOL    HW119445   4.628   6.773   5.329
 6182SOL    HW219446   4.530   6.818   5.451
 6183SOL     OW19447   2.252   6.662   2.303
 6183SOL    HW119448   2.288   6.609   2.226
 6183SOL    HW219449   2.230   6.601   2.379
 6184SOL     OW19450   6.659   0.132   5.126
 6184SOL    HW119451   6.640   0.212   5.069
 6184SOL    HW219452   6.633   0.152   5.221
 6185SOL     OW19453   2.485   2.475   0.286
 6185SOL    HW119454   2.513   2.541   0.216
 6185SOL    HW219455   2.454   2.391   0.242
 6186SOL     OW19456   4.195   1.023   4.151
 6186SOL    HW119457   4.135   1.082   4.205
 6186SOL    HW219458   4.141   0.970   4.086
 6187SOL     OW19459   3.154   5.126   4.642
 6187SOL    HW119460   3.174   5.047   4.700
 6187SOL    HW219461   3.151   5.208   4.698
 6188SOL     OW19462   2.366   6.897   2.432
 6188SOL    HW119463   2.425   6.867   2.507
 6188SOL    HW219464   2.325   6.818   2.387
 6189SOL     OW19465   5.464   4.891   3.296
 6189SOL    HW119466   5.508   4.956   3.358
 6189SOL    HW219467   5.492   4.798   3.320
 6190SOL     OW19468   5.213   3.044   5.624
 6190SOL    HW119469   5.146   2.976   5.593
 6190SOL    HW219470   5.165   3.124   5.658
 6191SOL     OW19471   0.279   1.230   6.412
 6191SOL    HW119472   0.376   1.250   6.395
 6191SOL    HW219473   0.233   1.214   6.324
 6192SOL     OW19474   3.183   1.590   0.352
 6192SOL    HW119475   3.108   1.563   0.291
 6192SOL    HW219476   3.146   1.639   0.431
 6193SOL     OW19477   0.055   6.658   1.509
 6193SOL    HW119478   0.016   6.722   1.576
 6193SOL    HW219479   0.140   6.620   1.546
 6194SOL     OW19480   3.255   0.185   1.146
 6194SOL    HW119481   3.273   0.277   1.111
 6194SOL    HW219482   3.318   0.121   1.103
 6195SOL     OW19483   2.465   0.659   5.682
 6195SOL    HW119484   2.520   0.709   5.749
 6195SOL    HW219485   2.523   0.597   5.630
 6196SOL     OW19486   1.461   2.166   5.603
 6196SOL    HW119487   1.513   2.251   5.603
 6196SOL    HW219488   1.468   2.122   5.513
 6197SOL     OW19489   2.643   2.589   1.768
 6197SOL    HW119490   2.584   2.666   1.793
 6197SOL    HW219491   2.738   2.610   1.793
 6198SOL     OW19492   2.958   5.700   1.983
 6198SOL    HW119493   3.047   5.727   1.946
 6198SOL    HW219494   2.898   5.780   1.985
 6199SOL     OW19495   0.248   0.411   6.587
 6199SOL    HW119496   0.154   0.437   6.567
 6199SOL    HW219497   0.303   0.494   6.601
 6200SOL     OW19498   4.145   0.543   5.781
 6200SOL    HW119499   4.125   0.445   5.774
 6200SOL    HW219500   4.191   0.562   5.867
 6201SOL     OW19501   2.367   5.454   4.949
 6201SOL    HW119502   2.444   5.458   4.885
 6201SOL    HW219503   2.351   5.545   4.987
 6202SOL     OW19504   2.005   2.476   1.178
 6202SOL    HW119505   1.940   2.525   1.120
 6202SOL    HW219506   2.053   2.407   1.123
 6203SOL     OW19507   5.702   2.602   4.339
 6203SOL    HW119508   5.641   2.551   4.279
 6203SOL    HW219509   5.791   2.613   4.295
 6204SOL     OW19510   1.056   6.818   5.318
 6204SOL    HW119511   1.154   6.818   5.335
 6204SOL    HW219512   1.016   6.733   5.351
 6205SOL     OW19513   4.134   6.737   6.599
 6205SOL    HW119514   4.177   6.809   6.652
 6205SOL    HW219515   4.198   6.661   6.586
 6206SOL     OW19516   4.649   0.044   3.797
 6206SOL    HW119517   4.696   0.128   3.824
 6206SOL    HW219518   4.661   7.000   3.868
 6207SOL     OW19519   2.574   4.576   4.576
 6207SOL    HW119520   2.516   4.555   4.654
 6207SOL    HW219521   2.585   4.494   4.520
 6208SOL     OW19522   5.452   4.415   5.192
 6208SOL    HW119523   5.464   4.473   5.272
 6208SOL    HW219524   5.434   4.321   5.222
 6209SOL     OW19525   1.411   5.846   0.595
 6209SOL    HW119526   1.349   5.769   0.612
 6209SOL    HW219527   1.491   5.813   0.545
 6210SOL     OW19528   0.213   4.268   3.507
 6210SOL    HW119529   0.274   4.326   3.561
 6210SOL    HW219530   0.225   4.288   3.410
 6211SOL     OW19531   2.492   0.295   4.887
 6211SOL    HW119532   2.560   0.354   4.844
 6211SOL    HW219533   2.426   0.351   4.938
 6212SOL     OW19534   6.585   0.927   4.390
 6212SOL    HW119535   6.521   0.851   4.386
 6212SOL    HW219536   6.537   1.010   4.418
 6213SOL     OW19537   6.523   0.016   0.223
 6213SOL    HW119538   6.499   0.039   0.128
 6213SOL    HW219539   6.439   0.009   0.277
 6214SOL     OW19540   5.032   4.279   1.813
 6214SOL    HW119541   5.021   4.378   1.823
 6214SOL    HW219542   5.099   4.259   1.743
 6215SOL     OW19543   3.659   4.353   1.462
 6215SOL    HW119544   3.587   4.285   1.477
 6215SOL    HW219545   3.617   4.441   1.441
 6216SOL     OW19546   5.786   1.625   2.517
 6216SOL    HW119547   5.781   1.679   2.433
 6216SOL    HW219548   5.767   1.529   2.497
 6217SOL     OW19549   4.484   1.404   1.550
 6217SOL    HW119550   4.523   1.476   1.607
 6217SOL    HW219551   4.384   1.405   1.559
 6218SOL     OW19552   4.347   6.383   4.466
 6218SOL    HW119553   4.391   6.470   4.443
 6218SOL    HW219554   4.307   6.343   4.383
 6219SOL     OW19555   0.360   0.944   4.887
 6219SOL    HW119556   0.285   0.881   4.867
 6219SOL    HW219557   0.437   0.924   4.827
 6220SOL     OW19558   1.139   3.501   4.904
 6220SOL    HW119559   1.188   3.414   4.911
 6220SOL    HW219560   1.118   3.534   4.996
 6221SOL     OW19561   4.725   4.428   4.349
 6221SOL    HW119562   4.710   4.381   4.262
 6221SOL    HW219563   4.637   4.464   4.383
 6222SOL     OW19564   6.985   1.928   1.268
 6222SOL    HW119565   0.049   1.956   1.234
 6222SOL    HW219566   6.996   1.852   1.332
 6223SOL     OW19567   5.157   4.766   3.754
 6223SOL    HW119568   5.210   4.738   3.834
 6223SOL    HW219569   5.061   4.780   3.781
 6224SOL     OW19570   2.750   0.196   4.519
 6224SOL    HW119571   2.775   0.207   4.615
 6224SOL    HW219572   2.808   0.126   4.476
 6225SOL     OW19573   3.989   1.715   6.547
 6225SOL    HW119574   3.930   1.723   6.627
 6225SOL    HW219575   3.941   1.668   6.473
 6226SOL     OW19576   7.013   5.948   4.392
 6226SOL    HW119577   0.074   5.916   4.428
 6226SOL    HW219578   6.941   5.931   4.459
 6227SOL     OW19579   2.882   4.019   7.017
 6227SOL    HW119580   2.927   3.956   6.954
 6227SOL    HW219581   2.785   4.027   6.994
 6228SOL     OW19582   6.854   2.439   3.117
 6228SOL    HW119583   6.862   2.511   3.186
 6228SOL    HW219584   6.933   2.378   3.124
 6229SOL     OW19585   1.261   2.637   2.514
 6229SOL    HW119586   1.351   2.593   2.519
 6229SOL    HW219587   1.215   2.607   2.430
 6230SOL     OW19588   1.999   2.785   3.969
 6230SOL    HW119589   1.921   2.752   4.023
 6230SOL    HW219590   2.050   2.707   3.933
 6231SOL     OW19591   6.571   4.328   2.516
 6231SOL    HW119592   6.563   4.383   2.598
 6231SOL    HW219593   6.667   4.301   2.503
 6232SOL     OW19594   0.643   0.918   6.851
 6232SOL    HW119595   0.706   0.989   6.885
 6232SOL    HW219596   0.560   0.961   6.817
 6233SOL     OW19597   4.114   0.887   6.045
 6233SOL    HW119598   4.115   0.975   5.997
 6233SOL    HW219599   4.038   0.832   6.011
 6234SOL     OW19600   2.523   2.303   3.467
 6234SOL    HW119601   2.603   2.270   3.416
 6234SOL    HW219602   2.548   2.315   3.563
 6235SOL     OW19603   1.786   5.195   1.761
 6235SOL    HW119604   1.784   5.113   1.703
 6235SOL    HW219605   1.804   5.275   1.704
 6236SOL     OW19606   0.166   3.850   0.144
 6236SOL    HW119607   0.173   3.756   0.111
 6236SOL    HW219608   0.093   3.856   0.212
 6237SOL     OW19609   3.538   6.174   6.322
 6237SOL    HW119610   3.588   6.248   6.277
 6237SOL    HW219611   3.492   6.118   6.254
 6238SOL     OW19612   5.411   3.159   1.187
 6238SOL    HW119613   5.398   3.227   1.259
 6238SOL    HW219614   5.339   3.091   1.191
 6239SOL     OW19615   3.211   6.322   4.139
 6239SOL    HW119616   3.155   6.251   4.096
 6239SOL    HW219617   3.151   6.386   4.187
 6240SOL     OW19618   2.456   3.770   0.402
 6240SOL    HW119619   2.462   3.849   0.463
 6240SOL    HW219620   2.527   3.704   0.426
 6241SOL     OW19621   3.965   6.942   2.479
 6241SOL    HW119622   3.944   6.886   2.559
 6241SOL    HW219623   4.040   7.005   2.501
 6242SOL     OW19624   3.334   2.086   2.699
 6242SOL    HW119625   3.391   2.095   2.618
 6242SOL    HW219626   3.385   2.117   2.780
 6243SOL     OW19627   6.028   6.088   2.675
 6243SOL    HW119628   6.089   6.021   2.717
 6243SOL    HW219629   6.079   6.172   2.656
 6244SOL     OW19630   1.463   1.858   1.514
 6244SOL    HW119631   1.521   1.819   1.586
 6244SOL    HW219632   1.488   1.954   1.500
 6245SOL     OW19633   2.398   3.438   0.196
 6245SOL    HW119634   2.332   3.413   0.268
 6245SOL    HW219635   2.470   3.368   0.192
 6246SOL     OW19636   4.051   6.915   0.040
 6246SOL    HW119637   4.094   7.004   0.037
 6246SOL    HW219638   4.121   6.843   0.041
 6247SOL     OW19639   6.254   0.212   2.837
 6247SOL    HW119640   6.197   0.190   2.917
 6247SOL    HW219641   6.226   0.155   2.760
 6248SOL     OW19642   0.958   5.480   0.926
 6248SOL    HW119643   0.911   5.564   0.953
 6248SOL    HW219644   1.039   5.468   0.984
 6249SOL     OW19645   6.565   3.141   6.019
 6249SOL    HW119646   6.579   3.043   6.034
 6249SOL    HW219647   6.589   3.191   6.101
 6250SOL     OW19648   6.778   4.153   6.250
 6250SOL    HW119649   6.746   4.174   6.342
 6250SOL    HW219650   6.877   4.169   6.244
 6251SOL     OW19651   5.032   1.086   0.327
 6251SOL    HW119652   4.956   1.022   0.327
 6251SOL    HW219653   5.069   1.095   0.235
 6252SOL     OW19654   2.039   6.004   5.426
 6252SOL    HW119655   2.087   6.086   5.456
 6252SOL    HW219656   1.954   5.995   5.478
 6253SOL     OW19657   2.517   3.653   0.778
 6253SOL    HW119658   2.443   3.593   0.810
 6253SOL    HW219659   2.564   3.693   0.856
 6254SOL     OW19660   5.415   0.207   6.783
 6254SOL    HW119661   5.466   0.123   6.765
 6254SOL    HW219662   5.398   0.216   6.881
 6255SOL     OW19663   1.054   3.632   2.972
 6255SOL    HW119664   1.102   3.647   2.886
 6255SOL    HW219665   1.063   3.713   3.030
 6256SOL     OW19666   4.514   5.403   4.456
 6256SOL    HW119667   4.487   5.394   4.361
 6256SOL    HW219668   4.468   5.483   4.496
 6257SOL     OW19669   4.035   2.606   6.776
 6257SOL    HW119670   4.043   2.525   6.717
 6257SOL    HW219671   4.008   2.685   6.721
 6258SOL     OW19672   4.770   1.767   2.941
 6258SOL    HW119673   4.737   1.701   2.873
 6258SOL    HW219674   4.828   1.835   2.895
 6259SOL     OW19675   3.452   2.126   1.803
 6259SOL    HW119676   3.492   2.039   1.833
 6259SOL    HW219677   3.517   2.200   1.819
 6260SOL     OW19678   4.073   4.271   1.466
 6260SOL    HW119679   4.012   4.327   1.522
 6260SOL    HW219680   4.069   4.176   1.499
 6261SOL     OW19681   4.803   6.502   6.397
 6261SOL    HW119682   4.751   6.420   6.374
 6261SOL    HW219683   4.797   6.568   6.321
 6262SOL     OW19684   0.210   5.925   5.508
 6262SOL    HW119685   0.147   5.860   5.466
 6262SOL    HW219686   0.162   5.975   5.581
 6263SOL     OW19687   6.967   0.522   1.211
 6263SOL    HW119688   0.008   0.558   1.276
 6263SOL    HW219689   6.902   0.593   1.187
 6264SOL     OW19690   2.631   0.924   0.239
 6264SOL    HW119691   2.582   1.012   0.237
 6264SOL    HW219692   2.700   0.926   0.311
 6265SOL     OW19693   6.608   3.518   0.421
 6265SOL    HW119694   6.702   3.543   0.401
 6265SOL    HW219695   6.575   3.569   0.500
 6266SOL     OW19696   2.496   6.720   2.883
 6266SOL    HW119697   2.464   6.629   2.858
 6266SOL    HW219698   2.590   6.713   2.917
 6267SOL     OW19699   3.078   6.304   6.718
 6267SOL    HW119700   3.004   6.301   6.786
 6267SOL    HW219701   3.074   6.392   6.670
 6268SOL     OW19702   2.241   6.420   2.131
 6268SOL    HW119703   2.280   6.480   2.061
 6268SOL    HW219704   2.313   6.362   2.168
 6269SOL     OW19705   6.832   4.659   6.355
 6269SOL    HW119706   6.893   4.734   6.380
 6269SOL    HW219707   6.886   4.577   6.338
 6270SOL     OW19708   0.760   1.507   4.110
 6270SOL    HW119709   0.825   1.514   4.185
 6270SOL    HW219710   0.712   1.419   4.115
 6271SOL     OW19711   5.632   1.830   1.158
 6271SOL    HW119712   5.703   1.840   1.088
 6271SOL    HW219713   5.546   1.866   1.122
 6272SOL     OW19714   2.885   2.191   3.720
 6272SOL    HW119715   2.972   2.154   3.752
 6272SOL    HW219716   2.829   2.117   3.682
 6273SOL     OW19717   3.515   1.565   2.659
 6273SOL    HW119718   3.426   1.609   2.665
 6273SOL    HW219719   3.532   1.510   2.740
 6274SOL     OW19720   2.837   5.554   6.907
 6274SOL    HW119721   2.906   5.484   6.890
 6274SOL    HW219722   2.830   5.615   6.828
 6275SOL     OW19723   3.136   0.856   4.491
 6275SOL    HW119724   3.202   0.930   4.501
 6275SOL    HW219725   3.123   0.835   4.394
 6276SOL     OW19726   0.575   5.715   3.723
 6276SOL    HW119727   0.481   5.697   3.752
 6276SOL    HW219728   0.627   5.630   3.722
 6277SOL     OW19729   6.596   3.467   4.207
 6277SOL    HW119730   6.514   3.423   4.241
 6277SOL    HW219731   6.677   3.417   4.239
 6278SOL     OW19732   4.611   1.226   3.313
 6278SOL    HW119733   4.616   1.317   3.354
 6278SOL    HW219734   4.635   1.158   3.382
 6279SOL     OW19735   4.128   1.982   5.696
 6279SOL    HW119736   4.139   2.042   5.775
 6279SOL    HW219737   4.086   2.033   5.621
 6280SOL     OW19738   1.708   5.117   5.438
 6280SOL    HW119739   1.682   5.021   5.443
 6280SOL    HW219740   1.801   5.128   5.474
 6281SOL     OW19741   3.265   6.077   4.864
 6281SOL    HW119742   3.200   6.066   4.789
 6281SOL    HW219743   3.357   6.092   4.827
 6282SOL     OW19744   0.711   6.203   4.590
 6282SOL    HW119745   0.751   6.133   4.532
 6282SOL    HW219746   0.632   6.166   4.639
 6283SOL     OW19747   1.060   2.980   4.812
 6283SOL    HW119748   1.010   2.903   4.851
 6283SOL    HW219749   1.103   3.032   4.885
 6284SOL     OW19750   2.418   4.737   0.301
 6284SOL    HW119751   2.434   4.769   0.207
 6284SOL    HW219752   2.502   4.697   0.338
 6285SOL     OW19753   2.159   3.781   2.583
 6285SOL    HW119754   2.191   3.700   2.633
 6285SOL    HW219755   2.180   3.863   2.637
 6286SOL     OW19756   6.920   6.369   3.935
 6286SOL    HW119757   6.965   6.445   3.982
 6286SOL    HW219758   6.974   6.286   3.949
 6287SOL     OW19759   3.513   4.988   3.499
 6287SOL    HW119760   3.479   4.938   3.419
 6287SOL    HW219761   3.508   4.929   3.580
 6288SOL     OW19762   6.972   3.847   1.509
 6288SOL    HW119763   7.004   3.759   1.474
 6288SOL    HW219764   7.019   3.921   1.460
 6289SOL     OW19765   0.155   6.961   2.988
 6289SOL    HW119766   0.225   6.914   3.041
 6289SOL    HW219767   0.087   7.000   3.050
 6290SOL     OW19768   5.788   3.400   3.990
 6290SOL    HW119769   5.788   3.463   3.913
 6290SOL    HW219770   5.858   3.428   4.056
 6291SOL     OW19771   3.591   3.857   3.751
 6291SOL    HW119772   3.624   3.950   3.740
 6291SOL    HW219773   3.668   3.794   3.751
 6292SOL     OW19774   6.783   1.226   1.634
 6292SOL    HW119775   6.866   1.280   1.646
 6292SOL    HW219776   6.706   1.288   1.618
 6293SOL     OW19777   5.646   4.236   5.770
 6293SOL    HW119778   5.678   4.284   5.688
 6293SOL    HW219779   5.553   4.266   5.792
 6294SOL     OW19780   2.849   6.467   0.497
 6294SOL    HW119781   2.879   6.390   0.440
 6294SOL    HW219782   2.858   6.443   0.593
 6295SOL     OW19783   6.186   5.628   6.275
 6295SOL    HW119784   6.233   5.558   6.329
 6295SOL    HW219785   6.091   5.635   6.304
 6296SOL     OW19786   5.904   2.049   3.542
 6296SOL    HW119787   5.860   2.062   3.453
 6296SOL    HW219788   5.843   1.998   3.603
 6297SOL     OW19789   5.370   2.394   5.914
 6297SOL    HW119790   5.284   2.346   5.928
 6297SOL    HW219791   5.407   2.371   5.824
 6298SOL     OW19792   6.318   2.913   4.289
 6298SOL    HW119793   6.338   2.931   4.385
 6298SOL    HW219794   6.333   2.816   4.269
 6299SOL     OW19795   0.496   2.312   6.921
 6299SOL    HW119796   0.542   2.245   6.862
 6299SOL    HW219797   0.563   2.357   6.979
 6300SOL     OW19798   5.195   1.063   3.470
 6300SOL    HW119799   5.255   1.010   3.409
 6300SOL    HW219800   5.189   1.018   3.559
 6301SOL     OW19801   3.007   0.080   1.042
 6301SOL    HW119802   2.960   0.140   0.978
 6301SOL    HW219803   3.090   0.126   1.075
 6302SOL     OW19804   6.478   0.869   3.044
 6302SOL    HW119805   6.391   0.896   3.085
 6302SOL    HW219806   6.488   0.769   3.051
 6303SOL     OW19807   2.342   5.174   5.023
 6303SOL    HW119808   2.412   5.119   4.979
 6303SOL    HW219809   2.347   5.268   4.988
 6304SOL     OW19810   4.227   0.883   5.034
 6304SOL    HW119811   4.303   0.869   4.969
 6304SOL    HW219812   4.155   0.816   5.015
 6305SOL     OW19813   4.985   7.017   3.033
 6305SOL    HW119814   4.889   6.996   3.051
 6305SOL    HW219815   5.039   6.933   3.038
 6306SOL     OW19816   6.339   2.948   4.548
 6306SOL    HW119817   6.275   2.946   4.624
 6306SOL    HW219818   6.424   2.903   4.574
 6307SOL     OW19819   2.299   4.244   0.786
 6307SOL    HW119820   2.275   4.253   0.689
 6307SOL    HW219821   2.294   4.334   0.830
 6308SOL     OW19822   3.620   2.350   6.551
 6308SOL    HW119823   3.627   2.286   6.475
 6308SOL    HW219824   3.671   2.314   6.630
 6309SOL     OW19825   6.581   2.331   5.233
 6309SOL    HW119826   6.564   2.307   5.137
 6309SOL    HW219827   6.495   2.331   5.284
 6310SOL     OW19828   0.049   5.808   5.331
 6310SOL    HW119829   0.023   5.728   5.385
 6310SOL    HW219830   6.993   5.855   5.299
 6311SOL     OW19831   6.266   6.866   4.807
 6311SOL    HW119832   6.214   6.855   4.892
 6311SOL    HW219833   6.217   6.822   4.732
 6312SOL     OW19834   5.747   3.946   5.738
 6312SOL    HW119835   5.812   3.936   5.663
 6312SOL    HW219836   5.709   4.039   5.736
 6313SOL     OW19837   2.568   5.774   4.035
 6313SOL    HW119838   2.501   5.705   4.006
 6313SOL    HW219839   2.659   5.733   4.040
 6314SOL     OW19840   1.473   0.196   3.247
 6314SOL    HW119841   1.393   0.235   3.200
 6314SOL    HW219842   1.536   0.157   3.180
 6315SOL     OW19843   1.452   3.860   0.787
 6315SOL    HW119844   1.365   3.880   0.742
 6315SOL    HW219845   1.527   3.887   0.727
 6316SOL     OW19846   4.218   1.033   4.503
 6316SOL    HW119847   4.206   1.046   4.602
 6316SOL    HW219848   4.148   1.086   4.455
 6317SOL     OW19849   6.546   6.448   4.024
 6317SOL    HW119850   6.556   6.377   3.954
 6317SOL    HW219851   6.517   6.406   4.110
 6318SOL     OW19852   1.411   2.823   3.705
 6318SOL    HW119853   1.342   2.756   3.732
 6318SOL    HW219854   1.369   2.914   3.702
 6319SOL     OW19855   1.151   2.187   3.012
 6319SOL    HW119856   1.139   2.264   3.075
 6319SOL    HW219857   1.181   2.220   2.923
 6320SOL     OW19858   0.203   2.170   2.066
 6320SOL    HW119859   0.169   2.170   1.971
 6320SOL    HW219860   0.202   2.076   2.101
 6321SOL     OW19861   2.451   4.148   5.570
 6321SOL    HW119862   2.450   4.143   5.670
 6321SOL    HW219863   2.398   4.072   5.532
 6322SOL     OW19864   2.156   6.731   0.221
 6322SOL    HW119865   2.233   6.747   0.283
 6322SOL    HW219866   2.151   6.805   0.154
 6323SOL     OW19867   4.669   1.624   2.036
 6323SOL    HW119868   4.657   1.647   2.133
 6323SOL    HW219869   4.724   1.541   2.028
 6324SOL     OW19870   3.120   1.571   1.627
 6324SOL    HW119871   3.219   1.573   1.642
 6324SOL    HW219872   3.091   1.476   1.610
 6325SOL     OW19873   2.131   3.380   2.868
 6325SOL    HW119874   2.137   3.394   2.967
 6325SOL    HW219875   2.118   3.469   2.823
 6326SOL     OW19876   4.297   6.214   1.738
 6326SOL    HW119877   4.279   6.270   1.819
 6326SOL    HW219878   4.250   6.127   1.748
 6327SOL     OW19879   3.670   5.482   5.144
 6327SOL    HW119880   3.618   5.556   5.102
 6327SOL    HW219881   3.609   5.406   5.166
 6328SOL     OW19882   3.308   4.368   0.565
 6328SOL    HW119883   3.332   4.295   0.630
 6328SOL    HW219884   3.351   4.453   0.595
 6329SOL     OW19885   0.899   2.527   3.300
 6329SOL    HW119886   0.878   2.603   3.361
 6329SOL    HW219887   0.815   2.474   3.283
 6330SOL     OW19888   3.479   0.416   6.816
 6330SOL    HW119889   3.465   0.324   6.854
 6330SOL    HW219890   3.577   0.434   6.809
 6331SOL     OW19891   5.482   2.617   1.700
 6331SOL    HW119892   5.498   2.715   1.692
 6331SOL    HW219893   5.498   2.572   1.612
 6332SOL     OW19894   3.463   6.275   2.277
 6332SOL    HW119895   3.422   6.198   2.229
 6332SOL    HW219896   3.529   6.241   2.345
 6333SOL     OW19897   2.046   5.778   2.433
 6333SOL    HW119898   2.075   5.711   2.365
 6333SOL    HW219899   1.958   5.750   2.472
 6334SOL     OW19900   2.372   0.119   1.622
 6334SOL    HW119901   2.328   0.209   1.631
 6334SOL    HW219902   2.317   0.050   1.669
 6335SOL     OW19903   6.319   0.950   0.170
 6335SOL    HW119904   6.235   0.978   0.217
 6335SOL    HW219905   6.362   1.029   0.128
 6336SOL     OW19906   1.750   2.712   5.274
 6336SOL    HW119907   1.652   2.712   5.254
 6336SOL    HW219908   1.764   2.723   5.372
 6337SOL     OW19909   1.041   4.560   5.227
 6337SOL    HW119910   0.969   4.597   5.169
 6337SOL    HW219911   1.091   4.635   5.271
 6338SOL     OW19912   3.551   1.267   3.994
 6338SOL    HW119913   3.554   1.363   3.967
 6338SOL    HW219914   3.517   1.260   4.087
 6339SOL     OW19915   6.613   2.807   4.594
 6339SOL    HW119916   6.621   2.865   4.675
 6339SOL    HW219917   6.653   2.853   4.515
 6340SOL     OW19918   3.031   5.328   3.722
 6340SOL    HW119919   3.035   5.339   3.821
 6340SOL    HW219920   3.001   5.235   3.700
 6341SOL     OW19921   5.559   4.552   1.781
 6341SOL    HW119922   5.493   4.494   1.733
 6341SOL    HW219923   5.572   4.517   1.874
 6342SOL     OW19924   0.851   3.644   0.257
 6342SOL    HW119925   0.753   3.637   0.278
 6342SOL    HW219926   0.862   3.686   0.167
 6343SOL     OW19927   3.309   1.435   6.902
 6343SOL    HW119928   3.398   1.396   6.878
 6343SOL    HW219929   3.307   1.531   6.876
 6344SOL     OW19930   5.794   5.190   4.093
 6344SOL    HW119931   5.854   5.168   4.016
 6344SOL    HW219932   5.780   5.108   4.149
 6345SOL     OW19933   2.193   2.227   1.125
 6345SOL    HW119934   2.284   2.236   1.166
 6345SOL    HW219935   2.133   2.178   1.188
 6346SOL     OW19936   0.712   4.884   4.507
 6346SOL    HW119937   0.671   4.879   4.598
 6346SOL    HW219938   0.806   4.919   4.515
 6347SOL     OW19939   3.181   0.277   0.100
 6347SOL    HW119940   3.151   0.368   0.070
 6347SOL    HW219941   3.275   0.282   0.133
 6348SOL     OW19942   0.049   2.197   4.565
 6348SOL    HW119943   0.028   2.153   4.478
 6348SOL    HW219944   7.017   2.278   4.577
 6349SOL     OW19945   0.370   0.716   0.044
 6349SOL    HW119946   0.327   0.715   0.135
 6349SOL    HW219947   0.359   0.807   0.003
 6350SOL     OW19948   0.017   5.480   3.542
 6350SOL    HW119949   0.034   5.385   3.567
 6350SOL    HW219950   0.102   5.521   3.509
 6351SOL     OW19951   0.512   2.509   2.514
 6351SOL    HW119952   0.435   2.567   2.490
 6351SOL    HW219953   0.487   2.413   2.502
 6352SOL     OW19954   6.146   4.214   3.070
 6352SOL    HW119955   6.085   4.258   3.004
 6352SOL    HW219956   6.147   4.266   3.155
 6353SOL     OW19957   6.195   7.013   2.263
 6353SOL    HW119958   6.165   0.037   2.182
 6353SOL    HW219959   6.255   0.045   2.317
 6354SOL     OW19960   6.634   6.853   5.140
 6354SOL    HW119961   6.574   6.820   5.213
 6354SOL    HW219962   6.647   6.952   5.150
 6355SOL     OW19963   0.985   1.458   0.643
 6355SOL    HW119964   0.995   1.489   0.738
 6355SOL    HW219965   1.052   1.387   0.624
 6356SOL     OW19966   3.310   3.830   1.427
 6356SOL    HW119967   3.376   3.811   1.354
 6356SOL    HW219968   3.273   3.922   1.415
 6357SOL     OW19969   4.989   1.659   0.566
 6357SOL    HW119970   5.079   1.691   0.596
 6357SOL    HW219971   4.940   1.735   0.522
 6358SOL     OW19972   1.141   2.911   5.336
 6358SOL    HW119973   1.164   2.826   5.289
 6358SOL    HW219974   1.208   2.981   5.313
 6359SOL     OW19975   0.355   0.250   6.102
 6359SOL    HW119976   0.401   0.172   6.145
 6359SOL    HW219977   0.418   0.328   6.098
 6360SOL     OW19978   2.338   5.251   3.922
 6360SOL    HW119979   2.376   5.300   3.843
 6360SOL    HW219980   2.263   5.304   3.962
 6361SOL     OW19981   2.985   6.022   5.499
 6361SOL    HW119982   2.903   6.003   5.444
 6361SOL    HW219983   2.959   6.076   5.579
 6362SOL     OW19984   6.548   4.561   5.782
 6362SOL    HW119985   6.464   4.612   5.803
 6362SOL    HW219986   6.608   4.561   5.862
 6363SOL     OW19987   1.039   5.643   3.326
 6363SOL    HW119988   1.118   5.656   3.266
 6363SOL    HW219989   0.995   5.731   3.344
 6364SOL     OW19990   2.543   1.554   6.898
 6364SOL    HW119991   2.643   1.551   6.896
 6364SOL    HW219992   2.511   1.635   6.850
 6365SOL     OW19993   3.985   6.027   2.214
 6365SOL    HW119994   3.887   6.020   2.197
 6365SOL    HW219995   4.024   5.935   2.220
 6366SOL     OW19996   0.887   4.161   4.954
 6366SOL    HW119997   0.957   4.091   4.965
 6366SOL    HW219998   0.929   4.246   4.924
 6367SOL     OW19999   5.038   5.335   2.280
 6367SOL    HW120000   5.015   5.282   2.362
 6367SOL    HW220001   5.134   5.363   2.284
 6368SOL     OW20002   2.604   1.531   2.019
 6368SOL    HW120003   2.632   1.562   2.110
 6368SOL    HW220004   2.626   1.601   1.952
 6369SOL     OW20005   2.399   6.020   5.164
 6369SOL    HW120006   2.354   5.994   5.249
 6369SOL    HW220007   2.435   6.113   5.173
 6370SOL     OW20008   5.065   2.161   2.534
 6370SOL    HW120009   4.998   2.234   2.543
 6370SOL    HW220010   5.152   2.190   2.575
 6371SOL     OW20011   4.278   1.652   3.410
 6371SOL    HW120012   4.374   1.643   3.381
 6371SOL    HW220013   4.232   1.719   3.353
 6372SOL     OW20014   2.791   0.159   2.914
 6372SOL    HW120015   2.732   0.232   2.879
 6372SOL    HW220016   2.837   0.113   2.838
 6373SOL     OW20017   3.284   4.745   7.018
 6373SOL    HW120018   3.324   4.833   0.019
 6373SOL    HW220019   3.216   4.717   0.060
 6374SOL     OW20020   3.042   3.377   4.895
 6374SOL    HW120021   3.118   3.433   4.926
 6374SOL    HW220022   2.956   3.416   4.927
 6375SOL     OW20023   2.078   5.771   1.566
 6375SOL    HW120024   1.994   5.762   1.511
 6375SOL    HW220025   2.060   5.830   1.644
 6376SOL     OW20026   1.262   1.151   5.721
 6376SOL    HW120027   1.350   1.190   5.749
 6376SOL    HW220028   1.193   1.224   5.715
 6377SOL     OW20029   0.516   2.678   3.524
 6377SOL    HW120030   0.456   2.735   3.467
 6377SOL    HW220031   0.486   2.583   3.519
 6378SOL     OW20032   4.077   5.251   3.880
 6378SOL    HW120033   4.121   5.316   3.818
 6378SOL    HW220034   4.123   5.253   3.969
 6379SOL     OW20035   1.974   4.168   1.992
 6379SOL    HW120036   2.015   4.167   1.901
 6379SOL    HW220037   2.025   4.232   2.050
 6380SOL     OW20038   0.724   0.248   6.252
 6380SOL    HW120039   0.804   0.205   6.294
 6380SOL    HW220040   0.743   0.269   6.157
 6381SOL     OW20041   4.021   3.293   3.238
 6381SOL    HW120042   3.928   3.259   3.252
 6381SOL    HW220043   4.077   3.222   3.195
 6382SOL     OW20044   1.207   4.354   5.263
 6382SOL    HW120045   1.294   4.379   5.221
 6382SOL    HW220046   1.139   4.424   5.243
 6383SOL     OW20047   4.043   1.485   3.890
 6383SOL    HW120048   4.004   1.492   3.982
 6383SOL    HW220049   4.126   1.541   3.885
 6384SOL     OW20050   6.559   4.545   2.008
 6384SOL    HW120051   6.600   4.456   2.028
 6384SOL    HW220052   6.562   4.562   1.910
 6385SOL     OW20053   0.751   5.622   5.438
 6385SOL    HW120054   0.784   5.538   5.396
 6385SOL    HW220055   0.815   5.696   5.419
 6386SOL     OW20056   2.074   5.633   2.696
 6386SOL    HW120057   2.045   5.726   2.677
 6386SOL    HW220058   2.007   5.587   2.754
 6387SOL     OW20059   5.636   1.713   5.209
 6387SOL    HW120060   5.590   1.743   5.292
 6387SOL    HW220061   5.588   1.633   5.172
 6388SOL     OW20062   2.422   5.375   1.585
 6388SOL    HW120063   2.512   5.407   1.557
 6388SOL    HW220064   2.388   5.432   1.660
 6389SOL     OW20065   1.791   3.750   0.990
 6389SOL    HW120066   1.834   3.664   0.964
 6389SOL    HW220067   1.842   3.792   1.065
 6390SOL     OW20068   0.626   3.331   4.867
 6390SOL    HW120069   0.722   3.354   4.883
 6390SOL    HW220070   0.604   3.244   4.912
 6391SOL     OW20071   4.241   0.612   0.348
 6391SOL    HW120072   4.171   0.641   0.413
 6391SOL    HW220073   4.307   0.553   0.394
 6392SOL     OW20074   1.245   5.806   4.532
 6392SOL    HW120075   1.251   5.708   4.513
 6392SOL    HW220076   1.289   5.825   4.620
 6393SOL     OW20077   5.131   1.610   6.364
 6393SOL    HW120078   5.057   1.677   6.369
 6393SOL    HW220079   5.125   1.548   6.443
 6394SOL     OW20080   3.569   5.566   2.703
 6394SOL    HW120081   3.494   5.557   2.768
 6394SOL    HW220082   3.655   5.543   2.748
 6395SOL     OW20083   5.475   1.669   6.841
 6395SOL    HW120084   5.544   1.738   6.823
 6395SOL    HW220085   5.386   1.701   6.809
 6396SOL     OW20086   6.810   1.846   6.646
 6396SOL    HW120087   6.813   1.904   6.728
 6396SOL    HW220088   6.783   1.901   6.567
 6397SOL     OW20089   0.079   0.136   0.312
 6397SOL    HW120090   0.053   0.135   0.215
 6397SOL    HW220091   0.031   0.062   0.359
 6398SOL     OW20092   4.726   0.976   1.715
 6398SOL    HW120093   4.670   1.018   1.786
 6398SOL    HW220094   4.822   0.975   1.744
 6399SOL     OW20095   0.891   6.754   6.727
 6399SOL    HW120096   0.961   6.690   6.756
 6399SOL    HW220097   0.823   6.707   6.671
 6400SOL     OW20098   3.044   5.220   4.891
 6400SOL    HW120099   3.076   5.176   4.975
 6400SOL    HW220100   2.949   5.192   4.874
 6401SOL     OW20101   6.665   5.081   5.539
 6401SOL    HW120102   6.574   5.040   5.535
 6401SOL    HW220103   6.731   5.021   5.493
 6402SOL     OW20104   2.245   4.073   2.996
 6402SOL    HW120105   2.154   4.098   2.963
 6402SOL    HW220106   2.303   4.155   3.001
 6403SOL     OW20107   0.313   6.294   2.086
 6403SOL    HW120108   0.395   6.351   2.081
 6403SOL    HW220109   0.238   6.348   2.124
 6404SOL     OW20110   5.256   0.209   1.824
 6404SOL    HW120111   5.341   0.170   1.858
 6404SOL    HW220112   5.275   0.296   1.779
 6405SOL     OW20113   3.541   5.789   2.093
 6405SOL    HW120114   3.463   5.807   2.033
 6405SOL    HW220115   3.509   5.750   2.179
 6406SOL     OW20116   2.264   2.514   3.298
 6406SOL    HW120117   2.293   2.563   3.380
 6406SOL    HW220118   2.333   2.446   3.273
 6407SOL     OW20119   5.395   6.361   0.491
 6407SOL    HW120120   5.493   6.345   0.504
 6407SOL    HW220121   5.350   6.276   0.467
 6408SOL     OW20122   6.854   1.827   1.030
 6408SOL    HW120123   6.822   1.917   1.000
 6408SOL    HW220124   6.914   1.837   1.109
 6409SOL     OW20125   0.479   5.112   1.551
 6409SOL    HW120126   0.397   5.099   1.495
 6409SOL    HW220127   0.533   5.188   1.515
 6410SOL     OW20128   6.907   6.835   0.819
 6410SOL    HW120129   6.856   6.796   0.742
 6410SOL    HW220130   6.928   6.931   0.799
 6411SOL     OW20131   1.697   1.660   3.112
 6411SOL    HW120132   1.790   1.674   3.077
 6411SOL    HW220133   1.636   1.729   3.074
 6412SOL     OW20134   6.316   2.552   4.817
 6412SOL    HW120135   6.343   2.613   4.892
 6412SOL    HW220136   6.217   2.557   4.804
 6413SOL     OW20137   0.005   5.448   1.163
 6413SOL    HW120138   6.991   5.523   1.216
 6413SOL    HW220139   6.970   5.368   1.168
 6414SOL     OW20140   6.740   0.350   3.744
 6414SOL    HW120141   6.729   0.284   3.819
 6414SOL    HW220142   6.688   0.433   3.764
 6415SOL     OW20143   1.410   1.854   2.429
 6415SOL    HW120144   1.348   1.776   2.424
 6415SOL    HW220145   1.467   1.846   2.511
 6416SOL     OW20146   3.091   6.136   6.427
 6416SOL    HW120147   3.155   6.184   6.488
 6416SOL    HW220148   3.006   6.188   6.420
 6417SOL     OW20149   0.047   6.510   4.090
 6417SOL    HW120150   0.110   6.434   4.102
 6417SOL    HW220151   7.024   6.527   4.176
 6418SOL     OW20152   6.682   5.164   1.964
 6418SOL    HW120153   6.639   5.080   1.996
 6418SOL    HW220154   6.712   5.152   1.869
 6419SOL     OW20155   3.213   2.186   1.144
 6419SOL    HW120156   3.170   2.116   1.200
 6419SOL    HW220157   3.303   2.209   1.183
 6420SOL     OW20158   0.873   2.032   0.025
 6420SOL    HW120159   0.862   2.094   6.973
 6420SOL    HW220160   0.783   2.008   0.061
 6421SOL     OW20161   5.836   1.730   0.696
 6421SOL    HW120162   5.915   1.714   0.755
 6421SOL    HW220163   5.816   1.648   0.643
 6422SOL     OW20164   5.637   2.706   3.136
 6422SOL    HW120165   5.647   2.622   3.084
 6422SOL    HW220166   5.714   2.767   3.118
 6423SOL     OW20167   5.791   3.689   0.547
 6423SOL    HW120168   5.764   3.641   0.464
 6423SOL    HW220169   5.757   3.640   0.627
 6424SOL     OW20170   6.656   3.527   4.936
 6424SOL    HW120171   6.564   3.496   4.961
 6424SOL    HW220172   6.676   3.612   4.985
 6425SOL     OW20173   0.937   5.521   1.283
 6425SOL    HW120174   0.851   5.517   1.234
 6425SOL    HW220175   0.940   5.605   1.338
 6426SOL     OW20176   6.571   4.166   3.463
 6426SOL    HW120177   6.626   4.249   3.457
 6426SOL    HW220178   6.624   4.093   3.506
 6427SOL     OW20179   1.159   3.639   5.814
 6427SOL    HW120180   1.119   3.711   5.758
 6427SOL    HW220181   1.231   3.593   5.762
 6428SOL     OW20182   6.516   3.872   5.852
 6428SOL    HW120183   6.445   3.835   5.792
 6428SOL    HW220184   6.542   3.963   5.822
 6429SOL     OW20185   1.499   0.175   4.579
 6429SOL    HW120186   1.405   0.204   4.564
 6429SOL    HW220187   1.531   0.211   4.667
 6430SOL     OW20188   6.299   3.444   6.761
 6430SOL    HW120189   6.382   3.486   6.799
 6430SOL    HW220190   6.279   3.484   6.672
 6431SOL     OW20191   5.335   1.585   2.136
 6431SOL    HW120192   5.326   1.489   2.164
 6431SOL    HW220193   5.371   1.639   2.213
 6432SOL     OW20194   6.474   3.998   0.829
 6432SOL    HW120195   6.470   3.951   0.741
 6432SOL    HW220196   6.387   4.044   0.846
 6433SOL     OW20197   2.080   3.389   1.748
 6433SOL    HW120198   2.078   3.405   1.650
 6433SOL    HW220199   2.171   3.412   1.784
 6434SOL     OW20200   1.482   6.088   0.612
 6434SOL    HW120201   1.446   5.996   0.600
 6434SOL    HW220202   1.478   6.136   0.524
 6435SOL     OW20203   6.046   3.568   0.501
 6435SOL    HW120204   5.964   3.624   0.513
 6435SOL    HW220205   6.020   3.477   0.468
 6436SOL     OW20206   3.321   2.183   0.797
 6436SOL    HW120207   3.402   2.193   0.854
 6436SOL    HW220208   3.249   2.245   0.828
 6437SOL     OW20209   6.720   0.962   2.416
 6437SOL    HW120210   6.658   1.041   2.409
 6437SOL    HW220211   6.807   0.984   2.372
 6438SOL     OW20212   0.784   4.223   4.500
 6438SOL    HW120213   0.721   4.161   4.547
 6438SOL    HW220214   0.820   4.290   4.566
 6439SOL     OW20215   0.127   5.711   2.694
 6439SOL    HW120216   0.046   5.759   2.728
 6439SOL    HW220217   0.142   5.735   2.598
 6440SOL     OW20218   0.385   0.757   2.016
 6440SOL    HW120219   0.309   0.797   2.067
 6440SOL    HW220220   0.455   0.724   2.080
 6441SOL     OW20221   5.160   2.305   3.225
 6441SOL    HW120222   5.124   2.397   3.243
 6441SOL    HW220223   5.134   2.244   3.300
 6442SOL     OW20224   1.298   2.205   3.829
 6442SOL    HW120225   1.215   2.151   3.839
 6442SOL    HW220226   1.359   2.160   3.764
 6443SOL     OW20227   2.583   1.116   0.712
 6443SOL    HW120228   2.573   1.215   0.697
 6443SOL    HW220229   2.508   1.068   0.667
 6444SOL     OW20230   0.632   1.745   2.933
 6444SOL    HW120231   0.666   1.833   2.967
 6444SOL    HW220232   0.588   1.695   3.007
 6445SOL     OW20233   3.815   4.215   6.461
 6445SOL    HW120234   3.777   4.292   6.513
 6445SOL    HW220235   3.754   4.136   6.470
 6446SOL     OW20236   0.571   1.171   1.120
 6446SOL    HW120237   0.562   1.081   1.163
 6446SOL    HW220238   0.650   1.171   1.059
 6447SOL     OW20239   1.675   1.248   3.659
 6447SOL    HW120240   1.701   1.263   3.564
 6447SOL    HW220241   1.628   1.329   3.694
 6448SOL     OW20242   6.166   1.889   2.087
 6448SOL    HW120243   6.096   1.860   2.153
 6448SOL    HW220244   6.243   1.826   2.091
 6449SOL     OW20245   4.415   2.396   0.302
 6449SOL    HW120246   4.450   2.451   0.378
 6449SOL    HW220247   4.391   2.457   0.226
 6450SOL     OW20248   6.411   2.362   0.418
 6450SOL    HW120249   6.323   2.410   0.425
 6450SOL    HW220250   6.485   2.429   0.414
 6451SOL     OW20251   3.124   6.402   4.815
 6451SOL    HW120252   3.215   6.414   4.855
 6451SOL    HW220253   3.055   6.402   4.888
 6452SOL     OW20254   3.533   6.085   4.799
 6452SOL    HW120255   3.570   6.144   4.727
 6452SOL    HW220256   3.602   6.019   4.827
 6453SOL     OW20257   2.746   5.003   6.993
 6453SOL    HW120258   2.714   4.920   0.012
 6453SOL    HW220259   2.839   4.988   6.957
 6454SOL     OW20260   3.829   0.876   5.200
 6454SOL    HW120261   3.922   0.898   5.229
 6454SOL    HW220262   3.776   0.960   5.192
 6455SOL     OW20263   5.882   3.080   0.244
 6455SOL    HW120264   5.929   3.071   0.157
 6455SOL    HW220265   5.788   3.111   0.229
 6456SOL     OW20266   6.457   2.124   4.223
 6456SOL    HW120267   6.440   2.173   4.309
 6456SOL    HW220268   6.416   2.176   4.148
 6457SOL     OW20269   6.024   3.190   1.387
 6457SOL    HW120270   6.021   3.110   1.448
 6457SOL    HW220271   5.966   3.174   1.308
 6458SOL     OW20272   1.089   5.676   3.991
 6458SOL    HW120273   1.161   5.608   4.003
 6458SOL    HW220274   1.005   5.630   3.961
 6459SOL     OW20275   5.907   3.871   6.945
 6459SOL    HW120276   5.917   3.892   6.847
 6459SOL    HW220277   5.873   3.952   6.993
 6460SOL     OW20278   3.843   5.424   2.158
 6460SOL    HW120279   3.936   5.422   2.121
 6460SOL    HW220280   3.777   5.433   2.083
 6461SOL     OW20281   3.279   5.825   4.396
 6461SOL    HW120282   3.221   5.900   4.427
 6461SOL    HW220283   3.339   5.797   4.471
 6462SOL     OW20284   1.992   4.561   2.519
 6462SOL    HW120285   1.971   4.659   2.511
 6462SOL    HW220286   2.091   4.549   2.527
 6463SOL     OW20287   2.638   2.939   5.635
 6463SOL    HW120288   2.589   2.928   5.549
 6463SOL    HW220289   2.588   2.895   5.709
 6464SOL     OW20290   0.784   5.720   1.866
 6464SOL    HW120291   0.721   5.742   1.941
 6464SOL    HW220292   0.786   5.796   1.801
 6465SOL     OW20293   6.242   0.127   3.110
 6465SOL    HW120294   6.271   0.132   3.206
 6465SOL    HW220295   6.305   0.068   3.060
 6466SOL     OW20296   6.586   3.034   4.767
 6466SOL    HW120297   6.643   3.037   4.849
 6466SOL    HW220298   6.516   3.105   4.773
 6467SOL     OW20299   3.930   0.338   5.721
 6467SOL    HW120300   3.895   0.415   5.666
 6467SOL    HW220301   3.892   0.343   5.813
 6468SOL     OW20302   6.332   4.913   2.770
 6468SOL    HW120303   6.414   4.952   2.730
 6468SOL    HW220304   6.258   4.913   2.702
 6469SOL     OW20305   6.844   2.669   6.072
 6469SOL    HW120306   6.872   2.574   6.084
 6469SOL    HW220307   6.872   2.701   5.982
 6470SOL     OW20308   6.483   6.558   4.748
 6470SOL    HW120309   6.450   6.612   4.671
 6470SOL    HW220310   6.506   6.618   4.824
 6471SOL     OW20311   6.582   6.486   5.237
 6471SOL    HW120312   6.496   6.527   5.207
 6471SOL    HW220313   6.626   6.546   5.303
 6472SOL     OW20314   1.697   0.095   1.783
 6472SOL    HW120315   1.598   0.097   1.785
 6472SOL    HW220316   1.730   0.140   1.700
 6473SOL     OW20317   2.239   1.707   5.798
 6473SOL    HW120318   2.332   1.736   5.776
 6473SOL    HW220319   2.178   1.732   5.722
 6474SOL     OW20320   1.747   2.951   6.608
 6474SOL    HW120321   1.713   3.018   6.674
 6474SOL    HW220322   1.670   2.908   6.561
 6475SOL     OW20323   4.251   5.006   3.750
 6475SOL    HW120324   4.279   5.018   3.655
 6475SOL    HW220325   4.153   5.024   3.759
 6476SOL     OW20326   4.769   6.041   3.396
 6476SOL    HW120327   4.841   5.992   3.347
 6476SOL    HW220328   4.746   5.992   3.480
 6477SOL     OW20329   6.680   5.543   0.453
 6477SOL    HW120330   6.717   5.489   0.379
 6477SOL    HW220331   6.655   5.634   0.419
 6478SOL     OW20332   4.518   6.310   0.727
 6478SOL    HW120333   4.585   6.358   0.784
 6478SOL    HW220334   4.459   6.253   0.785
 6479SOL     OW20335   2.935   6.077   2.270
 6479SOL    HW120336   2.986   6.154   2.231
 6479SOL    HW220337   2.987   6.039   2.347
 6480SOL     OW20338   2.351   1.568   0.770
 6480SOL    HW120339   2.397   1.523   0.847
 6480SOL    HW220340   2.419   1.614   0.713
 6481SOL     OW20341   4.523   0.859   0.854
 6481SOL    HW120342   4.514   0.904   0.765
 6481SOL    HW220343   4.620   0.856   0.880
 6482SOL     OW20344   6.866   6.914   5.545
 6482SOL    HW120345   6.770   6.926   5.569
 6482SOL    HW220346   6.918   6.890   5.627
 6483SOL     OW20347   1.219   5.442   1.026
 6483SOL    HW120348   1.282   5.505   1.073
 6483SOL    HW220349   1.233   5.349   1.060
 6484SOL     OW20350   3.940   0.262   2.572
 6484SOL    HW120351   4.007   0.256   2.498
 6484SOL    HW220352   3.922   0.359   2.592
 6485SOL     OW20353   6.960   2.392   2.201
 6485SOL    HW120354   0.033   2.394   2.191
 6485SOL    HW220355   6.917   2.432   2.120
 6486SOL     OW20356   1.535   3.067   2.798
 6486SOL    HW120357   1.620   3.107   2.830
 6486SOL    HW220358   1.464   3.077   2.868
 6487SOL     OW20359   6.455   5.318   2.770
 6487SOL    HW120360   6.401   5.239   2.739
 6487SOL    HW220361   6.439   5.333   2.867
 6488SOL     OW20362   3.491   5.122   4.286
 6488SOL    HW120363   3.416   5.165   4.337
 6488SOL    HW220364   3.570   5.109   4.347
 6489SOL     OW20365   2.817   0.814   6.774
 6489SOL    HW120366   2.881   0.810   6.850
 6489SOL    HW220367   2.819   0.906   6.734
 6490SOL     OW20368   4.053   0.957   6.869
 6490SOL    HW120369   3.966   0.947   6.820
 6490SOL    HW220370   4.035   0.985   6.963
 6491SOL     OW20371   4.924   0.771   5.548
 6491SOL    HW120372   4.849   0.808   5.603
 6491SOL    HW220373   5.011   0.805   5.583
 6492SOL     OW20374   5.740   4.923   6.402
 6492SOL    HW120375   5.641   4.913   6.414
 6492SOL    HW220376   5.762   5.019   6.386
 6493SOL     OW20377   6.788   6.246   5.137
 6493SOL    HW120378   6.764   6.263   5.232
 6493SOL    HW220379   6.732   6.303   5.077
 6494SOL     OW20380   0.084   3.125   2.835
 6494SOL    HW120381   0.122   3.217   2.830
 6494SOL    HW220382   0.115   3.080   2.919
 6495SOL     OW20383   5.559   4.670   2.208
 6495SOL    HW120384   5.655   4.696   2.192
 6495SOL    HW220385   5.524   4.623   2.127
 6496SOL     OW20386   6.747   6.870   3.416
 6496SOL    HW120387   6.673   6.806   3.437
 6496SOL    HW220388   6.787   6.902   3.502
 6497SOL     OW20389   1.104   0.571   0.959
 6497SOL    HW120390   1.181   0.636   0.962
 6497SOL    HW220391   1.120   0.498   1.025
 6498SOL     OW20392   1.193   3.314   4.486
 6498SOL    HW120393   1.278   3.270   4.458
 6498SOL    HW220394   1.208   3.413   4.493
 6499SOL     OW20395   5.977   1.559   2.880
 6499SOL    HW120396   6.028   1.625   2.936
 6499SOL    HW220397   5.948   1.482   2.937
 6500SOL     OW20398   5.511   5.099   2.093
 6500SOL    HW120399   5.414   5.123   2.099
 6500SOL    HW220400   5.520   5.011   2.048
 6501SOL     OW20401   6.606   4.211   0.583
 6501SOL    HW120402   6.664   4.130   0.580
 6501SOL    HW220403   6.517   4.190   0.542
 6502SOL     OW20404   0.242   5.145   2.128
 6502SOL    HW120405   0.202   5.194   2.051
 6502SOL    HW220406   0.193   5.059   2.142
 6503SOL     OW20407   3.925   0.173   3.995
 6503SOL    HW120408   3.838   0.221   3.986
 6503SOL    HW220409   3.955   0.141   3.905
 6504SOL     OW20410   2.403   2.688   0.448
 6504SOL    HW120411   2.462   2.769   0.448
 6504SOL    HW220412   2.444   2.617   0.392
 6505SOL     OW20413   5.506   5.041   0.841
 6505SOL    HW120414   5.584   5.076   0.790
 6505SOL    HW220415   5.455   5.116   0.882
 6506SOL     OW20416   2.359   1.389   1.927
 6506SOL    HW120417   2.364   1.381   1.827
 6506SOL    HW220418   2.444   1.429   1.962
 6507SOL     OW20419   2.956   0.495   1.596
 6507SOL    HW120420   3.012   0.415   1.576
 6507SOL    HW220421   2.863   0.479   1.562
 6508SOL     OW20422   1.141   3.237   1.853
 6508SOL    HW120423   1.041   3.231   1.858
 6508SOL    HW220424   1.167   3.304   1.783
 6509SOL     OW20425   1.168   2.869   3.886
 6509SOL    HW120426   1.228   2.931   3.834
 6509SOL    HW220427   1.223   2.817   3.951
 6510SOL     OW20428   6.175   4.043   6.701
 6510SOL    HW120429   6.253   3.983   6.719
 6510SOL    HW220430   6.165   4.057   6.603
 6511SOL     OW20431   6.703   6.902   5.974
 6511SOL    HW120432   6.624   6.851   5.940
 6511SOL    HW220433   6.686   7.000   5.965
 6512SOL     OW20434   5.179   6.288   4.336
 6512SOL    HW120435   5.229   6.329   4.260
 6512SOL    HW220436   5.217   6.320   4.422
 6513SOL     OW20437   1.244   7.020   3.565
 6513SOL    HW120438   1.236   6.925   3.594
 6513SOL    HW220439   1.272   7.025   3.469
 6514SOL     OW20440   2.615   0.847   3.995
 6514SOL    HW120441   2.563   0.796   4.064
 6514SOL    HW220442   2.636   0.786   3.918
 6515SOL     OW20443   1.233   1.044   3.608
 6515SOL    HW120444   1.261   0.987   3.686
 6515SOL    HW220445   1.203   1.133   3.641
 6516SOL     OW20446   2.452   1.655   5.572
 6516SOL    HW120447   2.536   1.710   5.574
 6516SOL    HW220448   2.397   1.680   5.492
 6517SOL     OW20449   3.494   2.300   0.955
 6517SOL    HW120450   3.462   2.394   0.941
 6517SOL    HW220451   3.523   2.288   1.049
 6518SOL     OW20452   5.056   6.282   1.799
 6518SOL    HW120453   5.015   6.192   1.814
 6518SOL    HW220454   5.065   6.299   1.701
 6519SOL     OW20455   0.575   2.080   3.841
 6519SOL    HW120456   0.505   2.008   3.845
 6519SOL    HW220457   0.532   2.169   3.827
 6520SOL     OW20458   5.935   4.987   1.381
 6520SOL    HW120459   5.849   5.027   1.413
 6520SOL    HW220460   5.937   4.987   1.281
 6521SOL     OW20461   1.402   2.299   6.106
 6521SOL    HW120462   1.469   2.365   6.141
 6521SOL    HW220463   1.445   2.209   6.097
 6522SOL     OW20464   2.357   4.917   4.181
 6522SOL    HW120465   2.422   4.963   4.241
 6522SOL    HW220466   2.401   4.837   4.140
 6523SOL     OW20467   2.701   2.503   1.029
 6523SOL    HW120468   2.616   2.544   0.995
 6523SOL    HW220469   2.773   2.572   1.032
 6524SOL     OW20470   4.166   2.210   5.333
 6524SOL    HW120471   4.190   2.115   5.317
 6524SOL    HW220472   4.075   2.228   5.297
 6525SOL     OW20473   0.436   2.465   4.838
 6525SOL    HW120474   0.513   2.524   4.861
 6525SOL    HW220475   0.378   2.453   4.918
 6526SOL     OW20476   1.671   6.266   2.832
 6526SOL    HW120477   1.597   6.203   2.810
 6526SOL    HW220478   1.636   6.342   2.886
 6527SOL     OW20479   1.773   1.287   4.684
 6527SOL    HW120480   1.848   1.265   4.745
 6527SOL    HW220481   1.724   1.203   4.659
 6528SOL     OW20482   6.781   0.483   2.872
 6528SOL    HW120483   6.729   0.518   2.793
 6528SOL    HW220484   6.752   0.530   2.955
 6529SOL     OW20485   6.077   3.224   2.346
 6529SOL    HW120486   6.043   3.318   2.356
 6529SOL    HW220487   6.086   3.202   2.249
 6530SOL     OW20488   0.234   1.017   0.290
 6530SOL    HW120489   0.318   1.039   0.240
 6530SOL    HW220490   0.155   1.032   0.230
 6531SOL     OW20491   4.974   2.181   5.832
 6531SOL    HW120492   4.961   2.084   5.813
 6531SOL    HW220493   5.045   2.193   5.902
 6532SOL     OW20494   1.785   1.106   6.557
 6532SOL    HW120495   1.691   1.097   6.589
 6532SOL    HW220496   1.845   1.123   6.635
 6533SOL     OW20497   5.214   0.848   6.977
 6533SOL    HW120498   5.252   0.756   6.986
 6533SOL    HW220499   5.288   0.915   6.981
 6534SOL     OW20500   4.087   2.341   0.044
 6534SOL    HW120501   4.045   2.264   7.021
 6534SOL    HW220502   4.178   2.358   0.006
 6535SOL     OW20503   1.581   2.286   4.532
 6535SOL    HW120504   1.647   2.214   4.511
 6535SOL    HW220505   1.549   2.328   4.447
 6536SOL     OW20506   0.682   1.487   0.853
 6536SOL    HW120507   0.635   1.425   0.790
 6536SOL    HW220508   0.630   1.494   0.938
 6537SOL     OW20509   0.029   0.992   5.998
 6537SOL    HW120510   0.089   1.056   5.948
 6537SOL    HW220511   6.963   1.031   6.004
 6538SOL     OW20512   3.136   2.630   5.517
 6538SOL    HW120513   3.230   2.597   5.510
 6538SOL    HW220514   3.074   2.562   5.480
 6539SOL     OW20515   3.186   1.241   6.363
 6539SOL    HW120516   3.112   1.308   6.352
 6539SOL    HW220517   3.233   1.258   6.450
 6540SOL     OW20518   3.850   2.159   3.406
 6540SOL    HW120519   3.876   2.230   3.340
 6540SOL    HW220520   3.878   2.070   3.372
 6541SOL     OW20521   3.072   1.753   5.288
 6541SOL    HW120522   3.142   1.687   5.261
 6541SOL    HW220523   3.081   1.835   5.232
 6542SOL     OW20524   4.203   5.184   2.665
 6542SOL    HW120525   4.156   5.161   2.750
 6542SOL    HW220526   4.269   5.112   2.644
 6543SOL     OW20527   1.464   6.262   6.318
 6543SOL    HW120528   1.549   6.209   6.314
 6543SOL    HW220529   1.435   6.284   6.225
 6544SOL     OW20530   0.826   5.006   2.733
 6544SOL    HW120531   0.779   5.075   2.788
 6544SOL    HW220532   0.796   4.915   2.762
 6545SOL     OW20533   6.176   2.229   6.652
 6545SOL    HW120534   6.189   2.328   6.658
 6545SOL    HW220535   6.078   2.208   6.653
 6546SOL     OW20536   3.312   4.672   6.420
 6546SOL    HW120537   3.361   4.735   6.359
 6546SOL    HW220538   3.278   4.722   6.499
 6547SOL     OW20539   4.299   1.094   6.283
 6547SOL    HW120540   4.247   1.011   6.262
 6547SOL    HW220541   4.345   1.126   6.200
 6548SOL     OW20542   4.671   3.757   5.679
 6548SOL    HW120543   4.734   3.684   5.704
 6548SOL    HW220544   4.659   3.760   5.580
 6549SOL     OW20545   2.565   1.885   2.326
 6549SOL    HW120546   2.530   1.910   2.235
 6549SOL    HW220547   2.665   1.885   2.324
 6550SOL     OW20548   0.715   6.093   2.110
 6550SOL    HW120549   0.627   6.114   2.153
 6550SOL    HW220550   0.708   6.104   2.011
 6551SOL     OW20551   3.422   5.158   2.072
 6551SOL    HW120552   3.463   5.132   1.984
 6551SOL    HW220553   3.416   5.077   2.130
 6552SOL     OW20554   4.789   4.612   5.977
 6552SOL    HW120555   4.741   4.526   5.957
 6552SOL    HW220556   4.822   4.653   5.892
 6553SOL     OW20557   6.247   3.618   2.921
 6553SOL    HW120558   6.233   3.556   2.844
 6553SOL    HW220559   6.206   3.578   3.003
 6554SOL     OW20560   6.649   3.171   4.304
 6554SOL    HW120561   6.619   3.115   4.226
 6554SOL    HW220562   6.749   3.167   4.310
 6555SOL     OW20563   0.484   0.886   1.356
 6555SOL    HW120564   0.513   0.923   1.445
 6555SOL    HW220565   0.384   0.895   1.348
 6556SOL     OW20566   2.660   6.854   3.280
 6556SOL    HW120567   2.734   6.814   3.334
 6556SOL    HW220568   2.577   6.858   3.336
 6557SOL     OW20569   4.865   6.250   0.504
 6557SOL    HW120570   4.807   6.169   0.510
 6557SOL    HW220571   4.874   6.278   0.408
 6558SOL     OW20572   5.942   6.722   6.334
 6558SOL    HW120573   6.010   6.652   6.356
 6558SOL    HW220574   5.873   6.684   6.273
 6559SOL     OW20575   3.193   3.999   0.882
 6559SOL    HW120576   3.146   3.919   0.920
 6559SOL    HW220577   3.226   3.977   0.790
 6560SOL     OW20578   4.630   1.768   1.202
 6560SOL    HW120579   4.581   1.843   1.156
 6560SOL    HW220580   4.685   1.805   1.277
 6561SOL     OW20581   3.289   3.499   4.988
 6561SOL    HW120582   3.340   3.413   4.994
 6561SOL    HW220583   3.290   3.544   5.077
 6562SOL     OW20584   0.001   4.630   4.851
 6562SOL    HW120585   0.000   4.608   4.949
 6562SOL    HW220586   0.018   4.546   4.799
 6563SOL     OW20587   0.693   6.390   2.442
 6563SOL    HW120588   0.711   6.378   2.345
 6563SOL    HW220589   0.757   6.335   2.495
 6564SOL     OW20590   2.088   5.098   2.928
 6564SOL    HW120591   2.124   5.191   2.924
 6564SOL    HW220592   2.119   5.054   3.013
 6565SOL     OW20593   0.128   3.628   5.405
 6565SOL    HW120594   0.133   3.722   5.440
 6565SOL    HW220595   0.124   3.565   5.482
 6566SOL     OW20596   4.439   1.334   0.695
 6566SOL    HW120597   4.412   1.429   0.677
 6566SOL    HW220598   4.525   1.333   0.745
 6567SOL     OW20599   6.850   2.538   0.654
 6567SOL    HW120600   6.880   2.465   0.592
 6567SOL    HW220601   6.760   2.516   0.690
 6568SOL     OW20602   5.472   3.055   1.471
 6568SOL    HW120603   5.469   3.047   1.571
 6568SOL    HW220604   5.453   3.149   1.444
 6569SOL     OW20605   1.215   4.702   5.864
 6569SOL    HW120606   1.240   4.701   5.961
 6569SOL    HW220607   1.206   4.797   5.833
 6570SOL     OW20608   0.661   3.826   2.049
 6570SOL    HW120609   0.668   3.858   2.144
 6570SOL    HW220610   0.576   3.861   2.009
 6571SOL     OW20611   2.148   5.481   4.778
 6571SOL    HW120612   2.224   5.437   4.827
 6571SOL    HW220613   2.158   5.580   4.783
 6572SOL     OW20614   1.571   3.456   5.214
 6572SOL    HW120615   1.634   3.525   5.249
 6572SOL    HW220616   1.621   3.370   5.201
 6573SOL     OW20617   1.316   2.168   1.327
 6573SOL    HW120618   1.406   2.161   1.371
 6573SOL    HW220619   1.260   2.089   1.355
 6574SOL     OW20620   1.942   4.981   4.457
 6574SOL    HW120621   2.039   4.971   4.434
 6574SOL    HW220622   1.927   4.948   4.550
 6575SOL     OW20623   1.450   1.270   2.333
 6575SOL    HW120624   1.399   1.226   2.259
 6575SOL    HW220625   1.387   1.310   2.398
 6576SOL     OW20626   0.184   5.432   4.331
 6576SOL    HW120627   0.232   5.463   4.249
 6576SOL    HW220628   0.206   5.494   4.407
 6577SOL     OW20629   1.003   4.254   5.806
 6577SOL    HW120630   0.976   4.206   5.722
 6577SOL    HW220631   1.049   4.190   5.868
 6578SOL     OW20632   5.482   6.183   4.660
 6578SOL    HW120633   5.550   6.194   4.587
 6578SOL    HW220634   5.462   6.272   4.700
 6579SOL     OW20635   0.701   4.196   4.220
 6579SOL    HW120636   0.675   4.240   4.306
 6579SOL    HW220637   0.733   4.103   4.239
 6580SOL     OW20638   5.335   2.540   1.069
 6580SOL    HW120639   5.309   2.444   1.079
 6580SOL    HW220640   5.382   2.552   0.981
 6581SOL     OW20641   2.651   1.986   5.247
 6581SOL    HW120642   2.636   2.013   5.152
 6581SOL    HW220643   2.610   2.054   5.308
 6582SOL     OW20644   5.892   0.563   2.432
 6582SOL    HW120645   5.835   0.542   2.354
 6582SOL    HW220646   5.988   0.548   2.409
 6583SOL     OW20647   5.897   0.534   6.157
 6583SOL    HW120648   5.979   0.575   6.197
 6583SOL    HW220649   5.826   0.527   6.226
 6584SOL     OW20650   5.961   2.189   0.718
 6584SOL    HW120651   5.862   2.183   0.711
 6584SOL    HW220652   6.003   2.121   0.657
 6585SOL     OW20653   2.137   0.807   2.838
 6585SOL    HW120654   2.173   0.883   2.892
 6585SOL    HW220655   2.174   0.721   2.873
 6586SOL     OW20656   6.126   0.670   6.311
 6586SOL    HW120657   6.190   0.700   6.240
 6586SOL    HW220658   6.170   0.602   6.369
 6587SOL     OW20659   1.660   5.914   2.235
 6587SOL    HW120660   1.661   5.839   2.301
 6587SOL    HW220661   1.747   5.964   2.241
 6588SOL     OW20662   3.565   3.679   0.287
 6588SOL    HW120663   3.530   3.586   0.274
 6588SOL    HW220664   3.663   3.680   0.266
 6589SOL     OW20665   4.694   1.739   6.276
 6589SOL    HW120666   4.614   1.681   6.290
 6589SOL    HW220667   4.754   1.733   6.356
 6590SOL     OW20668   6.662   2.175   5.537
 6590SOL    HW120669   6.575   2.135   5.509
 6590SOL    HW220670   6.670   2.168   5.637
 6591SOL     OW20671   4.616   0.108   2.406
 6591SOL    HW120672   4.712   0.121   2.429
 6591SOL    HW220673   4.608   0.067   2.315
 6592SOL     OW20674   6.533   4.578   5.314
 6592SOL    HW120675   6.536   4.506   5.244
 6592SOL    HW220676   6.532   4.537   5.405
 6593SOL     OW20677   5.367   1.601   2.616
 6593SOL    HW120678   5.367   1.683   2.673
 6593SOL    HW220679   5.444   1.543   2.641
 6594SOL     OW20680   5.460   0.365   6.565
 6594SOL    HW120681   5.521   0.322   6.499
 6594SOL    HW220682   5.450   0.306   6.645
 6595SOL     OW20683   3.721   2.832   6.547
 6595SOL    HW120684   3.674   2.884   6.476
 6595SOL    HW220685   3.683   2.856   6.637
 6596SOL     OW20686   2.004   5.406   5.358
 6596SOL    HW120687   2.037   5.345   5.430
 6596SOL    HW220688   1.908   5.386   5.339
 6597SOL     OW20689   0.668   4.289   0.585
 6597SOL    HW120690   0.633   4.198   0.561
 6597SOL    HW220691   0.706   4.287   0.678
 6598SOL     OW20692   2.989   6.229   4.311
 6598SOL    HW120693   2.928   6.307   4.322
 6598SOL    HW220694   2.936   6.146   4.298
 6599SOL     OW20695   3.926   3.811   5.699
 6599SOL    HW120696   3.835   3.770   5.691
 6599SOL    HW220697   3.928   3.898   5.650
 6600SOL     OW20698   4.541   4.848   5.145
 6600SOL    HW120699   4.551   4.932   5.092
 6600SOL    HW220700   4.631   4.813   5.170
 6601SOL     OW20701   1.040   1.163   2.138
 6601SOL    HW120702   1.137   1.142   2.147
 6601SOL    HW220703   0.995   1.093   2.082
 6602SOL     OW20704   5.332   1.540   0.654
 6602SOL    HW120705   5.363   1.551   0.560
 6602SOL    HW220706   5.259   1.472   0.657
 6603SOL     OW20707   3.163   2.083   1.698
 6603SOL    HW120708   3.248   2.100   1.748
 6603SOL    HW220709   3.164   1.991   1.660
 6604SOL     OW20710   4.348   5.016   4.795
 6604SOL    HW120711   4.313   4.923   4.809
 6604SOL    HW220712   4.352   5.034   4.696
 6605SOL     OW20713   4.736   5.445   0.894
 6605SOL    HW120714   4.685   5.426   0.977
 6605SOL    HW220715   4.792   5.527   0.907
 6606SOL     OW20716   0.448   2.846   3.153
 6606SOL    HW120717   0.529   2.901   3.132
 6606SOL    HW220718   0.413   2.872   3.243
 6607SOL     OW20719   1.941   4.038   2.900
 6607SOL    HW120720   1.987   3.954   2.869
 6607SOL    HW220721   1.865   4.015   2.960
 6608SOL     OW20722   5.153   4.107   4.807
 6608SOL    HW120723   5.152   4.197   4.851
 6608SOL    HW220724   5.217   4.047   4.854
 6609SOL     OW20725   5.742   2.896   6.089
 6609SOL    HW120726   5.737   2.954   6.008
 6609SOL    HW220727   5.668   2.828   6.086
 6610SOL     OW20728   4.238   0.936   0.599
 6610SOL    HW120729   4.331   0.968   0.580
 6610SOL    HW220730   4.195   0.996   0.666
 6611SOL     OW20731   5.724   2.973   2.291
 6611SOL    HW120732   5.797   2.920   2.246
 6611SOL    HW220733   5.654   2.996   2.224
 6612SOL     OW20734   0.505   5.304   6.445
 6612SOL    HW120735   0.536   5.396   6.471
 6612SOL    HW220736   0.421   5.311   6.393
 6613SOL     OW20737   6.427   4.961   0.660
 6613SOL    HW120738   6.384   4.879   0.698
 6613SOL    HW220739   6.418   5.037   0.724
 6614SOL     OW20740   5.578   3.970   6.087
 6614SOL    HW120741   5.670   3.934   6.105
 6614SOL    HW220742   5.577   4.015   5.998
 6615SOL     OW20743   0.779   3.811   4.718
 6615SOL    HW120744   0.800   3.810   4.620
 6615SOL    HW220745   0.743   3.900   4.744
 6616SOL     OW20746   4.773   1.351   3.869
 6616SOL    HW120747   4.835   1.424   3.899
 6616SOL    HW220748   4.789   1.332   3.772
 6617SOL     OW20749   3.695   0.608   4.503
 6617SOL    HW120750   3.635   0.688   4.498
 6617SOL    HW220751   3.732   0.600   4.595
 6618SOL     OW20752   6.732   4.214   1.571
 6618SOL    HW120753   6.820   4.222   1.619
 6618SOL    HW220754   6.739   4.259   1.482
 6619SOL     OW20755   5.922   5.938   2.468
 6619SOL    HW120756   5.956   6.006   2.533
 6619SOL    HW220757   5.996   5.910   2.407
 6620SOL     OW20758   5.279   3.601   5.317
 6620SOL    HW120759   5.261   3.693   5.282
 6620SOL    HW220760   5.372   3.597   5.354
 6621SOL     OW20761   4.265   3.485   1.384
 6621SOL    HW120762   4.200   3.429   1.435
 6621SOL    HW220763   4.324   3.426   1.329
 6622SOL     OW20764   5.871   5.314   0.811
 6622SOL    HW120765   5.825   5.229   0.787
 6622SOL    HW220766   5.804   5.389   0.810
 6623SOL     OW20767   2.919   3.337   2.741
 6623SOL    HW120768   2.849   3.361   2.808
 6623SOL    HW220769   3.007   3.377   2.769
 6624SOL     OW20770   4.702   5.032   4.592
 6624SOL    HW120771   4.678   5.128   4.610
 6624SOL    HW220772   4.654   4.973   4.657
 6625SOL     OW20773   5.285   5.990   0.749
 6625SOL    HW120774   5.268   6.085   0.775
 6625SOL    HW220775   5.220   5.930   0.796
 6626SOL     OW20776   2.706   5.382   4.609
 6626SOL    HW120777   2.780   5.447   4.593
 6626SOL    HW220778   2.710   5.309   4.540
 6627SOL     OW20779   0.385   0.661   1.014
 6627SOL    HW120780   0.376   0.714   0.930
 6627SOL    HW220781   0.346   0.570   1.000
 6628SOL     OW20782   3.463   6.255   4.120
 6628SOL    HW120783   3.494   6.160   4.111
 6628SOL    HW220784   3.365   6.256   4.138
 6629SOL     OW20785   2.906   4.434   0.435
 6629SOL    HW120786   2.948   4.496   0.501
 6629SOL    HW220787   2.839   4.376   0.482
 6630SOL     OW20788   2.886   1.054   5.769
 6630SOL    HW120789   2.878   1.152   5.789
 6630SOL    HW220790   2.811   1.026   5.710
 6631SOL     OW20791   3.234   6.409   1.937
 6631SOL    HW120792   3.160   6.367   1.989
 6631SOL    HW220793   3.321   6.370   1.966
 6632SOL     OW20794   6.280   3.497   1.973
 6632SOL    HW120795   6.180   3.499   1.973
 6632SOL    HW220796   6.312   3.440   1.897
 6633SOL     OW20797   0.959   6.211   3.277
 6633SOL    HW120798   0.997   6.268   3.205
 6633SOL    HW220799   0.866   6.240   3.298
 6634SOL     OW20800   6.561   2.182   4.960
 6634SOL    HW120801   6.616   2.132   4.894
 6634SOL    HW220802   6.543   2.274   4.927
 6635SOL     OW20803   4.141   4.983   4.206
 6635SOL    HW120804   4.090   5.018   4.284
 6635SOL    HW220805   4.199   4.907   4.235
 6636SOL     OW20806   2.093   3.526   2.455
 6636SOL    HW120807   2.019   3.518   2.388
 6636SOL    HW220808   2.136   3.615   2.446
 6637SOL     OW20809   0.290   2.131   0.039
 6637SOL    HW120810   0.320   2.182   6.985
 6637SOL    HW220811   0.335   2.167   0.121
 6638SOL     OW20812   2.040   0.404   6.618
 6638SOL    HW120813   1.941   0.401   6.604
 6638SOL    HW220814   2.071   0.316   6.654
 6639SOL     OW20815   4.336   5.619   6.385
 6639SOL    HW120816   4.248   5.619   6.338
 6639SOL    HW220817   4.324   5.582   6.477
 6640SOL     OW20818   5.326   4.183   3.078
 6640SOL    HW120819   5.394   4.113   3.098
 6640SOL    HW220820   5.249   4.141   3.030
 6641SOL     OW20821   2.508   5.252   6.531
 6641SOL    HW120822   2.500   5.244   6.432
 6641SOL    HW220823   2.492   5.347   6.558
 6642SOL     OW20824   6.210   5.918   6.106
 6642SOL    HW120825   6.192   5.869   6.192
 6642SOL    HW220826   6.302   5.958   6.110
 6643SOL     OW20827   4.101   5.360   1.211
 6643SOL    HW120828   4.110   5.266   1.245
 6643SOL    HW220829   4.012   5.371   1.166
 6644SOL     OW20830   1.171   2.850   1.936
 6644SOL    HW120831   1.158   2.909   2.016
 6644SOL    HW220832   1.085   2.803   1.915
 6645SOL     OW20833   0.140   5.212   5.326
 6645SOL    HW120834   0.174   5.158   5.402
 6645SOL    HW220835   0.217   5.251   5.275
 6646SOL     OW20836   1.770   5.508   3.791
 6646SOL    HW120837   1.687   5.455   3.809
 6646SOL    HW220838   1.822   5.464   3.718
 6647SOL     OW20839   4.512   1.317   1.826
 6647SOL    HW120840   4.489   1.317   1.729
 6647SOL    HW220841   4.595   1.371   1.841
 6648SOL     OW20842   3.373   5.369   2.283
 6648SOL    HW120843   3.430   5.301   2.236
 6648SOL    HW220844   3.318   5.324   2.353
 6649SOL     OW20845   4.298   1.834   5.531
 6649SOL    HW120846   4.328   1.867   5.442
 6649SOL    HW220847   4.236   1.901   5.572
 6650SOL     OW20848   3.254   1.581   3.980
 6650SOL    HW120849   3.338   1.591   3.927
 6650SOL    HW220850   3.274   1.534   4.066
 6651SOL     OW20851   0.667   1.512   1.340
 6651SOL    HW120852   0.591   1.508   1.275
 6651SOL    HW220853   0.631   1.529   1.432
 6652SOL     OW20854   0.326   5.643   3.788
 6652SOL    HW120855   0.281   5.561   3.826
 6652SOL    HW220856   0.296   5.724   3.838
 6653SOL     OW20857   3.790   4.076   4.325
 6653SOL    HW120858   3.862   4.011   4.347
 6653SOL    HW220859   3.826   4.169   4.332
 6654SOL     OW20860   1.333   3.592   1.814
 6654SOL    HW120861   1.418   3.619   1.768
 6654SOL    HW220862   1.289   3.674   1.852
 6655SOL     OW20863   1.426   0.835   6.685
 6655SOL    HW120864   1.349   0.884   6.726
 6655SOL    HW220865   1.498   0.899   6.661
 6656SOL     OW20866   6.587   1.559   1.243
 6656SOL    HW120867   6.581   1.622   1.166
 6656SOL    HW220868   6.497   1.520   1.262
 6657SOL     OW20869   3.531   4.867   5.542
 6657SOL    HW120870   3.572   4.842   5.630
 6657SOL    HW220871   3.431   4.868   5.552
 6658SOL     OW20872   6.064   0.160   5.355
 6658SOL    HW120873   5.979   0.111   5.333
 6658SOL    HW220874   6.063   0.250   5.312
 6659SOL     OW20875   2.483   3.025   0.481
 6659SOL    HW120876   2.433   3.009   0.566
 6659SOL    HW220877   2.523   2.939   0.450
 6660SOL     OW20878   7.017   6.636   3.050
 6660SOL    HW120879   6.952   6.711   3.061
 6660SOL    HW220880   0.036   6.645   2.961
 6661SOL     OW20881   6.639   0.167   3.931
 6661SOL    HW120882   6.563   0.203   3.985
 6661SOL    HW220883   6.714   0.140   3.991
 6662SOL     OW20884   1.984   3.543   5.904
 6662SOL    HW120885   2.063   3.560   5.845
 6662SOL    HW220886   1.979   3.614   5.974
 6663SOL     OW20887   0.871   5.478   1.754
 6663SOL    HW120888   0.967   5.501   1.766
 6663SOL    HW220889   0.814   5.551   1.793
 6664SOL     OW20890   6.917   1.946   1.617
 6664SOL    HW120891   6.885   1.855   1.589
 6664SOL    HW220892   6.866   1.976   1.697
 6665SOL     OW20893   2.087   6.975   3.659
 6665SOL    HW120894   2.089   6.884   3.617
 6665SOL    HW220895   1.993   6.997   3.685
 6666SOL     OW20896   5.965   0.449   0.624
 6666SOL    HW120897   5.942   0.543   0.649
 6666SOL    HW220898   5.927   0.387   0.692
 6667SOL     OW20899   5.666   5.054   5.513
 6667SOL    HW120900   5.579   5.036   5.467
 6667SOL    HW220901   5.712   4.968   5.533
 6668SOL     OW20902   6.017   6.192   0.860
 6668SOL    HW120903   6.010   6.183   0.761
 6668SOL    HW220904   5.935   6.152   0.903
 6669SOL     OW20905   0.720   4.781   3.458
 6669SOL    HW120906   0.751   4.771   3.364
 6669SOL    HW220907   0.791   4.826   3.512
 6670SOL     OW20908   5.494   4.829   0.442
 6670SOL    HW120909   5.555   4.782   0.378
 6670SOL    HW220910   5.489   4.777   0.528
 6671SOL     OW20911   1.074   2.284   5.568
 6671SOL    HW120912   1.068   2.237   5.480
 6671SOL    HW220913   1.099   2.218   5.639
 6672SOL     OW20914   6.742   1.246   5.277
 6672SOL    HW120915   6.835   1.240   5.242
 6672SOL    HW220916   6.728   1.335   5.320
 6673SOL     OW20917   3.424   6.017   1.490
 6673SOL    HW120918   3.407   5.969   1.576
 6673SOL    HW220919   3.522   6.019   1.471
 6674SOL     OW20920   1.257   5.897   4.787
 6674SOL    HW120921   1.204   5.823   4.829
 6674SOL    HW220922   1.196   5.971   4.761
 6675SOL     OW20923   6.426   6.492   6.311
 6675SOL    HW120924   6.498   6.557   6.336
 6675SOL    HW220925   6.459   6.399   6.327
 6676SOL     OW20926   0.486   1.280   0.784
 6676SOL    HW120927   0.415   1.215   0.811
 6676SOL    HW220928   0.565   1.230   0.748
 6677SOL     OW20929   0.907   4.416   0.527
 6677SOL    HW120930   0.818   4.371   0.535
 6677SOL    HW220931   0.924   4.440   0.432
 6678SOL     OW20932   0.638   3.921   4.464
 6678SOL    HW120933   0.600   3.839   4.423
 6678SOL    HW220934   0.718   3.952   4.412
 6679SOL     OW20935   2.497   1.926   4.150
 6679SOL    HW120936   2.433   1.967   4.084
 6679SOL    HW220937   2.446   1.870   4.215
 6680SOL     OW20938   2.836   0.762   0.077
 6680SOL    HW120939   2.762   0.824   0.104
 6680SOL    HW220940   2.924   0.803   0.099
 6681SOL     OW20941   6.047   4.987   6.753
 6681SOL    HW120942   6.142   4.985   6.723
 6681SOL    HW220943   6.014   4.893   6.764
 6682SOL     OW20944   6.105   4.678   2.543
 6682SOL    HW120945   6.138   4.766   2.510
 6682SOL    HW220946   6.165   4.644   2.615
 6683SOL     OW20947   5.808   3.149   3.861
 6683SOL    HW120948   5.831   3.234   3.907
 6683SOL    HW220949   5.857   3.143   3.774
 6684SOL     OW20950   2.071   0.926   1.819
 6684SOL    HW120951   2.044   0.916   1.915
 6684SOL    HW220952   2.025   1.006   1.779
 6685SOL     OW20953   6.318   2.486   6.953
 6685SOL    HW120954   6.389   2.555   6.940
 6685SOL    HW220955   6.274   2.499   0.016
 6686SOL     OW20956   5.123   4.389   3.834
 6686SOL    HW120957   5.053   4.456   3.856
 6686SOL    HW220958   5.139   4.389   3.736
 6687SOL     OW20959   0.144   6.900   6.749
 6687SOL    HW120960   0.079   6.883   6.823
 6687SOL    HW220961   0.165   6.998   6.745
 6688SOL     OW20962   0.587   4.769   3.132
 6688SOL    HW120963   0.653   4.774   3.056
 6688SOL    HW220964   0.575   4.673   3.158
 6689SOL     OW20965   5.734   3.511   0.293
 6689SOL    HW120966   5.650   3.488   0.244
 6689SOL    HW220967   5.796   3.432   0.293
 6690SOL     OW20968   0.556   1.210   0.405
 6690SOL    HW120969   0.489   1.283   0.392
 6690SOL    HW220970   0.610   1.228   0.487
 6691SOL     OW20971   0.673   5.419   1.538
 6691SOL    HW120972   0.748   5.410   1.473
 6691SOL    HW220973   0.706   5.399   1.630
 6692SOL     OW20974   4.889   3.539   6.707
 6692SOL    HW120975   4.799   3.545   6.663
 6692SOL    HW220976   4.934   3.628   6.703
 6693SOL     OW20977   3.984   3.154   5.888
 6693SOL    HW120978   3.902   3.120   5.841
 6693SOL    HW220979   3.987   3.117   5.981
 6694SOL     OW20980   2.350   5.736   0.266
 6694SOL    HW120981   2.412   5.781   0.331
 6694SOL    HW220982   2.335   5.642   0.295
 6695SOL     OW20983   1.673   1.699   0.130
 6695SOL    HW120984   1.769   1.724   0.121
 6695SOL    HW220985   1.643   1.717   0.224
 6696SOL     OW20986   1.700   1.963   1.191
 6696SOL    HW120987   1.639   2.035   1.157
 6696SOL    HW220988   1.778   1.953   1.129
 6697SOL     OW20989   5.477   3.613   4.839
 6697SOL    HW120990   5.511   3.678   4.771
 6697SOL    HW220991   5.392   3.572   4.807
 6698SOL     OW20992   2.373   4.704   5.495
 6698SOL    HW120993   2.323   4.713   5.581
 6698SOL    HW220994   2.464   4.746   5.505
 6699SOL     OW20995   1.505   3.396   6.431
 6699SOL    HW120996   1.446   3.315   6.432
 6699SOL    HW220997   1.599   3.368   6.415
 6700SOL     OW20998   0.277   6.327   6.550
 6700SOL    HW120999   0.183   6.310   6.578
 6700SOL    HW221000   0.337   6.325   6.630
 6701SOL     OW21001   1.837   2.128   6.339
 6701SOL    HW121002   1.814   2.034   6.311
 6701SOL    HW221003   1.840   2.134   6.438
 6702SOL     OW21004   3.419   3.312   0.470
 6702SOL    HW121005   3.377   3.234   0.515
 6702SOL    HW221006   3.407   3.394   0.525
 6703SOL     OW21007   0.637   1.982   0.155
 6703SOL    HW121008   0.663   2.062   0.209
 6703SOL    HW221009   0.556   1.940   0.196
 6704SOL     OW21010   5.420   3.292   2.721
 6704SOL    HW121011   5.324   3.264   2.715
 6704SOL    HW221012   5.427   3.370   2.783
 6705SOL     OW21013   4.986   2.402   1.109
 6705SOL    HW121014   4.905   2.344   1.099
 6705SOL    HW221015   4.990   2.466   1.032
 6706SOL     OW21016   1.273   6.687   6.368
 6706SOL    HW121017   1.318   6.608   6.410
 6706SOL    HW221018   1.231   6.743   6.439
 6707SOL     OW21019   1.222   5.450   3.480
 6707SOL    HW121020   1.165   5.423   3.402
 6707SOL    HW221021   1.270   5.535   3.458
 6708SOL     OW21022   2.358   5.794   1.055
 6708SOL    HW121023   2.371   5.730   1.131
 6708SOL    HW221024   2.445   5.808   1.008
 6709SOL     OW21025   4.719   1.810   4.021
 6709SOL    HW121026   4.807   1.773   4.053
 6709SOL    HW221027   4.714   1.802   3.922
 6710SOL     OW21028   3.008   2.075   0.737
 6710SOL    HW121029   3.103   2.075   0.769
 6710SOL    HW221030   2.999   2.140   0.661
 6711SOL     OW21031   5.521   3.629   6.282
 6711SOL    HW121032   5.447   3.605   6.220
 6711SOL    HW221033   5.486   3.630   6.376
 6712SOL     OW21034   3.421   6.107   0.091
 6712SOL    HW121035   3.380   6.022   0.123
 6712SOL    HW221036   3.355   6.181   0.098
 6713SOL     OW21037   0.387   2.491   3.325
 6713SOL    HW121038   0.440   2.509   3.242
 6713SOL    HW221039   0.290   2.491   3.303
 6714SOL     OW21040   6.579   1.270   5.668
 6714SOL    HW121041   6.625   1.312   5.589
 6714SOL    HW221042   6.480   1.271   5.654
 6715SOL     OW21043   4.852   2.860   1.612
 6715SOL    HW121044   4.771   2.842   1.668
 6715SOL    HW221045   4.852   2.797   1.533
 6716SOL     OW21046   3.372   5.775   1.232
 6716SOL    HW121047   3.352   5.869   1.203
 6716SOL    HW221048   3.463   5.771   1.273
 6717SOL     OW21049   3.500   1.025   6.819
 6717SOL    HW121050   3.446   0.975   6.750
 6717SOL    HW221051   3.494   0.977   6.906
 6718SOL     OW21052   4.662   0.317   6.432
 6718SOL    HW121053   4.701   0.348   6.519
 6718SOL    HW221054   4.574   0.360   6.417
 6719SOL     OW21055   1.115   2.326   5.060
 6719SOL    HW121056   1.101   2.401   4.995
 6719SOL    HW221057   1.028   2.280   5.077
 6720SOL     OW21058   1.856   4.296   0.493
 6720SOL    HW121059   1.906   4.210   0.507
 6720SOL    HW221060   1.823   4.300   0.399
 6721SOL     OW21061   5.943   6.798   2.843
 6721SOL    HW121062   5.878   6.789   2.919
 6721SOL    HW221063   6.023   6.849   2.874
 6722SOL     OW21064   3.724   4.794   6.243
 6722SOL    HW121065   3.626   4.814   6.249
 6722SOL    HW221066   3.762   4.784   6.335
 6723SOL     OW21067   3.503   1.866   2.652
 6723SOL    HW121068   3.476   1.789   2.594
 6723SOL    HW221069   3.572   1.920   2.604
 6724SOL     OW21070   3.930   5.156   6.043
 6724SOL    HW121071   3.952   5.251   6.066
 6724SOL    HW221072   3.925   5.102   6.127
 6725SOL     OW21073   0.459   6.416   1.345
 6725SOL    HW121074   0.422   6.325   1.328
 6725SOL    HW221075   0.515   6.445   1.267
 6726SOL     OW21076   2.326   2.516   1.726
 6726SOL    HW121077   2.367   2.488   1.813
 6726SOL    HW221078   2.391   2.501   1.652
 6727SOL     OW21079   2.547   3.669   1.423
 6727SOL    HW121080   2.572   3.733   1.495
 6727SOL    HW221081   2.588   3.698   1.336
 6728SOL     OW21082   4.332   1.630   3.819
 6728SOL    HW121083   4.370   1.603   3.907
 6728SOL    HW221084   4.312   1.728   3.820
 6729SOL     OW21085   4.050   5.286   3.399
 6729SOL    HW121086   3.965   5.314   3.444
 6729SOL    HW221087   4.102   5.368   3.374
 6730SOL     OW21088   1.400   0.049   2.666
 6730SOL    HW121089   1.331   7.019   2.622
 6730SOL    HW221090   1.364   0.140   2.683
 6731SOL     OW21091   1.937   4.113   1.331
 6731SOL    HW121092   1.853   4.167   1.321
 6731SOL    HW221093   2.014   4.163   1.293
 6732SOL     OW21094   3.510   5.699   0.150
 6732SOL    HW121095   3.429   5.673   0.201
 6732SOL    HW221096   3.582   5.728   0.213
 6733SOL     OW21097   6.375   5.694   4.218
 6733SOL    HW121098   6.407   5.701   4.313
 6733SOL    HW221099   6.452   5.701   4.156
 6734SOL     OW21100   2.940   3.782   6.890
 6734SOL    HW121101   3.029   3.740   6.908
 6734SOL    HW221102   2.929   3.795   6.791
 6735SOL     OW21103   0.122   6.331   6.084
 6735SOL    HW121104   0.189   6.334   6.010
 6735SOL    HW221105   0.054   6.404   6.072
 6736SOL     OW21106   2.211   4.308   2.018
 6736SOL    HW121107   2.253   4.251   2.089
 6736SOL    HW221108   2.270   4.309   1.938
 6737SOL     OW21109   1.690   0.500   1.389
 6737SOL    HW121110   1.751   0.484   1.311
 6737SOL    HW221111   1.667   0.597   1.394
 6738SOL     OW21112   5.708   1.884   0.503
 6738SOL    HW121113   5.610   1.865   0.500
 6738SOL    HW221114   5.749   1.832   0.578
 6739SOL     OW21115   4.072   5.683   6.313
 6739SOL    HW121116   3.982   5.659   6.349
 6739SOL    HW221117   4.064   5.707   6.216
 6740SOL     OW21118   5.619   2.605   4.777
 6740SOL    HW121119   5.674   2.585   4.859
 6740SOL    HW221120   5.556   2.529   4.760
 6741SOL     OW21121   0.151   0.721   5.378
 6741SOL    HW121122   0.200   0.657   5.318
 6741SOL    HW221123   0.067   0.678   5.411
 6742SOL     OW21124   5.881   6.088   5.292
 6742SOL    HW121125   5.977   6.112   5.277
 6742SOL    HW221126   5.852   6.123   5.381
 6743SOL     OW21127   5.980   2.074   0.950
 6743SOL    HW121128   6.025   2.143   1.006
 6743SOL    HW221129   5.953   2.115   0.862
 6744SOL     OW21130   4.283   0.653   3.677
 6744SOL    HW121131   4.213   0.709   3.632
 6744SOL    HW221132   4.238   0.585   3.735
 6745SOL     OW21133   0.930   3.726   3.510
 6745SOL    HW121134   0.898   3.705   3.603
 6745SOL    HW221135   0.950   3.823   3.503
 6746SOL     OW21136   6.385   0.134   0.015
 6746SOL    HW121137   6.289   0.140   0.042
 6746SOL    HW221138   6.420   0.226   7.022
 6747SOL     OW21139   5.206   5.243   5.946
 6747SOL    HW121140   5.148   5.189   6.008
 6747SOL    HW221141   5.298   5.250   5.985
 6748SOL     OW21142   6.113   6.752   2.304
 6748SOL    HW121143   6.156   6.842   2.303
 6748SOL    HW221144   6.014   6.764   2.297
 6749SOL     OW21145   3.326   4.953   0.932
 6749SOL    HW121146   3.270   4.870   0.925
 6749SOL    HW221147   3.324   4.987   1.026
 6750SOL     OW21148   2.144   3.201   5.119
 6750SOL    HW121149   2.170   3.124   5.060
 6750SOL    HW221150   2.107   3.275   5.063
 6751SOL     OW21151   4.931   2.935   5.600
 6751SOL    HW121152   4.855   3.000   5.602
 6751SOL    HW221153   4.946   2.905   5.506
 6752SOL     OW21154   6.116   1.011   0.365
 6752SOL    HW121155   6.059   0.930   0.380
 6752SOL    HW221156   6.187   1.015   0.435
 6753SOL     OW21157   5.722   0.470   6.340
 6753SOL    HW121158   5.638   0.423   6.314
 6753SOL    HW221159   5.700   0.556   6.387
 6754SOL     OW21160   4.381   1.137   6.686
 6754SOL    HW121161   4.412   1.046   6.661
 6754SOL    HW221162   4.323   1.173   6.613
 6755SOL     OW21163   4.991   1.489   3.017
 6755SOL    HW121164   5.013   1.412   2.958
 6755SOL    HW221165   5.071   1.548   3.026
 6756SOL     OW21166   4.061   5.064   2.879
 6756SOL    HW121167   4.017   4.974   2.880
 6756SOL    HW221168   4.064   5.102   2.971
 6757SOL     OW21169   6.152   3.803   1.823
 6757SOL    HW121170   6.198   3.739   1.761
 6757SOL    HW221171   6.216   3.831   1.895
 6758SOL     OW21172   0.236   2.404   2.209
 6758SOL    HW121173   0.224   2.315   2.167
 6758SOL    HW221174   0.252   2.393   2.307
 6759SOL     OW21175   6.772   5.774   4.179
 6759SOL    HW121176   6.709   5.722   4.120
 6759SOL    HW221177   6.854   5.798   4.126
 6760SOL     OW21178   1.094   3.874   5.129
 6760SOL    HW121179   1.171   3.832   5.080
 6760SOL    HW221180   1.129   3.946   5.188
 6761SOL     OW21181   6.562   2.985   6.895
 6761SOL    HW121182   6.635   2.970   6.828
 6761SOL    HW221183   6.529   3.079   6.887
 6762SOL     OW21184   6.961   1.891   4.482
 6762SOL    HW121185   6.974   1.866   4.578
 6762SOL    HW221186   6.949   1.990   4.475
 6763SOL     OW21187   4.964   6.656   5.260
 6763SOL    HW121188   5.052   6.611   5.239
 6763SOL    HW221189   4.948   6.653   5.358
 6764SOL     OW21190   2.023   3.595   6.993
 6764SOL    HW121191   1.958   3.661   0.003
 6764SOL    HW221192   2.064   3.544   0.043
 6765SOL     OW21193   4.850   5.605   1.863
 6765SOL    HW121194   4.808   5.544   1.930
 6765SOL    HW221195   4.795   5.607   1.780
 6766SOL     OW21196   2.571   2.432   4.874
 6766SOL    HW121197   2.604   2.425   4.968
 6766SOL    HW221198   2.475   2.404   4.871
 6767SOL     OW21199   0.982   2.557   5.987
 6767SOL    HW121200   0.933   2.639   6.017
 6767SOL    HW221201   1.075   2.559   6.022
 6768SOL     OW21202   6.769   0.270   5.513
 6768SOL    HW121203   6.763   0.271   5.613
 6768SOL    HW221204   6.705   0.202   5.477
 6769SOL     OW21205   1.408   2.940   6.293
 6769SOL    HW121206   1.473   2.866   6.314
 6769SOL    HW221207   1.454   3.028   6.301
 6770SOL     OW21208   0.349   2.369   4.015
 6770SOL    HW121209   0.424   2.375   4.081
 6770SOL    HW221210   0.263   2.352   4.063
 6771SOL     OW21211   5.844   2.382   1.886
 6771SOL    HW121212   5.863   2.305   1.948
 6771SOL    HW221213   5.820   2.462   1.939
 6772SOL     OW21214   1.514   6.458   1.657
 6772SOL    HW121215   1.540   6.513   1.736
 6772SOL    HW221216   1.537   6.362   1.674
 6773SOL     OW21217   1.672   1.438   3.249
 6773SOL    HW121218   1.699   1.343   3.230
 6773SOL    HW221219   1.669   1.489   3.163
 6774SOL     OW21220   3.625   1.055   5.145
 6774SOL    HW121221   3.581   0.977   5.189
 6774SOL    HW221222   3.617   1.136   5.203
 6775SOL     OW21223   1.685   3.214   5.163
 6775SOL    HW121224   1.657   3.174   5.250
 6775SOL    HW221225   1.781   3.193   5.145
 6776SOL     OW21226   3.077   3.176   4.226
 6776SOL    HW121227   3.090   3.135   4.316
 6776SOL    HW221228   3.022   3.259   4.235
 6777SOL     OW21229   6.996   0.183   5.104
 6777SOL    HW121230   6.952   0.260   5.150
 6777SOL    HW221231   0.064   0.175   5.136
 6778SOL     OW21232   6.345   5.930   1.541
 6778SOL    HW121233   6.405   6.006   1.518
 6778SOL    HW221234   6.270   5.925   1.475
 6779SOL     OW21235   5.491   3.244   5.560
 6779SOL    HW121236   5.410   3.264   5.506
 6779SOL    HW221237   5.489   3.149   5.591
 6780SOL     OW21238   4.903   0.686   2.043
 6780SOL    HW121239   4.911   0.598   1.997
 6780SOL    HW221240   4.814   0.691   2.090
 6781SOL     OW21241   5.021   3.732   3.384
 6781SOL    HW121242   4.985   3.704   3.473
 6781SOL    HW221243   4.949   3.779   3.332
 6782SOL     OW21244   6.299   1.918   2.973
 6782SOL    HW121245   6.396   1.942   2.967
 6782SOL    HW221246   6.278   1.848   2.904
 6783SOL     OW21247   0.590   6.975   6.598
 6783SOL    HW121248   0.550   0.039   6.576
 6783SOL    HW221249   0.522   6.918   6.643
 6784SOL     OW21250   1.539   4.470   6.572
 6784SOL    HW121251   1.590   4.508   6.495
 6784SOL    HW221252   1.461   4.530   6.593
 6785SOL     OW21253   5.447   3.969   1.086
 6785SOL    HW121254   5.358   3.957   1.041
 6785SOL    HW221255   5.440   3.937   1.181
 6786SOL     OW21256   6.337   1.498   6.235
 6786SOL    HW121257   6.259   1.558   6.216
 6786SOL    HW221258   6.310   1.427   6.300
 6787SOL     OW21259   4.071   2.381   1.775
 6787SOL    HW121260   4.148   2.446   1.776
 6787SOL    HW221261   4.016   2.393   1.858
 6788SOL     OW21262   1.233   4.727   1.255
 6788SOL    HW121263   1.141   4.764   1.247
 6788SOL    HW221264   1.259   4.683   1.168
 6789SOL     OW21265   6.138   2.197   2.544
 6789SOL    HW121266   6.117   2.147   2.628
 6789SOL    HW221267   6.133   2.295   2.561
 6790SOL     OW21268   1.233   5.742   0.109
 6790SOL    HW121269   1.278   5.712   0.193
 6790SOL    HW221270   1.136   5.759   0.127
 6791SOL     OW21271   1.921   6.417   3.720
 6791SOL    HW121272   1.976   6.334   3.727
 6791SOL    HW221273   1.971   6.494   3.759
 6792SOL     OW21274   3.262   5.885   0.122
 6792SOL    HW121275   3.268   5.835   0.208
 6792SOL    HW221276   3.275   5.822   0.045
 6793SOL     OW21277   1.863   3.355   5.728
 6793SOL    HW121278   1.933   3.346   5.657
 6793SOL    HW221279   1.901   3.404   5.806
 6794SOL     OW21280   4.279   2.346   3.963
 6794SOL    HW121281   4.186   2.319   3.939
 6794SOL    HW221282   4.328   2.376   3.881
 6795SOL     OW21283   0.996   0.167   2.579
 6795SOL    HW121284   0.904   0.131   2.566
 6795SOL    HW221285   1.061   0.114   2.525
 6796SOL     OW21286   5.912   2.502   2.398
 6796SOL    HW121287   5.862   2.459   2.323
 6796SOL    HW221288   6.004   2.463   2.403
 6797SOL     OW21289   2.286   4.147   0.491
 6797SOL    HW121290   2.235   4.065   0.517
 6797SOL    HW221291   2.371   4.120   0.447
 6798SOL     OW21292   5.355   2.279   1.406
 6798SOL    HW121293   5.345   2.288   1.505
 6798SOL    HW221294   5.265   2.271   1.364
 6799SOL     OW21295   3.964   6.674   2.920
 6799SOL    HW121296   4.033   6.727   2.871
 6799SOL    HW221297   4.010   6.608   2.980
 6800SOL     OW21298   0.165   2.556   3.028
 6800SOL    HW121299   0.076   2.510   3.027
 6800SOL    HW221300   0.151   2.655   3.030
 6801SOL     OW21301   2.063   5.029   4.862
 6801SOL    HW121302   2.014   5.106   4.903
 6801SOL    HW221303   2.125   4.990   4.930
 6802SOL     OW21304   2.367   4.653   2.567
 6802SOL    HW121305   2.336   4.745   2.588
 6802SOL    HW221306   2.398   4.648   2.471
 6803SOL     OW21307   5.832   5.087   6.021
 6803SOL    HW121308   5.929   5.083   6.046
 6803SOL    HW221309   5.822   5.125   5.929
 6804SOL     OW21310   2.968   6.150   1.316
 6804SOL    HW121311   2.895   6.082   1.321
 6804SOL    HW221312   2.958   6.203   1.231
 6805SOL     OW21313   0.439   4.251   4.184
 6805SOL    HW121314   0.432   4.333   4.241
 6805SOL    HW221315   0.534   4.220   4.181
 6806SOL     OW21316   5.453   3.594   2.123
 6806SOL    HW121317   5.430   3.509   2.170
 6806SOL    HW221318   5.527   3.578   2.058
 6807SOL     OW21319   4.141   3.419   2.325
 6807SOL    HW121320   4.161   3.427   2.423
 6807SOL    HW221321   4.087   3.337   2.308
 6808SOL     OW21322   2.528   6.242   4.520
 6808SOL    HW121323   2.488   6.177   4.456
 6808SOL    HW221324   2.490   6.333   4.504
 6809SOL     OW21325   6.154   2.008   0.572
 6809SOL    HW121326   6.184   1.987   0.479
 6809SOL    HW221327   6.221   1.972   0.638
 6810SOL     OW21328   3.553   0.291   4.723
 6810SOL    HW121329   3.521   0.363   4.786
 6810SOL    HW221330   3.545   0.324   4.629
 6811SOL     OW21331   6.704   2.064   1.273
 6811SOL    HW121332   6.663   2.095   1.360
 6811SOL    HW221333   6.799   2.038   1.289
 6812SOL     OW21334   3.640   4.838   5.910
 6812SOL    HW121335   3.656   4.763   5.847
 6812SOL    HW221336   3.601   4.803   5.995
 6813SOL     OW21337   0.512   3.267   1.462
 6813SOL    HW121338   0.576   3.222   1.525
 6813SOL    HW221339   0.531   3.365   1.459
 6814SOL     OW21340   4.908   2.532   1.591
 6814SOL    HW121341   4.964   2.562   1.514
 6814SOL    HW221342   4.953   2.556   1.677
 6815SOL     OW21343   1.627   5.991   1.262
 6815SOL    HW121344   1.553   6.033   1.315
 6815SOL    HW221345   1.685   6.062   1.222
 6816SOL     OW21346   5.366   0.520   3.409
 6816SOL    HW121347   5.309   0.569   3.476
 6816SOL    HW221348   5.317   0.439   3.377
 6817SOL     OW21349   6.174   0.923   0.780
 6817SOL    HW121350   6.120   0.985   0.722
 6817SOL    HW221351   6.238   0.871   0.723
 6818SOL     OW21352   0.044   6.404   5.667
 6818SOL    HW121353   0.002   6.488   5.633
 6818SOL    HW221354   0.052   6.339   5.592
 6819SOL     OW21355   6.216   4.125   0.770
 6819SOL    HW121356   6.130   4.171   0.747
 6819SOL    HW221357   6.196   4.037   0.813
 6820SOL     OW21358   2.638   4.518   1.117
 6820SOL    HW121359   2.567   4.459   1.157
 6820SOL    HW221360   2.628   4.610   1.153
 6821SOL     OW21361   2.543   3.567   5.902
 6821SOL    HW121362   2.589   3.534   5.984
 6821SOL    HW221363   2.595   3.539   5.821
 6822SOL     OW21364   0.948   4.414   4.939
 6822SOL    HW121365   1.041   4.427   4.905
 6822SOL    HW221366   0.939   4.461   5.027
 6823SOL     OW21367   6.843   3.480   5.531
 6823SOL    HW121368   6.940   3.455   5.535
 6823SOL    HW221369   6.790   3.403   5.498
 6824SOL     OW21370   1.330   0.855   3.796
 6824SOL    HW121371   1.354   0.880   3.890
 6824SOL    HW221372   1.403   0.799   3.757
 6825SOL     OW21373   5.071   5.454   1.692
 6825SOL    HW121374   5.141   5.397   1.734
 6825SOL    HW221375   5.054   5.534   1.750
 6826SOL     OW21376   5.284   0.603   4.232
 6826SOL    HW121377   5.310   0.638   4.141
 6826SOL    HW221378   5.255   0.678   4.290
 6827SOL     OW21379   5.960   5.426   5.159
 6827SOL    HW121380   6.057   5.449   5.168
 6827SOL    HW221381   5.913   5.500   5.111
 6828SOL     OW21382   2.274   1.397   2.690
 6828SOL    HW121383   2.294   1.420   2.595
 6828SOL    HW221384   2.175   1.403   2.706
 6829SOL     OW21385   5.800   6.540   5.187
 6829SOL    HW121386   5.759   6.503   5.104
 6829SOL    HW221387   5.820   6.637   5.174
 6830SOL     OW21388   3.813   6.603   3.587
 6830SOL    HW121389   3.773   6.675   3.530
 6830SOL    HW221390   3.811   6.517   3.537
 6831SOL     OW21391   2.153   0.124   0.104
 6831SOL    HW121392   2.090   0.101   0.030
 6831SOL    HW221393   2.196   0.041   0.139
 6832SOL     OW21394   4.170   3.916   0.471
 6832SOL    HW121395   4.150   3.902   0.568
 6832SOL    HW221396   4.269   3.916   0.457
 6833SOL     OW21397   3.759   5.502   0.609
 6833SOL    HW121398   3.847   5.526   0.569
 6833SOL    HW221399   3.708   5.586   0.630
 6834SOL     OW21400   6.451   6.149   4.988
 6834SOL    HW121401   6.479   6.116   4.897
 6834SOL    HW221402   6.446   6.072   5.051
 6835SOL     OW21403   3.410   0.137   3.116
 6835SOL    HW121404   3.353   0.143   3.034
 6835SOL    HW221405   3.503   0.166   3.094
 6836SOL     OW21406   1.145   4.284   6.688
 6836SOL    HW121407   1.241   4.265   6.666
 6836SOL    HW221408   1.106   4.206   6.736
 6837SOL     OW21409   5.783   2.734   1.791
 6837SOL    HW121410   5.736   2.695   1.870
 6837SOL    HW221411   5.745   2.696   1.707
 6838SOL     OW21412   2.410   4.540   6.987
 6838SOL    HW121413   2.365   4.545   0.051
 6838SOL    HW221414   2.406   4.446   6.954
 6839SOL     OW21415   0.132   2.941   4.999
 6839SOL    HW121416   0.131   2.881   5.079
 6839SOL    HW221417   0.103   3.033   5.027
 6840SOL     OW21418   3.471   0.239   4.079
 6840SOL    HW121419   3.378   0.242   4.041
 6840SOL    HW221420   3.499   0.143   4.091
 6841SOL     OW21421   4.932   5.700   1.028
 6841SOL    HW121422   4.973   5.612   1.049
 6841SOL    HW221423   4.930   5.757   1.110
 6842SOL     OW21424   6.802   3.565   3.059
 6842SOL    HW121425   6.859   3.619   2.997
 6842SOL    HW221426   6.706   3.577   3.036
 6843SOL     OW21427   4.454   3.372   1.693
 6843SOL    HW121428   4.539   3.318   1.695
 6843SOL    HW221429   4.414   3.366   1.602
 6844SOL     OW21430   3.117   6.768   3.813
 6844SOL    HW121431   3.033   6.808   3.849
 6844SOL    HW221432   3.187   6.766   3.885
 6845SOL     OW21433   3.854   4.235   0.146
 6845SOL    HW121434   3.852   4.285   0.232
 6845SOL    HW221435   3.825   4.140   0.161
 6846SOL     OW21436   3.124   3.071   3.958
 6846SOL    HW121437   3.128   3.156   3.905
 6846SOL    HW221438   3.091   3.091   4.050
 6847SOL     OW21439   5.029   3.676   0.524
 6847SOL    HW121440   4.936   3.701   0.497
 6847SOL    HW221441   5.073   3.626   0.449
 6848SOL     OW21442   1.035   6.105   4.770
 6848SOL    HW121443   1.083   6.136   4.688
 6848SOL    HW221444   1.026   6.182   4.834
 6849SOL     OW21445   2.462   0.641   4.552
 6849SOL    HW121446   2.368   0.643   4.519
 6849SOL    HW221447   2.523   0.677   4.482
 6850SOL     OW21448   0.483   2.172   1.648
 6850SOL    HW121449   0.562   2.116   1.623
 6850SOL    HW221450   0.399   2.127   1.621
 6851SOL     OW21451   2.180   4.881   0.922
 6851SOL    HW121452   2.089   4.840   0.926
 6851SOL    HW221453   2.217   4.887   1.015
 6852SOL     OW21454   4.695   4.691   2.967
 6852SOL    HW121455   4.645   4.702   2.881
 6852SOL    HW221456   4.783   4.739   2.961
 6853SOL     OW21457   6.170   4.145   4.640
 6853SOL    HW121458   6.077   4.169   4.670
 6853SOL    HW221459   6.232   4.219   4.665
 6854SOL     OW21460   5.966   0.820   6.470
 6854SOL    HW121461   5.991   0.905   6.515
 6854SOL    HW221462   6.034   0.798   6.400
 6855SOL     OW21463   2.471   6.918   3.475
 6855SOL    HW121464   2.512   7.002   3.510
 6855SOL    HW221465   2.480   6.845   3.544
 6856SOL     OW21466   0.817   5.092   5.673
 6856SOL    HW121467   0.802   5.075   5.771
 6856SOL    HW221468   0.914   5.111   5.658
 6857SOL     OW21469   4.958   1.086   6.513
 6857SOL    HW121470   4.952   1.121   6.606
 6857SOL    HW221471   4.913   1.151   6.451
 6858SOL     OW21472   3.390   3.316   6.364
 6858SOL    HW121473   3.305   3.353   6.401
 6858SOL    HW221474   3.369   3.235   6.309
 6859SOL     OW21475   4.210   6.577   1.426
 6859SOL    HW121476   4.155   6.507   1.472
 6859SOL    HW221477   4.255   6.634   1.494
 6860SOL     OW21478   4.557   3.353   0.483
 6860SOL    HW121479   4.614   3.309   0.414
 6860SOL    HW221480   4.500   3.423   0.439
 6861SOL     OW21481   6.322   3.229   0.160
 6861SOL    HW121482   6.281   3.315   0.193
 6861SOL    HW221483   6.304   3.219   0.062
 6862SOL     OW21484   2.515   4.809   4.472
 6862SOL    HW121485   2.536   4.714   4.448
 6862SOL    HW221486   2.522   4.821   4.571
 6863SOL     OW21487   0.922   3.656   3.772
 6863SOL    HW121488   0.941   3.588   3.843
 6863SOL    HW221489   0.996   3.723   3.769
 6864SOL     OW21490   3.222   5.938   5.771
 6864SOL    HW121491   3.313   5.964   5.738
 6864SOL    HW221492   3.195   5.852   5.729
 6865SOL     OW21493   0.618   2.351   5.341
 6865SOL    HW121494   0.592   2.355   5.244
 6865SOL    HW221495   0.710   2.313   5.349
 6866SOL     OW21496   0.636   4.409   2.829
 6866SOL    HW121497   0.578   4.419   2.748
 6866SOL    HW221498   0.633   4.314   2.860
 6867SOL     OW21499   3.012   5.752   3.787
 6867SOL    HW121500   3.085   5.748   3.718
 6867SOL    HW221501   2.925   5.728   3.746
 6868SOL     OW21502   2.309   5.935   5.487
 6868SOL    HW121503   2.306   5.835   5.482
 6868SOL    HW221504   2.224   5.969   5.527
 6869SOL     OW21505   0.214   2.546   3.800
 6869SOL    HW121506   0.150   2.557   3.876
 6869SOL    HW221507   0.252   2.453   3.802
 6870SOL     OW21508   4.844   3.948   2.926
 6870SOL    HW121509   4.794   4.033   2.940
 6870SOL    HW221510   4.912   3.961   2.853
 6871SOL     OW21511   4.164   5.971   2.408
 6871SOL    HW121512   4.229   6.042   2.380
 6871SOL    HW221513   4.071   6.003   2.393
 6872SOL     OW21514   3.355   4.304   1.123
 6872SOL    HW121515   3.418   4.342   1.055
 6872SOL    HW221516   3.315   4.379   1.176
 6873SOL     OW21517   4.599   4.956   5.892
 6873SOL    HW121518   4.571   4.866   5.859
 6873SOL    HW221519   4.651   4.945   5.977
 6874SOL     OW21520   1.192   1.724   6.355
 6874SOL    HW121521   1.267   1.685   6.408
 6874SOL    HW221522   1.228   1.764   6.271
 6875SOL     OW21523   3.570   6.460   4.809
 6875SOL    HW121524   3.493   6.451   4.872
 6875SOL    HW221525   3.557   6.399   4.731
 6876SOL     OW21526   2.926   7.016   5.043
 6876SOL    HW121527   2.981   0.012   4.962
 6876SOL    HW221528   2.898   0.074   5.088
 6877SOL     OW21529   1.411   4.310   0.718
 6877SOL    HW121530   1.395   4.271   0.809
 6877SOL    HW221531   1.505   4.290   0.689
 6878SOL     OW21532   2.345   1.982   5.207
 6878SOL    HW121533   2.438   1.963   5.173
 6878SOL    HW221534   2.344   2.072   5.250
 6879SOL     OW21535   6.418   1.162   6.104
 6879SOL    HW121536   6.325   1.138   6.078
 6879SOL    HW221537   6.481   1.091   6.073
 6880SOL     OW21538   1.205   5.207   4.308
 6880SOL    HW121539   1.298   5.241   4.320
 6880SOL    HW221540   1.206   5.129   4.245
 6881SOL     OW21541   4.940   6.918   1.115
 6881SOL    HW121542   4.976   6.972   1.191
 6881SOL    HW221543   4.867   6.859   1.147
 6882SOL     OW21544   2.760   5.827   5.681
 6882SOL    HW121545   2.797   5.916   5.709
 6882SOL    HW221546   2.675   5.810   5.730
 6883SOL     OW21547   2.166   0.084   1.927
 6883SOL    HW121548   2.157   0.176   1.965
 6883SOL    HW221549   2.096   0.069   1.858
 6884SOL     OW21550   1.543   5.365   3.236
 6884SOL    HW121551   1.511   5.327   3.323
 6884SOL    HW221552   1.598   5.297   3.188
 6885SOL     OW21553   4.475   4.578   4.703
 6885SOL    HW121554   4.535   4.502   4.679
 6885SOL    HW221555   4.439   4.565   4.795
 6886SOL     OW21556   5.600   6.611   0.768
 6886SOL    HW121557   5.651   6.530   0.798
 6886SOL    HW221558   5.611   6.621   0.669
 6887SOL     OW21559   6.853   0.549   4.901
 6887SOL    HW121560   6.884   0.628   4.954
 6887SOL    HW221561   6.834   0.577   4.807
 6888SOL     OW21562   6.738   6.730   4.012
 6888SOL    HW121563   6.643   6.700   4.019
 6888SOL    HW221564   6.777   6.739   4.104
 6889SOL     OW21565   2.072   4.131   6.225
 6889SOL    HW121566   2.001   4.135   6.155
 6889SOL    HW221567   2.108   4.223   6.241
 6890SOL     OW21568   1.572   0.558   0.805
 6890SOL    HW121569   1.483   0.584   0.766
 6890SOL    HW221570   1.645   0.583   0.741
 6891SOL     OW21571   5.173   5.627   5.485
 6891SOL    HW121572   5.273   5.627   5.488
 6891SOL    HW221573   5.142   5.670   5.400
 6892SOL     OW21574   2.971   2.237   4.114
 6892SOL    HW121575   2.887   2.206   4.069
 6892SOL    HW221576   3.035   2.273   4.046
 6893SOL     OW21577   5.145   0.382   0.692
 6893SOL    HW121578   5.192   0.437   0.623
 6893SOL    HW221579   5.083   0.318   0.646
 6894SOL     OW21580   5.888   4.505   4.934
 6894SOL    HW121581   5.986   4.489   4.938
 6894SOL    HW221582   5.852   4.515   5.027
 6895SOL     OW21583   5.071   4.334   4.101
 6895SOL    HW121584   5.067   4.420   4.152
 6895SOL    HW221585   5.094   4.353   4.006
 6896SOL     OW21586   5.290   2.044   2.165
 6896SOL    HW121587   5.237   2.116   2.209
 6896SOL    HW221588   5.355   2.005   2.232
 6897SOL     OW21589   4.355   1.777   1.452
 6897SOL    HW121590   4.397   1.686   1.456
 6897SOL    HW221591   4.416   1.841   1.406
 6898SOL     OW21592   4.355   1.104   1.628
 6898SOL    HW121593   4.258   1.116   1.605
 6898SOL    HW221594   4.409   1.107   1.545
 6899SOL     OW21595   5.288   4.504   5.715
 6899SOL    HW121596   5.325   4.420   5.676
 6899SOL    HW221597   5.363   4.566   5.737
 6900SOL     OW21598   4.429   0.480   5.785
 6900SOL    HW121599   4.519   0.469   5.743
 6900SOL    HW221600   4.403   0.394   5.831
 6901SOL     OW21601   1.576   0.627   6.957
 6901SOL    HW121602   1.668   0.657   6.981
 6901SOL    HW221603   1.534   0.581   0.010
 6902SOL     OW21604   6.384   5.235   2.474
 6902SOL    HW121605   6.389   5.294   2.393
 6902SOL    HW221606   6.305   5.262   2.529
 6903SOL     OW21607   6.091   4.532   6.894
 6903SOL    HW121608   6.175   4.587   6.891
 6903SOL    HW221609   6.015   4.584   6.854
 6904SOL     OW21610   0.393   1.177   2.356
 6904SOL    HW121611   0.396   1.241   2.433
 6904SOL    HW221612   0.339   1.097   2.380
 6905SOL     OW21613   3.517   4.858   0.542
 6905SOL    HW121614   3.531   4.936   0.603
 6905SOL    HW221615   3.573   4.869   0.460
 6906SOL     OW21616   5.524   6.511   2.256
 6906SOL    HW121617   5.607   6.475   2.213
 6906SOL    HW221618   5.539   6.607   2.281
 6907SOL     OW21619   3.572   1.097   1.922
 6907SOL    HW121620   3.518   1.108   2.005
 6907SOL    HW221621   3.669   1.108   1.944
 6908SOL     OW21622   5.213   6.674   0.014
 6908SOL    HW121623   5.300   6.714   7.010
 6908SOL    HW221624   5.226   6.622   0.098
 6909SOL     OW21625   2.697   2.207   0.104
 6909SOL    HW121626   2.599   2.194   0.090
 6909SOL    HW221627   2.726   2.292   0.059
 6910SOL     OW21628   4.142   1.086   0.804
 6910SOL    HW121629   4.160   1.136   0.889
 6910SOL    HW221630   4.124   1.152   0.731
 6911SOL     OW21631   3.703   6.323   5.418
 6911SOL    HW121632   3.608   6.291   5.414
 6911SOL    HW221633   3.734   6.322   5.513
 6912SOL     OW21634   3.660   5.445   1.962
 6912SOL    HW121635   3.658   5.381   1.885
 6912SOL    HW221636   3.567   5.477   1.982
 6913SOL     OW21637   4.036   6.104   5.986
 6913SOL    HW121638   4.095   6.172   5.943
 6913SOL    HW221639   4.075   6.078   6.075
 6914SOL     OW21640   0.179   4.960   0.140
 6914SOL    HW121641   0.243   4.896   0.097
 6914SOL    HW221642   0.089   4.916   0.149
 6915SOL     OW21643   0.720   0.331   6.802
 6915SOL    HW121644   0.777   0.290   6.873
 6915SOL    HW221645   0.640   0.273   6.787
 6916SOL     OW21646   6.235   0.444   6.456
 6916SOL    HW121647   6.211   0.377   6.386
 6916SOL    HW221648   6.251   0.397   6.543
 6917SOL     OW21649   3.918   6.306   6.397
 6917SOL    HW121650   3.884   6.228   6.345
 6917SOL    HW221651   3.892   6.296   6.493
 6918SOL     OW21652   1.659   2.835   3.824
 6918SOL    HW121653   1.563   2.831   3.798
 6918SOL    HW221654   1.666   2.835   3.924
 6919SOL     OW21655   1.652   6.052   3.704
 6919SOL    HW121656   1.581   5.991   3.668
 6919SOL    HW221657   1.644   6.057   3.804
 6920SOL     OW21658   5.962   5.954   3.965
 6920SOL    HW121659   5.884   5.958   4.028
 6920SOL    HW221660   6.042   5.919   4.014
 6921SOL     OW21661   1.709   4.964   2.265
 6921SOL    HW121662   1.782   5.032   2.270
 6921SOL    HW221663   1.629   5.005   2.221
 6922SOL     OW21664   1.271   6.326   1.739
 6922SOL    HW121665   1.263   6.357   1.834
 6922SOL    HW221666   1.338   6.382   1.691
 6923SOL     OW21667   5.126   5.823   4.910
 6923SOL    HW121668   5.070   5.873   4.976
 6923SOL    HW221669   5.068   5.760   4.858
 6924SOL     OW21670   5.229   5.924   2.462
 6924SOL    HW121671   5.257   5.975   2.381
 6924SOL    HW221672   5.166   5.851   2.435
 6925SOL     OW21673   4.282   5.797   1.802
 6925SOL    HW121674   4.208   5.843   1.851
 6925SOL    HW221675   4.369   5.812   1.850
 6926SOL     OW21676   2.740   4.311   5.364
 6926SOL    HW121677   2.782   4.367   5.293
 6926SOL    HW221678   2.651   4.278   5.332
 6927SOL     OW21679   4.155   3.634   0.740
 6927SOL    HW121680   4.214   3.632   0.820
 6927SOL    HW221681   4.084   3.564   0.749
 6928SOL     OW21682   6.679   0.195   6.401
 6928SOL    HW121683   6.699   0.098   6.387
 6928SOL    HW221684   6.738   0.230   6.474
 6929SOL     OW21685   4.067   6.081   1.239
 6929SOL    HW121686   4.078   6.181   1.238
 6929SOL    HW221687   4.009   6.055   1.316
 6930SOL     OW21688   0.281   0.991   3.377
 6930SOL    HW121689   0.184   1.011   3.389
 6930SOL    HW221690   0.293   0.892   3.364
 6931SOL     OW21691   2.289   0.032   0.895
 6931SOL    HW121692   2.367   7.009   0.854
 6931SOL    HW221693   2.210   6.997   0.899
 6932SOL     OW21694   3.350   2.706   0.740
 6932SOL    HW121695   3.257   2.678   0.717
 6932SOL    HW221696   3.401   2.725   0.656
 6933SOL     OW21697   2.801   6.255   5.318
 6933SOL    HW121698   2.799   6.157   5.297
 6933SOL    HW221699   2.844   6.269   5.407
 6934SOL     OW21700   5.404   4.820   0.027
 6934SOL    HW121701   5.419   4.810   6.955
 6934SOL    HW221702   5.314   4.783   0.051
 6935SOL     OW21703   4.377   5.598   3.507
 6935SOL    HW121704   4.395   5.507   3.544
 6935SOL    HW221705   4.310   5.591   3.433
 6936SOL     OW21706   1.367   4.700   0.103
 6936SOL    HW121707   1.333   4.609   0.127
 6936SOL    HW221708   1.435   4.692   0.030
 6937SOL     OW21709   4.549   6.159   6.625
 6937SOL    HW121710   4.479   6.222   6.592
 6937SOL    HW221711   4.506   6.073   6.653
 6938SOL     OW21712   6.773   2.473   5.504
 6938SOL    HW121713   6.843   2.495   5.572
 6938SOL    HW221714   6.730   2.386   5.528
 6939SOL     OW21715   6.391   4.337   2.152
 6939SOL    HW121716   6.398   4.431   2.118
 6939SOL    HW221717   6.452   4.325   2.230
 6940SOL     OW21718   4.044   0.681   3.899
 6940SOL    HW121719   3.990   0.749   3.948
 6940SOL    HW221720   4.138   0.683   3.932
 6941SOL     OW21721   3.673   2.967   5.313
 6941SOL    HW121722   3.708   3.007   5.228
 6941SOL    HW221723   3.746   2.921   5.362
 6942SOL     OW21724   6.503   1.150   6.471
 6942SOL    HW121725   6.430   1.207   6.433
 6942SOL    HW221726   6.494   1.057   6.437
 6943SOL     OW21727   6.029   4.171   0.232
 6943SOL    HW121728   5.993   4.230   0.305
 6943SOL    HW221729   6.118   4.135   0.260
 6944SOL     OW21730   2.348   0.271   6.931
 6944SOL    HW121731   2.354   0.363   6.894
 6944SOL    HW221732   2.278   0.267   7.001
 6945SOL     OW21733   3.066   0.996   6.331
 6945SOL    HW121734   3.025   0.999   6.240
 6945SOL    HW221735   3.137   1.066   6.338
 6946SOL     OW21736   5.756   3.927   2.853
 6946SOL    HW121737   5.758   3.975   2.765
 6946SOL    HW221738   5.766   3.993   2.927
 6947SOL     OW21739   4.099   6.824   0.874
 6947SOL    HW121740   4.126   6.782   0.787
 6947SOL    HW221741   4.035   6.764   0.922
 6948SOL     OW21742   3.419   1.320   6.200
 6948SOL    HW121743   3.349   1.287   6.263
 6948SOL    HW221744   3.452   1.410   6.230
 6949SOL     OW21745   5.207   6.880   2.699
 6949SOL    HW121746   5.107   6.871   2.703
 6949SOL    HW221747   5.248   6.790   2.680
 6950SOL     OW21748   3.186   2.013   3.436
 6950SOL    HW121749   3.254   2.023   3.510
 6950SOL    HW221750   3.118   1.945   3.464
 6951SOL     OW21751   3.938   4.028   5.533
 6951SOL    HW121752   3.999   4.028   5.454
 6951SOL    HW221753   3.880   4.110   5.530
 6952SOL     OW21754   0.640   3.540   6.614
 6952SOL    HW121755   0.551   3.535   6.659
 6952SOL    HW221756   0.650   3.628   6.568
 6953SOL     OW21757   6.019   2.423   4.549
 6953SOL    HW121758   6.036   2.411   4.647
 6953SOL    HW221759   5.984   2.337   4.511
 6954SOL     OW21760   0.225   4.644   2.071
 6954SOL    HW121761   0.296   4.625   2.139
 6954SOL    HW221762   0.225   4.571   2.003
 6955SOL     OW21763   6.640   1.238   3.600
 6955SOL    HW121764   6.625   1.337   3.588
 6955SOL    HW221765   6.658   1.218   3.696
 6956SOL     OW21766   3.492   4.109   1.455
 6956SOL    HW121767   3.459   4.033   1.512
 6956SOL    HW221768   3.558   4.074   1.389
 6957SOL     OW21769   1.477   4.465   0.407
 6957SOL    HW121770   1.444   4.559   0.397
 6957SOL    HW221771   1.568   4.467   0.450
 6958SOL     OW21772   2.228   3.323   5.710
 6958SOL    HW121773   2.262   3.351   5.620
 6958SOL    HW221774   2.192   3.403   5.758
 6959SOL     OW21775   4.183   1.383   5.441
 6959SOL    HW121776   4.121   1.348   5.370
 6959SOL    HW221777   4.167   1.481   5.454
 6960SOL     OW21778   1.020   6.107   6.928
 6960SOL    HW121779   1.016   6.045   6.850
 6960SOL    HW221780   1.116   6.129   6.948
 6961SOL     OW21781   5.834   0.757   3.727
 6961SOL    HW121782   5.818   0.702   3.644
 6961SOL    HW221783   5.782   0.842   3.720
 6962SOL     OW21784   3.384   2.981   0.833
 6962SOL    HW121785   3.313   3.014   0.895
 6962SOL    HW221786   3.364   2.886   0.807
 6963SOL     OW21787   6.757   5.940   1.537
 6963SOL    HW121788   6.680   5.945   1.601
 6963SOL    HW221789   6.810   6.025   1.542
 6964SOL     OW21790   4.189   5.404   5.501
 6964SOL    HW121791   4.161   5.326   5.445
 6964SOL    HW221792   4.152   5.488   5.461
 6965SOL     OW21793   5.723   0.745   6.020
 6965SOL    HW121794   5.663   0.778   6.093
 6965SOL    HW221795   5.779   0.670   6.054
 6966SOL     OW21796   4.070   2.231   3.586
 6966SOL    HW121797   3.981   2.231   3.539
 6966SOL    HW221798   4.056   2.213   3.683
 6967SOL     OW21799   2.766   2.867   6.820
 6967SOL    HW121800   2.695   2.913   6.873
 6967SOL    HW221801   2.855   2.881   6.865
 6968SOL     OW21802   3.181   0.603   3.493
 6968SOL    HW121803   3.201   0.560   3.405
 6968SOL    HW221804   3.085   0.587   3.517
 6969SOL     OW21805   3.815   3.163   1.864
 6969SOL    HW121806   3.841   3.109   1.944
 6969SOL    HW221807   3.723   3.136   1.834
 6970SOL     OW21808   5.070   3.811   0.040
 6970SOL    HW121809   4.983   3.762   0.031
 6970SOL    HW221810   5.056   3.908   0.019
 6971SOL     OW21811   6.057   1.842   2.353
 6971SOL    HW121812   6.139   1.858   2.407
 6971SOL    HW221813   6.010   1.929   2.336
 6972SOL     OW21814   4.946   5.904   4.244
 6972SOL    HW121815   5.020   5.968   4.225
 6972SOL    HW221816   4.875   5.950   4.297
 6973SOL     OW21817   1.896   4.521   2.768
 6973SOL    HW121818   1.881   4.422   2.760
 6973SOL    HW221819   1.928   4.557   2.681
 6974SOL     OW21820   2.736   3.339   5.281
 6974SOL    HW121821   2.653   3.311   5.329
 6974SOL    HW221822   2.736   3.438   5.270
 6975SOL     OW21823   1.595   6.724   5.937
 6975SOL    HW121824   1.569   6.639   5.984
 6975SOL    HW221825   1.573   6.802   5.996
 6976SOL     OW21826   0.997   6.147   1.566
 6976SOL    HW121827   1.051   6.122   1.486
 6976SOL    HW221828   1.051   6.132   1.649
 6977SOL     OW21829   5.796   2.357   1.168
 6977SOL    HW121830   5.830   2.404   1.087
 6977SOL    HW221831   5.730   2.287   1.142
 6978SOL     OW21832   5.387   2.970   3.932
 6978SOL    HW121833   5.466   2.986   3.872
 6978SOL    HW221834   5.303   2.976   3.878
 6979SOL     OW21835   0.160   3.468   4.323
 6979SOL    HW121836   0.091   3.474   4.395
 6979SOL    HW221837   0.166   3.373   4.291
 6980SOL     OW21838   5.103   2.046   5.200
 6980SOL    HW121839   5.156   2.104   5.263
 6980SOL    HW221840   5.022   2.011   5.248
 6981SOL     OW21841   3.093   3.398   6.382
 6981SOL    HW121842   3.047   3.453   6.451
 6981SOL    HW221843   3.135   3.458   6.314
 6982SOL     OW21844   1.259   6.997   4.443
 6982SOL    HW121845   1.332   6.931   4.462
 6982SOL    HW221846   1.280   0.058   4.489
 6983SOL     OW21847   5.908   0.818   3.007
 6983SOL    HW121848   5.853   0.761   3.068
 6983SOL    HW221849   5.888   0.795   2.912
 6984SOL     OW21850   2.178   1.182   6.586
 6984SOL    HW121851   2.229   1.181   6.672
 6984SOL    HW221852   2.239   1.156   6.511
 6985SOL     OW21853   4.484   6.953   4.025
 6985SOL    HW121854   4.399   7.002   4.042
 6985SOL    HW221855   4.544   6.962   4.105
 6986SOL     OW21856   2.617   6.264   5.785
 6986SOL    HW121857   2.626   6.341   5.848
 6986SOL    HW221858   2.572   6.188   5.831
 6987SOL     OW21859   6.683   3.854   6.327
 6987SOL    HW121860   6.640   3.883   6.241
 6987SOL    HW221861   6.754   3.787   6.307
 6988SOL     OW21862   5.261   2.199   6.560
 6988SOL    HW121863   5.266   2.124   6.495
 6988SOL    HW221864   5.353   2.226   6.588
 6989SOL     OW21865   2.212   4.005   4.309
 6989SOL    HW121866   2.208   4.047   4.400
 6989SOL    HW221867   2.288   4.045   4.257
 6990SOL     OW21868   4.347   3.804   1.631
 6990SOL    HW121869   4.310   3.718   1.666
 6990SOL    HW221870   4.334   3.808   1.532
 6991SOL     OW21871   4.491   4.692   5.754
 6991SOL    HW121872   4.450   4.605   5.725
 6991SOL    HW221873   4.586   4.696   5.723
 6992SOL     OW21874   6.601   6.379   4.990
 6992SOL    HW121875   6.593   6.430   5.075
 6992SOL    HW221876   6.547   6.295   4.996
 6993SOL     OW21877   0.391   0.899   2.806
 6993SOL    HW121878   0.324   0.826   2.797
 6993SOL    HW221879   0.472   0.864   2.853
 6994SOL     OW21880   2.072   2.723   0.322
 6994SOL    HW121881   2.141   2.770   0.268
 6994SOL    HW221882   1.997   2.787   0.342
 6995SOL     OW21883   0.769   5.513   3.751
 6995SOL    HW121884   0.732   5.425   3.722
 6995SOL    HW221885   0.833   5.499   3.827
 6996SOL     OW21886   1.594   6.717   5.188
 6996SOL    HW121887   1.581   6.787   5.118
 6996SOL    HW221888   1.674   6.740   5.244
 6997SOL     OW21889   4.842   4.755   4.710
 6997SOL    HW121890   4.824   4.745   4.613
 6997SOL    HW221891   4.756   4.771   4.759
 6998SOL     OW21892   2.543   2.247   1.726
 6998SOL    HW121893   2.586   2.274   1.812
 6998SOL    HW221894   2.557   2.320   1.659
 6999SOL     OW21895   5.697   2.459   6.513
 6999SOL    HW121896   5.779   2.402   6.511
 6999SOL    HW221897   5.723   2.555   6.526
 7000SOL     OW21898   6.825   7.002   1.862
 7000SOL    HW121899   6.728   7.023   1.876
 7000SOL    HW221900   6.872   0.058   1.828
 7001SOL     OW21901   2.909   1.475   6.645
 7001SOL    HW121902   2.853   1.504   6.722
 7001SOL    HW221903   2.945   1.383   6.663
 7002SOL     OW21904   2.958   5.698   1.166
 7002SOL    HW121905   3.028   5.627   1.162
 7002SOL    HW221906   2.885   5.678   1.101
 7003SOL     OW21907   1.042   6.390   6.176
 7003SOL    HW121908   1.020   6.467   6.236
 7003SOL    HW221909   1.106   6.419   6.105
 7004SOL     OW21910   2.687   4.049   6.342
 7004SOL    HW121911   2.699   4.031   6.439
 7004SOL    HW221912   2.746   4.124   6.313
 7005SOL     OW21913   6.312   0.457   5.707
 7005SOL    HW121914   6.254   0.523   5.659
 7005SOL    HW221915   6.405   0.493   5.712
 7006SOL     OW21916   4.817   5.438   4.410
 7006SOL    HW121917   4.827   5.519   4.351
 7006SOL    HW221918   4.721   5.428   4.437
 7007SOL     OW21919   5.337   4.728   1.247
 7007SOL    HW121920   5.353   4.699   1.153
 7007SOL    HW221921   5.418   4.709   1.302
 7008SOL     OW21922   0.676   6.477   4.279
 7008SOL    HW121923   0.587   6.521   4.278
 7008SOL    HW221924   0.735   6.520   4.210
 7009SOL     OW21925   6.729   3.910   1.595
 7009SOL    HW121926   6.717   4.005   1.565
 7009SOL    HW221927   6.817   3.876   1.563
 7010SOL     OW21928   5.009   4.534   5.680
 7010SOL    HW121929   4.989   4.601   5.608
 7010SOL    HW221930   5.108   4.530   5.695
 7011SOL     OW21931   1.550   0.203   6.038
 7011SOL    HW121932   1.506   0.154   5.963
 7011SOL    HW221933   1.578   0.294   6.006
 7012SOL     OW21934   7.016   0.711   1.786
 7012SOL    HW121935   7.005   0.790   1.846
 7012SOL    HW221936   6.930   0.694   1.737
 7013SOL     OW21937   6.436   1.974   1.258
 7013SOL    HW121938   6.433   2.068   1.294
 7013SOL    HW221939   6.529   1.953   1.229
 7014SOL     OW21940   2.420   5.408   1.231
 7014SOL    HW121941   2.473   5.450   1.157
 7014SOL    HW221942   2.415   5.309   1.216
 7015SOL     OW21943   4.595   1.851   2.579
 7015SOL    HW121944   4.543   1.883   2.499
 7015SOL    HW221945   4.642   1.928   2.621
 7016SOL     OW21946   5.321   4.455   0.276
 7016SOL    HW121947   5.373   4.540   0.279
 7016SOL    HW221948   5.364   4.387   0.335
 7017SOL     OW21949   5.195   2.652   5.525
 7017SOL    HW121950   5.241   2.584   5.582
 7017SOL    HW221951   5.096   2.643   5.536
 7018SOL     OW21952   0.486   4.489   3.620
 7018SOL    HW121953   0.409   4.478   3.682
 7018SOL    HW221954   0.546   4.562   3.653
 7019SOL     OW21955   6.431   6.383   2.361
 7019SOL    HW121956   6.381   6.459   2.402
 7019SOL    HW221957   6.378   6.299   2.373
 7020SOL     OW21958   6.796   5.393   0.253
 7020SOL    HW121959   6.875   5.341   0.284
 7020SOL    HW221960   6.712   5.343   0.278
 7021SOL     OW21961   2.862   6.947   5.421
 7021SOL    HW121962   2.795   6.896   5.476
 7021SOL    HW221963   2.855   6.918   5.326
 7022SOL     OW21964   3.714   4.673   5.697
 7022SOL    HW121965   3.751   4.689   5.606
 7022SOL    HW221966   3.697   4.575   5.710
 7023SOL     OW21967   5.043   5.085   2.394
 7023SOL    HW121968   4.980   5.139   2.450
 7023SOL    HW221969   5.001   5.067   2.305
 7024SOL     OW21970   6.137   6.797   1.966
 7024SOL    HW121971   6.118   6.838   2.055
 7024SOL    HW221972   6.073   6.833   1.898
 7025SOL     OW21973   3.196   0.128   1.453
 7025SOL    HW121974   3.231   0.153   1.363
 7025SOL    HW221975   3.099   0.154   1.460
 7026SOL     OW21976   4.233   2.259   0.459
 7026SOL    HW121977   4.284   2.303   0.386
 7026SOL    HW221978   4.242   2.312   0.543
 7027SOL     OW21979   5.620   6.003   5.106
 7027SOL    HW121980   5.628   6.101   5.089
 7027SOL    HW221981   5.669   5.953   5.034
 7028SOL     OW21982   3.240   0.916   4.763
 7028SOL    HW121983   3.181   0.956   4.833
 7028SOL    HW221984   3.189   0.911   4.677
 7029SOL     OW21985   3.553   6.950   4.147
 7029SOL    HW121986   3.479   6.982   4.086
 7029SOL    HW221987   3.577   6.856   4.124
 7030SOL     OW21988   1.092   3.868   3.736
 7030SOL    HW121989   1.134   3.937   3.796
 7030SOL    HW221990   1.160   3.835   3.671
 7031SOL     OW21991   2.002   0.804   4.140
 7031SOL    HW121992   1.981   0.709   4.165
 7031SOL    HW221993   2.080   0.806   4.078
 7032SOL     OW21994   6.245   2.362   3.514
 7032SOL    HW121995   6.216   2.280   3.464
 7032SOL    HW221996   6.339   2.385   3.487
 7033SOL     OW21997   6.955   0.790   5.058
 7033SOL    HW121998   6.888   0.862   5.043
 7033SOL    HW221999   6.937   0.744   5.146
 7034SOL     OW22000   6.912   5.037   3.913
 7034SOL    HW122001   6.858   4.990   3.983
 7034SOL    HW222002   7.003   5.058   3.950
 7035SOL     OW22003   0.079   4.268   0.981
 7035SOL    HW122004   0.089   4.266   1.081
 7035SOL    HW222005   7.020   4.222   0.956
 7036SOL     OW22006   6.100   5.525   0.920
 7036SOL    HW122007   6.188   5.531   0.967
 7036SOL    HW222008   6.085   5.432   0.887
 7037SOL     OW22009   1.199   0.078   6.753
 7037SOL    HW122010   1.162   0.032   6.834
 7037SOL    HW222011   1.172   0.174   6.754
 7038SOL     OW22012   2.353   2.668   3.492
 7038SOL    HW122013   2.441   2.714   3.483
 7038SOL    HW222014   2.312   2.691   3.580
 7039SOL     OW22015   4.256   1.729   6.653
 7039SOL    HW122016   4.233   1.732   6.751
 7039SOL    HW222017   4.172   1.736   6.599
 7040SOL     OW22018   6.656   2.136   6.658
 7040SOL    HW122019   6.571   2.109   6.612
 7040SOL    HW222020   6.637   2.204   6.728
 7041SOL     OW22021   2.010   1.340   3.506
 7041SOL    HW122022   2.004   1.280   3.426
 7041SOL    HW222023   1.980   1.290   3.587
 7042SOL     OW22024   2.103   0.944   0.059
 7042SOL    HW122025   2.173   0.915   0.125
 7042SOL    HW222026   2.018   0.965   0.108
 7043SOL     OW22027   1.858   2.744   0.922
 7043SOL    HW122028   1.785   2.700   0.869
 7043SOL    HW222029   1.945   2.697   0.904
 7044SOL     OW22030   0.054   5.740   0.754
 7044SOL    HW122031   0.064   5.674   0.680
 7044SOL    HW222032   6.986   5.737   0.790
 7045SOL     OW22033   0.581   4.225   6.902
 7045SOL    HW122034   0.499   4.279   6.885
 7045SOL    HW222035   0.574   4.179   6.991
 7046SOL     OW22036   2.324   2.035   3.289
 7046SOL    HW122037   2.367   1.950   3.260
 7046SOL    HW222038   2.274   2.020   3.374
 7047SOL     OW22039   1.300   6.743   3.141
 7047SOL    HW122040   1.212   6.789   3.155
 7047SOL    HW222041   1.305   6.710   3.046
 7048SOL     OW22042   0.403   5.517   6.672
 7048SOL    HW122043   0.371   5.594   6.616
 7048SOL    HW222044   0.414   5.547   6.766
 7049SOL     OW22045   2.501   1.141   6.416
 7049SOL    HW122046   2.568   1.073   6.444
 7049SOL    HW222047   2.463   1.115   6.327
 7050SOL     OW22048   3.407   3.495   5.963
 7050SOL    HW122049   3.354   3.539   5.890
 7050SOL    HW222050   3.462   3.421   5.925
 7051SOL     OW22051   5.519   6.446   1.795
 7051SOL    HW122052   5.608   6.480   1.765
 7051SOL    HW222053   5.475   6.398   1.720
 7052SOL     OW22054   6.276   0.953   4.792
 7052SOL    HW122055   6.218   0.971   4.872
 7052SOL    HW222056   6.229   0.985   4.710
 7053SOL     OW22057   6.280   3.529   6.503
 7053SOL    HW122058   6.329   3.608   6.466
 7053SOL    HW222059   6.186   3.555   6.526
 7054SOL     OW22060   5.951   2.764   2.514
 7054SOL    HW122061   5.853   2.775   2.533
 7054SOL    HW222062   5.965   2.680   2.461
 7055SOL     OW22063   3.862   1.673   3.385
 7055SOL    HW122064   3.775   1.710   3.416
 7055SOL    HW222065   3.931   1.686   3.456
 7056SOL     OW22066   4.735   6.038   4.326
 7056SOL    HW122067   4.650   5.988   4.343
 7056SOL    HW222068   4.714   6.131   4.295
 7057SOL     OW22069   5.472   6.079   3.043
 7057SOL    HW122070   5.376   6.104   3.059
 7057SOL    HW222071   5.531   6.138   3.098
 7058SOL     OW22072   0.485   4.311   4.718
 7058SOL    HW122073   0.401   4.280   4.762
 7058SOL    HW222074   0.507   4.251   4.641
 7059SOL     OW22075   1.405   0.441   2.127
 7059SOL    HW122076   1.313   0.461   2.091
 7059SOL    HW222077   1.417   0.342   2.134
 7060SOL     OW22078   4.028   6.956   1.529
 7060SOL    HW122079   3.958   7.017   1.567
 7060SOL    HW222080   4.049   6.985   1.436
 7061SOL     OW22081   0.734   1.293   2.877
 7061SOL    HW122082   0.717   1.198   2.904
 7061SOL    HW222083   0.772   1.344   2.955
 7062SOL     OW22084   6.525   0.812   5.666
 7062SOL    HW122085   6.430   0.840   5.682
 7062SOL    HW222086   6.586   0.886   5.694
 7063SOL     OW22087   1.764   6.809   1.743
 7063SOL    HW122088   1.712   6.890   1.719
 7063SOL    HW222089   1.705   6.745   1.793
 7064SOL     OW22090   3.215   3.142   0.973
 7064SOL    HW122091   3.216   3.207   1.050
 7064SOL    HW222092   3.121   3.130   0.942
 7065SOL     OW22093   2.997   3.503   2.499
 7065SOL    HW122094   2.967   3.461   2.584
 7065SOL    HW222095   3.086   3.548   2.513
 7066SOL     OW22096   2.540   4.791   1.682
 7066SOL    HW122097   2.463   4.844   1.717
 7066SOL    HW222098   2.616   4.797   1.747
 7067SOL     OW22099   1.445   4.074   4.556
 7067SOL    HW122100   1.435   3.984   4.600
 7067SOL    HW222101   1.443   4.062   4.457
 7068SOL     OW22102   0.778   1.084   3.241
 7068SOL    HW122103   0.711   1.121   3.306
 7068SOL    HW222104   0.732   1.064   3.155
 7069SOL     OW22105   1.500   3.911   5.584
 7069SOL    HW122106   1.500   3.923   5.683
 7069SOL    HW222107   1.589   3.877   5.554
 7070SOL     OW22108   5.597   5.694   2.813
 7070SOL    HW122109   5.534   5.752   2.762
 7070SOL    HW222110   5.608   5.730   2.906
 7071SOL     OW22111   1.807   6.693   5.558
 7071SOL    HW122112   1.737   6.628   5.587
 7071SOL    HW222113   1.790   6.782   5.600
 7072SOL     OW22114   0.226   6.930   6.458
 7072SOL    HW122115   0.185   6.954   6.546
 7072SOL    HW222116   0.209   7.003   6.392
 7073SOL     OW22117   1.888   2.610   0.042
 7073SOL    HW122118   1.951   2.604   0.119
 7073SOL    HW222119   1.891   2.703   0.004
 7074SOL     OW22120   3.781   1.533   6.267
 7074SOL    HW122121   3.771   1.551   6.365
 7074SOL    HW222122   3.831   1.447   6.254
 7075SOL     OW22123   0.299   6.363   3.384
 7075SOL    HW122124   0.376   6.328   3.437
 7075SOL    HW222125   0.220   6.303   3.396
 7076SOL     OW22126   2.915   1.312   5.845
 7076SOL    HW122127   2.860   1.316   5.928
 7076SOL    HW222128   3.007   1.346   5.864
 7077SOL     OW22129   0.921   5.698   6.483
 7077SOL    HW122130   1.010   5.653   6.480
 7077SOL    HW222131   0.849   5.628   6.488
 7078SOL     OW22132   0.513   0.345   1.394
 7078SOL    HW122133   0.418   0.340   1.362
 7078SOL    HW222134   0.551   0.434   1.369
 7079SOL     OW22135   5.189   6.528   3.963
 7079SOL    HW122136   5.282   6.489   3.961
 7079SOL    HW222137   5.191   6.622   3.930
 7080SOL     OW22138   6.316   0.494   3.537
 7080SOL    HW122139   6.228   0.541   3.545
 7080SOL    HW222140   6.343   0.491   3.441
 7081SOL     OW22141   4.238   0.771   4.546
 7081SOL    HW122142   4.217   0.734   4.456
 7081SOL    HW222143   4.243   0.871   4.541
 7082SOL     OW22144   5.778   1.039   0.497
 7082SOL    HW122145   5.856   1.015   0.440
 7082SOL    HW222146   5.693   1.006   0.455
 7083SOL     OW22147   4.442   0.373   5.098
 7083SOL    HW122148   4.390   0.456   5.078
 7083SOL    HW222149   4.537   0.397   5.118
 7084SOL     OW22150   6.299   5.353   0.298
 7084SOL    HW122151   6.231   5.300   0.349
 7084SOL    HW222152   6.254   5.411   0.231
 7085SOL     OW22153   5.113   1.704   1.049
 7085SOL    HW122154   5.137   1.757   0.968
 7085SOL    HW222155   5.167   1.620   1.050
 7086SOL     OW22156   1.332   0.767   6.026
 7086SOL    HW122157   1.396   0.691   6.035
 7086SOL    HW222158   1.380   0.853   6.046
 7087SOL     OW22159   2.440   2.668   4.399
 7087SOL    HW122160   2.532   2.696   4.424
 7087SOL    HW222161   2.374   2.734   4.435
 7088SOL     OW22162   6.963   1.167   4.422
 7088SOL    HW122163   6.987   1.256   4.382
 7088SOL    HW222164   6.892   1.180   4.491
 7089SOL     OW22165   2.768   2.169   2.126
 7089SOL    HW122166   2.729   2.234   2.191
 7089SOL    HW222167   2.823   2.219   2.058
 7090SOL     OW22168   3.486   0.775   4.954
 7090SOL    HW122169   3.422   0.791   4.879
 7090SOL    HW222170   3.439   0.791   5.041
 7091SOL     OW22171   6.679   4.971   6.717
 7091SOL    HW122172   6.597   5.027   6.731
 7091SOL    HW222173   6.753   5.006   6.774
 7092SOL     OW22174   3.818   2.440   1.024
 7092SOL    HW122175   3.911   2.415   0.996
 7092SOL    HW222176   3.755   2.367   1.000
 7093SOL     OW22177   3.950   3.639   5.906
 7093SOL    HW122178   4.034   3.585   5.899
 7093SOL    HW222179   3.959   3.722   5.851
 7094SOL     OW22180   6.271   1.269   6.397
 7094SOL    HW122181   6.186   1.304   6.435
 7094SOL    HW222182   6.260   1.174   6.370
 7095SOL     OW22183   1.227   4.373   1.460
 7095SOL    HW122184   1.130   4.363   1.481
 7095SOL    HW222185   1.274   4.286   1.479
 7096SOL     OW22186   3.460   0.138   3.391
 7096SOL    HW122187   3.418   0.167   3.305
 7096SOL    HW222188   3.406   0.172   3.467
 7097SOL     OW22189   2.016   1.521   1.611
 7097SOL    HW122190   2.025   1.514   1.711
 7097SOL    HW222191   1.920   1.522   1.586
 7098SOL     OW22192   1.346   0.534   6.827
 7098SOL    HW122193   1.435   0.565   6.859
 7098SOL    HW222194   1.327   0.575   6.738
 7099SOL     OW22195   0.210   1.417   4.243
 7099SOL    HW122196   0.241   1.423   4.339
 7099SOL    HW222197   0.110   1.416   4.240
 7100SOL     OW22198   5.747   2.487   0.711
 7100SOL    HW122199   5.798   2.552   0.655
 7100SOL    HW222200   5.762   2.395   0.676
 7101SOL     OW22201   1.651   0.641   4.920
 7101SOL    HW122202   1.622   0.737   4.931
 7101SOL    HW222203   1.680   0.626   4.826
 7102SOL     OW22204   4.371   2.615   0.051
 7102SOL    HW122205   4.365   2.597   6.978
 7102SOL    HW222206   4.281   2.645   0.084
 7103SOL     OW22207   2.073   6.725   6.400
 7103SOL    HW122208   2.135   6.785   6.451
 7103SOL    HW222209   2.039   6.773   6.319
 7104SOL     OW22210   0.003   3.584   1.454
 7104SOL    HW122211   6.952   3.548   1.508
 7104SOL    HW222212   0.088   3.569   1.504
 7105SOL     OW22213   2.119   2.544   4.596
 7105SOL    HW122214   2.142   2.632   4.555
 7105SOL    HW222215   2.085   2.482   4.525
 7106SOL     OW22216   3.073   2.997   5.243
 7106SOL    HW122217   2.976   3.013   5.266
 7106SOL    HW222218   3.089   2.898   5.235
 7107SOL     OW22219   2.042   2.039   0.181
 7107SOL    HW122220   2.028   2.137   0.168
 7107SOL    HW222221   2.110   2.023   0.253
 7108SOL     OW22222   4.190   6.695   2.610
 7108SOL    HW122223   4.218   6.748   2.689
 7108SOL    HW222224   4.196   6.597   2.632
 7109SOL     OW22225   4.873   5.689   6.992
 7109SOL    HW122226   4.792   5.662   0.018
 7109SOL    HW222227   4.848   5.709   6.898
 7110SOL     OW22228   3.770   5.408   4.349
 7110SOL    HW122229   3.780   5.506   4.368
 7110SOL    HW222230   3.806   5.356   4.427
 7111SOL     OW22231   1.300   3.071   2.956
 7111SOL    HW122232   1.284   3.167   2.934
 7111SOL    HW222233   1.275   3.054   3.052
 7112SOL     OW22234   2.056   6.046   2.736
 7112SOL    HW122235   1.993   6.118   2.706
 7112SOL    HW222236   2.137   6.045   2.677
 7113SOL     OW22237   3.685   3.933   6.057
 7113SOL    HW122238   3.676   4.013   6.117
 7113SOL    HW222239   3.695   3.964   5.962
 7114SOL     OW22240   3.736   6.655   0.649
 7114SOL    HW122241   3.743   6.727   0.580
 7114SOL    HW222242   3.827   6.616   0.665
 7115SOL     OW22243   3.909   2.281   1.547
 7115SOL    HW122244   3.965   2.321   1.619
 7115SOL    HW222245   3.899   2.346   1.472
 7116SOL     OW22246   6.395   4.244   3.969
 7116SOL    HW122247   6.407   4.200   3.880
 7116SOL    HW222248   6.298   4.266   3.982
 7117SOL     OW22249   5.384   0.418   2.521
 7117SOL    HW122250   5.465   0.367   2.551
 7117SOL    HW222251   5.386   0.510   2.559
 7118SOL     OW22252   6.826   3.523   3.708
 7118SOL    HW122253   6.907   3.566   3.668
 7118SOL    HW222254   6.846   3.494   3.801
 7119SOL     OW22255   0.693   2.080   2.280
 7119SOL    HW122256   0.717   2.051   2.188
 7119SOL    HW222257   0.612   2.031   2.310
 7120SOL     OW22258   4.471   6.610   4.375
 7120SOL    HW122259   4.447   6.606   4.277
 7120SOL    HW222260   4.472   6.705   4.405
 7121SOL     OW22261   1.571   6.292   0.826
 7121SOL    HW122262   1.503   6.235   0.781
 7121SOL    HW222263   1.660   6.279   0.782
 7122SOL     OW22264   7.011   6.135   0.128
 7122SOL    HW122265   6.920   6.151   0.167
 7122SOL    HW222266   0.011   6.039   0.143
 7123SOL     OW22267   3.166   4.749   0.809
 7123SOL    HW122268   3.156   4.665   0.861
 7123SOL    HW222269   3.232   4.736   0.736
 7124SOL     OW22270   0.585   5.020   6.761
 7124SOL    HW122271   0.519   4.946   6.765
 7124SOL    HW222272   0.607   5.050   6.854
 7125SOL     OW22273   1.384   5.638   3.407
 7125SOL    HW122274   1.480   5.610   3.403
 7125SOL    HW222275   1.378   5.734   3.435
 7126SOL     OW22276   1.538   4.458   1.127
 7126SOL    HW122277   1.569   4.363   1.125
 7126SOL    HW222278   1.455   4.468   1.073
 7127SOL     OW22279   2.243   0.416   5.154
 7127SOL    HW122280   2.229   0.409   5.055
 7127SOL    HW222281   2.291   0.501   5.175
 7128SOL     OW22282   3.048   3.976   2.612
 7128SOL    HW122283   3.029   3.985   2.515
 7128SOL    HW222284   3.117   4.044   2.639
 7129SOL     OW22285   3.501   1.961   0.463
 7129SOL    HW122286   3.451   2.001   0.539
 7129SOL    HW222287   3.599   1.964   0.482
 7130SOL     OW22288   1.577   0.592   3.056
 7130SOL    HW122289   1.548   0.649   2.980
 7130SOL    HW222290   1.591   0.648   3.137
 7131SOL     OW22291   2.778   1.081   2.984
 7131SOL    HW122292   2.777   1.139   2.902
 7131SOL    HW222293   2.823   1.129   3.059
 7132SOL     OW22294   3.045   3.895   2.349
 7132SOL    HW122295   3.109   3.918   2.276
 7132SOL    HW222296   3.077   3.812   2.396
 7133SOL     OW22297   6.274   4.160   2.010
 7133SOL    HW122298   6.310   4.240   2.057
 7133SOL    HW222299   6.178   4.177   1.985
 7134SOL     OW22300   4.601   4.699   2.722
 7134SOL    HW122301   4.608   4.724   2.625
 7134SOL    HW222302   4.546   4.615   2.730
 7135SOL     OW22303   6.896   1.734   5.924
 7135SOL    HW122304   6.950   1.670   5.979
 7135SOL    HW222305   6.918   1.828   5.951
 7136SOL     OW22306   2.279   2.007   6.508
 7136SOL    HW122307   2.329   1.933   6.462
 7136SOL    HW222308   2.345   2.070   6.550
 7137SOL     OW22309   5.573   2.051   5.260
 7137SOL    HW122310   5.504   1.980   5.276
 7137SOL    HW222311   5.558   2.093   5.170
 7138SOL     OW22312   2.450   1.821   6.399
 7138SOL    HW122313   2.543   1.813   6.364
 7138SOL    HW222314   2.391   1.753   6.354
 7139SOL     OW22315   1.996   1.399   0.071
 7139SOL    HW122316   2.057   1.325   0.045
 7139SOL    HW222317   1.902   1.364   0.079
 7140SOL     OW22318   6.418   4.741   4.569
 7140SOL    HW122319   6.493   4.680   4.543
 7140SOL    HW222320   6.416   4.819   4.507
 7141SOL     OW22321   0.933   0.809   1.931
 7141SOL    HW122322   0.894   0.731   1.979
 7141SOL    HW222323   1.032   0.811   1.944
 7142SOL     OW22324   3.274   6.635   4.072
 7142SOL    HW122325   3.260   6.625   4.170
 7142SOL    HW222326   3.367   6.667   4.054
 7143SOL     OW22327   1.762   3.126   4.017
 7143SOL    HW122328   1.751   3.031   4.047
 7143SOL    HW222329   1.844   3.134   3.960
 7144SOL     OW22330   1.705   3.430   3.456
 7144SOL    HW122331   1.712   3.530   3.457
 7144SOL    HW222332   1.742   3.393   3.541
 7145SOL     OW22333   3.190   5.604   6.854
 7145SOL    HW122334   3.212   5.509   6.874
 7145SOL    HW222335   3.249   5.664   6.908
 7146SOL     OW22336   3.870   4.973   1.403
 7146SOL    HW122337   3.894   5.065   1.374
 7146SOL    HW222338   3.950   4.913   1.396
 7147SOL     OW22339   0.825   1.281   3.800
 7147SOL    HW122340   0.918   1.245   3.812
 7147SOL    HW222341   0.828   1.360   3.738
 7148SOL     OW22342   6.651   2.037   0.707
 7148SOL    HW122343   6.551   2.037   0.705
 7148SOL    HW222344   6.683   2.042   0.802
 7149SOL     OW22345   1.166   0.727   4.598
 7149SOL    HW122346   1.228   0.802   4.574
 7149SOL    HW222347   1.192   0.690   4.687
 7150SOL     OW22348   7.015   3.077   5.877
 7150SOL    HW122349   6.996   3.145   5.947
 7150SOL    HW222350   6.931   3.028   5.855
 7151SOL     OW22351   1.398   0.242   0.429
 7151SOL    HW122352   1.318   0.182   0.425
 7151SOL    HW222353   1.481   0.186   0.424
 7152SOL     OW22354   0.639   2.397   4.454
 7152SOL    HW122355   0.577   2.457   4.505
 7152SOL    HW222356   0.623   2.408   4.356
 7153SOL     OW22357   4.514   1.902   3.276
 7153SOL    HW122358   4.502   1.803   3.283
 7153SOL    HW222359   4.430   1.943   3.240
 7154SOL     OW22360   3.429   0.198   4.350
 7154SOL    HW122361   3.425   0.279   4.409
 7154SOL    HW222362   3.424   0.225   4.255
 7155SOL     OW22363   2.342   1.660   4.101
 7155SOL    HW122364   2.382   1.631   4.014
 7155SOL    HW222365   2.415   1.672   4.168
 7156SOL     OW22366   2.347   5.624   5.451
 7156SOL    HW122367   2.294   5.638   5.367
 7156SOL    HW222368   2.439   5.660   5.439
 7157SOL     OW22369   5.799   4.162   0.594
 7157SOL    HW122370   5.751   4.202   0.673
 7157SOL    HW222371   5.734   4.109   0.540
 7158SOL     OW22372   3.823   0.409   3.255
 7158SOL    HW122373   3.795   0.417   3.351
 7158SOL    HW222374   3.807   0.497   3.209
 7159SOL     OW22375   1.518   6.147   0.002
 7159SOL    HW122376   1.483   6.054   7.024
 7159SOL    HW222377   1.578   6.164   6.950
 7160SOL     OW22378   0.629   0.230   2.348
 7160SOL    HW122379   0.536   0.233   2.312
 7160SOL    HW222380   0.640   0.302   2.417
 7161SOL     OW22381   2.917   3.633   5.021
 7161SOL    HW122382   2.984   3.654   5.093
 7161SOL    HW222383   2.828   3.617   5.064
 7162SOL     OW22384   3.524   4.905   4.096
 7162SOL    HW122385   3.448   4.846   4.069
 7162SOL    HW222386   3.494   4.967   4.169
 7163SOL     OW22387   1.018   6.549   3.726
 7163SOL    HW122388   1.011   6.492   3.645
 7163SOL    HW222389   1.023   6.491   3.808
 7164SOL     OW22390   3.613   1.396   4.305
 7164SOL    HW122391   3.570   1.448   4.379
 7164SOL    HW222392   3.682   1.334   4.342
 7165SOL     OW22393   4.400   5.002   2.135
 7165SOL    HW122394   4.329   5.043   2.078
 7165SOL    HW222395   4.357   4.953   2.211
 7166SOL     OW22396   3.197   6.777   2.598
 7166SOL    HW122397   3.157   6.740   2.514
 7166SOL    HW222398   3.296   6.774   2.593
 7167SOL     OW22399   5.792   2.548   0.255
 7167SOL    HW122400   5.806   2.608   0.176
 7167SOL    HW222401   5.737   2.596   0.324
 7168SOL     OW22402   6.596   1.335   4.272
 7168SOL    HW122403   6.653   1.253   4.263
 7168SOL    HW222404   6.614   1.397   4.196
 7169SOL     OW22405   2.443   2.798   0.103
 7169SOL    HW122406   2.464   2.746   0.021
 7169SOL    HW222407   2.347   2.826   0.102
 7170SOL     OW22408   4.890   3.896   4.597
 7170SOL    HW122409   4.888   3.875   4.694
 7170SOL    HW222410   4.878   3.812   4.544
 7171SOL     OW22411   3.441   3.633   5.202
 7171SOL    HW122412   3.435   3.727   5.169
 7171SOL    HW222413   3.358   3.611   5.253
 7172SOL     OW22414   5.563   5.888   1.476
 7172SOL    HW122415   5.561   5.802   1.526
 7172SOL    HW222416   5.617   5.955   1.528
 7173SOL     OW22417   6.427   6.675   4.506
 7173SOL    HW122418   6.396   6.762   4.466
 7173SOL    HW222419   6.503   6.639   4.453
 7174SOL     OW22420   1.018   6.336   5.810
 7174SOL    HW122421   1.002   6.326   5.712
 7174SOL    HW222422   0.960   6.410   5.846
 7175SOL     OW22423   6.066   3.577   5.781
 7175SOL    HW122424   6.125   3.657   5.766
 7175SOL    HW222425   6.100   3.500   5.727
 7176SOL     OW22426   1.369   3.261   1.338
 7176SOL    HW122427   1.442   3.316   1.297
 7176SOL    HW222428   1.346   3.186   1.276
 7177SOL     OW22429   0.301   4.881   1.306
 7177SOL    HW122430   0.208   4.847   1.317
 7177SOL    HW222431   0.358   4.845   1.380
 7178SOL     OW22432   6.569   0.333   6.767
 7178SOL    HW122433   6.539   0.369   6.856
 7178SOL    HW222434   6.490   0.304   6.714
 7179SOL     OW22435   0.786   3.808   5.833
 7179SOL    HW122436   0.865   3.836   5.888
 7179SOL    HW222437   0.770   3.710   5.845
 7180SOL     OW22438   0.264   0.429   2.118
 7180SOL    HW122439   0.345   0.436   2.059
 7180SOL    HW222440   0.257   0.511   2.174
 7181SOL     OW22441   5.247   6.607   2.407
 7181SOL    HW122442   5.326   6.565   2.363
 7181SOL    HW222443   5.254   6.596   2.507
 7182SOL     OW22444   3.518   3.766   5.871
 7182SOL    HW122445   3.418   3.772   5.876
 7182SOL    HW222446   3.555   3.758   5.964
 7183SOL     OW22447   2.308   2.777   2.679
 7183SOL    HW122448   2.279   2.834   2.602
 7183SOL    HW222449   2.302   2.680   2.652
 7184SOL     OW22450   2.579   5.464   3.166
 7184SOL    HW122451   2.581   5.486   3.069
 7184SOL    HW222452   2.637   5.384   3.183
 7185SOL     OW22453   5.604   2.276   6.304
 7185SOL    HW122454   5.621   2.309   6.211
 7185SOL    HW222455   5.603   2.354   6.367
 7186SOL     OW22456   1.226   6.597   4.659
 7186SOL    HW122457   1.279   6.657   4.719
 7186SOL    HW222458   1.286   6.530   4.616
 7187SOL     OW22459   1.470   4.845   1.305
 7187SOL    HW122460   1.475   4.895   1.391
 7187SOL    HW222461   1.374   4.823   1.285
 7188SOL     OW22462   4.371   0.187   1.852
 7188SOL    HW122463   4.467   0.211   1.844
 7188SOL    HW222464   4.317   0.270   1.868
 7189SOL     OW22465   6.185   1.044   5.992
 7189SOL    HW122466   6.196   1.074   5.897
 7189SOL    HW222467   6.089   1.020   6.008
 7190SOL     OW22468   4.827   5.010   2.160
 7190SOL    HW122469   4.783   4.999   2.071
 7190SOL    HW222470   4.792   4.940   2.223
 7191SOL     OW22471   0.775   3.575   1.565
 7191SOL    HW122472   0.702   3.556   1.499
 7191SOL    HW222473   0.855   3.613   1.518
 7192SOL     OW22474   3.416   4.374   6.175
 7192SOL    HW122475   3.480   4.298   6.189
 7192SOL    HW222476   3.334   4.339   6.131
 7193SOL     OW22477   5.923   2.060   4.741
 7193SOL    HW122478   5.956   1.968   4.722
 7193SOL    HW222479   5.957   2.089   4.830
 7194SOL     OW22480   3.473   0.677   1.596
 7194SOL    HW122481   3.488   0.640   1.688
 7194SOL    HW222482   3.395   0.740   1.598
 7195SOL     OW22483   0.718   0.115   3.553
 7195SOL    HW122484   0.813   0.132   3.527
 7195SOL    HW222485   0.683   0.034   3.505
 7196SOL     OW22486   3.897   4.039   1.499
 7196SOL    HW122487   3.832   4.014   1.428
 7196SOL    HW222488   3.918   3.959   1.555
 7197SOL     OW22489   2.209   0.812   3.960
 7197SOL    HW122490   2.179   0.770   3.874
 7197SOL    HW222491   2.273   0.887   3.940
 7198SOL     OW22492   0.005   6.659   5.557
 7198SOL    HW122493   0.097   6.646   5.594
 7198SOL    HW222494   0.010   6.715   5.474
 7199SOL     OW22495   6.034   6.053   1.584
 7199SOL    HW122496   6.114   6.101   1.621
 7199SOL    HW222497   5.987   6.113   1.519
 7200SOL     OW22498   1.142   1.975   2.365
 7200SOL    HW122499   1.213   1.917   2.405
 7200SOL    HW222500   1.055   1.958   2.411
 7201SOL     OW22501   1.487   4.676   3.139
 7201SOL    HW122502   1.551   4.734   3.089
 7201SOL    HW222503   1.461   4.598   3.083
 7202SOL     OW22504   2.171   6.799   5.313
 7202SOL    HW122505   2.082   6.757   5.301
 7202SOL    HW222506   2.214   6.813   5.224
 7203SOL     OW22507   5.533   0.652   6.719
 7203SOL    HW122508   5.489   0.563   6.709
 7203SOL    HW222509   5.532   0.679   6.815
 7204SOL     OW22510   0.846   3.468   2.586
 7204SOL    HW122511   0.932   3.500   2.626
 7204SOL    HW222512   0.769   3.505   2.637
 7205SOL     OW22513   1.420   4.190   1.534
 7205SOL    HW122514   1.454   4.161   1.445
 7205SOL    HW222515   1.464   4.135   1.605
 7206SOL     OW22516   6.654   0.589   1.858
 7206SOL    HW122517   6.710   0.533   1.919
 7206SOL    HW222518   6.671   0.562   1.763
 7207SOL     OW22519   3.659   6.972   1.381
 7207SOL    HW122520   3.713   7.023   1.448
 7207SOL    HW222521   3.645   0.003   1.300
 7208SOL     OW22522   2.572   0.014   4.958
 7208SOL    HW122523   2.479   0.049   4.964
 7208SOL    HW222524   2.609   0.035   4.867
 7209SOL     OW22525   2.480   3.558   5.451
 7209SOL    HW122526   2.424   3.617   5.509
 7209SOL    HW222527   2.563   3.606   5.423
 7210SOL     OW22528   4.196   0.781   4.271
 7210SOL    HW122529   4.101   0.756   4.292
 7210SOL    HW222530   4.198   0.873   4.230
 7211SOL     OW22531   0.479   5.547   3.017
 7211SOL    HW122532   0.537   5.628   3.014
 7211SOL    HW222533   0.417   5.548   2.938
 7212SOL     OW22534   5.482   6.279   2.746
 7212SOL    HW122535   5.496   6.354   2.681
 7212SOL    HW222536   5.489   6.192   2.698
 7213SOL     OW22537   5.414   6.384   5.396
 7213SOL    HW122538   5.496   6.431   5.429
 7213SOL    HW222539   5.439   6.293   5.364
 7214SOL     OW22540   1.588   5.124   6.047
 7214SOL    HW122541   1.515   5.182   6.083
 7214SOL    HW222542   1.567   5.099   5.953
 7215SOL     OW22543   1.512   2.942   1.332
 7215SOL    HW122544   1.588   2.884   1.302
 7215SOL    HW222545   1.473   2.905   1.416
 7216SOL     OW22546   2.375   1.751   2.647
 7216SOL    HW122547   2.337   1.836   2.683
 7216SOL    HW222548   2.302   1.699   2.602
 7217SOL     OW22549   1.181   3.785   1.920
 7217SOL    HW122550   1.168   3.723   1.997
 7217SOL    HW222551   1.098   3.839   1.907
 7218SOL     OW22552   6.572   3.039   3.563
 7218SOL    HW122553   6.640   2.972   3.533
 7218SOL    HW222554   6.596   3.129   3.528
 7219SOL     OW22555   2.214   1.325   1.590
 7219SOL    HW122556   2.165   1.410   1.611
 7219SOL    HW222557   2.312   1.339   1.602
 7220SOL     OW22558   6.778   2.084   3.466
 7220SOL    HW122559   6.778   2.076   3.366
 7220SOL    HW222560   6.689   2.056   3.502
 7221SOL     OW22561   6.750   3.688   4.741
 7221SOL    HW122562   6.733   3.766   4.802
 7221SOL    HW222563   6.736   3.603   4.792
 7222SOL     OW22564   6.455   0.392   2.699
 7222SOL    HW122565   6.379   0.373   2.761
 7222SOL    HW222566   6.492   0.306   2.664
 7223SOL     OW22567   5.111   0.813   4.307
 7223SOL    HW122568   5.054   0.840   4.385
 7223SOL    HW222569   5.085   0.867   4.227
 7224SOL     OW22570   4.917   1.118   3.490
 7224SOL    HW122571   4.861   1.037   3.472
 7224SOL    HW222572   5.013   1.096   3.473
 7225SOL     OW22573   2.934   0.190   1.510
 7225SOL    HW122574   2.920   0.127   1.434
 7225SOL    HW222575   2.848   0.201   1.560
 7226SOL     OW22576   5.564   6.812   5.056
 7226SOL    HW122577   5.518   6.900   5.051
 7226SOL    HW222578   5.579   6.787   5.151
 7227SOL     OW22579   0.608   2.611   5.441
 7227SOL    HW122580   0.628   2.513   5.435
 7227SOL    HW222581   0.658   2.650   5.518
 7228SOL     OW22582   1.807   6.932   2.950
 7228SOL    HW122583   1.899   6.956   2.918
 7228SOL    HW222584   1.813   6.900   3.045
 7229SOL     OW22585   6.252   0.238   3.629
 7229SOL    HW122586   6.230   0.226   3.726
 7229SOL    HW222587   6.201   0.317   3.594
 7230SOL     OW22588   6.149   5.170   1.547
 7230SOL    HW122589   6.188   5.085   1.583
 7230SOL    HW222590   6.077   5.149   1.482
 7231SOL     OW22591   5.758   1.146   6.799
 7231SOL    HW122592   5.818   1.069   6.780
 7231SOL    HW222593   5.789   1.193   6.882
 7232SOL     OW22594   3.095   3.642   0.693
 7232SOL    HW122595   3.105   3.725   0.638
 7232SOL    HW222596   3.065   3.566   0.634
 7233SOL     OW22597   1.098   1.989   6.559
 7233SOL    HW122598   1.045   1.930   6.497
 7233SOL    HW222599   1.123   2.073   6.511
 7234SOL     OW22600   5.307   2.663   3.878
 7234SOL    HW122601   5.262   2.751   3.865
 7234SOL    HW222602   5.399   2.677   3.914
 7235SOL     OW22603   5.800   2.665   4.584
 7235SOL    HW122604   5.764   2.628   4.498
 7235SOL    HW222605   5.740   2.637   4.659
 7236SOL     OW22606   0.777   1.563   3.345
 7236SOL    HW122607   0.769   1.642   3.284
 7236SOL    HW222608   0.857   1.509   3.320
 7237SOL     OW22609   6.071   4.847   5.654
 7237SOL    HW122610   6.129   4.878   5.579
 7237SOL    HW222611   6.044   4.925   5.710
 7238SOL     OW22612   1.624   0.210   2.632
 7238SOL    HW122613   1.592   0.297   2.669
 7238SOL    HW222614   1.568   0.136   2.670
 7239SOL     OW22615   4.803   1.403   2.125
 7239SOL    HW122616   4.718   1.366   2.161
 7239SOL    HW222617   4.852   1.451   2.197
 7240SOL     OW22618   3.002   3.417   3.333
 7240SOL    HW122619   2.977   3.359   3.256
 7240SOL    HW222620   3.072   3.371   3.388
 7241SOL     OW22621   4.715   0.076   5.154
 7241SOL    HW122622   4.684   0.087   5.249
 7241SOL    HW222623   4.787   0.142   5.135
 7242SOL     OW22624   5.933   5.628   0.739
 7242SOL    HW122625   5.981   5.618   0.652
 7242SOL    HW222626   5.979   5.574   0.809
 7243SOL     OW22627   0.346   5.988   1.404
 7243SOL    HW122628   0.336   6.030   1.314
 7243SOL    HW222629   0.352   5.888   1.394
 7244SOL     OW22630   4.673   2.030   1.953
 7244SOL    HW122631   4.679   2.126   1.979
 7244SOL    HW222632   4.578   2.000   1.957
 7245SOL     OW22633   5.624   2.040   3.436
 7245SOL    HW122634   5.544   2.096   3.457
 7245SOL    HW222635   5.600   1.970   3.370
 7246SOL     OW22636   0.934   6.004   5.661
 7246SOL    HW122637   0.897   5.911   5.663
 7246SOL    HW222638   0.894   6.058   5.735
 7247SOL     OW22639   4.126   5.404   3.670
 7247SOL    HW122640   4.158   5.498   3.662
 7247SOL    HW222641   4.027   5.401   3.656
 7248SOL     OW22642   3.259   1.061   5.323
 7248SOL    HW122643   3.306   0.975   5.304
 7248SOL    HW222644   3.325   1.130   5.353
 7249SOL     OW22645   5.286   2.878   6.303
 7249SOL    HW122646   5.198   2.891   6.258
 7249SOL    HW222647   5.275   2.890   6.402
 7250SOL     OW22648   3.096   3.057   0.211
 7250SOL    HW122649   3.165   3.023   0.275
 7250SOL    HW222650   3.140   3.078   0.123
 7251SOL     OW22651   6.188   1.171   5.730
 7251SOL    HW122652   6.233   1.250   5.689
 7251SOL    HW222653   6.092   1.194   5.748
 7252SOL     OW22654   4.631   3.694   5.371
 7252SOL    HW122655   4.678   3.665   5.289
 7252SOL    HW222656   4.557   3.630   5.392
 7253SOL     OW22657   5.051   4.898   0.201
 7253SOL    HW122658   4.957   4.910   0.233
 7253SOL    HW222659   5.097   4.831   0.260
 7254SOL     OW22660   5.189   5.892   5.675
 7254SOL    HW122661   5.279   5.934   5.684
 7254SOL    HW222662   5.154   5.907   5.583
 7255SOL     OW22663   3.464   3.608   3.739
 7255SOL    HW122664   3.516   3.693   3.749
 7255SOL    HW222665   3.382   3.625   3.686
 7256SOL     OW22666   3.733   5.849   3.986
 7256SOL    HW122667   3.780   5.835   3.899
 7256SOL    HW222668   3.666   5.776   4.000
 7257SOL     OW22669   6.203   5.144   2.231
 7257SOL    HW122670   6.291   5.166   2.274
 7257SOL    HW222671   6.130   5.196   2.275
 7258SOL     OW22672   2.686   0.757   6.164
 7258SOL    HW122673   2.723   0.709   6.244
 7258SOL    HW222674   2.586   0.747   6.163
 7259SOL     OW22675   3.597   4.140   5.811
 7259SOL    HW122676   3.518   4.201   5.796
 7259SOL    HW222677   3.590   4.062   5.748
 7260SOL     OW22678   4.476   2.178   2.660
 7260SOL    HW122679   4.446   2.178   2.565
 7260SOL    HW222680   4.574   2.155   2.664
 7261SOL     OW22681   2.574   4.769   1.203
 7261SOL    HW122682   2.601   4.834   1.132
 7261SOL    HW222683   2.571   4.816   1.292
 7262SOL     OW22684   5.728   0.361   4.570
 7262SOL    HW122685   5.629   0.351   4.560
 7262SOL    HW222686   5.748   0.419   4.649
 7263SOL     OW22687   4.717   4.728   1.368
 7263SOL    HW122688   4.788   4.798   1.380
 7263SOL    HW222689   4.738   4.649   1.426
 7264SOL     OW22690   6.777   0.093   4.866
 7264SOL    HW122691   6.778   0.124   4.961
 7264SOL    HW222692   6.694   0.041   4.849
 7265SOL     OW22693   4.511   2.882   6.287
 7265SOL    HW122694   4.596   2.925   6.256
 7265SOL    HW222695   4.532   2.797   6.335
 7266SOL     OW22696   4.019   1.089   2.878
 7266SOL    HW122697   4.069   1.176   2.877
 7266SOL    HW222698   3.925   1.105   2.907
 7267SOL     OW22699   4.621   2.176   3.853
 7267SOL    HW122700   4.711   2.206   3.820
 7267SOL    HW222701   4.564   2.150   3.774
 7268SOL     OW22702   3.774   6.612   6.733
 7268SOL    HW122703   3.715   6.627   6.654
 7268SOL    HW222704   3.819   6.697   6.759
 7269SOL     OW22705   1.429   0.021   4.073
 7269SOL    HW122706   1.470   6.964   4.112
 7269SOL    HW222707   1.442   0.020   3.974
 7270SOL     OW22708   3.576   2.756   1.586
 7270SOL    HW122709   3.512   2.818   1.631
 7270SOL    HW222710   3.568   2.665   1.628
 7271SOL     OW22711   4.656   6.222   3.795
 7271SOL    HW122712   4.672   6.308   3.843
 7271SOL    HW222713   4.636   6.150   3.861
 7272SOL     OW22714   5.352   1.672   1.888
 7272SOL    HW122715   5.269   1.663   1.833
 7272SOL    HW222716   5.336   1.635   1.979
 7273SOL     OW22717   5.980   4.829   4.336
 7273SOL    HW122718   5.954   4.885   4.414
 7273SOL    HW222719   6.080   4.825   4.329
 7274SOL     OW22720   5.712   4.853   3.859
 7274SOL    HW122721   5.681   4.943   3.829
 7274SOL    HW222722   5.635   4.801   3.896
 7275SOL     OW22723   5.835   0.169   2.104
 7275SOL    HW122724   5.798   0.239   2.044
 7275SOL    HW222725   5.805   0.186   2.198
 7276SOL     OW22726   4.013   1.675   3.085
 7276SOL    HW122727   3.977   1.735   3.157
 7276SOL    HW222728   3.950   1.599   3.071
 7277SOL     OW22729   6.515   2.469   3.745
 7277SOL    HW122730   6.526   2.559   3.789
 7277SOL    HW222731   6.502   2.482   3.646
 7278SOL     OW22732   3.857   1.332   2.806
 7278SOL    HW122733   3.921   1.382   2.748
 7278SOL    HW222734   3.801   1.271   2.749
 7279SOL     OW22735   3.528   3.494   1.932
 7279SOL    HW122736   3.485   3.445   1.856
 7279SOL    HW222737   3.469   3.489   2.013
 7280SOL     OW22738   6.288   1.393   5.973
 7280SOL    HW122739   6.319   1.396   6.068
 7280SOL    HW222740   6.286   1.298   5.941
 7281SOL     OW22741   3.640   0.137   3.668
 7281SOL    HW122742   3.676   0.046   3.647
 7281SOL    HW222743   3.540   0.133   3.673
 7282SOL     OW22744   0.946   3.604   1.110
 7282SOL    HW122745   0.886   3.637   1.183
 7282SOL    HW222746   0.956   3.505   1.118
 7283SOL     OW22747   2.767   5.857   2.624
 7283SOL    HW122748   2.857   5.815   2.638
 7283SOL    HW222749   2.701   5.812   2.684
 7284SOL     OW22750   0.327   0.931   4.114
 7284SOL    HW122751   0.348   1.022   4.079
 7284SOL    HW222752   0.228   0.921   4.124
 7285SOL     OW22753   4.606   2.245   2.398
 7285SOL    HW122754   4.525   2.221   2.344
 7285SOL    HW222755   4.687   2.203   2.357
 7286SOL     OW22756   6.511   1.340   5.096
 7286SOL    HW122757   6.533   1.426   5.051
 7286SOL    HW222758   6.593   1.283   5.103
 7287SOL     OW22759   3.218   1.415   4.567
 7287SOL    HW122760   3.168   1.490   4.611
 7287SOL    HW222761   3.166   1.330   4.578
 7288SOL     OW22762   3.203   1.830   1.060
 7288SOL    HW122763   3.226   1.871   1.148
 7288SOL    HW222764   3.105   1.839   1.043
 7289SOL     OW22765   7.008   2.483   1.042
 7289SOL    HW122766   0.029   2.560   0.998
 7289SOL    HW222767   6.912   2.508   1.059
 7290SOL     OW22768   3.340   2.088   4.984
 7290SOL    HW122769   3.428   2.118   5.020
 7290SOL    HW222770   3.280   2.167   4.971
 7291SOL     OW22771   0.785   1.203   0.235
 7291SOL    HW122772   0.862   1.234   0.290
 7291SOL    HW222773   0.700   1.212   0.287
 7292SOL     OW22774   3.340   1.324   2.360
 7292SOL    HW122775   3.248   1.285   2.359
 7292SOL    HW222776   3.376   1.323   2.453
 7293SOL     OW22777   6.016   1.275   4.148
 7293SOL    HW122778   5.974   1.185   4.160
 7293SOL    HW222779   5.948   1.339   4.113
 7294SOL     OW22780   2.061   1.155   2.482
 7294SOL    HW122781   1.984   1.091   2.486
 7294SOL    HW222782   2.054   1.210   2.399
 7295SOL     OW22783   5.273   4.246   1.321
 7295SOL    HW122784   5.229   4.326   1.360
 7295SOL    HW222785   5.373   4.258   1.322
 7296SOL     OW22786   3.227   0.071   2.891
 7296SOL    HW122787   3.231   0.096   2.794
 7296SOL    HW222788   3.149   0.011   2.906
 7297SOL     OW22789   4.878   0.382   6.620
 7297SOL    HW122790   4.915   0.413   6.533
 7297SOL    HW222791   4.929   0.302   6.651
 7298SOL     OW22792   4.167   4.344   0.468
 7298SOL    HW122793   4.087   4.330   0.525
 7298SOL    HW222794   4.165   4.281   0.390
 7299SOL     OW22795   0.266   2.848   0.098
 7299SOL    HW122796   0.329   2.808   0.165
 7299SOL    HW222797   0.283   2.946   0.090
 7300SOL     OW22798   0.496   4.015   2.673
 7300SOL    HW122799   0.568   4.027   2.606
 7300SOL    HW222800   0.407   4.010   2.627
 7301SOL     OW22801   4.075   1.678   0.548
 7301SOL    HW122802   4.123   1.762   0.523
 7301SOL    HW222803   4.034   1.637   0.467
 7302SOL     OW22804   5.742   1.504   6.635
 7302SOL    HW122805   5.786   1.553   6.710
 7302SOL    HW222806   5.805   1.498   6.558
 7303SOL     OW22807   4.103   2.391   1.016
 7303SOL    HW122808   4.145   2.318   0.963
 7303SOL    HW222809   4.172   2.436   1.072
 7304SOL     OW22810   2.975   0.142   0.514
 7304SOL    HW122811   3.010   0.129   0.421
 7304SOL    HW222812   2.906   0.214   0.513
 7305SOL     OW22813   6.903   6.874   6.146
 7305SOL    HW122814   6.989   6.837   6.112
 7305SOL    HW222815   6.839   6.885   6.070
 7306SOL     OW22816   1.847   3.548   0.823
 7306SOL    HW122817   1.765   3.493   0.813
 7306SOL    HW222818   1.928   3.490   0.807
 7307SOL     OW22819   4.572   6.742   0.819
 7307SOL    HW122820   4.557   6.721   0.722
 7307SOL    HW222821   4.483   6.748   0.865
 7308SOL     OW22822   3.551   1.888   2.921
 7308SOL    HW122823   3.527   1.831   2.842
 7308SOL    HW222824   3.581   1.830   2.996
 7309SOL     OW22825   2.296   5.422   3.216
 7309SOL    HW122826   2.241   5.497   3.252
 7309SOL    HW222827   2.390   5.452   3.203
 7310SOL     OW22828   5.071   3.047   0.494
 7310SOL    HW122829   5.047   3.117   0.427
 7310SOL    HW222830   5.156   3.072   0.540
 7311SOL     OW22831   1.354   6.569   5.505
 7311SOL    HW122832   1.441   6.541   5.548
 7311SOL    HW222833   1.316   6.491   5.455
 7312SOL     OW22834   5.440   1.551   4.727
 7312SOL    HW122835   5.424   1.515   4.635
 7312SOL    HW222836   5.526   1.602   4.729
 7313SOL     OW22837   3.221   1.104   2.952
 7313SOL    HW122838   3.191   1.163   3.028
 7313SOL    HW222839   3.283   1.034   2.988
 7314SOL     OW22840   2.757   5.691   4.941
 7314SOL    HW122841   2.693   5.726   5.009
 7314SOL    HW222842   2.774   5.594   4.958
 7315SOL     OW22843   2.616   4.870   2.242
 7315SOL    HW122844   2.547   4.893   2.310
 7315SOL    HW222845   2.696   4.831   2.288
 7316SOL     OW22846   3.028   0.811   2.599
 7316SOL    HW122847   2.987   0.720   2.594
 7316SOL    HW222848   3.128   0.803   2.599
 7317SOL     OW22849   5.483   1.429   1.071
 7317SOL    HW122850   5.385   1.422   1.087
 7317SOL    HW222851   5.503   1.411   0.974
 7318SOL     OW22852   4.806   0.128   1.552
 7318SOL    HW122853   4.781   0.222   1.529
 7318SOL    HW222854   4.898   0.127   1.590
 7319SOL     OW22855   4.671   4.919   6.160
 7319SOL    HW122856   4.612   4.988   6.201
 7319SOL    HW222857   4.747   4.899   6.222
 7320SOL     OW22858   1.795   3.045   0.719
 7320SOL    HW122859   1.714   3.043   0.660
 7320SOL    HW222860   1.768   3.023   0.813
 7321SOL     OW22861   2.383   2.402   5.101
 7321SOL    HW122862   2.325   2.397   5.019
 7321SOL    HW222863   2.401   2.498   5.123
 7322SOL     OW22864   2.748   2.150   3.980
 7322SOL    HW122865   2.650   2.164   3.971
 7322SOL    HW222866   2.787   2.127   3.890
 7323SOL     OW22867   2.190   2.009   6.927
 7323SOL    HW122868   2.159   2.100   6.899
 7323SOL    HW222869   2.112   1.953   6.953
 7324SOL     OW22870   5.919   3.895   5.522
 7324SOL    HW122871   5.939   3.803   5.488
 7324SOL    HW222872   6.003   3.948   5.525
 7325SOL     OW22873   3.477   0.855   0.010
 7325SOL    HW122874   3.541   0.808   0.070
 7325SOL    HW222875   3.420   0.788   6.989
 7326SOL     OW22876   3.822   6.849   0.462
 7326SOL    HW122877   3.724   6.833   0.453
 7326SOL    HW222878   3.844   6.941   0.429
 7327SOL     OW22879   2.162   4.987   3.178
 7327SOL    HW122880   2.233   5.004   3.246
 7327SOL    HW222881   2.104   4.911   3.208
 7328SOL     OW22882   4.134   5.921   6.972
 7328SOL    HW122883   4.183   5.981   0.009
 7328SOL    HW222884   4.101   5.840   7.022
 7329SOL     OW22885   2.721   3.946   6.600
 7329SOL    HW122886   2.807   3.908   6.565
 7329SOL    HW222887   2.696   3.899   6.685
 7330SOL     OW22888   2.544   3.546   1.677
 7330SOL    HW122889   2.460   3.556   1.732
 7330SOL    HW222890   2.528   3.583   1.586
 7331SOL     OW22891   5.443   1.715   2.877
 7331SOL    HW122892   5.533   1.671   2.874
 7331SOL    HW222893   5.446   1.802   2.828
 7332SOL     OW22894   1.504   0.231   4.844
 7332SOL    HW122895   1.536   0.268   4.931
 7332SOL    HW222896   1.404   0.236   4.841
 7333SOL     OW22897   6.308   1.496   1.334
 7333SOL    HW122898   6.263   1.413   1.366
 7333SOL    HW222899   6.290   1.571   1.398
 7334SOL     OW22900   0.573   5.003   5.067
 7334SOL    HW122901   0.604   5.089   5.026
 7334SOL    HW222902   0.487   4.975   5.026
 7335SOL     OW22903   6.768   2.585   1.156
 7335SOL    HW122904   6.726   2.511   1.208
 7335SOL    HW222905   6.699   2.655   1.135
 7336SOL     OW22906   2.277   0.153   1.137
 7336SOL    HW122907   2.324   0.119   1.056
 7336SOL    HW222908   2.341   0.161   1.212
 7337SOL     OW22909   2.821   1.635   1.597
 7337SOL    HW122910   2.751   1.596   1.657
 7337SOL    HW222911   2.912   1.614   1.634
 7338SOL     OW22912   5.230   2.172   6.957
 7338SOL    HW122913   5.291   2.244   6.990
 7338SOL    HW222914   5.137   2.207   6.952
 7339SOL     OW22915   6.731   6.534   3.442
 7339SOL    HW122916   6.814   6.558   3.392
 7339SOL    HW222917   6.751   6.461   3.507
 7340SOL     OW22918   2.829   0.058   0.026
 7340SOL    HW122919   2.881   0.078   0.109
 7340SOL    HW222920   2.733   0.082   0.041
 7341SOL     OW22921   5.440   5.243   2.980
 7341SOL    HW122922   5.389   5.307   2.923
 7341SOL    HW222923   5.523   5.214   2.932
 7342SOL     OW22924   7.023   4.816   6.755
 7342SOL    HW122925   6.943   4.761   6.731
 7342SOL    HW222926   0.044   4.844   6.671
 7343SOL     OW22927   0.260   2.061   3.244
 7343SOL    HW122928   0.272   2.151   3.286
 7343SOL    HW222929   0.272   1.991   3.314
 7344SOL     OW22930   1.534   1.392   5.566
 7344SOL    HW122931   1.494   1.483   5.581
 7344SOL    HW222932   1.516   1.363   5.473
 7345SOL     OW22933   1.660   6.514   6.548
 7345SOL    HW122934   1.668   6.564   6.462
 7345SOL    HW222935   1.563   6.498   6.569
 7346SOL     OW22936   3.093   5.640   3.060
 7346SOL    HW122937   3.171   5.577   3.069
 7346SOL    HW222938   3.125   5.734   3.070
 7347SOL     OW22939   5.967   2.818   3.463
 7347SOL    HW122940   6.061   2.834   3.492
 7347SOL    HW222941   5.926   2.905   3.435
 7348SOL     OW22942   5.406   6.986   6.502
 7348SOL    HW122943   5.360   0.043   6.536
 7348SOL    HW222944   5.351   6.946   6.428
 7349SOL     OW22945   3.775   1.779   1.112
 7349SOL    HW122946   3.767   1.743   1.206
 7349SOL    HW222947   3.868   1.810   1.096
 7350SOL     OW22948   1.633   1.509   2.178
 7350SOL    HW122949   1.636   1.426   2.233
 7350SOL    HW222950   1.593   1.488   2.088
 7351SOL     OW22951   6.116   4.948   0.405
 7351SOL    HW122952   6.082   5.033   0.447
 7351SOL    HW222953   6.186   4.970   0.337
 7352SOL     OW22954   6.556   1.799   2.850
 7352SOL    HW122955   6.655   1.803   2.858
 7352SOL    HW222956   6.525   1.864   2.780
 7353SOL     OW22957   5.289   1.659   4.149
 7353SOL    HW122958   5.326   1.622   4.064
 7353SOL    HW222959   5.361   1.708   4.198
 7354SOL     OW22960   5.929   4.579   5.530
 7354SOL    HW122961   5.979   4.611   5.610
 7354SOL    HW222962   5.986   4.591   5.448
 7355SOL     OW22963   0.041   5.521   0.545
 7355SOL    HW122964   0.123   5.467   0.524
 7355SOL    HW222965   7.003   5.466   0.598
 7356SOL     OW22966   6.941   2.183   6.559
 7356SOL    HW122967   6.878   2.114   6.524
 7356SOL    HW222968   6.943   2.178   6.659
 7357SOL     OW22969   1.224   0.971   1.599
 7357SOL    HW122970   1.216   0.872   1.602
 7357SOL    HW222971   1.139   1.013   1.631
 7358SOL     OW22972   3.781   1.418   3.711
 7358SOL    HW122973   3.862   1.410   3.770
 7358SOL    HW222974   3.791   1.357   3.632
 7359SOL     OW22975   3.536   3.888   4.084
 7359SOL    HW122976   3.543   3.849   3.992
 7359SOL    HW222977   3.488   3.975   4.080
 7360SOL     OW22978   2.033   5.125   5.848
 7360SOL    HW122979   2.007   5.054   5.913
 7360SOL    HW222980   2.084   5.084   5.772
 7361SOL     OW22981   4.356   0.155   1.482
 7361SOL    HW122982   4.382   0.061   1.459
 7361SOL    HW222983   4.424   0.194   1.544
 7362SOL     OW22984   1.380   4.906   0.500
 7362SOL    HW122985   1.480   4.904   0.502
 7362SOL    HW222986   1.348   4.996   0.527
 7363SOL     OW22987   5.249   2.485   6.171
 7363SOL    HW122988   5.288   2.495   6.079
 7363SOL    HW222989   5.320   2.503   6.239
 7364SOL     OW22990   4.591   6.387   6.995
 7364SOL    HW122991   4.635   6.349   6.913
 7364SOL    HW222992   4.635   6.350   0.051
 7365SOL     OW22993   5.517   0.091   1.919
 7365SOL    HW122994   5.607   0.107   1.878
 7365SOL    HW222995   5.462   0.034   1.858
 7366SOL     OW22996   3.199   6.931   0.307
 7366SOL    HW122997   3.298   6.931   0.289
 7366SOL    HW222998   3.184   6.929   0.406
 7367SOL     OW22999   5.070   3.193   6.000
 7367SOL    HW123000   5.071   3.169   6.097
 7367SOL    HW223001   5.140   3.262   5.982
 7368SOL     OW23002   3.429   2.876   5.369
 7368SOL    HW123003   3.527   2.893   5.356
 7368SOL    HW223004   3.380   2.895   5.284
 7369SOL     OW23005   0.353   6.323   6.298
 7369SOL    HW123006   0.330   6.363   6.387
 7369SOL    HW223007   0.270   6.311   6.245
 7370SOL     OW23008   6.648   5.415   1.262
 7370SOL    HW123009   6.610   5.499   1.301
 7370SOL    HW223010   6.651   5.423   1.162
 7371SOL     OW23011   2.332   5.141   3.354
 7371SOL    HW123012   2.294   5.220   3.307
 7371SOL    HW223013   2.432   5.142   3.347
 7372SOL     OW23014   1.848   6.752   5.295
 7372SOL    HW123015   1.800   6.839   5.304
 7372SOL    HW223016   1.827   6.694   5.374
 7373SOL     OW23017   4.160   1.513   0.768
 7373SOL    HW123018   4.207   1.581   0.825
 7373SOL    HW223019   4.128   1.556   0.684
 7374SOL     OW23020   2.435   3.902   0.653
 7374SOL    HW123021   2.449   3.976   0.718
 7374SOL    HW223022   2.451   3.814   0.698
 7375SOL     OW23023   2.327   5.438   2.241
 7375SOL    HW123024   2.352   5.342   2.229
 7375SOL    HW223025   2.390   5.496   2.190
 7376SOL     OW23026   2.999   4.828   0.390
 7376SOL    HW123027   3.035   4.916   0.423
 7376SOL    HW223028   3.021   4.757   0.457
 7377SOL     OW23029   4.574   6.343   1.403
 7377SOL    HW123030   4.610   6.389   1.321
 7377SOL    HW223031   4.528   6.259   1.376
 7378SOL     OW23032   1.140   1.360   6.170
 7378SOL    HW123033   1.082   1.319   6.240
 7378SOL    HW223034   1.093   1.437   6.128
 7379SOL     OW23035   4.748   0.849   6.993
 7379SOL    HW123036   4.651   0.829   7.002
 7379SOL    HW223037   4.764   0.946   7.011
 7380SOL     OW23038   0.396   3.478   6.345
 7380SOL    HW123039   0.490   3.449   6.330
 7380SOL    HW223040   0.361   3.436   6.428
 7381SOL     OW23041   5.635   2.983   0.694
 7381SOL    HW123042   5.555   2.925   0.707
 7381SOL    HW223043   5.621   3.042   0.614
 7382SOL     OW23044   0.737   5.830   3.990
 7382SOL    HW123045   0.763   5.746   4.038
 7382SOL    HW223046   0.693   5.807   3.904
 7383SOL     OW23047   1.434   4.879   1.837
 7383SOL    HW123048   1.473   4.794   1.872
 7383SOL    HW223049   1.401   4.865   1.744
 7384SOL     OW23050   5.941   0.698   1.706
 7384SOL    HW123051   6.015   0.708   1.639
 7384SOL    HW223052   5.908   0.789   1.733
 7385SOL     OW23053   5.283   6.843   2.109
 7385SOL    HW123054   5.211   6.871   2.172
 7385SOL    HW223055   5.264   6.752   2.073
 7386SOL     OW23056   5.907   1.765   5.119
 7386SOL    HW123057   5.827   1.771   5.178
 7386SOL    HW223058   5.891   1.695   5.049
 7387SOL     OW23059   5.369   5.738   4.493
 7387SOL    HW123060   5.287   5.685   4.516
 7387SOL    HW223061   5.343   5.815   4.436
 7388SOL     OW23062   5.022   3.947   4.201
 7388SOL    HW123063   5.073   3.860   4.203
 7388SOL    HW223064   5.007   3.973   4.105
 7389SOL     OW23065   2.317   3.748   5.973
 7389SOL    HW123066   2.411   3.715   5.961
 7389SOL    HW223067   2.254   3.671   5.966
 7390SOL     OW23068   4.208   5.983   0.788
 7390SOL    HW123069   4.237   5.987   0.884
 7390SOL    HW223070   4.190   5.888   0.762
 7391SOL     OW23071   0.041   4.743   0.773
 7391SOL    HW123072   0.040   4.759   0.871
 7391SOL    HW223073   0.116   4.794   0.730
 7392SOL     OW23074   1.312   4.639   1.495
 7392SOL    HW123075   1.291   4.685   1.409
 7392SOL    HW223076   1.296   4.541   1.485
 7393SOL     OW23077   1.648   3.695   0.572
 7393SOL    HW123078   1.648   3.794   0.585
 7393SOL    HW223079   1.741   3.660   0.585
 7394SOL     OW23080   3.131   4.158   6.954
 7394SOL    HW123081   3.050   4.104   6.975
 7394SOL    HW223082   3.124   4.195   6.861
 7395SOL     OW23083   2.600   7.007   0.514
 7395SOL    HW123084   2.582   0.027   0.427
 7395SOL    HW223085   2.680   6.947   0.504
 7396SOL     OW23086   6.762   6.956   2.433
 7396SOL    HW123087   6.844   6.938   2.378
 7396SOL    HW223088   6.738   6.874   2.486
 7397SOL     OW23089   5.807   3.967   3.894
 7397SOL    HW123090   5.751   3.952   3.976
 7397SOL    HW223091   5.760   4.029   3.832
 7398SOL     OW23092   4.471   5.342   3.055
 7398SOL    HW123093   4.558   5.293   3.053
 7398SOL    HW223094   4.408   5.297   3.119
 7399SOL     OW23095   4.790   6.418   3.952
 7399SOL    HW123096   4.860   6.457   3.892
 7399SOL    HW223097   4.828   6.338   4.000
 7400SOL     OW23098   2.616   4.789   6.593
 7400SOL    HW123099   2.620   4.703   6.542
 7400SOL    HW223100   2.521   4.822   6.595
 7401SOL     OW23101   6.667   3.114   3.850
 7401SOL    HW123102   6.760   3.148   3.836
 7401SOL    HW223103   6.639   3.060   3.771
 7402SOL     OW23104   1.750   6.044   5.233
 7402SOL    HW123105   1.776   5.960   5.281
 7402SOL    HW223106   1.821   6.113   5.246
 7403SOL     OW23107   2.065   3.047   1.704
 7403SOL    HW123108   2.013   3.097   1.773
 7403SOL    HW223109   2.075   3.104   1.622
 7404SOL     OW23110   1.375   2.813   2.853
 7404SOL    HW123111   1.342   2.891   2.905
 7404SOL    HW223112   1.420   2.845   2.769
 7405SOL     OW23113   3.509   5.660   5.785
 7405SOL    HW123114   3.536   5.754   5.808
 7405SOL    HW223115   3.452   5.661   5.703
 7406SOL     OW23116   5.891   5.683   2.866
 7406SOL    HW123117   5.939   5.749   2.923
 7406SOL    HW223118   5.793   5.702   2.867
 7407SOL     OW23119   4.308   1.649   5.968
 7407SOL    HW123120   4.392   1.602   5.995
 7407SOL    HW223121   4.268   1.695   6.047
 7408SOL     OW23122   0.764   3.564   5.043
 7408SOL    HW123123   0.687   3.558   4.980
 7408SOL    HW223124   0.843   3.602   4.996
 7409SOL     OW23125   2.037   6.947   4.236
 7409SOL    HW123126   1.957   6.997   4.204
 7409SOL    HW223127   2.007   6.861   4.277
 7410SOL     OW23128   4.092   5.403   5.744
 7410SOL    HW123129   4.152   5.367   5.814
 7410SOL    HW223130   4.132   5.387   5.654
 7411SOL     OW23131   5.716   3.244   5.410
 7411SOL    HW123132   5.692   3.306   5.335
 7411SOL    HW223133   5.645   3.248   5.480
 7412SOL     OW23134   1.110   0.917   0.250
 7412SOL    HW123135   1.045   0.935   0.324
 7412SOL    HW223136   1.146   0.824   0.260
 7413SOL     OW23137   6.607   3.829   3.199
 7413SOL    HW123138   6.538   3.831   3.272
 7413SOL    HW223139   6.668   3.908   3.209
 7414SOL     OW23140   0.234   5.263   2.358
 7414SOL    HW123141   0.215   5.241   2.262
 7414SOL    HW223142   0.321   5.313   2.364
 7415SOL     OW23143   2.767   1.420   3.392
 7415SOL    HW123144   2.680   1.402   3.437
 7415SOL    HW223145   2.749   1.450   3.298
 7416SOL     OW23146   6.406   0.565   2.083
 7416SOL    HW123147   6.320   0.542   2.037
 7416SOL    HW223148   6.475   0.496   2.062
 7417SOL     OW23149   0.260   5.356   1.718
 7417SOL    HW123150   0.346   5.347   1.768
 7417SOL    HW223151   0.243   5.452   1.698
 7418SOL     OW23152   2.165   3.338   0.972
 7418SOL    HW123153   2.248   3.309   1.018
 7418SOL    HW223154   2.088   3.282   1.001
 7419SOL     OW23155   6.152   2.252   5.501
 7419SOL    HW123156   6.195   2.312   5.434
 7419SOL    HW223157   6.199   2.260   5.588
 7420SOL     OW23158   0.893   6.635   2.073
 7420SOL    HW123159   0.848   6.719   2.102
 7420SOL    HW223160   0.980   6.625   2.122
 7421SOL     OW23161   4.821   1.938   1.367
 7421SOL    HW123162   4.901   1.879   1.378
 7421SOL    HW223163   4.844   2.031   1.396
 7422SOL     OW23164   1.479   2.008   0.217
 7422SOL    HW123165   1.533   1.928   0.192
 7422SOL    HW223166   1.440   1.995   0.307
 7423SOL     OW23167   3.088   4.085   0.595
 7423SOL    HW123168   3.094   4.130   0.684
 7423SOL    HW223169   3.111   4.152   0.523
 7424SOL     OW23170   5.332   6.382   3.593
 7424SOL    HW123171   5.253   6.418   3.642
 7424SOL    HW223172   5.408   6.447   3.601
 7425SOL     OW23173   4.161   6.875   4.895
 7425SOL    HW123174   4.227   6.904   4.826
 7425SOL    HW223175   4.122   6.956   4.939
 7426SOL     OW23176   0.139   0.126   6.261
 7426SOL    HW123177   0.206   0.185   6.217
 7426SOL    HW223178   0.049   0.171   6.259
 7427SOL     OW23179   5.204   4.915   6.435
 7427SOL    HW123180   5.129   4.862   6.396
 7427SOL    HW223181   5.169   4.974   6.508
 7428SOL     OW23182   5.671   1.904   4.992
 7428SOL    HW123183   5.657   1.823   5.049
 7428SOL    HW223184   5.600   1.971   5.011
 7429SOL     OW23185   5.688   6.457   3.086
 7429SOL    HW123186   5.761   6.420   3.029
 7429SOL    HW223187   5.600   6.425   3.052
 7430SOL     OW23188   0.492   4.486   4.371
 7430SOL    HW123189   0.500   4.555   4.299
 7430SOL    HW223190   0.558   4.506   4.444
 7431SOL     OW23191   0.126   3.974   3.148
 7431SOL    HW123192   0.105   3.890   3.097
 7431SOL    HW223193   0.100   3.961   3.244
 7432SOL     OW23194   2.049   6.299   5.945
 7432SOL    HW123195   1.960   6.266   5.975
 7432SOL    HW223196   2.107   6.221   5.919
 7433SOL     OW23197   0.828   6.704   0.826
 7433SOL    HW123198   0.778   6.623   0.793
 7433SOL    HW223199   0.924   6.695   0.801
 7434SOL     OW23200   4.521   0.155   0.439
 7434SOL    HW123201   4.544   0.116   0.349
 7434SOL    HW223202   4.587   0.123   0.506
 7435SOL     OW23203   1.323   4.158   6.912
 7435SOL    HW123204   1.229   4.156   6.880
 7435SOL    HW223205   1.356   4.064   6.926
 7436SOL     OW23206   5.204   3.643   6.437
 7436SOL    HW123207   5.254   3.690   6.510
 7436SOL    HW223208   5.233   3.680   6.349
 7437SOL     OW23209   6.496   6.705   5.568
 7437SOL    HW123210   6.548   6.620   5.573
 7437SOL    HW223211   6.410   6.695   5.618
 7438SOL     OW23212   6.683   4.010   1.008
 7438SOL    HW123213   6.620   4.014   0.930
 7438SOL    HW223214   6.720   3.917   1.016
 7439SOL     OW23215   1.582   6.388   2.589
 7439SOL    HW123216   1.557   6.299   2.628
 7439SOL    HW223217   1.596   6.379   2.491
 7440SOL     OW23218   1.418   0.531   4.659
 7440SOL    HW123219   1.365   0.539   4.574
 7440SOL    HW223220   1.436   0.435   4.678
 7441SOL     OW23221   6.791   1.226   3.329
 7441SOL    HW123222   6.843   1.308   3.305
 7441SOL    HW223223   6.772   1.226   3.427
 7442SOL     OW23224   1.847   0.769   0.240
 7442SOL    HW123225   1.896   0.784   0.154
 7442SOL    HW223226   1.780   0.842   0.253
 7443SOL     OW23227   5.959   1.327   1.208
 7443SOL    HW123228   5.881   1.372   1.252
 7443SOL    HW223229   6.044   1.360   1.249
 7444SOL     OW23230   2.201   2.752   4.806
 7444SOL    HW123231   2.290   2.707   4.810
 7444SOL    HW223232   2.135   2.699   4.860
 7445SOL     OW23233   6.260   2.560   2.617
 7445SOL    HW123234   6.344   2.541   2.667
 7445SOL    HW223235   6.226   2.650   2.641
 7446SOL     OW23236   4.496   4.444   2.594
 7446SOL    HW123237   4.517   4.446   2.497
 7446SOL    HW223238   4.530   4.360   2.635
 7447SOL     OW23239   1.752   3.169   6.035
 7447SOL    HW123240   1.760   3.268   6.041
 7447SOL    HW223241   1.665   3.146   5.990
 7448SOL     OW23242   6.907   1.081   5.583
 7448SOL    HW123243   6.850   1.061   5.504
 7448SOL    HW223244   6.984   1.016   5.586
 7449SOL     OW23245   3.227   1.424   3.009
 7449SOL    HW123246   3.209   1.372   3.092
 7449SOL    HW223247   3.175   1.509   3.010
 7450SOL     OW23248   3.809   2.029   1.901
 7450SOL    HW123249   3.797   2.057   1.805
 7450SOL    HW223250   3.773   2.101   1.961
 7451SOL     OW23251   0.897   0.704   1.581
 7451SOL    HW123252   0.873   0.663   1.668
 7451SOL    HW223253   0.900   0.634   1.510
 7452SOL     OW23254   1.893   5.546   2.917
 7452SOL    HW123255   1.936   5.496   2.992
 7452SOL    HW223256   1.883   5.643   2.942
 7453SOL     OW23257   6.392   4.347   4.650
 7453SOL    HW123258   6.317   4.412   4.661
 7453SOL    HW223259   6.412   4.335   4.553
 7454SOL     OW23260   2.858   1.964   0.194
 7454SOL    HW123261   2.832   1.955   0.290
 7454SOL    HW223262   2.792   2.023   0.147
 7455SOL     OW23263   4.828   6.922   0.373
 7455SOL    HW123264   4.886   6.842   0.388
 7455SOL    HW223265   4.752   6.920   0.439
 7456SOL     OW23266   1.948   2.983   6.448
 7456SOL    HW123267   1.873   2.996   6.513
 7456SOL    HW223268   1.966   2.885   6.437
 7457SOL     OW23269   0.460   6.709   5.326
 7457SOL    HW123270   0.385   6.710   5.260
 7457SOL    HW223271   0.429   6.745   5.413
 7458SOL     OW23272   3.171   0.421   1.858
 7458SOL    HW123273   3.255   0.394   1.811
 7458SOL    HW223274   3.138   0.508   1.820
 7459SOL     OW23275   3.986   5.085   3.715
 7459SOL    HW123276   4.000   5.158   3.781
 7459SOL    HW223277   3.904   5.103   3.661
 7460SOL     OW23278   1.296   4.702   6.138
 7460SOL    HW123279   1.259   4.622   6.185
 7460SOL    HW223280   1.382   4.679   6.093
 7461SOL     OW23281   3.412   1.771   4.166
 7461SOL    HW123282   3.319   1.748   4.192
 7461SOL    HW223283   3.412   1.857   4.114
 7462SOL     OW23284   1.540   2.585   4.118
 7462SOL    HW123285   1.529   2.510   4.054
 7462SOL    HW223286   1.537   2.549   4.212
 7463SOL     OW23287   3.765   3.715   2.467
 7463SOL    HW123288   3.832   3.707   2.393
 7463SOL    HW223289   3.725   3.806   2.466
 7464SOL     OW23290   4.473   5.397   0.723
 7464SOL    HW123291   4.441   5.490   0.706
 7464SOL    HW223292   4.563   5.399   0.765
 7465SOL     OW23293   3.087   1.239   2.499
 7465SOL    HW123294   3.022   1.164   2.489
 7465SOL    HW223295   3.130   1.234   2.590
 7466SOL     OW23296   0.085   6.300   0.743
 7466SOL    HW123297   0.009   6.237   0.727
 7466SOL    HW223298   0.077   6.340   0.834
 7467SOL     OW23299   4.194   2.348   0.711
 7467SOL    HW123300   4.192   2.438   0.755
 7467SOL    HW223301   4.114   2.295   0.740
 7468SOL     OW23302   5.170   5.185   4.529
 7468SOL    HW123303   5.167   5.225   4.620
 7468SOL    HW223304   5.090   5.126   4.516
 7469SOL     OW23305   5.128   2.261   0.795
 7469SOL    HW123306   5.082   2.192   0.851
 7469SOL    HW223307   5.063   2.336   0.776
 7470SOL     OW23308   0.856   3.587   3.264
 7470SOL    HW123309   0.937   3.574   3.206
 7470SOL    HW223310   0.884   3.631   3.350
 7471SOL     OW23311   6.815   4.157   5.758
 7471SOL    HW123312   6.845   4.118   5.845
 7471SOL    HW223313   6.893   4.169   5.697
 7472SOL     OW23314   3.761   5.942   2.875
 7472SOL    HW123315   3.699   6.000   2.928
 7472SOL    HW223316   3.784   5.860   2.927
 7473SOL     OW23317   1.696   1.909   6.034
 7473SOL    HW123318   1.710   1.860   5.948
 7473SOL    HW223319   1.749   1.994   6.033
 7474SOL     OW23320   2.197   1.179   2.079
 7474SOL    HW123321   2.223   1.148   1.987
 7474SOL    HW223322   2.272   1.230   2.119
 7475SOL     OW23323   5.494   1.116   6.297
 7475SOL    HW123324   5.420   1.168   6.341
 7475SOL    HW223325   5.516   1.157   6.209
 7476SOL     OW23326   1.803   6.509   4.503
 7476SOL    HW123327   1.748   6.490   4.422
 7476SOL    HW223328   1.824   6.607   4.507
 7477SOL     OW23329   4.793   4.069   5.041
 7477SOL    HW123330   4.842   4.155   5.026
 7477SOL    HW223331   4.756   4.068   5.133
 7478SOL     OW23332   6.856   3.970   1.255
 7478SOL    HW123333   6.771   4.003   1.214
 7478SOL    HW223334   6.902   4.047   1.300
 7479SOL     OW23335   3.762   0.040   4.576
 7479SOL    HW123336   3.775   0.042   4.477
 7479SOL    HW223337   3.664   0.050   4.597
 7480SOL     OW23338   5.752   4.986   0.016
 7480SOL    HW123339   5.677   5.019   0.073
 7480SOL    HW223340   5.792   5.063   6.992
 7481SOL     OW23341   5.750   6.881   0.266
 7481SOL    HW123342   5.696   6.956   0.229
 7481SOL    HW223343   5.792   6.908   0.353
 7482SOL     OW23344   5.054   0.327   5.267
 7482SOL    HW123345   5.018   0.256   5.328
 7482SOL    HW223346   5.024   0.417   5.299
 7483SOL     OW23347   3.910   7.025   6.365
 7483SOL    HW123348   3.822   0.015   6.320
 7483SOL    HW223349   3.897   7.025   6.464
 7484SOL     OW23350   3.210   6.137   0.335
 7484SOL    HW123351   3.179   6.042   0.348
 7484SOL    HW223352   3.277   6.160   0.406
 7485SOL     OW23353   1.265   0.256   5.424
 7485SOL    HW123354   1.223   0.318   5.490
 7485SOL    HW223355   1.200   0.183   5.401
 7486SOL     OW23356   1.754   2.316   4.957
 7486SOL    HW123357   1.703   2.370   4.890
 7486SOL    HW223358   1.810   2.377   5.013
 7487SOL     OW23359   1.818   6.472   2.228
 7487SOL    HW123360   1.897   6.472   2.166
 7487SOL    HW223361   1.842   6.524   2.311
 7488SOL     OW23362   4.629   2.107   4.779
 7488SOL    HW123363   4.632   2.100   4.679
 7488SOL    HW223364   4.534   2.116   4.809
 7489SOL     OW23365   1.282   3.320   3.195
 7489SOL    HW123366   1.201   3.267   3.172
 7489SOL    HW223367   1.311   3.299   3.288
 7490SOL     OW23368   5.452   0.791   2.565
 7490SOL    HW123369   5.513   0.715   2.544
 7490SOL    HW223370   5.377   0.759   2.624
 7491SOL     OW23371   0.988   0.135   1.211
 7491SOL    HW123372   1.036   0.051   1.185
 7491SOL    HW223373   0.898   0.137   1.167
 7492SOL     OW23374   1.416   2.226   2.715
 7492SOL    HW123375   1.328   2.215   2.670
 7492SOL    HW223376   1.487   2.241   2.646
 7493SOL     OW23377   5.843   4.090   0.044
 7493SOL    HW123378   5.883   4.122   0.130
 7493SOL    HW223379   5.744   4.103   0.046
 7494SOL     OW23380   4.810   2.387   0.817
 7494SOL    HW123381   4.777   2.353   0.905
 7494SOL    HW223382   4.806   2.487   0.816
 7495SOL     OW23383   1.130   1.742   3.317
 7495SOL    HW123384   1.051   1.761   3.259
 7495SOL    HW223385   1.176   1.828   3.340
 7496SOL     OW23386   0.021   4.965   6.103
 7496SOL    HW123387   0.089   4.903   6.143
 7496SOL    HW223388   0.068   5.042   6.060
 7497SOL     OW23389   0.447   4.264   3.119
 7497SOL    HW123390   0.395   4.193   3.071
 7497SOL    HW223391   0.532   4.282   3.070
 7498SOL     OW23392   4.822   1.432   4.333
 7498SOL    HW123393   4.751   1.415   4.266
 7498SOL    HW223394   4.880   1.507   4.303
 7499SOL     OW23395   3.317   4.953   3.709
 7499SOL    HW123396   3.285   5.046   3.689
 7499SOL    HW223397   3.412   4.957   3.742
 7500SOL     OW23398   4.969   3.895   1.631
 7500SOL    HW123399   5.035   3.901   1.706
 7500SOL    HW223400   4.945   3.988   1.600
 7501SOL     OW23401   1.245   4.404   3.667
 7501SOL    HW123402   1.181   4.329   3.683
 7501SOL    HW223403   1.339   4.369   3.665
 7502SOL     OW23404   1.244   1.940   4.859
 7502SOL    HW123405   1.220   1.957   4.763
 7502SOL    HW223406   1.257   2.028   4.905
 7503SOL     OW23407   2.350   2.148   0.893
 7503SOL    HW123408   2.297   2.174   0.973
 7503SOL    HW223409   2.445   2.176   0.906
 7504SOL     OW23410   5.488   5.221   6.099
 7504SOL    HW123411   5.518   5.147   6.039
 7504SOL    HW223412   5.449   5.182   6.183
 7505SOL     OW23413   1.448   1.824   3.080
 7505SOL    HW123414   1.372   1.873   3.122
 7505SOL    HW223415   1.420   1.729   3.062
 7506SOL     OW23416   3.624   0.730   3.254
 7506SOL    HW123417   3.549   0.682   3.301
 7506SOL    HW223418   3.675   0.784   3.321
 7507SOL     OW23419   1.928   6.323   4.995
 7507SOL    HW123420   1.862   6.329   4.920
 7507SOL    HW223421   1.918   6.402   5.055
 7508SOL     OW23422   4.863   5.817   3.214
 7508SOL    HW123423   4.796   5.744   3.228
 7508SOL    HW223424   4.854   5.854   3.121
 7509SOL     OW23425   2.449   4.378   6.612
 7509SOL    HW123426   2.396   4.332   6.540
 7509SOL    HW223427   2.522   4.432   6.571
 7510SOL     OW23428   3.632   2.901   4.088
 7510SOL    HW123429   3.661   2.806   4.079
 7510SOL    HW223430   3.609   2.920   4.183
 7511SOL     OW23431   1.366   1.143   1.881
 7511SOL    HW123432   1.420   1.129   1.797
 7511SOL    HW223433   1.344   1.240   1.891
 7512SOL     OW23434   1.563   3.268   2.574
 7512SOL    HW123435   1.529   3.245   2.666
 7512SOL    HW223436   1.528   3.202   2.508
 7513SOL     OW23437   2.379   3.246   6.799
 7513SOL    HW123438   2.282   3.251   6.823
 7513SOL    HW223439   2.431   3.310   6.856
 7514SOL     OW23440   3.172   5.116   3.099
 7514SOL    HW123441   3.074   5.133   3.095
 7514SOL    HW223442   3.200   5.062   3.019
 7515SOL     OW23443   6.701   5.438   3.330
 7515SOL    HW123444   6.749   5.490   3.400
 7515SOL    HW223445   6.602   5.449   3.342
 7516SOL     OW23446   1.610   3.284   0.985
 7516SOL    HW123447   1.623   3.324   0.894
 7516SOL    HW223448   1.598   3.185   0.976
 7517SOL     OW23449   1.241   5.443   2.417
 7517SOL    HW123450   1.277   5.477   2.330
 7517SOL    HW223451   1.317   5.421   2.478
 7518SOL     OW23452   5.076   3.626   2.188
 7518SOL    HW123453   5.030   3.601   2.103
 7518SOL    HW223454   5.029   3.704   2.229
 7519SOL     OW23455   1.962   0.492   4.595
 7519SOL    HW123456   2.033   0.432   4.560
 7519SOL    HW223457   1.991   0.533   4.682
 7520SOL     OW23458   1.782   0.086   4.156
 7520SOL    HW123459   1.770   0.035   4.071
 7520SOL    HW223460   1.746   0.179   4.144
 7521SOL     OW23461   3.959   2.588   5.845
 7521SOL    HW123462   3.983   2.557   5.937
 7521SOL    HW223463   3.994   2.523   5.778
 7522SOL     OW23464   1.749   6.738   2.104
 7522SOL    HW123465   1.765   6.645   2.136
 7522SOL    HW223466   1.672   6.778   2.153
 7523SOL     OW23467   6.822   5.761   6.301
 7523SOL    HW123468   6.841   5.773   6.398
 7523SOL    HW223469   6.905   5.733   6.253
 7524SOL     OW23470   6.271   2.226   6.241
 7524SOL    HW123471   6.329   2.304   6.266
 7524SOL    HW223472   6.318   2.169   6.175
 7525SOL     OW23473   0.386   0.122   0.326
 7525SOL    HW123474   0.413   0.184   0.252
 7525SOL    HW223475   0.286   0.120   0.333
 7526SOL     OW23476   3.983   3.223   5.373
 7526SOL    HW123477   3.890   3.232   5.340
 7526SOL    HW223478   3.990   3.143   5.433
 7527SOL     OW23479   2.366   6.430   1.280
 7527SOL    HW123480   2.460   6.458   1.259
 7527SOL    HW223481   2.365   6.332   1.303
 7528SOL     OW23482   5.950   1.959   0.365
 7528SOL    HW123483   6.007   1.955   0.447
 7528SOL    HW223484   5.856   1.937   0.390
 7529SOL     OW23485   1.030   0.271   4.155
 7529SOL    HW123486   1.113   0.323   4.136
 7529SOL    HW223487   0.965   0.282   4.079
 7530SOL     OW23488   0.451   3.402   2.934
 7530SOL    HW123489   0.525   3.388   3.000
 7530SOL    HW223490   0.444   3.499   2.912
 7531SOL     OW23491   1.740   2.565   4.443
 7531SOL    HW123492   1.755   2.570   4.542
 7531SOL    HW223493   1.642   2.549   4.426
 7532SOL     OW23494   4.525   4.462   2.325
 7532SOL    HW123495   4.537   4.547   2.273
 7532SOL    HW223496   4.526   4.384   2.262
 7533SOL     OW23497   3.799   7.001   4.972
 7533SOL    HW123498   3.809   6.927   5.038
 7533SOL    HW223499   3.862   6.986   4.896
 7534SOL     OW23500   4.337   6.670   4.148
 7534SOL    HW123501   4.323   6.749   4.208
 7534SOL    HW223502   4.403   6.693   4.077
 7535SOL     OW23503   3.027   4.311   6.713
 7535SOL    HW123504   2.948   4.367   6.687
 7535SOL    HW223505   3.111   4.358   6.688
 7536SOL     OW23506   4.823   5.204   6.782
 7536SOL    HW123507   4.916   5.239   6.789
 7536SOL    HW223508   4.801   5.186   6.686
 7537SOL     OW23509   2.018   4.630   4.930
 7537SOL    HW123510   1.932   4.676   4.908
 7537SOL    HW223511   2.017   4.538   4.891
 7538SOL     OW23512   3.387   3.907   5.151
 7538SOL    HW123513   3.470   3.953   5.119
 7538SOL    HW223514   3.308   3.948   5.106
 7539SOL     OW23515   1.379   3.057   4.068
 7539SOL    HW123516   1.325   3.001   4.131
 7539SOL    HW223517   1.470   3.016   4.056
 7540SOL     OW23518   3.099   1.074   0.225
 7540SOL    HW123519   3.189   1.060   0.184
 7540SOL    HW223520   3.106   1.138   0.301
 7541SOL     OW23521   0.786   1.809   6.068
 7541SOL    HW123522   0.877   1.834   6.034
 7541SOL    HW223523   0.719   1.821   5.995
 7542SOL     OW23524   1.744   0.452   4.295
 7542SOL    HW123525   1.748   0.376   4.360
 7542SOL    HW223526   1.673   0.516   4.323
 7543SOL     OW23527   2.411   2.461   1.982
 7543SOL    HW123528   2.370   2.422   2.064
 7543SOL    HW223529   2.505   2.427   1.972
 7544SOL     OW23530   1.031   2.387   2.453
 7544SOL    HW123531   1.040   2.416   2.357
 7544SOL    HW223532   0.949   2.428   2.492
 7545SOL     OW23533   3.800   0.403   4.280
 7545SOL    HW123534   3.761   0.311   4.283
 7545SOL    HW223535   3.853   0.420   4.363
 7546SOL     OW23536   4.849   6.784   4.465
 7546SOL    HW123537   4.900   6.862   4.429
 7546SOL    HW223538   4.804   6.809   4.551
 7547SOL     OW23539   1.716   6.602   0.732
 7547SOL    HW123540   1.736   6.695   0.760
 7547SOL    HW223541   1.667   6.603   0.644
 7548SOL     OW23542   2.717   4.139   0.851
 7548SOL    HW123543   2.749   4.050   0.818
 7548SOL    HW223544   2.619   4.134   0.871
 7549SOL     OW23545   5.871   6.844   2.341
 7549SOL    HW123546   5.774   6.840   2.368
 7549SOL    HW223547   5.928   6.824   2.420
 7550SOL     OW23548   0.908   5.636   0.642
 7550SOL    HW123549   0.877   5.682   0.559
 7550SOL    HW223550   0.914   5.538   0.625
 7551SOL     OW23551   4.611   3.814   5.955
 7551SOL    HW123552   4.598   3.820   5.856
 7551SOL    HW223553   4.643   3.722   5.978
 7552SOL     OW23554   3.540   5.570   4.689
 7552SOL    HW123555   3.479   5.511   4.636
 7552SOL    HW223556   3.513   5.665   4.677
 7553SOL     OW23557   4.142   4.296   5.561
 7553SOL    HW123558   4.174   4.245   5.482
 7553SOL    HW223559   4.059   4.346   5.538
 7554SOL     OW23560   6.700   1.009   0.805
 7554SOL    HW123561   6.798   1.025   0.795
 7554SOL    HW223562   6.669   1.047   0.892
 7555SOL     OW23563   2.647   6.742   6.733
 7555SOL    HW123564   2.681   6.806   6.803
 7555SOL    HW223565   2.630   6.653   6.775
 7556SOL     OW23566   0.279   3.879   2.877
 7556SOL    HW123567   0.188   3.904   2.844
 7556SOL    HW223568   0.340   3.863   2.799
 7557SOL     OW23569   4.699   4.492   0.837
 7557SOL    HW123570   4.693   4.413   0.775
 7557SOL    HW223571   4.615   4.499   0.890
 7558SOL     OW23572   1.553   3.661   3.608
 7558SOL    HW123573   1.629   3.666   3.673
 7558SOL    HW223574   1.516   3.568   3.608
 7559SOL     OW23575   0.855   4.803   0.249
 7559SOL    HW123576   0.848   4.852   0.336
 7559SOL    HW223577   0.906   4.859   0.184
 7560SOL     OW23578   4.456   0.192   5.962
 7560SOL    HW123579   4.500   0.134   6.031
 7560SOL    HW223580   4.452   0.143   5.875
 7561SOL     OW23581   1.563   3.096   0.581
 7561SOL    HW123582   1.513   3.015   0.610
 7561SOL    HW223583   1.499   3.171   0.562
 7562SOL     OW23584   4.381   6.237   5.345
 7562SOL    HW123585   4.373   6.232   5.246
 7562SOL    HW223586   4.449   6.306   5.370
 7563SOL     OW23587   2.485   1.562   3.357
 7563SOL    HW123588   2.441   1.613   3.431
 7563SOL    HW223589   2.521   1.475   3.393
 7564SOL     OW23590   6.456   5.693   3.883
 7564SOL    HW123591   6.462   5.775   3.940
 7564SOL    HW223592   6.499   5.711   3.795
 7565SOL     OW23593   4.913   4.831   6.547
 7565SOL    HW123594   4.902   4.769   6.625
 7565SOL    HW223595   4.864   4.795   6.469
 7566SOL     OW23596   1.464   5.655   3.801
 7566SOL    HW123597   1.555   5.694   3.810
 7566SOL    HW223598   1.429   5.629   3.891
 7567SOL     OW23599   3.005   4.047   0.254
 7567SOL    HW123600   3.023   4.140   0.285
 7567SOL    HW223601   2.940   4.049   0.177
 7568SOL     OW23602   4.212   4.719   4.306
 7568SOL    HW123603   4.252   4.676   4.386
 7568SOL    HW223604   4.113   4.727   4.319
 7569SOL     OW23605   3.519   0.124   2.611
 7569SOL    HW123606   3.560   0.132   2.520
 7569SOL    HW223607   3.422   0.104   2.602
 7570SOL     OW23608   6.311   5.491   5.146
 7570SOL    HW123609   6.242   5.554   5.183
 7570SOL    HW223610   6.324   5.415   5.209
 7571SOL     OW23611   6.733   4.426   0.673
 7571SOL    HW123612   6.822   4.394   0.706
 7571SOL    HW223613   6.699   4.364   0.603
 7572SOL     OW23614   6.012   1.211   3.861
 7572SOL    HW123615   6.019   1.122   3.816
 7572SOL    HW223616   6.017   1.198   3.960
 7573SOL     OW23617   2.974   5.040   3.773
 7573SOL    HW123618   2.890   5.089   3.797
 7573SOL    HW223619   3.045   5.061   3.841
 7574SOL     OW23620   4.025   6.003   1.481
 7574SOL    HW123621   3.994   5.923   1.533
 7574SOL    HW223622   4.074   6.066   1.543
 7575SOL     OW23623   4.858   3.500   3.828
 7575SOL    HW123624   4.916   3.420   3.813
 7575SOL    HW223625   4.762   3.472   3.830
 7576SOL     OW23626   0.203   4.448   1.856
 7576SOL    HW123627   0.269   4.379   1.888
 7576SOL    HW223628   0.214   4.461   1.758
 7577SOL     OW23629   3.863   1.401   4.096
 7577SOL    HW123630   3.802   1.337   4.049
 7577SOL    HW223631   3.816   1.489   4.108
 7578SOL     OW23632   2.174   5.368   5.876
 7578SOL    HW123633   2.140   5.275   5.863
 7578SOL    HW223634   2.196   5.409   5.787
 7579SOL     OW23635   4.317   2.325   4.704
 7579SOL    HW123636   4.344   2.355   4.612
 7579SOL    HW223637   4.231   2.275   4.698
 7580SOL     OW23638   1.785   3.394   2.704
 7580SOL    HW123639   1.716   3.345   2.650
 7580SOL    HW223640   1.823   3.332   2.773
 7581SOL     OW23641   5.730   0.875   1.290
 7581SOL    HW123642   5.652   0.932   1.316
 7581SOL    HW223643   5.802   0.933   1.251
 7582SOL     OW23644   3.942   3.183   1.627
 7582SOL    HW123645   4.031   3.148   1.657
 7582SOL    HW223646   3.878   3.183   1.704
 7583SOL     OW23647   6.082   4.125   3.708
 7583SOL    HW123648   6.055   4.130   3.804
 7583SOL    HW223649   6.165   4.179   3.695
 7584SOL     OW23650   1.753   2.535   1.921
 7584SOL    HW123651   1.740   2.619   1.868
 7584SOL    HW223652   1.722   2.551   2.015
 7585SOL     OW23653   3.106   3.842   0.486
 7585SOL    HW123654   3.093   3.935   0.519
 7585SOL    HW223655   3.082   3.837   0.389
 7586SOL     OW23656   1.675   2.747   3.125
 7586SOL    HW123657   1.694   2.649   3.121
 7586SOL    HW223658   1.577   2.763   3.120
 7587SOL     OW23659   3.029   0.615   5.386
 7587SOL    HW123660   2.994   0.665   5.307
 7587SOL    HW223661   3.049   0.521   5.361
 7588SOL     OW23662   0.139   4.458   1.588
 7588SOL    HW123663   0.149   4.389   1.516
 7588SOL    HW223664   0.157   4.549   1.549
 7589SOL     OW23665   4.478   5.677   6.143
 7589SOL    HW123666   4.413   5.722   6.083
 7589SOL    HW223667   4.429   5.636   6.220
 7590SOL     OW23668   2.304   0.840   5.110
 7590SOL    HW123669   2.354   0.770   5.060
 7590SOL    HW223670   2.257   0.799   5.188
 7591SOL     OW23671   0.050   5.764   6.166
 7591SOL    HW123672   0.140   5.802   6.185
 7591SOL    HW223673   0.034   5.764   6.067
 7592SOL     OW23674   4.758   4.658   6.348
 7592SOL    HW123675   4.726   4.597   6.420
 7592SOL    HW223676   4.688   4.664   6.276
 7593SOL     OW23677   6.846   4.668   0.022
 7593SOL    HW123678   6.902   4.587   0.038
 7593SOL    HW223679   6.901   4.740   7.005
 7594SOL     OW23680   1.110   0.535   4.892
 7594SOL    HW123681   1.181   0.606   4.883
 7594SOL    HW223682   1.076   0.535   4.986
 7595SOL     OW23683   0.147   3.942   6.692
 7595SOL    HW123684   0.155   3.857   6.639
 7595SOL    HW223685   0.063   3.938   6.747
 7596SOL     OW23686   5.592   5.377   2.318
 7596SOL    HW123687   5.494   5.378   2.303
 7596SOL    HW223688   5.619   5.459   2.370
 7597SOL     OW23689   2.428   4.491   2.814
 7597SOL    HW123690   2.400   4.579   2.775
 7597SOL    HW223691   2.521   4.470   2.784
 7598SOL     OW23692   6.541   1.456   2.641
 7598SOL    HW123693   6.582   1.520   2.575
 7598SOL    HW223694   6.577   1.474   2.732
 7599SOL     OW23695   5.500   3.887   1.721
 7599SOL    HW123696   5.599   3.879   1.736
 7599SOL    HW223697   5.455   3.802   1.747
 7600SOL     OW23698   1.957   2.701   2.364
 7600SOL    HW123699   1.913   2.634   2.424
 7600SOL    HW223700   2.013   2.653   2.296
 7601SOL     OW23701   2.011   0.910   5.480
 7601SOL    HW123702   1.939   0.875   5.420
 7601SOL    HW223703   1.975   0.920   5.573
 7602SOL     OW23704   1.973   2.806   5.158
 7602SOL    HW123705   1.923   2.743   5.217
 7602SOL    HW223706   2.053   2.759   5.119
 7603SOL     OW23707   6.098   1.262   2.091
 7603SOL    HW123708   6.048   1.186   2.051
 7603SOL    HW223709   6.123   1.327   2.019
 7604SOL     OW23710   5.770   5.581   6.600
 7604SOL    HW123711   5.814   5.501   6.559
 7604SOL    HW223712   5.839   5.641   6.640
 7605SOL     OW23713   4.814   3.175   5.274
 7605SOL    HW123714   4.901   3.135   5.304
 7605SOL    HW223715   4.774   3.227   5.350
 7606SOL     OW23716   5.649   0.949   4.172
 7606SOL    HW123717   5.572   0.994   4.127
 7606SOL    HW223718   5.630   0.851   4.183
 7607SOL     OW23719   4.854   6.119   6.300
 7607SOL    HW123720   4.895   6.206   6.272
 7607SOL    HW223721   4.917   6.045   6.277
 7608SOL     OW23722   3.731   3.259   4.757
 7608SOL    HW123723   3.687   3.336   4.710
 7608SOL    HW223724   3.660   3.194   4.788
 7609SOL     OW23725   0.907   2.713   3.069
 7609SOL    HW123726   0.938   2.627   3.111
 7609SOL    HW223727   0.900   2.701   2.970
 7610SOL     OW23728   5.659   0.260   2.332
 7610SOL    HW123729   5.584   0.214   2.285
 7610SOL    HW223730   5.649   0.248   2.431
 7611SOL     OW23731   1.662   1.833   1.705
 7611SOL    HW123732   1.653   1.790   1.795
 7611SOL    HW223733   1.652   1.932   1.714
 7612SOL     OW23734   3.287   0.780   2.661
 7612SOL    HW123735   3.311   0.867   2.617
 7612SOL    HW223736   3.370   0.732   2.688
 7613SOL     OW23737   6.694   0.751   2.089
 7613SOL    HW123738   6.661   0.688   2.019
 7613SOL    HW223739   6.682   0.845   2.058
 7614SOL     OW23740   4.380   1.128   6.981
 7614SOL    HW123741   4.289   1.157   7.009
 7614SOL    HW223742   4.386   1.128   6.881
 7615SOL     OW23743   4.536   4.654   6.146
 7615SOL    HW123744   4.588   4.736   6.121
 7615SOL    HW223745   4.557   4.580   6.082
 7616SOL     OW23746   0.042   6.198   3.538
 7616SOL    HW123747   0.064   6.166   3.446
 7616SOL    HW223748   0.087   6.141   3.606
 7617SOL     OW23749   4.052   5.122   3.145
 7617SOL    HW123750   4.013   5.038   3.182
 7617SOL    HW223751   4.050   5.193   3.216
 7618SOL     OW23752   3.351   1.430   0.156
 7618SOL    HW123753   3.309   1.490   0.225
 7618SOL    HW223754   3.328   1.464   0.065
 7619SOL     OW23755   5.699   3.621   5.636
 7619SOL    HW123756   5.766   3.548   5.627
 7619SOL    HW223757   5.720   3.676   5.716
 7620SOL     OW23758   2.715   5.608   2.162
 7620SOL    HW123759   2.647   5.681   2.163
 7620SOL    HW223760   2.793   5.635   2.105
 7621SOL     OW23761   2.729   2.888   1.418
 7621SOL    HW123762   2.777   2.922   1.498
 7621SOL    HW223763   2.761   2.796   1.396
 7622SOL     OW23764   4.869   2.002   0.684
 7622SOL    HW123765   4.836   1.908   0.691
 7622SOL    HW223766   4.803   2.056   0.632
 7623SOL     OW23767   6.904   6.856   5.008
 7623SOL    HW123768   6.902   6.871   5.107
 7623SOL    HW223769   6.908   6.943   4.960
 7624SOL     OW23770   6.884   1.071   4.793
 7624SOL    HW123771   6.865   1.161   4.754
 7624SOL    HW223772   6.819   1.004   4.756
 7625SOL     OW23773   2.294   4.497   0.586
 7625SOL    HW123774   2.247   4.456   0.507
 7625SOL    HW223775   2.392   4.477   0.581
 7626SOL     OW23776   2.552   3.805   5.303
 7626SOL    HW123777   2.565   3.844   5.394
 7626SOL    HW223778   2.498   3.868   5.247
 7627SOL     OW23779   0.149   0.175   6.706
 7627SOL    HW123780   0.061   0.139   6.677
 7627SOL    HW223781   0.162   0.267   6.669
 7628SOL     OW23782   3.933   1.505   0.383
 7628SOL    HW123783   3.842   1.525   0.417
 7628SOL    HW223784   3.928   1.432   0.314
 7629SOL     OW23785   6.311   5.456   2.293
 7629SOL    HW123786   6.344   5.462   2.198
 7629SOL    HW223787   6.213   5.434   2.292
 7630SOL     OW23788   5.660   2.059   2.138
 7630SOL    HW123789   5.631   1.964   2.125
 7630SOL    HW223790   5.584   2.120   2.116
 7631SOL     OW23791   0.886   0.174   3.805
 7631SOL    HW123792   0.803   0.184   3.750
 7631SOL    HW223793   0.879   0.092   3.861
 7632SOL     OW23794   4.903   1.122   4.853
 7632SOL    HW123795   4.871   1.162   4.939
 7632SOL    HW223796   4.989   1.166   4.826
 7633SOL     OW23797   5.612   3.313   6.281
 7633SOL    HW123798   5.563   3.235   6.242
 7633SOL    HW223799   5.594   3.394   6.226
 7634SOL     OW23800   0.872   2.134   1.831
 7634SOL    HW123801   0.967   2.130   1.799
 7634SOL    HW223802   0.837   2.227   1.819
 7635SOL     OW23803   2.034   4.559   5.904
 7635SOL    HW123804   2.130   4.584   5.916
 7635SOL    HW223805   2.016   4.473   5.953
 7636SOL     OW23806   0.811   1.483   3.619
 7636SOL    HW123807   0.830   1.496   3.521
 7636SOL    HW223808   0.723   1.525   3.641
 7637SOL     OW23809   3.352   6.568   3.673
 7637SOL    HW123810   3.328   6.494   3.735
 7637SOL    HW223811   3.292   6.647   3.689
 7638SOL     OW23812   4.652   5.229   1.779
 7638SOL    HW123813   4.737   5.224   1.725
 7638SOL    HW223814   4.575   5.249   1.718
 7639SOL     OW23815   0.701   2.146   4.470
 7639SOL    HW123816   0.625   2.088   4.499
 7639SOL    HW223817   0.669   2.239   4.457
 7640SOL     OW23818   2.348   2.844   6.520
 7640SOL    HW123819   2.358   2.942   6.539
 7640SOL    HW223820   2.261   2.829   6.472
 7641SOL     OW23821   5.867   3.095   1.145
 7641SOL    HW123822   5.937   3.046   1.094
 7641SOL    HW223823   5.787   3.036   1.157
 7642SOL     OW23824   1.047   3.162   3.215
 7642SOL    HW123825   1.037   3.164   3.315
 7642SOL    HW223826   0.998   3.240   3.176
 7643SOL     OW23827   5.444   3.663   3.422
 7643SOL    HW123828   5.496   3.658   3.507
 7643SOL    HW223829   5.500   3.626   3.347
 7644SOL     OW23830   6.652   2.706   3.884
 7644SOL    HW123831   6.630   2.732   3.978
 7644SOL    HW223832   6.587   2.749   3.821
 7645SOL     OW23833   3.809   2.750   0.583
 7645SOL    HW123834   3.846   2.805   0.508
 7645SOL    HW223835   3.876   2.742   0.656
 7646SOL     OW23836   0.776   0.435   2.258
 7646SOL    HW123837   0.769   0.339   2.228
 7646SOL    HW223838   0.741   0.443   2.351
 7647SOL     OW23839   2.611   4.211   0.128
 7647SOL    HW123840   2.617   4.142   0.056
 7647SOL    HW223841   2.586   4.299   0.087
 7648SOL     OW23842   2.269   0.567   3.678
 7648SOL    HW123843   2.180   0.596   3.715
 7648SOL    HW223844   2.286   0.471   3.702
 7649SOL     OW23845   4.048   1.842   1.275
 7649SOL    HW123846   4.079   1.935   1.295
 7649SOL    HW223847   4.006   1.803   1.358
 7650SOL     OW23848   0.506   4.479   0.896
 7650SOL    HW123849   0.545   4.389   0.878
 7650SOL    HW223850   0.406   4.474   0.887
 7651SOL     OW23851   5.724   2.285   5.809
 7651SOL    HW123852   5.691   2.197   5.844
 7651SOL    HW223853   5.675   2.307   5.725
 7652SOL     OW23854   0.787   2.847   2.093
 7652SOL    HW123855   0.709   2.807   2.044
 7652SOL    HW223856   0.872   2.818   2.050
 7653SOL     OW23857   4.952   2.656   1.850
 7653SOL    HW123858   5.041   2.613   1.853
 7653SOL    HW223859   4.959   2.750   1.884
 7654SOL     OW23860   6.055   3.772   4.921
 7654SOL    HW123861   6.088   3.866   4.922
 7654SOL    HW223862   5.962   3.770   4.884
 7655SOL     OW23863   5.064   4.175   6.492
 7655SOL    HW123864   5.000   4.116   6.542
 7655SOL    HW223865   5.061   4.152   6.395
 7656SOL     OW23866   6.926   6.942   5.243
 7656SOL    HW123867   6.900   6.932   5.339
 7656SOL    HW223868   6.948   0.011   5.223
 7657SOL     OW23869   3.551   2.131   3.481
 7657SOL    HW123870   3.505   2.145   3.394
 7657SOL    HW223871   3.650   2.131   3.468
 7658SOL     OW23872   4.412   1.220   5.405
 7658SOL    HW123873   4.400   1.168   5.321
 7658SOL    HW223874   4.335   1.282   5.417
 7659SOL     OW23875   5.048   5.907   6.315
 7659SOL    HW123876   5.007   5.825   6.354
 7659SOL    HW223877   5.097   5.883   6.231
 7660SOL     OW23878   5.599   5.467   3.546
 7660SOL    HW123879   5.666   5.505   3.482
 7660SOL    HW223880   5.647   5.427   3.624
 7661SOL     OW23881   5.853   3.264   3.599
 7661SOL    HW123882   5.778   3.329   3.605
 7661SOL    HW223883   5.938   3.313   3.578
 7662SOL     OW23884   6.437   5.469   3.364
 7662SOL    HW123885   6.391   5.397   3.417
 7662SOL    HW223886   6.373   5.544   3.349
 7663SOL     OW23887   1.009   6.665   0.067
 7663SOL    HW123888   1.001   6.636   6.997
 7663SOL    HW223889   1.090   6.624   0.108
 7664SOL     OW23890   4.986   4.889   4.891
 7664SOL    HW123891   4.945   4.823   4.828
 7664SOL    HW223892   5.085   4.893   4.876
 7665SOL     OW23893   1.753   5.757   3.882
 7665SOL    HW123894   1.830   5.817   3.859
 7665SOL    HW223895   1.768   5.667   3.842
 7666SOL     OW23896   2.056   6.962   2.618
 7666SOL    HW123897   2.042   6.892   2.547
 7666SOL    HW223898   2.018   0.023   2.587
 7667SOL     OW23899   5.485   0.229   5.632
 7667SOL    HW123900   5.401   0.241   5.579
 7667SOL    HW223901   5.564   0.254   5.575
 7668SOL     OW23902   3.328   4.028   3.249
 7668SOL    HW123903   3.284   4.045   3.338
 7668SOL    HW223904   3.286   4.088   3.181
 7669SOL     OW23905   4.298   6.207   4.660
 7669SOL    HW123906   4.292   6.126   4.601
 7669SOL    HW223907   4.310   6.289   4.604
 7670SOL     OW23908   1.342   5.639   1.177
 7670SOL    HW123909   1.324   5.598   1.267
 7670SOL    HW223910   1.437   5.669   1.174
 7671SOL     OW23911   4.966   2.610   5.176
 7671SOL    HW123912   5.060   2.612   5.143
 7671SOL    HW223913   4.934   2.516   5.183
 7672SOL     OW23914   5.007   0.196   1.724
 7672SOL    HW123915   4.941   0.186   1.798
 7672SOL    HW223916   5.100   0.195   1.761
 7673SOL     OW23917   1.874   3.784   0.120
 7673SOL    HW123918   1.797   3.726   0.145
 7673SOL    HW223919   1.906   3.834   0.200
 7674SOL     OW23920   6.344   1.732   6.524
 7674SOL    HW123921   6.245   1.744   6.534
 7674SOL    HW223922   6.362   1.651   6.468
 7675SOL     OW23923   5.607   6.841   3.365
 7675SOL    HW123924   5.566   6.751   3.346
 7675SOL    HW223925   5.571   6.908   3.300
 7676SOL     OW23926   2.446   0.293   0.467
 7676SOL    HW123927   2.383   0.261   0.538
 7676SOL    HW223928   2.415   0.382   0.433
 7677SOL     OW23929   1.555   2.322   2.501
 7677SOL    HW123930   1.551   2.422   2.502
 7677SOL    HW223931   1.510   2.287   2.420
 7678SOL     OW23932   4.729   6.769   5.811
 7678SOL    HW123933   4.649   6.798   5.863
 7678SOL    HW223934   4.783   6.850   5.785
 7679SOL     OW23935   1.714   5.139   4.505
 7679SOL    HW123936   1.691   5.209   4.573
 7679SOL    HW223937   1.813   5.125   4.503
 7680SOL     OW23938   4.507   0.425   0.940
 7680SOL    HW123939   4.409   0.440   0.927
 7680SOL    HW223940   4.531   0.332   0.909
 7681SOL     OW23941   4.415   2.400   5.447
 7681SOL    HW123942   4.367   2.454   5.516
 7681SOL    HW223943   4.483   2.342   5.491
 7682SOL     OW23944   3.525   1.289   6.804
 7682SOL    HW123945   3.615   1.301   6.846
 7682SOL    HW223946   3.508   1.192   6.787
 7683SOL     OW23947   6.544   3.613   3.002
 7683SOL    HW123948   6.453   3.621   2.961
 7683SOL    HW223949   6.559   3.687   3.067
 7684SOL     OW23950   4.006   1.895   6.269
 7684SOL    HW123951   3.911   1.923   6.252
 7684SOL    HW223952   4.036   1.931   6.357
 7685SOL     OW23953   4.656   4.425   1.657
 7685SOL    HW123954   4.695   4.349   1.604
 7685SOL    HW223955   4.571   4.395   1.699
 7686SOL     OW23956   2.102   0.737   2.099
 7686SOL    HW123957   2.188   0.752   2.148
 7686SOL    HW223958   2.036   0.806   2.127
 7687SOL     OW23959   4.823   4.471   5.344
 7687SOL    HW123960   4.794   4.410   5.270
 7687SOL    HW223961   4.766   4.455   5.424
 7688SOL     OW23962   6.677   0.654   3.844
 7688SOL    HW123963   6.660   0.733   3.902
 7688SOL    HW223964   6.766   0.664   3.799
 7689SOL     OW23965   3.307   0.063   5.009
 7689SOL    HW123966   3.281   7.017   5.073
 7689SOL    HW223967   3.407   0.062   4.997
 7690SOL     OW23968   1.060   5.361   3.267
 7690SOL    HW123969   1.025   5.455   3.255
 7690SOL    HW223970   1.125   5.340   3.195
 7691SOL     OW23971   6.678   3.976   5.580
 7691SOL    HW123972   6.735   3.896   5.562
 7691SOL    HW223973   6.730   4.042   5.635
 7692SOL     OW23974   1.150   6.112   1.338
 7692SOL    HW123975   1.150   6.016   1.312
 7692SOL    HW223976   1.108   6.167   1.266
 7693SOL     OW23977   4.163   1.415   6.730
 7693SOL    HW123978   4.200   1.341   6.675
 7693SOL    HW223979   4.237   1.462   6.778
 7694SOL     OW23980   5.907   5.517   3.870
 7694SOL    HW123981   5.910   5.613   3.841
 7694SOL    HW223982   5.963   5.505   3.952
 7695SOL     OW23983   5.282   6.403   6.596
 7695SOL    HW123984   5.243   6.482   6.548
 7695SOL    HW223985   5.212   6.332   6.605
 7696SOL     OW23986   1.560   4.266   5.433
 7696SOL    HW123987   1.464   4.271   5.462
 7696SOL    HW223988   1.574   4.183   5.379
 7697SOL     OW23989   4.288   0.510   2.431
 7697SOL    HW123990   4.224   0.572   2.476
 7697SOL    HW223991   4.256   0.416   2.442
 7698SOL     OW23992   0.345   1.983   6.198
 7698SOL    HW123993   0.418   1.915   6.204
 7698SOL    HW223994   0.370   2.053   6.132
 7699SOL     OW23995   3.475   3.345   1.295
 7699SOL    HW123996   3.516   3.344   1.387
 7699SOL    HW223997   3.527   3.285   1.235
 7700SOL     OW23998   5.482   1.017   5.557
 7700SOL    HW123999   5.511   1.102   5.600
 7700SOL    HW224000   5.561   0.956   5.547
 7701SOL     OW24001   6.797   2.349   5.011
 7701SOL    HW124002   6.735   2.360   4.933
 7701SOL    HW224003   6.846   2.263   5.003
 7702SOL     OW24004   0.844   6.128   0.117
 7702SOL    HW124005   0.910   6.128   0.042
 7702SOL    HW224006   0.801   6.218   0.123
 7703SOL     OW24007   1.389   2.749   0.314
 7703SOL    HW124008   1.339   2.669   0.348
 7703SOL    HW224009   1.427   2.728   0.224
 7704SOL     OW24010   3.792   3.728   1.263
 7704SOL    HW124011   3.830   3.712   1.172
 7704SOL    HW224012   3.865   3.724   1.331
 7705SOL     OW24013   3.917   3.082   4.654
 7705SOL    HW124014   3.948   3.015   4.722
 7705SOL    HW224015   3.863   3.153   4.700
 7706SOL     OW24016   5.770   1.311   5.538
 7706SOL    HW124017   5.746   1.267   5.451
 7706SOL    HW224018   5.716   1.394   5.550
 7707SOL     OW24019   0.230   4.753   6.127
 7707SOL    HW124020   0.289   4.777   6.049
 7707SOL    HW224021   0.256   4.663   6.162
 7708SOL     OW24022   5.264   1.581   5.683
 7708SOL    HW124023   5.191   1.517   5.658
 7708SOL    HW224024   5.289   1.568   5.779
 7709SOL     OW24025   4.088   2.756   1.685
 7709SOL    HW124026   4.177   2.714   1.668
 7709SOL    HW224027   4.017   2.706   1.636
 7710SOL     OW24028   3.177   1.180   6.069
 7710SOL    HW124029   3.184   1.187   6.169
 7710SOL    HW224030   3.212   1.091   6.040
 7711SOL     OW24031   5.064   6.614   4.496
 7711SOL    HW124032   4.980   6.667   4.512
 7711SOL    HW224033   5.061   6.574   4.404
 7712SOL     OW24034   6.022   4.515   6.270
 7712SOL    HW124035   5.972   4.599   6.248
 7712SOL    HW224036   6.092   4.498   6.201
 7713SOL     OW24037   0.896   4.660   6.525
 7713SOL    HW124038   0.813   4.661   6.469
 7713SOL    HW224039   0.923   4.754   6.547
 7714SOL     OW24040   6.452   5.031   5.285
 7714SOL    HW124041   6.494   4.948   5.248
 7714SOL    HW224042   6.352   5.022   5.283
 7715SOL     OW24043   3.590   1.691   1.618
 7715SOL    HW124044   3.557   1.718   1.708
 7715SOL    HW224045   3.686   1.720   1.607
 7716SOL     OW24046   3.853   2.119   4.593
 7716SOL    HW124047   3.767   2.070   4.607
 7716SOL    HW224048   3.861   2.148   4.498
 7717SOL     OW24049   3.134   6.427   0.342
 7717SOL    HW124050   3.158   6.330   0.336
 7717SOL    HW224051   3.130   6.466   0.249
 7718SOL     OW24052   1.423   6.318   3.187
 7718SOL    HW124053   1.422   6.220   3.169
 7718SOL    HW224054   1.488   6.339   3.259
 7719SOL     OW24055   5.472   2.630   5.521
 7719SOL    HW124056   5.477   2.664   5.615
 7719SOL    HW224057   5.393   2.670   5.475
 7720SOL     OW24058   4.779   6.755   1.229
 7720SOL    HW124059   4.846   6.709   1.287
 7720SOL    HW224060   4.720   6.814   1.284
 7721SOL     OW24061   0.416   4.894   3.722
 7721SOL    HW124062   0.439   4.979   3.675
 7721SOL    HW224063   0.498   4.839   3.734
 7722SOL     OW24064   0.494   6.049   3.417
 7722SOL    HW124065   0.523   5.965   3.462
 7722SOL    HW224066   0.397   6.044   3.397
 7723SOL     OW24067   0.129   2.288   6.020
 7723SOL    HW124068   0.202   2.268   6.086
 7723SOL    HW224069   0.079   2.204   6.000
 7724SOL     OW24070   2.678   6.038   6.797
 7724SOL    HW124071   2.660   6.098   6.875
 7724SOL    HW224072   2.615   5.961   6.799
 7725SOL     OW24073   5.133   4.452   3.560
 7725SOL    HW124074   5.201   4.525   3.572
 7725SOL    HW224075   5.060   4.484   3.500
 7726SOL     OW24076   5.152   5.988   3.795
 7726SOL    HW124077   5.063   6.028   3.815
 7726SOL    HW224078   5.176   6.009   3.700
 7727SOL     OW24079   5.894   3.575   2.353
 7727SOL    HW124080   5.983   3.584   2.399
 7727SOL    HW224081   5.882   3.650   2.288
 7728SOL     OW24082   1.995   3.574   2.709
 7728SOL    HW124083   1.908   3.526   2.717
 7728SOL    HW224084   2.035   3.556   2.618
 7729SOL     OW24085   5.638   1.505   5.994
 7729SOL    HW124086   5.601   1.573   5.929
 7729SOL    HW224087   5.716   1.459   5.953
 7730SOL     OW24088   4.198   6.168   3.354
 7730SOL    HW124089   4.295   6.191   3.363
 7730SOL    HW224090   4.182   6.076   3.388
 7731SOL     OW24091   5.946   1.690   4.028
 7731SOL    HW124092   6.000   1.757   3.976
 7731SOL    HW224093   5.849   1.706   4.012
 7732SOL     OW24094   4.149   4.649   0.882
 7732SOL    HW124095   4.196   4.678   0.799
 7732SOL    HW224096   4.072   4.710   0.901
 7733SOL     OW24097   3.692   5.293   1.758
 7733SOL    HW124098   3.765   5.244   1.712
 7733SOL    HW224099   3.626   5.327   1.691
 7734SOL     OW24100   1.076   3.002   2.201
 7734SOL    HW124101   1.172   3.029   2.194
 7734SOL    HW224102   1.039   3.033   2.288
 7735SOL     OW24103   5.614   3.928   0.543
 7735SOL    HW124104   5.689   3.863   0.554
 7735SOL    HW224105   5.615   3.965   0.450
 7736SOL     OW24106   5.694   4.125   6.602
 7736SOL    HW124107   5.698   4.222   6.626
 7736SOL    HW224108   5.621   4.111   6.536
 7737SOL     OW24109   5.413   3.054   0.130
 7737SOL    HW124110   5.341   3.103   0.180
 7737SOL    HW224111   5.383   2.960   0.113
 7738SOL     OW24112   1.821   4.716   6.503
 7738SOL    HW124113   1.840   4.678   6.593
 7738SOL    HW224114   1.832   4.816   6.506
 7739SOL     OW24115   6.004   4.556   2.275
 7739SOL    HW124116   6.037   4.569   2.181
 7739SOL    HW224117   6.078   4.578   2.338
 7740SOL     OW24118   6.791   6.046   3.202
 7740SOL    HW124119   6.715   6.017   3.143
 7740SOL    HW224120   6.870   6.070   3.146
 7741SOL     OW24121   2.625   5.120   3.662
 7741SOL    HW124122   2.596   5.025   3.678
 7741SOL    HW224123   2.685   5.149   3.737
 7742SOL     OW24124   0.005   0.832   4.688
 7742SOL    HW124125   0.055   0.778   4.756
 7742SOL    HW224126   7.004   0.920   4.727
 7743SOL     OW24127   4.881   3.273   1.892
 7743SOL    HW124128   4.849   3.230   1.976
 7743SOL    HW224129   4.825   3.243   1.815
 7744SOL     OW24130   0.360   6.553   3.827
 7744SOL    HW124131   0.271   6.594   3.842
 7744SOL    HW224132   0.408   6.602   3.755
 7745SOL     OW24133   6.387   2.833   5.290
 7745SOL    HW124134   6.296   2.818   5.330
 7745SOL    HW224135   6.455   2.836   5.363
 7746SOL     OW24136   1.886   0.477   6.301
 7746SOL    HW124137   1.970   0.425   6.308
 7746SOL    HW224138   1.840   0.479   6.390
 7747SOL     OW24139   5.142   4.946   1.066
 7747SOL    HW124140   5.218   4.903   1.018
 7747SOL    HW224141   5.091   4.877   1.118
 7748SOL     OW24142   1.447   3.704   6.749
 7748SOL    HW124143   1.376   3.653   6.700
 7748SOL    HW224144   1.479   3.651   6.827
 7749SOL     OW24145   6.098   3.225   5.975
 7749SOL    HW124146   6.188   3.249   5.939
 7749SOL    HW224147   6.050   3.308   6.003
 7750SOL     OW24148   3.805   5.730   3.019
 7750SOL    HW124149   3.838   5.635   3.016
 7750SOL    HW224150   3.720   5.734   3.071
 7751SOL     OW24151   1.196   2.415   1.347
 7751SOL    HW124152   1.271   2.472   1.381
 7751SOL    HW224153   1.229   2.322   1.332
 7752SOL     OW24154   2.916   1.044   2.466
 7752SOL    HW124155   2.828   1.036   2.512
 7752SOL    HW224156   2.980   0.977   2.503
 7753SOL     OW24157   4.647   0.469   5.254
 7753SOL    HW124158   4.614   0.529   5.327
 7753SOL    HW224159   4.698   0.523   5.187
 7754SOL     OW24160   4.667   6.503   1.191
 7754SOL    HW124161   4.703   6.594   1.208
 7754SOL    HW224162   4.681   6.480   1.095
 7755SOL     OW24163   1.512   3.105   5.942
 7755SOL    HW124164   1.512   3.006   5.932
 7755SOL    HW224165   1.418   3.139   5.937
 7756SOL     OW24166   1.422   4.483   2.210
 7756SOL    HW124167   1.461   4.409   2.155
 7756SOL    HW224168   1.481   4.499   2.289
 7757SOL     OW24169   0.968   4.363   0.249
 7757SOL    HW124170   0.944   4.412   0.165
 7757SOL    HW224171   1.063   4.332   0.245
 7758SOL     OW24172   6.792   1.003   5.053
 7758SOL    HW124173   6.819   1.019   4.958
 7758SOL    HW224174   6.801   1.089   5.105
 7759SOL     OW24175   3.188   1.302   2.781
 7759SOL    HW124176   3.198   1.360   2.862
 7759SOL    HW224177   3.194   1.206   2.808
 7760SOL     OW24178   5.428   2.802   0.711
 7760SOL    HW124179   5.442   2.714   0.758
 7760SOL    HW224180   5.379   2.865   0.771
 7761SOL     OW24181   4.834   5.647   2.630
 7761SOL    HW124182   4.762   5.648   2.560
 7761SOL    HW224183   4.804   5.593   2.708
 7762SOL     OW24184   4.635   1.109   0.069
 7762SOL    HW124185   4.605   1.110   0.165
 7762SOL    HW224186   4.558   1.133   0.010
 7763SOL     OW24187   1.658   0.770   3.280
 7763SOL    HW124188   1.592   0.813   3.343
 7763SOL    HW224189   1.704   0.695   3.327
 7764SOL     OW24190   3.938   4.554   5.285
 7764SOL    HW124191   4.029   4.593   5.271
 7764SOL    HW224192   3.871   4.628   5.285
 7765SOL     OW24193   6.517   4.129   4.380
 7765SOL    HW124194   6.542   4.042   4.422
 7765SOL    HW224195   6.466   4.111   4.296
 7766SOL     OW24196   0.023   2.728   5.792
 7766SOL    HW124197   0.089   2.664   5.832
 7766SOL    HW224198   0.043   2.821   5.823
 7767SOL     OW24199   4.065   0.675   3.035
 7767SOL    HW124200   4.048   0.584   2.997
 7767SOL    HW224201   4.109   0.667   3.124
 7768SOL     OW24202   3.137   6.074   4.033
 7768SOL    HW124203   3.214   6.028   3.989
 7768SOL    HW224204   3.056   6.064   3.976
 7769SOL     OW24205   3.743   1.905   6.136
 7769SOL    HW124206   3.695   1.830   6.091
 7769SOL    HW224207   3.700   1.992   6.111
 7770SOL     OW24208   1.484   3.041   3.278
 7770SOL    HW124209   1.467   3.117   3.341
 7770SOL    HW224210   1.582   3.022   3.274
 7771SOL     OW24211   1.173   3.304   5.326
 7771SOL    HW124212   1.159   3.299   5.227
 7771SOL    HW224213   1.218   3.390   5.349
 7772SOL     OW24214   5.045   6.346   2.077
 7772SOL    HW124215   5.047   6.248   2.098
 7772SOL    HW224216   5.112   6.365   2.004
 7773SOL     OW24217   2.796   6.755   5.981
 7773SOL    HW124218   2.741   6.802   5.911
 7773SOL    HW224219   2.889   6.792   5.980
 7774SOL     OW24220   5.086   0.798   2.875
 7774SOL    HW124221   4.988   0.778   2.866
 7774SOL    HW224222   5.098   0.890   2.911
 7775SOL     OW24223   4.323   2.273   1.438
 7775SOL    HW124224   4.229   2.242   1.425
 7775SOL    HW224225   4.346   2.271   1.536
 7776SOL     OW24226   2.502   1.779   3.706
 7776SOL    HW124227   2.429   1.730   3.658
 7776SOL    HW224228   2.479   1.876   3.712
 7777SOL     OW24229   4.927   4.857   2.969
 7777SOL    HW124230   4.988   4.921   3.016
 7777SOL    HW224231   4.982   4.789   2.920
 7778SOL     OW24232   0.859   2.956   1.807
 7778SOL    HW124233   0.935   2.969   1.744
 7778SOL    HW224234   0.858   3.029   1.875
 7779SOL     OW24235   2.518   1.286   3.959
 7779SOL    HW124236   2.480   1.367   3.914
 7779SOL    HW224237   2.443   1.231   3.997
 7780SOL     OW24238   6.339   6.107   3.795
 7780SOL    HW124239   6.253   6.067   3.764
 7780SOL    HW224240   6.327   6.145   3.887
 7781SOL     OW24241   3.295   3.135   1.487
 7781SOL    HW124242   3.199   3.162   1.498
 7781SOL    HW224243   3.354   3.211   1.515
 7782SOL     OW24244   5.054   5.292   3.511
 7782SOL    HW124245   5.023   5.270   3.419
 7782SOL    HW224246   4.987   5.352   3.556
 7783SOL     OW24247   0.378   6.981   4.045
 7783SOL    HW124248   0.295   0.005   4.072
 7783SOL    HW224249   0.456   7.014   4.097
 7784SOL     OW24250   0.690   3.309   2.396
 7784SOL    HW124251   0.766   3.344   2.451
 7784SOL    HW224252   0.698   3.209   2.388
 7785SOL     OW24253   6.300   0.209   2.453
 7785SOL    HW124254   6.377   0.148   2.472
 7785SOL    HW224255   6.335   0.295   2.414
 7786SOL     OW24256   5.384   0.558   6.380
 7786SOL    HW124257   5.392   0.511   6.469
 7786SOL    HW224258   5.387   0.657   6.394
 7787SOL     OW24259   0.972   1.990   0.742
 7787SOL    HW124260   0.994   1.904   0.695
 7787SOL    HW224261   1.052   2.022   0.792
 7788SOL     OW24262   0.919   4.386   2.567
 7788SOL    HW124263   1.016   4.381   2.542
 7788SOL    HW224264   0.912   4.411   2.664
 7789SOL     OW24265   3.833   0.047   6.631
 7789SOL    HW124266   3.769   0.088   6.696
 7789SOL    HW224267   3.846   6.976   6.654
 7790SOL     OW24268   3.984   4.865   5.004
 7790SOL    HW124269   4.060   4.803   5.024
 7790SOL    HW224270   4.016   4.959   5.004
 7791SOL     OW24271   1.612   6.896   1.452
 7791SOL    HW124272   1.625   6.819   1.389
 7791SOL    HW224273   1.567   6.863   1.535
 7792SOL     OW24274   1.352   1.612   1.684
 7792SOL    HW124275   1.374   1.694   1.631
 7792SOL    HW224276   1.345   1.533   1.623
 7793SOL     OW24277   5.143   1.352   0.617
 7793SOL    HW124278   5.190   1.263   0.612
 7793SOL    HW224279   5.044   1.338   0.614
 7794SOL     OW24280   0.851   1.462   3.075
 7794SOL    HW124281   0.913   1.505   3.010
 7794SOL    HW224282   0.904   1.417   3.147
 7795SOL     OW24283   5.035   3.505   1.106
 7795SOL    HW124284   5.103   3.520   1.034
 7795SOL    HW224285   5.077   3.520   1.195
 7796SOL     OW24286   3.995   1.334   0.167
 7796SOL    HW124287   4.043   1.401   0.110
 7796SOL    HW224288   4.006   1.243   0.128
 7797SOL     OW24289   1.442   6.179   2.708
 7797SOL    HW124290   1.482   6.102   2.658
 7797SOL    HW224291   1.392   6.144   2.788
 7798SOL     OW24292   2.368   3.159   1.078
 7798SOL    HW124293   2.426   3.224   1.128
 7798SOL    HW224294   2.338   3.086   1.141
 7799SOL     OW24295   2.129   5.985   4.375
 7799SOL    HW124296   2.089   5.904   4.333
 7799SOL    HW224297   2.212   5.960   4.425
 7800SOL     OW24298   0.542   0.980   1.616
 7800SOL    HW124299   0.457   0.958   1.663
 7800SOL    HW224300   0.584   1.061   1.658
 7801SOL     OW24301   3.021   2.324   1.032
 7801SOL    HW124302   2.942   2.274   1.069
 7801SOL    HW224303   3.106   2.282   1.066
 7802SOL     OW24304   6.778   4.751   4.190
 7802SOL    HW124305   6.854   4.816   4.194
 7802SOL    HW224306   6.800   4.670   4.245
 7803SOL     OW24307   3.075   2.380   6.176
 7803SOL    HW124308   3.000   2.444   6.162
 7803SOL    HW224309   3.162   2.428   6.170
 7804SOL     OW24310   3.001   1.732   5.690
 7804SOL    HW124311   2.914   1.684   5.703
 7804SOL    HW224312   3.021   1.739   5.592
 7805SOL     OW24313   0.271   2.134   6.643
 7805SOL    HW124314   0.282   2.196   6.565
 7805SOL    HW224315   0.257   2.041   6.609
 7806SOL     OW24316   6.571   2.736   4.900
 7806SOL    HW124317   6.503   2.805   4.875
 7806SOL    HW224318   6.533   2.675   4.969
 7807SOL     OW24319   2.517   6.305   5.523
 7807SOL    HW124320   2.496   6.400   5.504
 7807SOL    HW224321   2.569   6.298   5.608
 7808SOL     OW24322   0.325   2.944   4.531
 7808SOL    HW124323   0.399   2.907   4.588
 7808SOL    HW224324   0.330   3.044   4.530
 7809SOL     OW24325   3.266   0.696   3.095
 7809SOL    HW124326   3.201   0.676   3.022
 7809SOL    HW224327   3.222   0.757   3.162
 7810SOL     OW24328   2.463   6.758   5.694
 7810SOL    HW124329   2.406   6.838   5.711
 7810SOL    HW224330   2.465   6.700   5.775
 7811SOL     OW24331   1.321   5.606   3.140
 7811SOL    HW124332   1.375   5.663   3.078
 7811SOL    HW224333   1.355   5.617   3.234
 7812SOL     OW24334   2.775   0.114   5.593
 7812SOL    HW124335   2.859   0.161   5.623
 7812SOL    HW224336   2.799   0.043   5.526
 7813SOL     OW24337   5.451   0.929   0.621
 7813SOL    HW124338   5.449   0.954   0.524
 7813SOL    HW224339   5.375   0.866   0.641
 7814SOL     OW24340   6.547   1.667   1.661
 7814SOL    HW124341   6.482   1.640   1.591
 7814SOL    HW224342   6.531   1.614   1.744
 7815SOL     OW24343   4.689   5.894   3.628
 7815SOL    HW124344   4.595   5.890   3.595
 7815SOL    HW224345   4.699   5.837   3.710
 7816SOL     OW24346   1.234   1.140   5.236
 7816SOL    HW124347   1.205   1.119   5.329
 7816SOL    HW224348   1.186   1.222   5.204
 7817SOL     OW24349   4.778   0.878   5.137
 7817SOL    HW124350   4.737   0.893   5.227
 7817SOL    HW224351   4.771   0.961   5.082
 7818SOL     OW24352   4.056   0.396   2.977
 7818SOL    HW124353   3.967   0.353   2.960
 7818SOL    HW224354   4.099   0.356   3.058
 7819SOL     OW24355   2.524   2.562   4.100
 7819SOL    HW124356   2.601   2.507   4.134
 7819SOL    HW224357   2.461   2.580   4.175
 7820SOL     OW24358   2.223   0.612   6.670
 7820SOL    HW124359   2.162   0.536   6.693
 7820SOL    HW224360   2.207   0.688   6.734
 7821SOL     OW24361   2.770   6.122   6.104
 7821SOL    HW124362   2.753   6.220   6.110
 7821SOL    HW224363   2.752   6.080   6.193
 7822SOL     OW24364   0.970   1.433   4.523
 7822SOL    HW124365   0.962   1.431   4.623
 7822SOL    HW224366   0.884   1.404   4.482
 7823SOL     OW24367   1.875   2.480   5.139
 7823SOL    HW124368   1.840   2.571   5.157
 7823SOL    HW224369   1.868   2.424   5.221
 7824SOL     OW24370   6.421   4.038   3.009
 7824SOL    HW124371   6.387   4.020   2.917
 7824SOL    HW224372   6.472   3.959   3.042
 7825SOL     OW24373   2.906   3.619   3.729
 7825SOL    HW124374   2.877   3.523   3.728
 7825SOL    HW224375   2.949   3.642   3.642
 7826SOL     OW24376   6.219   6.425   1.016
 7826SOL    HW124377   6.125   6.392   1.027
 7826SOL    HW224378   6.274   6.392   1.093
 7827SOL     OW24379   5.471   3.643   0.563
 7827SOL    HW124380   5.465   3.693   0.476
 7827SOL    HW224381   5.388   3.659   0.616
 7828SOL     OW24382   0.934   5.711   0.320
 7828SOL    HW124383   0.984   5.794   0.345
 7828SOL    HW224384   0.993   5.631   0.337
 7829SOL     OW24385   2.912   3.755   2.664
 7829SOL    HW124386   2.941   3.834   2.611
 7829SOL    HW224387   2.833   3.712   2.621
 7830SOL     OW24388   6.985   4.525   6.706
 7830SOL    HW124389   0.011   4.443   6.681
 7830SOL    HW224390   6.893   4.499   6.734
 7831SOL     OW24391   3.348   3.828   0.196
 7831SOL    HW124392   3.330   3.905   0.256
 7831SOL    HW224393   3.426   3.776   0.231
 7832SOL     OW24394   4.021   2.863   6.288
 7832SOL    HW124395   4.080   2.794   6.244
 7832SOL    HW224396   3.984   2.826   6.373
 7833SOL     OW24397   6.406   6.786   1.857
 7833SOL    HW124398   6.309   6.787   1.881
 7833SOL    HW224399   6.457   6.841   1.923
 7834SOL     OW24400   5.039   1.490   1.589
 7834SOL    HW124401   4.981   1.483   1.671
 7834SOL    HW224402   5.007   1.426   1.520
 7835SOL     OW24403   1.869   2.260   3.899
 7835SOL    HW124404   1.858   2.359   3.891
 7835SOL    HW224405   1.823   2.215   3.823
 7836SOL     OW24406   2.236   6.916   6.525
 7836SOL    HW124407   2.196   7.004   6.497
 7836SOL    HW224408   2.335   6.925   6.533
 7837SOL     OW24409   4.832   6.452   2.208
 7837SOL    HW124410   4.793   6.535   2.168
 7837SOL    HW224411   4.909   6.421   2.152
 7838SOL     OW24412   3.230   5.234   4.402
 7838SOL    HW124413   3.207   5.201   4.494
 7838SOL    HW224414   3.171   5.191   4.335
 7839SOL     OW24415   0.070   5.356   3.031
 7839SOL    HW124416   0.042   5.416   2.957
 7839SOL    HW224417   7.026   5.285   3.045
 7840SOL     OW24418   3.978   3.099   6.144
 7840SOL    HW124419   4.021   3.015   6.177
 7840SOL    HW224420   3.891   3.113   6.192
 7841SOL     OW24421   1.143   1.620   5.679
 7841SOL    HW124422   1.222   1.616   5.741
 7841SOL    HW224423   1.131   1.713   5.645
 7842SOL     OW24424   1.074   0.964   2.948
 7842SOL    HW124425   1.142   0.902   2.987
 7842SOL    HW224426   1.055   0.937   2.853
 7843SOL     OW24427   6.903   2.119   2.103
 7843SOL    HW124428   6.962   2.064   2.162
 7843SOL    HW224429   6.909   2.215   2.131
 7844SOL     OW24430   3.438   2.128   2.951
 7844SOL    HW124431   3.510   2.196   2.961
 7844SOL    HW224432   3.479   2.036   2.949
 7845SOL     OW24433   0.701   1.078   4.775
 7845SOL    HW124434   0.739   1.030   4.854
 7845SOL    HW224435   0.726   1.029   4.692
 7846SOL     OW24436   5.042   6.765   2.990
 7846SOL    HW124437   5.125   6.709   2.994
 7846SOL    HW224438   5.000   6.755   2.900
 7847SOL     OW24439   0.447   6.407   5.587
 7847SOL    HW124440   0.545   6.385   5.593
 7847SOL    HW224441   0.396   6.344   5.646
 7848SOL     OW24442   4.382   3.327   1.181
 7848SOL    HW124443   4.424   3.260   1.242
 7848SOL    HW224444   4.300   3.287   1.140
 7849SOL     OW24445   6.670   4.375   5.656
 7849SOL    HW124446   6.709   4.302   5.712
 7849SOL    HW224447   6.613   4.434   5.713
 7850SOL     OW24448   1.306   2.940   4.684
 7850SOL    HW124449   1.215   2.963   4.718
 7850SOL    HW224450   1.354   3.023   4.657
 7851SOL     OW24451   2.849   6.723   0.389
 7851SOL    HW124452   2.869   6.781   0.468
 7851SOL    HW224453   2.881   6.630   0.407
 7852SOL     OW24454   2.647   6.313   0.331
 7852SOL    HW124455   2.736   6.268   0.319
 7852SOL    HW224456   2.645   6.398   0.279
 7853SOL     OW24457   2.672   1.805   6.259
 7853SOL    HW124458   2.646   1.870   6.187
 7853SOL    HW224459   2.752   1.753   6.230
 7854SOL     OW24460   4.004   3.927   4.364
 7854SOL    HW124461   4.045   3.854   4.310
 7854SOL    HW224462   4.005   3.902   4.460
 7855SOL     OW24463   3.110   0.014   4.836
 7855SOL    HW124464   3.193   0.042   4.884
 7855SOL    HW224465   3.134   7.006   4.745
 7856SOL     OW24466   3.036   2.720   5.760
 7856SOL    HW124467   3.069   2.654   5.827
 7856SOL    HW224468   3.072   2.696   5.670
 7857SOL     OW24469   0.363   3.434   5.051
 7857SOL    HW124470   0.463   3.431   5.050
 7857SOL    HW224471   0.327   3.396   4.966
 7858SOL     OW24472   5.177   2.823   3.293
 7858SOL    HW124473   5.229   2.906   3.275
 7858SOL    HW224474   5.177   2.805   3.392
 7859SOL     OW24475   6.727   6.905   6.733
 7859SOL    HW124476   6.659   6.960   6.781
 7859SOL    HW224477   6.685   6.818   6.704
 7860SOL     OW24478   4.574   6.569   0.267
 7860SOL    HW124479   4.567   6.667   0.289
 7860SOL    HW224480   4.544   6.515   0.345
 7861SOL     OW24481   6.512   3.595   0.154
 7861SOL    HW124482   6.538   3.569   0.247
 7861SOL    HW224483   6.413   3.608   0.150
 7862SOL     OW24484   2.927   4.646   1.605
 7862SOL    HW124485   2.914   4.619   1.700
 7862SOL    HW224486   2.848   4.618   1.551
 7863SOL     OW24487   4.422   6.020   2.723
 7863SOL    HW124488   4.484   5.973   2.660
 7863SOL    HW224489   4.474   6.059   2.799
 7864SOL     OW24490   2.121   5.842   5.711
 7864SOL    HW124491   2.090   5.826   5.805
 7864SOL    HW224492   2.045   5.830   5.648
 7865SOL     OW24493   4.384   0.442   3.229
 7865SOL    HW124494   4.418   0.515   3.170
 7865SOL    HW224495   4.286   0.456   3.247
 7866SOL     OW24496   2.556   0.227   5.490
 7866SOL    HW124497   2.569   0.324   5.513
 7866SOL    HW224498   2.638   0.175   5.515
 7867SOL     OW24499   0.149   2.942   0.519
 7867SOL    HW124500   0.067   2.935   0.461
 7867SOL    HW224501   0.124   2.978   0.608
 7868SOL     OW24502   5.353   0.168   1.529
 7868SOL    HW124503   5.415   0.245   1.539
 7868SOL    HW224504   5.290   0.185   1.452
 7869SOL     OW24505   5.990   1.765   4.475
 7869SOL    HW124506   6.005   1.774   4.574
 7869SOL    HW224507   5.893   1.780   4.455
 7870SOL     OW24508   5.952   0.236   3.046
 7870SOL    HW124509   6.022   0.169   3.071
 7870SOL    HW224510   5.996   0.316   3.005
 7871SOL     OW24511   5.452   2.339   3.200
 7871SOL    HW124512   5.530   2.402   3.201
 7871SOL    HW224513   5.373   2.384   3.157
 7872SOL     OW24514   5.327   3.976   3.632
 7872SOL    HW124515   5.286   3.959   3.543
 7872SOL    HW224516   5.424   3.997   3.621
 7873SOL     OW24517   0.090   6.279   5.157
 7873SOL    HW124518   0.162   6.273   5.088
 7873SOL    HW224519   0.003   6.300   5.113
 7874SOL     OW24520   6.182   6.598   0.371
 7874SOL    HW124521   6.097   6.547   0.386
 7874SOL    HW224522   6.196   6.661   0.447
 7875SOL     OW24523   5.551   2.308   6.946
 7875SOL    HW124524   5.635   2.358   6.924
 7875SOL    HW224525   5.482   2.371   6.980
 7876SOL     OW24526   0.024   2.510   5.089
 7876SOL    HW124527   0.120   2.500   5.062
 7876SOL    HW224528   6.991   2.483   5.012
 7877SOL     OW24529   5.990   3.356   1.610
 7877SOL    HW124530   5.987   3.288   1.537
 7877SOL    HW224531   6.071   3.341   1.667
 7878SOL     OW24532   3.964   3.653   2.295
 7878SOL    HW124533   4.026   3.607   2.359
 7878SOL    HW224534   3.978   3.616   2.204
 7879SOL     OW24535   6.762   1.468   5.505
 7879SOL    HW124536   6.830   1.483   5.433
 7879SOL    HW224537   6.777   1.535   5.578
 7880SOL     OW24538   1.675   6.058   6.347
 7880SOL    HW124539   1.761   6.108   6.339
 7880SOL    HW224540   1.653   6.046   6.444
 7881SOL     OW24541   0.057   4.999   5.707
 7881SOL    HW124542   7.011   4.932   5.722
 7881SOL    HW224543   0.018   5.081   5.664
 7882SOL     OW24544   1.243   4.679   0.537
 7882SOL    HW124545   1.175   4.680   0.464
 7882SOL    HW224546   1.294   4.765   0.536
 7883SOL     OW24547   2.771   2.187   2.726
 7883SOL    HW124548   2.756   2.246   2.646
 7883SOL    HW224549   2.684   2.171   2.772
 7884SOL     OW24550   6.706   2.277   5.785
 7884SOL    HW124551   6.721   2.368   5.823
 7884SOL    HW224552   6.669   2.217   5.855
 7885SOL     OW24553   5.240   5.051   2.208
 7885SOL    HW124554   5.314   5.001   2.253
 7885SOL    HW224555   5.210   5.127   2.267
 7886SOL     OW24556   3.564   5.368   3.534
 7886SOL    HW124557   3.498   5.335   3.467
 7886SOL    HW224558   3.561   5.310   3.616
 7887SOL     OW24559   0.726   3.293   0.630
 7887SOL    HW124560   0.808   3.333   0.588
 7887SOL    HW224561   0.742   3.197   0.649
 7888SOL     OW24562   0.346   1.431   5.273
 7888SOL    HW124563   0.387   1.352   5.229
 7888SOL    HW224564   0.278   1.400   5.340
 7889SOL     OW24565   6.008   4.390   0.425
 7889SOL    HW124566   6.055   4.450   0.361
 7889SOL    HW224567   5.911   4.412   0.427
 7890SOL     OW24568   1.460   2.559   1.454
 7890SOL    HW124569   1.487   2.490   1.521
 7890SOL    HW224570   1.535   2.573   1.389
 7891SOL     OW24571   6.082   1.020   4.997
 7891SOL    HW124572   6.026   0.939   4.977
 7891SOL    HW224573   6.040   1.101   4.956
 7892SOL     OW24574   0.796   1.690   4.803
 7892SOL    HW124575   0.807   1.735   4.714
 7892SOL    HW224576   0.842   1.601   4.801
 7893SOL     OW24577   5.784   6.035   0.936
 7893SOL    HW124578   5.757   6.015   1.030
 7893SOL    HW224579   5.708   6.014   0.874
 7894SOL     OW24580   2.728   0.147   6.061
 7894SOL    HW124581   2.818   0.128   6.022
 7894SOL    HW224582   2.680   0.060   6.076
 7895SOL     OW24583   5.054   6.783   2.374
 7895SOL    HW124584   4.965   6.746   2.401
 7895SOL    HW224585   5.126   6.718   2.398
 7896SOL     OW24586   3.742   2.046   1.302
 7896SOL    HW124587   3.662   1.991   1.279
 7896SOL    HW224588   3.800   1.994   1.365
 7897SOL     OW24589   5.170   0.741   1.531
 7897SOL    HW124590   5.100   0.708   1.595
 7897SOL    HW224591   5.178   0.676   1.455
 7898SOL     OW24592   3.675   6.545   3.269
 7898SOL    HW124593   3.622   6.611   3.322
 7898SOL    HW224594   3.649   6.549   3.173
 7899SOL     OW24595   5.946   4.537   2.794
 7899SOL    HW124596   5.915   4.496   2.709
 7899SOL    HW224597   5.944   4.469   2.867
 7900SOL     OW24598   0.568   4.034   0.573
 7900SOL    HW124599   0.664   4.041   0.547
 7900SOL    HW224600   0.562   4.024   0.673
 7901SOL     OW24601   0.168   2.776   6.407
 7901SOL    HW124602   0.163   2.832   6.490
 7901SOL    HW224603   0.078   2.737   6.388
 7902SOL     OW24604   1.516   0.270   1.252
 7902SOL    HW124605   1.568   0.326   1.316
 7902SOL    HW224606   1.522   0.309   1.160
 7903SOL     OW24607   3.417   2.270   5.587
 7903SOL    HW124608   3.449   2.175   5.587
 7903SOL    HW224609   3.412   2.303   5.493
 7904SOL     OW24610   5.492   3.057   3.192
 7904SOL    HW124611   5.562   3.093   3.130
 7904SOL    HW224612   5.536   3.016   3.272
 7905SOL     OW24613   6.253   1.991   0.989
 7905SOL    HW124614   6.266   1.954   1.080
 7905SOL    HW224615   6.156   1.985   0.964
 7906SOL     OW24616   6.840   5.976   5.657
 7906SOL    HW124617   6.866   6.040   5.730
 7906SOL    HW224618   6.910   5.906   5.646
 7907SOL     OW24619   5.359   5.455   2.849
 7907SOL    HW124620   5.309   5.517   2.910
 7907SOL    HW224621   5.403   5.508   2.776
 7908SOL     OW24622   1.431   6.943   6.362
 7908SOL    HW124623   1.349   6.993   6.388
 7908SOL    HW224624   1.407   6.849   6.340
 7909SOL     OW24625   7.007   4.207   3.149
 7909SOL    HW124626   6.975   4.218   3.055
 7909SOL    HW224627   0.056   4.140   3.152
 7910SOL     OW24628   1.384   4.303   4.665
 7910SOL    HW124629   1.423   4.349   4.586
 7910SOL    HW224630   1.392   4.204   4.653
 7911SOL     OW24631   5.916   3.868   6.301
 7911SOL    HW124632   5.891   3.965   6.306
 7911SOL    HW224633   5.847   3.819   6.247
 7912SOL     OW24634   5.597   5.638   1.648
 7912SOL    HW124635   5.538   5.558   1.647
 7912SOL    HW224636   5.646   5.642   1.735
 7913SOL     OW24637   1.021   3.786   6.724
 7913SOL    HW124638   0.962   3.708   6.744
 7913SOL    HW224639   1.108   3.753   6.686
 7914SOL     OW24640   1.228   0.258   4.890
 7914SOL    HW124641   1.147   0.225   4.842
 7914SOL    HW224642   1.210   0.351   4.923
 7915SOL     OW24643   2.588   6.396   1.646
 7915SOL    HW124644   2.634   6.484   1.660
 7915SOL    HW224645   2.489   6.408   1.659
 7916SOL     OW24646   1.918   0.422   3.172
 7916SOL    HW124647   1.898   0.352   3.241
 7916SOL    HW224648   1.964   0.378   3.094
 7917SOL     OW24649   4.597   1.312   3.073
 7917SOL    HW124650   4.606   1.267   3.162
 7917SOL    HW224651   4.625   1.408   3.082
 7918SOL     OW24652   1.667   2.811   2.354
 7918SOL    HW124653   1.763   2.787   2.361
 7918SOL    HW224654   1.646   2.883   2.420
 7919SOL     OW24655   1.089   0.419   4.644
 7919SOL    HW124656   1.017   0.464   4.591
 7919SOL    HW224657   1.105   0.470   4.728
 7920SOL     OW24658   4.973   0.031   1.334
 7920SOL    HW124659   4.912   0.109   1.340
 7920SOL    HW224660   4.957   6.995   1.411
 7921SOL     OW24661   6.645   3.580   0.871
 7921SOL    HW124662   6.709   3.634   0.926
 7921SOL    HW224663   6.644   3.615   0.777
 7922SOL     OW24664   1.844   6.571   3.486
 7922SOL    HW124665   1.876   6.507   3.555
 7922SOL    HW224666   1.910   6.645   3.476
 7923SOL     OW24667   5.209   0.455   0.422
 7923SOL    HW124668   5.232   0.360   0.398
 7923SOL    HW224669   5.130   0.485   0.368
 7924SOL     OW24670   5.252   5.961   6.975
 7924SOL    HW124671   5.348   5.937   6.982
 7924SOL    HW224672   5.199   5.911   0.018
 7925SOL     OW24673   2.240   4.463   6.153
 7925SOL    HW124674   2.281   4.554   6.150
 7925SOL    HW224675   2.296   4.403   6.210
 7926SOL     OW24676   4.476   5.673   0.648
 7926SOL    HW124677   4.463   5.767   0.616
 7926SOL    HW224678   4.560   5.636   0.609
 7927SOL     OW24679   4.798   6.787   3.732
 7927SOL    HW124680   4.739   6.843   3.790
 7927SOL    HW224681   4.840   6.715   3.788
 7928SOL     OW24682   6.040   2.957   3.761
 7928SOL    HW124683   6.121   2.964   3.819
 7928SOL    HW224684   6.056   3.005   3.674
 7929SOL     OW24685   4.425   4.171   5.531
 7929SOL    HW124686   4.420   4.162   5.631
 7929SOL    HW224687   4.449   4.083   5.490
 7930SOL     OW24688   3.645   5.552   1.101
 7930SOL    HW124689   3.656   5.581   1.006
 7930SOL    HW224690   3.644   5.633   1.161
 7931SOL     OW24691   5.416   0.763   0.351
 7931SOL    HW124692   5.419   0.672   0.310
 7931SOL    HW224693   5.320   0.791   0.362
 7932SOL     OW24694   1.186   3.957   0.640
 7932SOL    HW124695   1.223   3.888   0.578
 7932SOL    HW224696   1.143   4.030   0.587
 7933SOL     OW24697   2.155   1.204   6.978
 7933SOL    HW124698   2.248   1.196   6.942
 7933SOL    HW224699   2.130   1.120   0.001
 7934SOL     OW24700   6.397   5.150   0.864
 7934SOL    HW124701   6.367   5.243   0.887
 7934SOL    HW224702   6.414   5.098   0.948
 7935SOL     OW24703   6.421   4.146   3.704
 7935SOL    HW124704   6.404   4.047   3.709
 7935SOL    HW224705   6.479   4.166   3.626
 7936SOL     OW24706   2.541   5.498   3.639
 7936SOL    HW124707   2.511   5.569   3.575
 7936SOL    HW224708   2.484   5.417   3.628
 7937SOL     OW24709   3.826   1.245   1.368
 7937SOL    HW124710   3.754   1.191   1.412
 7937SOL    HW224711   3.876   1.187   1.304
 7938SOL     OW24712   1.752   0.005   3.414
 7938SOL    HW124713   1.681   6.966   3.442
 7938SOL    HW224714   1.798   6.996   3.333
 7939SOL     OW24715   1.817   0.019   3.676
 7939SOL    HW124716   1.780   0.015   3.583
 7939SOL    HW224717   1.810   6.955   3.718
 7940SOL     OW24718   6.666   1.023   5.724
 7940SOL    HW124719   6.610   1.105   5.712
 7940SOL    HW224720   6.759   1.042   5.692
 7941SOL     OW24721   2.674   0.223   0.695
 7941SOL    HW124722   2.648   0.154   0.627
 7941SOL    HW224723   2.591   0.261   0.736
 7942SOL     OW24724   1.796   3.574   1.288
 7942SOL    HW124725   1.767   3.669   1.297
 7942SOL    HW224726   1.858   3.566   1.209
 7943SOL     OW24727   1.796   5.428   6.969
 7943SOL    HW124728   1.782   5.371   6.888
 7943SOL    HW224729   1.893   5.428   6.993
 7944SOL     OW24730   1.665   1.793   0.440
 7944SOL    HW124731   1.670   1.698   0.471
 7944SOL    HW224732   1.747   1.814   0.386
 7945SOL     OW24733   6.298   4.363   3.622
 7945SOL    HW124734   6.367   4.406   3.563
 7945SOL    HW224735   6.337   4.283   3.667
 7946SOL     OW24736   5.259   1.126   5.760
 7946SOL    HW124737   5.323   1.154   5.689
 7946SOL    HW224738   5.308   1.078   5.833
 7947SOL     OW24739   0.771   4.023   6.836
 7947SOL    HW124740   0.714   4.091   6.883
 7947SOL    HW224741   0.713   3.951   6.799
 7948SOL     OW24742   1.129   5.846   1.208
 7948SOL    HW124743   1.189   5.775   1.172
 7948SOL    HW224744   1.061   5.804   1.268
 7949SOL     OW24745   3.894   5.194   4.998
 7949SOL    HW124746   3.978   5.155   5.036
 7949SOL    HW224747   3.897   5.294   5.006
 7950SOL     OW24748   6.705   2.392   6.552
 7950SOL    HW124749   6.717   2.299   6.587
 7950SOL    HW224750   6.718   2.392   6.453
 7951SOL     OW24751   3.106   0.632   2.871
 7951SOL    HW124752   3.151   0.543   2.860
 7951SOL    HW224753   3.150   0.699   2.812
 7952SOL     OW24754   0.343   3.428   5.531
 7952SOL    HW124755   0.380   3.374   5.455
 7952SOL    HW224756   0.392   3.515   5.538
 7953SOL     OW24757   0.634   0.876   0.217
 7953SOL    HW124758   0.597   0.957   0.173
 7953SOL    HW224759   0.695   0.828   0.154
 7954SOL     OW24760   4.014   2.167   1.157
 7954SOL    HW124761   4.011   2.267   1.154
 7954SOL    HW224762   4.006   2.137   1.252
 7955SOL     OW24763   6.245   0.208   6.292
 7955SOL    HW124764   6.224   0.112   6.312
 7955SOL    HW224765   6.297   0.213   6.206
 7956SOL     OW24766   0.211   6.962   1.490
 7956SOL    HW124767   0.204   6.883   1.552
 7956SOL    HW224768   0.302   7.003   1.498
 7957SOL     OW24769   6.050   2.110   6.366
 7957SOL    HW124770   5.986   2.146   6.299
 7957SOL    HW224771   6.138   2.156   6.357
 7958SOL     OW24772   5.112   2.454   6.413
 7958SOL    HW124773   5.032   2.511   6.429
 7958SOL    HW224774   5.174   2.500   6.351
 7959SOL     OW24775   5.758   2.904   6.751
 7959SOL    HW124776   5.855   2.928   6.756
 7959SOL    HW224777   5.712   2.935   6.834
 7960SOL     OW24778   0.872   2.771   5.206
 7960SOL    HW124779   0.952   2.768   5.266
 7960SOL    HW224780   0.858   2.681   5.165
 7961SOL     OW24781   6.134   0.041   5.997
 7961SOL    HW124782   6.109   0.070   6.090
 7961SOL    HW224783   6.081   0.095   5.931
 7962SOL     OW24784   5.782   0.503   4.792
 7962SOL    HW124785   5.751   0.499   4.887
 7962SOL    HW224786   5.877   0.534   4.790
 7963SOL     OW24787   5.796   6.202   2.285
 7963SOL    HW124788   5.790   6.269   2.211
 7963SOL    HW224789   5.717   6.212   2.345
 7964SOL     OW24790   0.971   4.452   1.835
 7964SOL    HW124791   1.017   4.541   1.839
 7964SOL    HW224792   0.917   4.446   1.751
 7965SOL     OW24793   4.779   1.978   6.595
 7965SOL    HW124794   4.705   2.044   6.587
 7965SOL    HW224795   4.850   2.014   6.656
 7966SOL     OW24796   5.699   3.886   5.374
 7966SOL    HW124797   5.779   3.916   5.427
 7966SOL    HW224798   5.656   3.808   5.420
 7967SOL     OW24799   2.066   4.142   1.739
 7967SOL    HW124800   2.033   4.060   1.693
 7967SOL    HW224801   2.138   4.184   1.684
 7968SOL     OW24802   2.068   2.265   3.452
 7968SOL    HW124803   2.057   2.187   3.391
 7968SOL    HW224804   2.098   2.345   3.400
 7969SOL     OW24805   2.747   4.245   6.129
 7969SOL    HW124806   2.811   4.319   6.106
 7969SOL    HW224807   2.727   4.192   6.046
 7970SOL     OW24808   6.700   2.526   2.660
 7970SOL    HW124809   6.726   2.459   2.591
 7970SOL    HW224810   6.611   2.500   2.700
 7971SOL     OW24811   2.349   0.098   6.710
 7971SOL    HW124812   2.410   0.125   6.635
 7971SOL    HW224813   2.365   0.156   6.790
 7972SOL     OW24814   3.371   3.002   3.837
 7972SOL    HW124815   3.385   3.099   3.855
 7972SOL    HW224816   3.278   2.976   3.864
 7973SOL     OW24817   1.044   5.714   1.987
 7973SOL    HW124818   1.037   5.627   2.036
 7973SOL    HW224819   0.954   5.741   1.955
 7974SOL     OW24820   0.103   3.033   3.954
 7974SOL    HW124821   0.019   3.062   3.907
 7974SOL    HW224822   0.153   2.970   3.895
 7975SOL     OW24823   4.182   0.567   6.369
 7975SOL    HW124824   4.125   0.512   6.309
 7975SOL    HW224825   4.265   0.517   6.393
 7976SOL     OW24826   0.159   0.453   1.030
 7976SOL    HW124827   0.124   0.421   0.942
 7976SOL    HW224828   0.082   0.484   1.086
 7977SOL     OW24829   5.295   4.763   2.925
 7977SOL    HW124830   5.372   4.702   2.907
 7977SOL    HW224831   5.326   4.842   2.978
 7978SOL     OW24832   0.205   3.942   1.409
 7978SOL    HW124833   0.232   3.887   1.489
 7978SOL    HW224834   0.188   3.881   1.332
 7979SOL     OW24835   3.754   2.820   5.918
 7979SOL    HW124836   3.849   2.792   5.932
 7979SOL    HW224837   3.730   2.809   5.822
 7980SOL     OW24838   3.970   6.066   2.765
 7980SOL    HW124839   4.046   6.003   2.753
 7980SOL    HW224840   3.889   6.016   2.797
 7981SOL     OW24841   0.766   3.037   3.415
 7981SOL    HW124842   0.787   2.997   3.504
 7981SOL    HW224843   0.822   3.119   3.402
 7982SOL     OW24844   6.577   6.846   0.581
 7982SOL    HW124845   6.571   6.939   0.545
 7982SOL    HW224846   6.662   6.804   0.553
 7983SOL     OW24847   3.556   1.700   0.936
 7983SOL    HW124848   3.601   1.768   0.994
 7983SOL    HW224849   3.476   1.742   0.892
 7984SOL     OW24850   5.946   1.562   1.999
 7984SOL    HW124851   5.939   1.576   2.098
 7984SOL    HW224852   5.858   1.584   1.956
 7985SOL     OW24853   2.953   3.936   6.041
 7985SOL    HW124854   2.905   3.915   6.126
 7985SOL    HW224855   3.022   4.007   6.057
 7986SOL     OW24856   1.970   1.135   3.665
 7986SOL    HW124857   1.901   1.082   3.615
 7986SOL    HW224858   1.964   1.114   3.763
 7987SOL     OW24859   1.122   2.984   0.139
 7987SOL    HW124860   1.061   3.045   0.088
 7987SOL    HW224861   1.141   2.902   0.085
 7988SOL     OW24862   6.211   6.962   1.712
 7988SOL    HW124863   6.135   6.957   1.647
 7988SOL    HW224864   6.277   6.890   1.691
 7989SOL     OW24865   0.697   4.705   1.671
 7989SOL    HW124866   0.600   4.714   1.696
 7989SOL    HW224867   0.753   4.751   1.740
 7990SOL     OW24868   4.431   5.227   5.552
 7990SOL    HW124869   4.357   5.294   5.548
 7990SOL    HW224870   4.465   5.219   5.646
 7991SOL     OW24871   5.394   0.919   4.071
 7991SOL    HW124872   5.301   0.884   4.062
 7991SOL    HW224873   5.450   0.851   4.118
 7992SOL     OW24874   3.251   0.678   0.352
 7992SOL    HW124875   3.218   0.585   0.364
 7992SOL    HW224876   3.173   0.741   0.356
 7993SOL     OW24877   6.379   4.711   1.289
 7993SOL    HW124878   6.341   4.697   1.198
 7993SOL    HW224879   6.323   4.778   1.338
 7994SOL     OW24880   0.871   1.173   5.301
 7994SOL    HW124881   0.874   1.207   5.207
 7994SOL    HW224882   0.939   1.222   5.357
 7995SOL     OW24883   0.396   5.822   0.557
 7995SOL    HW124884   0.443   5.891   0.612
 7995SOL    HW224885   0.458   5.784   0.489
 7996SOL     OW24886   1.477   6.055   4.153
 7996SOL    HW124887   1.493   6.134   4.211
 7996SOL    HW224888   1.395   6.071   4.097
 7997SOL     OW24889   2.429   0.743   5.968
 7997SOL    HW124890   2.373   0.672   6.010
 7997SOL    HW224891   2.444   0.817   6.034
 7998SOL     OW24892   2.068   2.049   1.676
 7998SOL    HW124893   2.096   1.965   1.629
 7998SOL    HW224894   2.131   2.123   1.653
 7999SOL     OW24895   0.166   0.644   2.299
 7999SOL    HW124896   0.240   0.591   2.342
 7999SOL    HW224897   0.187   0.742   2.306
 8000SOL     OW24898   4.387   5.927   0.578
 8000SOL    HW124899   4.352   5.985   0.652
 8000SOL    HW224900   4.427   5.984   0.506
 8001SOL     OW24901   5.096   4.935   2.013
 8001SOL    HW124902   5.140   4.991   2.083
 8001SOL    HW224903   5.018   4.986   1.975
 8002SOL     OW24904   1.473   0.566   5.098
 8002SOL    HW124905   1.504   0.480   5.137
 8002SOL    HW224906   1.540   0.598   5.031
 8003SOL     OW24907   2.376   5.524   2.748
 8003SOL    HW124908   2.284   5.560   2.734
 8003SOL    HW224909   2.371   5.427   2.775
 8004SOL     OW24910   2.028   3.974   3.789
 8004SOL    HW124911   2.034   4.025   3.703
 8004SOL    HW224912   1.989   4.034   3.860
 8005SOL     OW24913   2.826   0.177   4.775
 8005SOL    HW124914   2.907   0.122   4.794
 8005SOL    HW224915   2.817   0.249   4.844
 8006SOL     OW24916   4.759   5.471   6.532
 8006SOL    HW124917   4.718   5.456   6.622
 8006SOL    HW224918   4.688   5.467   6.462
 8007SOL     OW24919   0.553   0.285   1.124
 8007SOL    HW124920   0.477   0.256   1.066
 8007SOL    HW224921   0.519   0.306   1.215
 8008SOL     OW24922   5.049   5.480   1.319
 8008SOL    HW124923   5.149   5.471   1.325
 8008SOL    HW224924   5.015   5.532   1.397
 8009SOL     OW24925   5.795   6.913   1.395
 8009SOL    HW124926   5.893   6.929   1.389
 8009SOL    HW224927   5.767   6.906   1.491
 8010SOL     OW24928   2.994   0.104   0.225
 8010SOL    HW124929   3.056   0.165   0.177
 8010SOL    HW224930   3.034   0.012   0.230
 8011SOL     OW24931   3.750   1.711   1.943
 8011SOL    HW124932   3.824   1.677   1.885
 8011SOL    HW224933   3.756   1.810   1.949
 8012SOL     OW24934   5.954   0.820   5.442
 8012SOL    HW124935   5.935   0.729   5.405
 8012SOL    HW224936   5.964   0.886   5.367
 8013SOL     OW24937   3.506   0.718   3.562
 8013SOL    HW124938   3.593   0.716   3.611
 8013SOL    HW224939   3.453   0.798   3.591
 8014SOL     OW24940   2.113   2.594   3.705
 8014SOL    HW124941   2.089   2.521   3.769
 8014SOL    HW224942   2.034   2.614   3.647
 8015SOL     OW24943   3.731   5.914   4.867
 8015SOL    HW124944   3.679   5.829   4.881
 8015SOL    HW224945   3.800   5.899   4.796
 8016SOL     OW24946   2.898   3.475   5.580
 8016SOL    HW124947   2.833   3.528   5.527
 8016SOL    HW224948   2.981   3.529   5.595
 8017SOL     OW24949   5.302   6.368   1.924
 8017SOL    HW124950   5.375   6.428   1.891
 8017SOL    HW224951   5.254   6.328   1.846
 8018SOL     OW24952   3.652   2.645   1.071
 8018SOL    HW124953   3.596   2.651   1.154
 8018SOL    HW224954   3.716   2.569   1.079
 8019SOL     OW24955   2.954   3.368   0.892
 8019SOL    HW124956   2.880   3.433   0.911
 8019SOL    HW224957   2.939   3.326   0.802
 8020SOL     OW24958   1.171   0.082   0.342
 8020SOL    HW124959   1.085   0.117   0.304
 8020SOL    HW224960   1.158   7.014   0.372
 8021SOL     OW24961   1.611   2.140   0.526
 8021SOL    HW124962   1.540   2.173   0.464
 8021SOL    HW224963   1.693   2.117   0.473
 8022SOL     OW24964   3.754   0.107   2.420
 8022SOL    HW124965   3.811   0.025   2.414
 8022SOL    HW224966   3.808   0.182   2.459
 8023SOL     OW24967   3.526   4.905   2.776
 8023SOL    HW124968   3.608   4.848   2.787
 8023SOL    HW224969   3.551   5.001   2.784
 8024SOL     OW24970   2.923   0.561   6.669
 8024SOL    HW124971   2.942   0.631   6.600
 8024SOL    HW224972   2.827   0.534   6.665
 8025SOL     OW24973   1.062   6.920   1.875
 8025SOL    HW124974   1.006   6.988   1.922
 8025SOL    HW224975   1.019   6.894   1.789
 8026SOL     OW24976   0.663   6.600   5.068
 8026SOL    HW124977   0.757   6.630   5.085
 8026SOL    HW224978   0.638   6.530   5.135
 8027SOL     OW24979   4.391   0.065   6.312
 8027SOL    HW124980   4.342   0.138   6.265
 8027SOL    HW224981   4.366   0.064   6.408
 8028SOL     OW24982   3.442   5.829   6.473
 8028SOL    HW124983   3.409   5.868   6.559
 8028SOL    HW224984   3.372   5.837   6.403
 8029SOL     OW24985   1.443   6.796   1.638
 8029SOL    HW124986   1.465   6.754   1.726
 8029SOL    HW224987   1.379   6.737   1.588
 8030SOL     OW24988   0.600   3.339   0.868
 8030SOL    HW124989   0.623   3.316   0.773
 8030SOL    HW224990   0.666   3.405   0.903
 8031SOL     OW24991   0.539   0.778   4.041
 8031SOL    HW124992   0.613   0.778   4.108
 8031SOL    HW224993   0.475   0.851   4.063
 8032SOL     OW24994   0.749   3.231   1.605
 8032SOL    HW124995   0.799   3.277   1.678
 8032SOL    HW224996   0.771   3.133   1.607
 8033SOL     OW24997   3.815   4.930   0.579
 8033SOL    HW124998   3.845   5.020   0.612
 8033SOL    HW224999   3.741   4.943   0.513
 8034SOL     OW25000   1.096   1.368   5.170
 8034SOL    HW125001   1.047   1.441   5.121
 8034SOL    HW225002   1.114   1.398   5.264
 8035SOL     OW25003   5.394   0.363   3.862
 8035SOL    HW125004   5.392   0.303   3.782
 8035SOL    HW225005   5.300   0.386   3.888
 8036SOL     OW25006   5.540   4.934   5.159
 8036SOL    HW125007   5.451   4.972   5.132
 8036SOL    HW225008   5.613   4.986   5.115
 8037SOL     OW25009   3.767   0.826   6.229
 8037SOL    HW125010   3.816   0.874   6.301
 8037SOL    HW225011   3.750   0.888   6.153
 8038SOL     OW25012   5.374   5.895   1.860
 8038SOL    HW125013   5.375   5.799   1.831
 8038SOL    HW225014   5.467   5.930   1.862
 8039SOL     OW25015   1.665   2.797   4.830
 8039SOL    HW125016   1.566   2.807   4.842
 8039SOL    HW225017   1.686   2.800   4.732
 8040SOL     OW25018   0.553   0.295   4.946
 8040SOL    HW125019   0.590   0.202   4.942
 8040SOL    HW225020   0.601   0.347   5.017
 8041SOL     OW25021   2.909   2.020   2.883
 8041SOL    HW125022   2.854   2.096   2.847
 8041SOL    HW225023   2.944   2.045   2.973
 8042SOL     OW25024   4.853   4.231   6.274
 8042SOL    HW125025   4.889   4.324   6.269
 8042SOL    HW225026   4.827   4.200   6.183
 8043SOL     OW25027   5.974   5.200   0.170
 8043SOL    HW125028   6.043   5.140   0.211
 8043SOL    HW225029   5.963   5.177   0.074
 8044SOL     OW25030   1.157   2.849   1.428
 8044SOL    HW125031   1.165   2.815   1.334
 8044SOL    HW225032   1.242   2.833   1.477
 8045SOL     OW25033   5.958   3.107   5.000
 8045SOL    HW125034   5.892   3.079   5.069
 8045SOL    HW225035   5.928   3.075   4.910
 8046SOL     OW25036   6.948   4.287   1.684
 8046SOL    HW125037   6.965   4.256   1.777
 8046SOL    HW225038   7.018   4.353   1.657
 8047SOL     OW25039   2.671   6.297   6.949
 8047SOL    HW125040   2.622   6.239   7.013
 8047SOL    HW225041   2.764   6.262   6.936
 8048SOL     OW25042   5.007   1.950   6.859
 8048SOL    HW125043   4.987   2.012   6.935
 8048SOL    HW225044   5.044   2.002   6.782
 8049SOL     OW25045   2.689   1.846   0.412
 8049SOL    HW125046   2.615   1.798   0.364
 8049SOL    HW225047   2.653   1.928   0.456
 8050SOL     OW25048   6.898   4.719   5.983
 8050SOL    HW125049   6.951   4.774   6.047
 8050SOL    HW225050   6.842   4.654   6.034
 8051SOL     OW25051   4.070   6.574   3.354
 8051SOL    HW125052   4.006   6.538   3.286
 8051SOL    HW225053   4.087   6.504   3.424
 8052SOL     OW25054   1.896   1.545   2.913
 8052SOL    HW125055   1.813   1.593   2.884
 8052SOL    HW225056   1.879   1.446   2.913
 8053SOL     OW25057   1.910   1.044   6.206
 8053SOL    HW125058   1.865   1.129   6.231
 8053SOL    HW225059   1.911   0.983   6.285
 8054SOL     OW25060   4.881   3.836   4.868
 8054SOL    HW125061   4.808   3.769   4.878
 8054SOL    HW225062   4.861   3.916   4.925
 8055SOL     OW25063   0.014   1.101   6.292
 8055SOL    HW125064   0.041   1.005   6.294
 8055SOL    HW225065   6.946   1.108   6.259
 8056SOL     OW25066   1.726   2.453   2.202
 8056SOL    HW125067   1.643   2.508   2.197
 8056SOL    HW225068   1.782   2.485   2.279
 8057SOL     OW25069   2.926   1.849   1.897
 8057SOL    HW125070   2.940   1.944   1.868
 8057SOL    HW225071   2.834   1.819   1.870
 8058SOL     OW25072   3.286   6.128   2.087
 8058SOL    HW125073   3.261   6.039   2.125
 8058SOL    HW225074   3.240   6.200   2.138
 8059SOL     OW25075   4.646   4.393   5.153
 8059SOL    HW125076   4.711   4.378   5.078
 8059SOL    HW225077   4.601   4.307   5.176
 8060SOL     OW25078   0.455   1.248   4.846
 8060SOL    HW125079   0.393   1.193   4.790
 8060SOL    HW225080   0.549   1.216   4.832
 8061SOL     OW25081   6.832   0.599   0.537
 8061SOL    HW125082   6.828   0.519   0.596
 8061SOL    HW225083   6.765   0.666   0.568
 8062SOL     OW25084   4.799   4.288   6.850
 8062SOL    HW125085   4.875   4.347   6.822
 8062SOL    HW225086   4.716   4.316   6.802
 8063SOL     OW25087   2.585   4.672   2.042
 8063SOL    HW125088   2.681   4.657   2.018
 8063SOL    HW225089   2.578   4.748   2.107
 8064SOL     OW25090   6.880   1.995   0.373
 8064SOL    HW125091   6.870   2.028   0.467
 8064SOL    HW225092   6.923   2.066   0.317
 8065SOL     OW25093   5.026   0.156   6.721
 8065SOL    HW125094   4.988   0.065   6.707
 8065SOL    HW225095   5.000   0.189   6.812
 8066SOL     OW25096   6.704   0.991   5.405
 8066SOL    HW125097   6.631   0.957   5.464
 8066SOL    HW225098   6.672   1.073   5.356
 8067SOL     OW25099   5.451   0.818   4.448
 8067SOL    HW125100   5.488   0.773   4.366
 8067SOL    HW225101   5.438   0.750   4.520
 8068SOL     OW25102   0.032   4.005   1.054
 8068SOL    HW125103   7.008   4.016   1.141
 8068SOL    HW225104   7.000   4.038   0.979
 8069SOL     OW25105   1.099   2.444   1.898
 8069SOL    HW125106   1.074   2.379   1.969
 8069SOL    HW225107   1.035   2.434   1.821
 8070SOL     OW25108   5.462   3.874   1.326
 8070SOL    HW125109   5.547   3.856   1.277
 8070SOL    HW225110   5.435   3.792   1.378
 8071SOL     OW25111   1.643   6.956   6.188
 8071SOL    HW125112   1.703   0.009   6.174
 8071SOL    HW225113   1.568   6.982   6.249
 8072SOL     OW25114   2.701   1.762   5.606
 8072SOL    HW125115   2.718   1.787   5.511
 8072SOL    HW225116   2.742   1.673   5.626
 8073SOL     OW25117   5.231   5.506   0.125
 8073SOL    HW125118   5.251   5.493   0.222
 8073SOL    HW225119   5.292   5.450   0.070
 8074SOL     OW25120   6.477   0.526   0.286
 8074SOL    HW125121   6.383   0.543   0.315
 8074SOL    HW225122   6.526   0.477   0.358
 8075SOL     OW25123   0.142   6.900   1.214
 8075SOL    HW125124   0.160   6.936   1.306
 8075SOL    HW225125   0.048   6.869   1.207
 8076SOL     OW25126   6.719   5.917   0.634
 8076SOL    HW125127   6.755   5.844   0.692
 8076SOL    HW225128   6.666   5.877   0.559
 8077SOL     OW25129   5.974   4.366   1.491
 8077SOL    HW125130   5.898   4.314   1.530
 8077SOL    HW225131   6.060   4.332   1.529
 8078SOL     OW25132   5.294   1.804   1.460
 8078SOL    HW125133   5.237   1.821   1.541
 8078SOL    HW225134   5.346   1.887   1.438
 8079SOL     OW25135   6.989   0.684   6.125
 8079SOL    HW125136   6.898   0.656   6.155
 8079SOL    HW225137   6.981   0.743   6.045
 8080SOL     OW25138   6.733   3.971   3.585
 8080SOL    HW125139   6.752   3.992   3.680
 8080SOL    HW225140   6.672   3.892   3.580
 8081SOL     OW25141   5.747   0.814   5.209
 8081SOL    HW125142   5.687   0.868   5.151
 8081SOL    HW225143   5.700   0.793   5.295
 8082SOL     OW25144   5.105   2.345   4.944
 8082SOL    HW125145   5.121   2.409   4.869
 8082SOL    HW225146   5.032   2.282   4.919
 8083SOL     OW25147   6.944   2.926   3.725
 8083SOL    HW125148   6.973   2.913   3.631
 8083SOL    HW225149   6.937   3.024   3.745
 8084SOL     OW25150   5.916   1.710   6.805
 8084SOL    HW125151   5.905   1.808   6.820
 8084SOL    HW225152   5.946   1.666   6.890
 8085SOL     OW25153   1.566   5.844   4.331
 8085SOL    HW125154   1.524   5.850   4.421
 8085SOL    HW225155   1.512   5.897   4.265
 8086SOL     OW25156   0.163   2.024   1.570
 8086SOL    HW125157   0.177   2.047   1.474
 8086SOL    HW225158   0.073   1.983   1.582
 8087SOL     OW25159   6.160   1.012   6.570
 8087SOL    HW125160   6.228   1.037   6.639
 8087SOL    HW225161   6.207   0.989   6.485
 8088SOL     OW25162   6.323   0.029   5.420
 8088SOL    HW125163   6.226   0.056   5.421
 8088SOL    HW225164   6.356   0.024   5.514
 8089SOL     OW25165   6.931   0.746   0.040
 8089SOL    HW125166   6.861   0.680   0.069
 8089SOL    HW225167   7.018   0.721   0.081
 8090SOL     OW25168   4.092   2.184   4.730
 8090SOL    HW125169   4.126   2.093   4.755
 8090SOL    HW225170   4.007   2.174   4.679
 8091SOL     OW25171   1.011   3.261   5.557
 8091SOL    HW125172   1.050   3.284   5.647
 8091SOL    HW225173   1.076   3.286   5.485
 8092SOL     OW25174   4.687   6.195   5.360
 8092SOL    HW125175   4.786   6.203   5.369
 8092SOL    HW225176   4.659   6.101   5.379
 8093SOL     OW25177   4.006   0.111   3.743
 8093SOL    HW125178   3.926   0.062   3.709
 8093SOL    HW225179   4.074   0.045   3.776
 8094SOL     OW25180   2.475   5.186   3.043
 8094SOL    HW125181   2.514   5.262   3.094
 8094SOL    HW225182   2.456   5.110   3.106
 8095SOL     OW25183   0.765   5.328   5.281
 8095SOL    HW125184   0.759   5.302   5.377
 8095SOL    HW225185   0.820   5.261   5.232
 8096SOL     OW25186   1.111   5.115   0.347
 8096SOL    HW125187   1.171   5.040   0.316
 8096SOL    HW225188   1.028   5.076   0.387
 8097SOL     OW25189   4.966   0.756   6.857
 8097SOL    HW125190   5.051   0.794   6.893
 8097SOL    HW225191   4.888   0.796   6.906
 8098SOL     OW25192   2.809   6.541   5.643
 8098SOL    HW125193   2.870   6.486   5.585
 8098SOL    HW225194   2.796   6.496   5.731
 8099SOL     OW25195   2.212   4.616   3.446
 8099SOL    HW125196   2.279   4.687   3.467
 8099SOL    HW225197   2.258   4.538   3.403
 8100SOL     OW25198   6.916   6.391   0.328
 8100SOL    HW125199   6.839   6.413   0.387
 8100SOL    HW225200   6.992   6.355   0.383
 8101SOL     OW25201   3.085   5.022   6.485
 8101SOL    HW125202   3.155   4.986   6.547
 8101SOL    HW225203   3.001   4.968   6.494
 8102SOL     OW25204   1.359   4.639   3.761
 8102SOL    HW125205   1.458   4.636   3.757
 8102SOL    HW225206   1.321   4.554   3.725
 8103SOL     OW25207   5.387   0.576   1.605
 8103SOL    HW125208   5.290   0.595   1.625
 8103SOL    HW225209   5.440   0.581   1.690
 8104SOL     OW25210   1.696   6.794   0.107
 8104SOL    HW125211   1.737   6.763   0.193
 8104SOL    HW225212   1.762   6.785   0.033
 8105SOL     OW25213   6.968   6.917   2.763
 8105SOL    HW125214   6.895   6.981   2.744
 8105SOL    HW225215   0.025   6.967   2.787
 8106SOL     OW25216   3.723   6.434   0.138
 8106SOL    HW125217   3.788   6.504   0.167
 8106SOL    HW225218   3.720   6.430   0.038
 8107SOL     OW25219   0.487   6.270   0.345
 8107SOL    HW125220   0.426   6.190   0.348
 8107SOL    HW225221   0.433   6.353   0.357
 8108SOL     OW25222   2.027   1.207   1.156
 8108SOL    HW125223   2.061   1.210   1.250
 8108SOL    HW225224   2.076   1.274   1.100
 8109SOL     OW25225   0.220   4.110   2.171
 8109SOL    HW125226   0.168   4.195   2.180
 8109SOL    HW225227   0.158   4.032   2.175
 8110SOL     OW25228   5.049   3.976   6.734
 8110SOL    HW125229   5.145   4.002   6.726
 8110SOL    HW225230   5.028   3.906   6.666
 8111SOL     OW25231   5.330   1.970   2.730
 8111SOL    HW125232   5.377   2.046   2.773
 8111SOL    HW225233   5.327   1.985   2.631
 8112SOL     OW25234   2.034   4.441   6.490
 8112SOL    HW125235   1.995   4.479   6.406
 8112SOL    HW225236   1.967   4.380   6.533
 8113SOL     OW25237   5.946   5.184   6.922
 8113SOL    HW125238   5.859   5.217   6.884
 8113SOL    HW225239   5.988   5.118   6.859
 8114SOL     OW25240   2.053   2.726   2.808
 8114SOL    HW125241   2.138   2.774   2.785
 8114SOL    HW225242   2.074   2.637   2.847
 8115SOL     OW25243   2.740   1.992   6.056
 8115SOL    HW125244   2.694   1.954   5.976
 8115SOL    HW225245   2.731   2.091   6.056
 8116SOL     OW25246   4.195   3.170   1.939
 8116SOL    HW125247   4.289   3.163   1.973
 8116SOL    HW225248   4.151   3.251   1.980
 8117SOL     OW25249   1.343   0.849   3.143
 8117SOL    HW125250   1.352   0.934   3.195
 8117SOL    HW225251   1.321   0.774   3.206
 8118SOL     OW25252   5.932   1.985   6.886
 8118SOL    HW125253   5.906   2.000   6.981
 8118SOL    HW225254   6.004   2.050   6.861
 8119SOL     OW25255   5.441   4.800   6.782
 8119SOL    HW125256   5.506   4.793   6.707
 8119SOL    HW225257   5.362   4.741   6.764
 8120SOL     OW25258   1.964   6.798   2.414
 8120SOL    HW125259   1.965   6.704   2.448
 8120SOL    HW225260   2.016   6.803   2.329
 8121SOL     OW25261   1.528   2.285   2.951
 8121SOL    HW125262   1.617   2.282   2.905
 8121SOL    HW225263   1.455   2.280   2.883
 8122SOL     OW25264   0.232   5.316   1.173
 8122SOL    HW125265   0.314   5.372   1.187
 8122SOL    HW225266   0.152   5.376   1.170
 8123SOL     OW25267   6.468   0.510   6.037
 8123SOL    HW125268   6.426   0.592   6.075
 8123SOL    HW225269   6.505   0.454   6.110
 8124SOL     OW25270   6.301   5.751   5.914
 8124SOL    HW125271   6.258   5.667   5.947
 8124SOL    HW225272   6.252   5.830   5.950
 8125SOL     OW25273   0.779   6.252   1.413
 8125SOL    HW125274   0.859   6.247   1.473
 8125SOL    HW225275   0.788   6.331   1.352
 8126SOL     OW25276   3.328   5.787   4.909
 8126SOL    HW125277   3.297   5.879   4.885
 8126SOL    HW225278   3.280   5.756   4.992
 8127SOL     OW25279   4.475   1.734   5.753
 8127SOL    HW125280   4.410   1.772   5.687
 8127SOL    HW225281   4.425   1.681   5.822
 8128SOL     OW25282   4.211   2.616   0.791
 8128SOL    HW125283   4.250   2.644   0.879
 8128SOL    HW225284   4.113   2.638   0.790
 8129SOL     OW25285   6.406   3.066   3.325
 8129SOL    HW125286   6.492   3.104   3.359
 8129SOL    HW225287   6.389   2.978   3.370
 8130SOL     OW25288   6.966   6.252   6.898
 8130SOL    HW125289   7.007   6.342   6.913
 8130SOL    HW225290   6.991   6.191   6.973
 8131SOL     OW25291   3.041   2.266   0.505
 8131SOL    HW125292   3.039   2.360   0.472
 8131SOL    HW225293   3.133   2.228   0.496
 8132SOL     OW25294   6.047   1.840   4.734
 8132SOL    HW125295   6.122   1.906   4.741
 8132SOL    HW225296   6.061   1.768   4.802
 8133SOL     OW25297   4.284   5.513   1.351
 8133SOL    HW125298   4.241   5.465   1.275
 8133SOL    HW225299   4.226   5.506   1.433
 8134SOL     OW25300   6.456   1.803   0.010
 8134SOL    HW125301   6.452   1.890   0.059
 8134SOL    HW225302   6.448   1.820   6.938
 8135SOL     OW25303   2.802   5.896   1.844
 8135SOL    HW125304   2.773   5.973   1.901
 8135SOL    HW225305   2.849   5.931   1.763
 8136SOL     OW25306   4.248   4.747   2.294
 8136SOL    HW125307   4.240   4.657   2.251
 8136SOL    HW225308   4.339   4.757   2.333
 8137SOL     OW25309   3.805   1.329   5.963
 8137SOL    HW125310   3.819   1.249   5.903
 8137SOL    HW225311   3.796   1.411   5.907
 8138SOL     OW25312   6.550   0.802   2.574
 8138SOL    HW125313   6.465   0.799   2.521
 8138SOL    HW225314   6.619   0.855   2.525
 8139SOL     OW25315   1.238   1.804   5.085
 8139SOL    HW125316   1.241   1.858   5.000
 8139SOL    HW225317   1.214   1.864   5.161
 8140SOL     OW25318   4.634   2.579   3.291
 8140SOL    HW125319   4.658   2.654   3.352
 8140SOL    HW225320   4.651   2.605   3.196
 8141SOL     OW25321   6.341   4.008   4.158
 8141SOL    HW125322   6.304   4.070   4.089
 8141SOL    HW225323   6.294   3.920   4.153
 8142SOL     OW25324   0.271   6.098   0.407
 8142SOL    HW125325   0.216   6.181   0.411
 8142SOL    HW225326   0.242   6.036   0.480
 8143SOL     OW25327   6.940   2.682   6.646
 8143SOL    HW125328   6.963   2.778   6.662
 8143SOL    HW225329   6.901   2.672   6.555
 8144SOL     OW25330   4.458   6.110   0.357
 8144SOL    HW125331   4.545   6.101   0.404
 8144SOL    HW225332   4.420   6.201   0.376
 8145SOL     OW25333   4.611   6.995   4.490
 8145SOL    HW125334   4.646   6.952   4.572
 8145SOL    HW225335   4.681   0.029   4.451
 8146SOL     OW25336   3.078   1.635   3.063
 8146SOL    HW125337   3.068   1.678   2.973
 8146SOL    HW225338   3.037   1.692   3.133
 8147SOL     OW25339   4.749   1.809   3.739
 8147SOL    HW125340   4.730   1.870   3.662
 8147SOL    HW225341   4.810   1.735   3.709
 8148SOL     OW25342   0.946   3.255   3.469
 8148SOL    HW125343   0.919   3.351   3.471
 8148SOL    HW225344   0.987   3.230   3.557
 8149SOL     OW25345   3.952   5.447   4.118
 8149SOL    HW125346   4.033   5.394   4.143
 8149SOL    HW225347   3.881   5.434   4.187
 8150SOL     OW25348   1.575   5.612   0.314
 8150SOL    HW125349   1.476   5.618   0.327
 8150SOL    HW225350   1.616   5.701   0.334
 8151SOL     OW25351   0.771   1.920   4.946
 8151SOL    HW125352   0.793   1.838   4.893
 8151SOL    HW225353   0.686   1.960   4.912
 8152SOL     OW25354   0.415   1.231   3.299
 8152SOL    HW125355   0.438   1.246   3.203
 8152SOL    HW225356   0.423   1.133   3.319
 8153SOL     OW25357   1.642   6.495   6.941
 8153SOL    HW125358   1.609   6.477   0.007
 8153SOL    HW225359   1.565   6.507   6.879
 8154SOL     OW25360   1.791   6.766   3.748
 8154SOL    HW125361   1.884   6.728   3.755
 8154SOL    HW225362   1.730   6.695   3.712
 8155SOL     OW25363   4.026   3.835   4.841
 8155SOL    HW125364   4.022   3.924   4.795
 8155SOL    HW225365   4.023   3.762   4.773
 8156SOL     OW25366   0.815   6.336   5.347
 8156SOL    HW125367   0.732   6.387   5.328
 8156SOL    HW225368   0.832   6.272   5.272
 8157SOL     OW25369   5.831   2.661   6.645
 8157SOL    HW125370   5.807   2.752   6.678
 8157SOL    HW225371   5.924   2.663   6.609
 8158SOL     OW25372   1.200   5.628   2.641
 8158SOL    HW125373   1.105   5.660   2.639
 8158SOL    HW225374   1.218   5.573   2.559
 8159SOL     OW25375   0.130   6.340   0.458
 8159SOL    HW125376   0.138   6.309   0.553
 8159SOL    HW225377   0.192   6.417   0.442
 8160SOL     OW25378   5.997   2.186   1.291
 8160SOL    HW125379   5.942   2.103   1.276
 8160SOL    HW225380   5.942   2.266   1.268
 8161SOL     OW25381   3.413   3.970   1.686
 8161SOL    HW125382   3.436   4.047   1.746
 8161SOL    HW225383   3.485   3.901   1.693
 8162SOL     OW25384   5.702   0.694   1.092
 8162SOL    HW125385   5.697   0.730   0.999
 8162SOL    HW225386   5.728   0.768   1.155
 8163SOL     OW25387   2.462   2.888   5.390
 8163SOL    HW125388   2.363   2.882   5.378
 8163SOL    HW225389   2.501   2.952   5.323
 8164SOL     OW25390   5.512   4.079   1.952
 8164SOL    HW125391   5.451   4.054   1.877
 8164SOL    HW225392   5.473   4.155   2.003
 8165SOL     OW25393   1.579   3.310   1.842
 8165SOL    HW125394   1.633   3.318   1.758
 8165SOL    HW225395   1.510   3.239   1.829
 8166SOL     OW25396   2.592   0.063   3.096
 8166SOL    HW125397   2.616   7.017   3.160
 8166SOL    HW225398   2.676   0.107   3.062
 8167SOL     OW25399   5.248   3.156   4.605
 8167SOL    HW125400   5.179   3.101   4.557
 8167SOL    HW225401   5.261   3.243   4.557
 8168SOL     OW25402   2.953   1.706   2.132
 8168SOL    HW125403   2.930   1.754   2.047
 8168SOL    HW225404   2.930   1.765   2.210
 8169SOL     OW25405   5.275   4.000   5.730
 8169SOL    HW125406   5.269   3.994   5.830
 8169SOL    HW225407   5.209   3.938   5.689
 8170SOL     OW25408   0.507   5.267   4.246
 8170SOL    HW125409   0.497   5.243   4.343
 8170SOL    HW225410   0.487   5.187   4.190
 8171SOL     OW25411   1.983   0.473   6.962
 8171SOL    HW125412   1.955   0.568   6.949
 8171SOL    HW225413   1.901   0.415   6.968
 8172SOL     OW25414   6.901   5.682   2.485
 8172SOL    HW125415   6.976   5.743   2.460
 8172SOL    HW225416   6.937   5.602   2.532
 8173SOL     OW25417   6.920   3.067   6.644
 8173SOL    HW125418   6.853   3.135   6.614
 8173SOL    HW225419   6.930   3.072   6.743
 8174SOL     OW25420   4.844   6.702   2.825
 8174SOL    HW125421   4.826   6.654   2.739
 8174SOL    HW225422   4.771   6.767   2.843
 8175SOL     OW25423   1.199   2.281   3.370
 8175SOL    HW125424   1.233   2.361   3.418
 8175SOL    HW225425   1.145   2.310   3.290
 8176SOL     OW25426   4.672   4.758   3.243
 8176SOL    HW125427   4.686   4.735   3.147
 8176SOL    HW225428   4.630   4.680   3.290
 8177SOL     OW25429   2.184   6.953   6.071
 8177SOL    HW125430   2.108   6.964   6.135
 8177SOL    HW225431   2.221   6.860   6.079
 8178SOL     OW25432   1.926   5.996   6.933
 8178SOL    HW125433   1.896   5.913   6.980
 8178SOL    HW225434   2.017   6.022   6.967
 8179SOL     OW25435   4.342   6.815   5.392
 8179SOL    HW125436   4.378   6.810   5.299
 8179SOL    HW225437   4.266   6.751   5.402
 8180SOL     OW25438   4.731   4.196   4.780
 8180SOL    HW125439   4.687   4.140   4.850
 8180SOL    HW225440   4.827   4.169   4.771
 8181SOL     OW25441   2.104   1.699   2.839
 8181SOL    HW125442   2.118   1.711   2.740
 8181SOL    HW225443   2.018   1.652   2.854
 8182SOL     OW25444   5.688   3.024   5.115
 8182SOL    HW125445   5.609   3.042   5.057
 8182SOL    HW225446   5.659   3.011   5.210
 8183SOL     OW25447   2.091   4.381   3.748
 8183SOL    HW125448   2.058   4.432   3.668
 8183SOL    HW225449   2.014   4.363   3.809
 8184SOL     OW25450   6.190   6.225   4.984
 8184SOL    HW125451   6.134   6.288   5.039
 8184SOL    HW225452   6.283   6.224   5.020
 8185SOL     OW25453   0.803   2.315   3.519
 8185SOL    HW125454   0.744   2.312   3.600
 8185SOL    HW225455   0.761   2.372   3.449
 8186SOL     OW25456   4.335   3.048   6.672
 8186SOL    HW125457   4.341   3.001   6.584
 8186SOL    HW225458   4.283   2.992   6.736
 8187SOL     OW25459   2.626   1.598   6.026
 8187SOL    HW125460   2.647   1.500   6.019
 8187SOL    HW225461   2.552   1.612   6.091
 8188SOL     OW25462   4.865   3.673   2.972
 8188SOL    HW125463   4.849   3.626   2.885
 8188SOL    HW225464   4.848   3.771   2.961
 8189SOL     OW25465   6.983   5.787   3.010
 8189SOL    HW125466   0.037   5.731   2.992
 8189SOL    HW225467   6.912   5.768   2.942
 8190SOL     OW25468   5.203   3.502   3.090
 8190SOL    HW125469   5.144   3.421   3.082
 8190SOL    HW225470   5.203   3.533   3.185
 8191SOL     OW25471   6.098   4.256   1.210
 8191SOL    HW125472   6.073   4.306   1.293
 8191SOL    HW225473   6.016   4.240   1.155
 8192SOL     OW25474   2.091   1.471   0.702
 8192SOL    HW125475   2.178   1.507   0.737
 8192SOL    HW225476   2.016   1.531   0.731
 8193SOL     OW25477   3.877   6.320   6.042
 8193SOL    HW125478   3.928   6.245   5.999
 8193SOL    HW225479   3.817   6.362   5.974
 8194SOL     OW25480   0.828   1.055   2.466
 8194SOL    HW125481   0.916   1.008   2.459
 8194SOL    HW225482   0.844   1.149   2.495
 8195SOL     OW25483   6.147   0.773   1.014
 8195SOL    HW125484   6.094   0.832   1.075
 8195SOL    HW225485   6.180   0.826   0.936
 8196SOL     OW25486   2.592   0.520   1.022
 8196SOL    HW125487   2.529   0.497   0.948
 8196SOL    HW225488   2.613   0.438   1.075
 8197SOL     OW25489   0.404   6.726   0.758
 8197SOL    HW125490   0.314   6.769   0.763
 8197SOL    HW225491   0.408   6.650   0.822
 8198SOL     OW25492   2.438   0.918   2.744
 8198SOL    HW125493   2.443   0.897   2.646
 8198SOL    HW225494   2.344   0.939   2.768
 8199SOL     OW25495   6.102   4.412   0.949
 8199SOL    HW125496   6.094   4.374   1.041
 8199SOL    HW225497   6.025   4.383   0.893
 8200SOL     OW25498   3.960   4.582   1.278
 8200SOL    HW125499   3.886   4.540   1.226
 8200SOL    HW225500   3.927   4.605   1.370
 8201SOL     OW25501   0.874   1.041   4.511
 8201SOL    HW125502   0.892   1.063   4.415
 8201SOL    HW225503   0.961   1.037   4.561
 8202SOL     OW25504   1.412   3.729   4.295
 8202SOL    HW125505   1.427   3.718   4.197
 8202SOL    HW225506   1.411   3.826   4.318
 8203SOL     OW25507   6.591   4.343   6.421
 8203SOL    HW125508   6.590   4.442   6.427
 8203SOL    HW225509   6.681   4.308   6.449
 8204SOL     OW25510   2.880   6.710   1.816
 8204SOL    HW125511   2.942   6.700   1.893
 8204SOL    HW225512   2.888   6.802   1.778
 8205SOL     OW25513   3.651   7.013   2.818
 8205SOL    HW125514   3.616   7.002   2.911
 8205SOL    HW225515   3.587   0.042   2.764
 8206SOL     OW25516   3.860   2.171   4.322
 8206SOL    HW125517   3.921   2.227   4.265
 8206SOL    HW225518   3.805   2.112   4.264
 8207SOL     OW25519   2.332   6.573   0.057
 8207SOL    HW125520   2.332   6.606   6.989
 8207SOL    HW225521   2.252   6.609   0.106
 8208SOL     OW25522   0.803   5.719   0.891
 8208SOL    HW125523   0.851   5.719   0.803
 8208SOL    HW225524   0.846   5.785   0.952
 8209SOL     OW25525   0.817   6.051   4.368
 8209SOL    HW125526   0.849   6.065   4.274
 8209SOL    HW225527   0.877   5.984   4.413
 8210SOL     OW25528   2.605   0.299   1.217
 8210SOL    HW125529   2.631   0.220   1.160
 8210SOL    HW225530   2.531   0.273   1.278
 8211SOL     OW25531   3.527   4.038   4.445
 8211SOL    HW125532   3.528   3.938   4.458
 8211SOL    HW225533   3.612   4.066   4.401
 8212SOL     OW25534   3.737   5.560   6.820
 8212SOL    HW125535   3.682   5.620   6.761
 8212SOL    HW225536   3.680   5.521   6.891
 8213SOL     OW25537   4.873   4.054   2.162
 8213SOL    HW125538   4.850   4.091   2.072
 8213SOL    HW225539   4.881   4.129   2.227
 8214SOL     OW25540   3.828   4.852   3.657
 8214SOL    HW125541   3.898   4.901   3.710
 8214SOL    HW225542   3.872   4.803   3.582
 8215SOL     OW25543   2.887   6.590   5.280
 8215SOL    HW125544   2.836   6.505   5.293
 8215SOL    HW225545   2.983   6.576   5.304
 8216SOL     OW25546   6.335   4.696   6.885
 8216SOL    HW125547   6.392   4.669   6.962
 8216SOL    HW225548   6.368   4.650   6.802
 8217SOL     OW25549   3.641   6.565   3.835
 8217SOL    HW125550   3.561   6.535   3.782
 8217SOL    HW225551   3.718   6.580   3.774
 8218SOL     OW25552   2.398   5.956   3.932
 8218SOL    HW125553   2.307   5.919   3.951
 8218SOL    HW225554   2.467   5.900   3.976
 8219SOL     OW25555   3.907   4.022   4.635
 8219SOL    HW125556   3.838   4.067   4.692
 8219SOL    HW225557   3.884   3.924   4.628
 8220SOL     OW25558   4.539   3.707   6.303
 8220SOL    HW125559   4.603   3.688   6.228
 8220SOL    HW225560   4.480   3.628   6.317
 8221SOL     OW25561   6.638   3.742   4.192
 8221SOL    HW125562   6.662   3.770   4.099
 8221SOL    HW225563   6.592   3.653   4.189
 8222SOL     OW25564   5.327   1.948   5.819
 8222SOL    HW125565   5.412   1.987   5.856
 8222SOL    HW225566   5.339   1.926   5.723
 8223SOL     OW25567   1.192   6.382   5.390
 8223SOL    HW125568   1.161   6.396   5.296
 8223SOL    HW225569   1.118   6.404   5.454
 8224SOL     OW25570   4.779   1.499   4.871
 8224SOL    HW125571   4.728   1.555   4.806
 8224SOL    HW225572   4.876   1.522   4.865
 8225SOL     OW25573   6.155   1.827   0.073
 8225SOL    HW125574   6.192   1.866   7.015
 8225SOL    HW225575   6.084   1.760   0.050
 8226SOL     OW25576   3.946   0.751   6.567
 8226SOL    HW125577   4.023   0.713   6.618
 8226SOL    HW225578   3.937   0.703   6.479
 8227SOL     OW25579   5.728   3.529   2.578
 8227SOL    HW125580   5.679   3.450   2.541
 8227SOL    HW225581   5.804   3.553   2.516
 8228SOL     OW25582   2.493   1.505   4.766
 8228SOL    HW125583   2.478   1.549   4.855
 8228SOL    HW225584   2.474   1.407   4.774
 8229SOL     OW25585   4.373   3.598   0.911
 8229SOL    HW125586   4.347   3.525   0.849
 8229SOL    HW225587   4.442   3.656   0.868
 8230SOL     OW25588   5.950   1.464   6.451
 8230SOL    HW125589   5.957   1.365   6.452
 8230SOL    HW225590   6.034   1.504   6.487
 8231SOL     OW25591   3.301   1.290   1.549
 8231SOL    HW125592   3.329   1.200   1.583
 8231SOL    HW225593   3.325   1.359   1.617
 8232SOL     OW25594   4.018   6.026   4.227
 8232SOL    HW125595   4.044   5.931   4.209
 8232SOL    HW225596   3.976   6.065   4.146
 8233SOL     OW25597   3.019   0.435   6.910
 8233SOL    HW125598   3.016   0.337   6.891
 8233SOL    HW225599   3.010   0.485   6.823
 8234SOL     OW25600   0.190   2.497   6.467
 8234SOL    HW125601   0.260   2.470   6.532
 8234SOL    HW225602   0.187   2.597   6.460
 8235SOL     OW25603   1.265   6.083   6.698
 8235SOL    HW125604   1.344   6.136   6.729
 8235SOL    HW225605   1.295   5.992   6.669
 8236SOL     OW25606   0.860   0.597   0.456
 8236SOL    HW125607   0.907   0.510   0.467
 8236SOL    HW225608   0.764   0.581   0.431
 8237SOL     OW25609   4.666   4.111   5.972
 8237SOL    HW125610   4.761   4.126   5.943
 8237SOL    HW225611   4.651   4.013   5.986
 8238SOL     OW25612   6.700   5.336   6.770
 8238SOL    HW125613   6.666   5.362   6.860
 8238SOL    HW225614   6.795   5.304   6.778
 8239SOL     OW25615   5.061   2.889   4.049
 8239SOL    HW125616   5.061   2.911   3.952
 8239SOL    HW225617   5.155   2.879   4.081
 8240SOL     OW25618   3.639   3.487   4.953
 8240SOL    HW125619   3.598   3.472   4.863
 8240SOL    HW225620   3.567   3.508   5.019
 8241SOL     OW25621   0.347   2.716   5.412
 8241SOL    HW125622   0.308   2.771   5.486
 8241SOL    HW225623   0.432   2.674   5.443
 8242SOL     OW25624   0.516   3.938   3.576
 8242SOL    HW125625   0.463   3.945   3.660
 8242SOL    HW225626   0.560   3.848   3.571
 8243SOL     OW25627   2.120   5.584   3.816
 8243SOL    HW125628   2.096   5.670   3.861
 8243SOL    HW225629   2.068   5.509   3.858
 8244SOL     OW25630   5.382   0.040   4.700
 8244SOL    HW125631   5.357   0.047   4.603
 8244SOL    HW225632   5.310   7.016   4.749
 8245SOL     OW25633   5.621   3.869   2.053
 8245SOL    HW125634   5.588   3.952   2.008
 8245SOL    HW225635   5.595   3.871   2.149
 8246SOL     OW25636   2.180   4.298   0.291
 8246SOL    HW125637   2.214   4.241   0.365
 8246SOL    HW225638   2.130   4.241   0.225
 8247SOL     OW25639   2.148   4.955   3.584
 8247SOL    HW125640   2.240   4.938   3.546
 8247SOL    HW225641   2.152   4.952   3.684
 8248SOL     OW25642   6.192   0.628   2.675
 8248SOL    HW125643   6.222   0.710   2.626
 8248SOL    HW225644   6.253   0.612   2.753
 8249SOL     OW25645   3.366   6.831   5.414
 8249SOL    HW125646   3.284   6.833   5.357
 8249SOL    HW225647   3.447   6.819   5.357
 8250SOL     OW25648   1.969   1.194   6.770
 8250SOL    HW125649   2.036   1.211   6.697
 8250SOL    HW225650   2.010   1.219   6.858
 8251SOL     OW25651   1.844   1.415   6.531
 8251SOL    HW125652   1.829   1.392   6.628
 8251SOL    HW225653   1.877   1.510   6.524
 8252SOL     OW25654   0.836   1.000   6.427
 8252SOL    HW125655   0.916   0.963   6.379
 8252SOL    HW225656   0.762   0.934   6.424
 8253SOL     OW25657   6.979   3.447   4.527
 8253SOL    HW125658   6.893   3.461   4.478
 8253SOL    HW225659   6.963   3.455   4.625
 8254SOL     OW25660   4.739   4.037   0.371
 8254SOL    HW125661   4.833   4.017   0.398
 8254SOL    HW225662   4.678   4.018   0.448
 8255SOL     OW25663   1.555   6.034   5.941
 8255SOL    HW125664   1.502   5.994   5.867
 8255SOL    HW225665   1.590   5.961   6.001
 8256SOL     OW25666   1.873   5.846   2.801
 8256SOL    HW125667   1.948   5.913   2.800
 8256SOL    HW225668   1.803   5.875   2.866
 8257SOL     OW25669   4.878   4.799   3.871
 8257SOL    HW125670   4.792   4.810   3.821
 8257SOL    HW225671   4.891   4.877   3.933
 8258SOL     OW25672   0.499   2.980   4.252
 8258SOL    HW125673   0.568   2.998   4.181
 8258SOL    HW225674   0.514   2.890   4.291
 8259SOL     OW25675   5.410   3.806   3.868
 8259SOL    HW125676   5.396   3.710   3.891
 8259SOL    HW225677   5.357   3.828   3.786
 8260SOL     OW25678   4.714   2.169   6.375
 8260SOL    HW125679   4.814   2.173   6.367
 8260SOL    HW225680   4.686   2.213   6.461
 8261SOL     OW25681   5.131   2.144   2.975
 8261SOL    HW125682   5.168   2.167   3.065
 8261SOL    HW225683   5.144   2.221   2.913
 8262SOL     OW25684   5.196   4.154   2.226
 8262SOL    HW125685   5.195   4.055   2.240
 8262SOL    HW225686   5.288   4.183   2.201
 8263SOL     OW25687   6.740   1.138   0.042
 8263SOL    HW125688   6.764   1.041   0.038
 8263SOL    HW225689   6.794   1.188   7.000
 8264SOL     OW25690   3.360   1.486   1.984
 8264SOL    HW125691   3.454   1.457   2.004
 8264SOL    HW225692   3.345   1.577   2.024
 8265SOL     OW25693   6.085   5.241   0.453
 8265SOL    HW125694   5.995   5.284   0.458
 8265SOL    HW225695   6.148   5.287   0.516
 8266SOL     OW25696   4.133   2.243   3.083
 8266SOL    HW125697   4.138   2.248   3.183
 8266SOL    HW225698   4.185   2.318   3.043
 8267SOL     OW25699   1.898   3.860   2.594
 8267SOL    HW125700   1.879   3.867   2.692
 8267SOL    HW225701   1.987   3.815   2.581
 8268SOL     OW25702   2.200   5.412   1.410
 8268SOL    HW125703   2.267   5.412   1.484
 8268SOL    HW225704   2.247   5.425   1.322
 8269SOL     OW25705   6.174   1.897   3.232
 8269SOL    HW125706   6.236   1.843   3.290
 8269SOL    HW225707   6.208   1.896   3.138
 8270SOL     OW25708   4.451   5.428   0.355
 8270SOL    HW125709   4.548   5.419   0.331
 8270SOL    HW225710   4.410   5.337   0.362
 8271SOL     OW25711   2.286   0.562   6.108
 8271SOL    HW125712   2.229   0.500   6.054
 8271SOL    HW225713   2.323   0.512   6.187
 8272SOL     OW25714   0.254   1.061   1.938
 8272SOL    HW125715   0.313   1.141   1.940
 8272SOL    HW225716   0.270   1.010   1.854
 8273SOL     OW25717   5.523   0.297   6.291
 8273SOL    HW125718   5.461   0.335   6.222
 8273SOL    HW225719   5.569   0.217   6.253
 8274SOL     OW25720   5.218   6.766   3.866
 8274SOL    HW125721   5.143   6.831   3.879
 8274SOL    HW225722   5.290   6.809   3.813
 8275SOL     OW25723   4.522   0.796   4.447
 8275SOL    HW125724   4.520   0.797   4.347
 8275SOL    HW225725   4.432   0.772   4.482
 8276SOL     OW25726   4.986   2.629   0.355
 8276SOL    HW125727   4.930   2.623   0.272
 8276SOL    HW225728   4.957   2.560   0.421
 8277SOL     OW25729   1.278   0.322   1.526
 8277SOL    HW125730   1.269   0.235   1.574
 8277SOL    HW225731   1.374   0.351   1.526
 8278SOL     OW25732   1.791   1.291   1.553
 8278SOL    HW125733   1.747   1.357   1.614
 8278SOL    HW225734   1.818   1.338   1.468
 8279SOL     OW25735   5.557   4.577   6.027
 8279SOL    HW125736   5.581   4.523   6.108
 8279SOL    HW225737   5.640   4.597   5.976
 8280SOL     OW25738   6.920   4.784   0.535
 8280SOL    HW125739   6.821   4.794   0.542
 8280SOL    HW225740   6.957   4.755   0.624
 8281SOL     OW25741   2.298   4.526   0.196
 8281SOL    HW125742   2.321   4.603   0.257
 8281SOL    HW225743   2.278   4.445   0.251
 8282SOL     OW25744   4.621   2.647   0.706
 8282SOL    HW125745   4.697   2.674   0.765
 8282SOL    HW225746   4.559   2.725   0.694
 8283SOL     OW25747   0.719   2.125   3.118
 8283SOL    HW125748   0.793   2.076   3.071
 8283SOL    HW225749   0.636   2.071   3.114
 8284SOL     OW25750   4.565   2.502   1.033
 8284SOL    HW125751   4.490   2.489   0.968
 8284SOL    HW225752   4.591   2.599   1.036
 8285SOL     OW25753   0.570   4.955   0.337
 8285SOL    HW125754   0.636   4.885   0.363
 8285SOL    HW225755   0.535   4.936   0.245
 8286SOL     OW25756   6.901   1.733   0.292
 8286SOL    HW125757   6.811   1.713   0.253
 8286SOL    HW225758   6.895   1.814   0.350
 8287SOL     OW25759   1.140   1.898   3.043
 8287SOL    HW125760   1.165   1.871   2.949
 8287SOL    HW225761   1.154   1.996   3.054
 8288SOL     OW25762   1.907   6.690   2.736
 8288SOL    HW125763   1.951   6.780   2.736
 8288SOL    HW225764   1.858   6.677   2.822
 8289SOL     OW25765   5.691   6.464   0.275
 8289SOL    HW125766   5.721   6.529   0.205
 8289SOL    HW225767   5.760   6.459   0.347
 8290SOL     OW25768   4.565   2.814   1.732
 8290SOL    HW125769   4.613   2.748   1.790
 8290SOL    HW225770   4.560   2.902   1.780
 8291SOL     OW25771   5.898   5.833   5.019
 8291SOL    HW125772   5.823   5.858   4.959
 8291SOL    HW225773   5.862   5.806   5.108
 8292SOL     OW25774   0.399   3.940   5.950
 8292SOL    HW125775   0.480   3.978   5.904
 8292SOL    HW225776   0.401   3.966   6.046
 8293SOL     OW25777   3.035   5.383   4.002
 8293SOL    HW125778   3.116   5.440   4.015
 8293SOL    HW225779   2.983   5.380   4.088
 8294SOL     OW25780   6.349   3.213   5.854
 8294SOL    HW125781   6.374   3.156   5.776
 8294SOL    HW225782   6.416   3.198   5.928
 8295SOL     OW25783   4.089   4.822   1.333
 8295SOL    HW125784   4.168   4.818   1.394
 8295SOL    HW225785   4.061   4.729   1.309
 8296SOL     OW25786   3.124   0.017   1.981
 8296SOL    HW125787   3.084   0.105   1.954
 8296SOL    HW225788   3.169   7.001   1.903
 8297SOL     OW25789   5.679   4.757   1.906
 8297SOL    HW125790   5.777   4.745   1.916
 8297SOL    HW225791   5.636   4.671   1.880
 8298SOL     OW25792   0.126   5.975   0.594
 8298SOL    HW125793   0.109   5.895   0.653
 8298SOL    HW225794   0.047   6.035   0.597
 8299SOL     OW25795   1.209   1.407   6.948
 8299SOL    HW125796   1.123   1.455   6.963
 8299SOL    HW225797   1.246   1.431   6.858
 8300SOL     OW25798   4.309   6.074   4.893
 8300SOL    HW125799   4.300   6.141   4.967
 8300SOL    HW225800   4.315   6.122   4.805
 8301SOL     OW25801   5.949   4.276   6.849
 8301SOL    HW125802   6.015   4.332   6.899
 8301SOL    HW225803   5.896   4.221   6.914
 8302SOL     OW25804   3.653   6.405   6.206
 8302SOL    HW125805   3.723   6.410   6.135
 8302SOL    HW225806   3.682   6.458   6.286
 8303SOL     OW25807   6.739   4.548   4.712
 8303SOL    HW125808   6.817   4.527   4.653
 8303SOL    HW225809   6.657   4.561   4.657
 8304SOL     OW25810   5.630   2.931   3.824
 8304SOL    HW125811   5.665   2.874   3.750
 8304SOL    HW225812   5.698   2.999   3.849
 8305SOL     OW25813   4.280   6.697   5.867
 8305SOL    HW125814   4.256   6.677   5.962
 8305SOL    HW225815   4.201   6.680   5.808
 8306SOL     OW25816   4.676   0.990   3.450
 8306SOL    HW125817   4.640   0.921   3.387
 8306SOL    HW225818   4.701   0.947   3.536
 8307SOL     OW25819   0.953   5.281   4.511
 8307SOL    HW125820   1.038   5.253   4.467
 8307SOL    HW225821   0.939   5.226   4.594
 8308SOL     OW25822   1.727   4.239   0.726
 8308SOL    HW125823   1.757   4.312   0.788
 8308SOL    HW225824   1.770   4.251   0.637
 8309SOL     OW25825   5.701   5.594   2.501
 8309SOL    HW125826   5.726   5.611   2.596
 8309SOL    HW225827   5.637   5.666   2.470
 8310SOL     OW25828   2.402   5.934   2.731
 8310SOL    HW125829   2.453   5.859   2.772
 8310SOL    HW225830   2.365   5.905   2.643
 8311SOL     OW25831   4.819   6.761   2.513
 8311SOL    HW125832   4.724   6.785   2.493
 8311SOL    HW225833   4.864   6.839   2.557
 8312SOL     OW25834   6.470   6.793   0.824
 8312SOL    HW125835   6.511   6.814   0.735
 8312SOL    HW225836   6.451   6.695   0.829
 8313SOL     OW25837   5.039   1.907   5.501
 8313SOL    HW125838   5.035   1.932   5.597
 8313SOL    HW225839   4.947   1.910   5.462
 8314SOL     OW25840   5.627   6.048   5.568
 8314SOL    HW125841   5.570   6.041   5.486
 8314SOL    HW225842   5.638   5.958   5.610
 8315SOL     OW25843   3.518   1.704   6.607
 8315SOL    HW125844   3.434   1.684   6.558
 8315SOL    HW225845   3.518   1.800   6.636
 8316SOL     OW25846   1.431   1.056   5.072
 8316SOL    HW125847   1.366   1.056   5.148
 8316SOL    HW225848   1.449   1.149   5.042
 8317SOL     OW25849   2.688   1.712   6.595
 8317SOL    HW125850   2.788   1.719   6.587
 8317SOL    HW225851   2.651   1.673   6.510
 8318SOL     OW25852   4.783   5.821   5.229
 8318SOL    HW125853   4.696   5.802   5.274
 8318SOL    HW225854   4.839   5.739   5.227
 8319SOL     OW25855   2.896   6.300   6.380
 8319SOL    HW125856   2.866   6.393   6.357
 8319SOL    HW225857   2.821   6.252   6.426
 8320SOL     OW25858   3.986   4.925   5.494
 8320SOL    HW125859   3.969   4.991   5.567
 8320SOL    HW225860   4.057   4.861   5.522
 8321SOL     OW25861   0.413   0.033   6.998
 8321SOL    HW125862   0.410   0.126   0.009
 8321SOL    HW225863   0.448   0.035   6.905
 8322SOL     OW25864   2.541   0.024   2.260
 8322SOL    HW125865   2.636   7.022   2.244
 8322SOL    HW225866   2.495   6.982   2.317
 8323SOL     OW25867   6.422   5.566   6.687
 8323SOL    HW125868   6.474   5.516   6.755
 8323SOL    HW225869   6.357   5.627   6.733
 8324SOL     OW25870   6.751   5.995   4.964
 8324SOL    HW125871   6.728   6.073   5.022
 8324SOL    HW225872   6.676   5.977   4.900
 8325SOL     OW25873   1.754   5.320   5.224
 8325SOL    HW125874   1.672   5.371   5.198
 8325SOL    HW225875   1.731   5.258   5.299
 8326SOL     OW25876   3.144   1.091   6.864
 8326SOL    HW125877   3.206   1.017   6.840
 8326SOL    HW225878   3.187   1.150   6.932
 8327SOL     OW25879   0.573   6.091   5.606
 8327SOL    HW125880   0.533   6.082   5.697
 8327SOL    HW225881   0.551   6.010   5.551
 8328SOL     OW25882   1.145   0.114   0.680
 8328SOL    HW125883   1.079   0.117   0.756
 8328SOL    HW225884   1.185   0.022   0.675
 8329SOL     OW25885   1.876   1.563   6.213
 8329SOL    HW125886   1.961   1.545   6.162
 8329SOL    HW225887   1.892   1.637   6.278
 8330SOL     OW25888   3.238   6.872   6.957
 8330SOL    HW125889   3.167   6.816   6.999
 8330SOL    HW225890   3.205   6.911   6.871
 8331SOL     OW25891   1.813   2.518   6.039
 8331SOL    HW125892   1.864   2.588   5.989
 8331SOL    HW225893   1.728   2.499   5.992
 8332SOL     OW25894   5.183   4.085   0.866
 8332SOL    HW125895   5.092   4.115   0.837
 8332SOL    HW225896   5.235   4.056   0.786
 8333SOL     OW25897   2.169   4.342   5.688
 8333SOL    HW125898   2.149   4.361   5.784
 8333SOL    HW225899   2.268   4.332   5.676
 8334SOL     OW25900   3.100   2.735   5.267
 8334SOL    HW125901   3.117   2.734   5.365
 8334SOL    HW225902   3.079   2.642   5.236
 8335SOL     OW25903   6.340   2.949   0.221
 8335SOL    HW125904   6.299   2.913   0.305
 8335SOL    HW225905   6.343   3.049   0.225
 8336SOL     OW25906   0.604   4.684   3.761
 8336SOL    HW125907   0.628   4.728   3.847
 8336SOL    HW225908   0.681   4.692   3.698
 8337SOL     OW25909   6.341   6.924   4.462
 8337SOL    HW125910   6.402   6.961   4.532
 8337SOL    HW225911   6.247   6.952   4.482
 8338SOL     OW25912   2.633   4.914   0.982
 8338SOL    HW125913   2.553   4.915   0.923
 8338SOL    HW225914   2.716   4.908   0.927
 8339SOL     OW25915   6.491   0.203   1.639
 8339SOL    HW125916   6.451   0.195   1.730
 8339SOL    HW225917   6.521   0.113   1.607
 8340SOL     OW25918   6.085   2.494   6.248
 8340SOL    HW125919   6.145   2.437   6.192
 8340SOL    HW225920   5.997   2.448   6.259
 8341SOL     OW25921   3.422   6.953   1.108
 8341SOL    HW125922   3.429   6.932   1.011
 8341SOL    HW225923   3.503   7.004   1.138
 8342SOL     OW25924   4.024   0.905   1.369
 8342SOL    HW125925   4.091   0.951   1.311
 8342SOL    HW225926   4.051   0.810   1.384
 8343SOL     OW25927   4.471   6.047   3.263
 8343SOL    HW125928   4.567   6.031   3.287
 8343SOL    HW225929   4.455   6.146   3.256
 8344SOL     OW25930   2.294   4.265   4.765
 8344SOL    HW125931   2.388   4.263   4.729
 8344SOL    HW225932   2.281   4.187   4.827
 8345SOL     OW25933   6.992   6.976   4.139
 8345SOL    HW125934   6.925   6.979   4.214
 8345SOL    HW225935   7.018   0.043   4.114
 8346SOL     OW25936   5.392   3.969   2.744
 8346SOL    HW125937   5.313   3.980   2.804
 8346SOL    HW225938   5.456   3.904   2.784
 8347SOL     OW25939   1.614   1.472   6.970
 8347SOL    HW125940   1.640   1.543   0.010
 8347SOL    HW225941   1.551   1.408   7.013
 8348SOL     OW25942   2.464   6.890   0.728
 8348SOL    HW125943   2.487   6.939   0.644
 8348SOL    HW225944   2.533   6.821   0.747
 8349SOL     OW25945   4.579   6.048   1.071
 8349SOL    HW125946   4.552   6.107   0.995
 8349SOL    HW225947   4.497   6.016   1.119
 8350SOL     OW25948   2.570   0.719   6.717
 8350SOL    HW125949   2.660   0.760   6.732
 8350SOL    HW225950   2.581   0.626   6.682
 8351SOL     OW25951   0.311   4.446   3.293
 8351SOL    HW125952   0.352   4.529   3.329
 8351SOL    HW225953   0.375   4.401   3.231
 8352SOL     OW25954   2.029   6.550   6.598
 8352SOL    HW125955   2.085   6.584   6.674
 8352SOL    HW225956   2.039   6.610   6.519
 8353SOL     OW25957   1.585   5.963   2.636
 8353SOL    HW125958   1.629   5.983   2.723
 8353SOL    HW225959   1.619   5.876   2.600
 8354SOL     OW25960   5.541   3.250   3.815
 8354SOL    HW125961   5.630   3.206   3.830
 8354SOL    HW225962   5.504   3.282   3.902
 8355SOL     OW25963   3.325   3.841   5.590
 8355SOL    HW125964   3.299   3.820   5.684
 8355SOL    HW225965   3.423   3.859   5.585
 8356SOL     OW25966   3.433   3.141   2.591
 8356SOL    HW125967   3.399   3.064   2.644
 8356SOL    HW225968   3.452   3.112   2.497
 8357SOL     OW25969   3.239   6.681   5.165
 8357SOL    HW125970   3.326   6.690   5.119
 8357SOL    HW225971   3.234   6.593   5.212
 8358SOL     OW25972   0.313   0.715   4.578
 8358SOL    HW125973   0.327   0.617   4.594
 8358SOL    HW225974   0.217   0.738   4.596
 8359SOL     OW25975   5.348   2.946   5.272
 8359SOL    HW125976   5.312   3.007   5.202
 8359SOL    HW225977   5.428   2.988   5.315
 8360SOL     OW25978   3.494   0.380   2.265
 8360SOL    HW125979   3.447   0.441   2.201
 8360SOL    HW225980   3.469   0.285   2.246
 8361SOL     OW25981   4.897   1.709   6.893
 8361SOL    HW125982   4.942   1.659   6.819
 8361SOL    HW225983   4.918   1.806   6.884
 8362SOL     OW25984   0.418   4.545   2.238
 8362SOL    HW125985   0.386   4.601   2.315
 8362SOL    HW225986   0.516   4.558   2.226
 8363SOL     OW25987   3.560   2.367   1.499
 8363SOL    HW125988   3.557   2.445   1.562
 8363SOL    HW225989   3.613   2.293   1.539
 8364SOL     OW25990   0.440   1.795   3.514
 8364SOL    HW125991   0.496   1.831   3.439
 8364SOL    HW225992   0.500   1.755   3.583
 8365SOL     OW25993   2.399   2.502   1.052
 8365SOL    HW125994   2.412   2.600   1.068
 8365SOL    HW225995   2.312   2.487   1.005
 8366SOL     OW25996   4.842   6.016   1.557
 8366SOL    HW125997   4.769   5.994   1.491
 8366SOL    HW225998   4.930   6.016   1.510
 8367SOL     OW25999   0.825   4.904   4.255
 8367SOL    HW126000   0.913   4.928   4.298
 8367SOL    HW226001   0.758   4.883   4.327
 8368SOL     OW26002   0.461   3.274   5.916
 8368SOL    HW126003   0.419   3.293   6.005
 8368SOL    HW226004   0.390   3.264   5.846
 8369SOL     OW26005   1.296   1.010   0.526
 8369SOL    HW126006   1.310   0.996   0.428
 8369SOL    HW226007   1.230   0.944   0.561
 8370SOL     OW26008   2.792   3.184   1.615
 8370SOL    HW126009   2.782   3.253   1.687
 8370SOL    HW226010   2.767   3.094   1.651
 8371SOL     OW26011   2.936   4.471   5.567
 8371SOL    HW126012   2.855   4.414   5.553
 8371SOL    HW226013   2.934   4.510   5.659
 8372SOL     OW26014   1.541   6.896   3.539
 8372SOL    HW126015   1.537   6.808   3.586
 8372SOL    HW226016   1.465   6.902   3.473
 8373SOL     OW26017   6.094   0.431   4.517
 8373SOL    HW126018   6.100   0.489   4.599
 8373SOL    HW226019   6.183   0.391   4.498
 8374SOL     OW26020   0.876   1.992   3.446
 8374SOL    HW126021   0.841   1.964   3.536
 8374SOL    HW226022   0.837   2.081   3.421
 8375SOL     OW26023   1.613   2.395   5.631
 8375SOL    HW126024   1.556   2.457   5.578
 8375SOL    HW226025   1.704   2.435   5.644
 8376SOL     OW26026   0.893   0.930   3.672
 8376SOL    HW126027   0.819   0.880   3.717
 8376SOL    HW226028   0.919   1.009   3.728
 8377SOL     OW26029   4.715   6.034   1.992
 8377SOL    HW126030   4.650   6.094   1.945
 8377SOL    HW226031   4.731   6.068   2.085
 8378SOL     OW26032   4.225   6.000   6.177
 8378SOL    HW126033   4.314   6.023   6.216
 8378SOL    HW226034   4.159   5.983   6.250
 8379SOL     OW26035   5.947   2.933   1.914
 8379SOL    HW126036   5.866   2.988   1.897
 8379SOL    HW226037   5.939   2.846   1.865
 8380SOL     OW26038   1.522   5.449   2.906
 8380SOL    HW126039   1.441   5.391   2.910
 8380SOL    HW226040   1.601   5.394   2.879
 8381SOL     OW26041   0.435   2.666   2.744
 8381SOL    HW126042   0.527   2.679   2.707
 8381SOL    HW226043   0.369   2.664   2.669
 8382SOL     OW26044   1.168   0.535   2.064
 8382SOL    HW126045   1.187   0.531   1.966
 8382SOL    HW226046   1.164   0.631   2.093
 8383SOL     OW26047   1.803   6.778   4.804
 8383SOL    HW126048   1.866   6.832   4.747
 8383SOL    HW226049   1.710   6.814   4.793
 8384SOL     OW26050   0.553   4.234   3.797
 8384SOL    HW126051   0.566   4.259   3.893
 8384SOL    HW226052   0.570   4.314   3.739
 8385SOL     OW26053   4.432   2.422   2.033
 8385SOL    HW126054   4.400   2.487   1.965
 8385SOL    HW226055   4.513   2.374   1.998
 8386SOL     OW26056   6.576   5.717   2.104
 8386SOL    HW126057   6.619   5.680   2.187
 8386SOL    HW226058   6.582   5.650   2.030
 8387SOL     OW26059   0.503   2.349   3.823
 8387SOL    HW126060   0.421   2.350   3.880
 8387SOL    HW226061   0.478   2.368   3.728
 8388SOL     OW26062   3.111   6.539   1.023
 8388SOL    HW126063   3.143   6.605   1.090
 8388SOL    HW226064   3.189   6.493   0.981
 8389SOL     OW26065   1.159   2.707   4.255
 8389SOL    HW126066   1.122   2.739   4.342
 8389SOL    HW226067   1.111   2.624   4.228
 8390SOL     OW26068   1.122   6.466   6.593
 8390SOL    HW126069   1.216   6.440   6.573
 8390SOL    HW226070   1.065   6.453   6.512
 8391SOL     OW26071   4.841   6.149   1.118
 8391SOL    HW126072   4.746   6.120   1.106
 8391SOL    HW226073   4.893   6.130   1.035
 8392SOL     OW26074   3.419   5.830   0.505
 8392SOL    HW126075   3.400   5.873   0.417
 8392SOL    HW226076   3.341   5.775   0.534
 8393SOL     OW26077   1.561   6.448   1.989
 8393SOL    HW126078   1.587   6.355   1.961
 8393SOL    HW226079   1.539   6.447   2.087
 8394SOL     OW26080   1.716   1.130   4.058
 8394SOL    HW126081   1.669   1.103   3.973
 8394SOL    HW226082   1.713   1.053   4.122
 8395SOL     OW26083   1.872   6.058   6.609
 8395SOL    HW126084   1.964   6.022   6.627
 8395SOL    HW226085   1.878   6.156   6.594
 8396SOL     OW26086   5.128   1.935   0.334
 8396SOL    HW126087   5.045   1.880   0.326
 8396SOL    HW226088   5.121   1.994   0.415
 8397SOL     OW26089   0.611   4.334   3.413
 8397SOL    HW126090   0.553   4.386   3.476
 8397SOL    HW226091   0.558   4.260   3.372
 8398SOL     OW26092   5.684   1.855   6.354
 8398SOL    HW126093   5.669   1.854   6.255
 8398SOL    HW226094   5.615   1.799   6.399
 8399SOL     OW26095   5.409   0.003   5.102
 8399SOL    HW126096   5.311   7.012   5.095
 8399SOL    HW226097   5.425   0.099   5.123
 8400SOL     OW26098   5.790   5.999   2.973
 8400SOL    HW126099   5.748   6.046   2.894
 8400SOL    HW226100   5.718   5.971   3.037
 8401SOL     OW26101   2.079   3.595   5.152
 8401SOL    HW126102   2.084   3.547   5.064
 8401SOL    HW226103   2.146   3.555   5.215
 8402SOL     OW26104   4.658   1.024   4.365
 8402SOL    HW126105   4.603   1.105   4.384
 8402SOL    HW226106   4.609   0.942   4.397
 8403SOL     OW26107   0.919   1.854   6.349
 8403SOL    HW126108   0.973   1.772   6.369
 8403SOL    HW226109   0.830   1.827   6.311
 8404SOL     OW26110   4.972   5.289   5.084
 8404SOL    HW126111   4.936   5.274   5.175
 8404SOL    HW226112   4.927   5.227   5.019
 8405SOL     OW26113   0.646   2.727   6.212
 8405SOL    HW126114   0.728   2.738   6.156
 8405SOL    HW226115   0.570   2.697   6.153
 8406SOL     OW26116   5.947   3.630   1.840
 8406SOL    HW126117   6.000   3.715   1.834
 8406SOL    HW226118   6.005   3.557   1.874
 8407SOL     OW26119   5.309   3.348   2.306
 8407SOL    HW126120   5.277   3.443   2.308
 8407SOL    HW226121   5.384   3.336   2.372
 8408SOL     OW26122   5.371   4.350   4.291
 8408SOL    HW126123   5.326   4.264   4.265
 8408SOL    HW226124   5.302   4.415   4.323
 8409SOL     OW26125   0.969   1.833   3.910
 8409SOL    HW126126   1.023   1.770   3.965
 8409SOL    HW226127   1.029   1.898   3.865
 8410SOL     OW26128   1.861   5.440   2.432
 8410SOL    HW126129   1.786   5.380   2.406
 8410SOL    HW226130   1.918   5.459   2.352
 8411SOL     OW26131   2.003   3.765   2.910
 8411SOL    HW126132   1.931   3.728   2.968
 8411SOL    HW226133   2.018   3.704   2.832
 8412SOL     OW26134   5.551   2.173   2.528
 8412SOL    HW126135   5.621   2.118   2.573
 8412SOL    HW226136   5.586   2.264   2.509
 8413SOL     OW26137   1.390   5.338   1.936
 8413SOL    HW126138   1.299   5.304   1.914
 8413SOL    HW226139   1.456   5.264   1.929
 8414SOL     OW26140   6.390   0.309   4.528
 8414SOL    HW126141   6.458   0.299   4.601
 8414SOL    HW226142   6.423   0.265   4.445
 8415SOL     OW26143   0.485   4.678   0.687
 8415SOL    HW126144   0.492   4.609   0.760
 8415SOL    HW226145   0.538   4.759   0.712
 8416SOL     OW26146   4.256   4.672   2.911
 8416SOL    HW126147   4.287   4.766   2.920
 8416SOL    HW226148   4.263   4.644   2.815
 8417SOL     OW26149   0.946   5.401   6.709
 8417SOL    HW126150   0.871   5.459   6.676
 8417SOL    HW226151   1.033   5.448   6.695
 8418SOL     OW26152   5.759   6.524   2.611
 8418SOL    HW126153   5.777   6.466   2.690
 8418SOL    HW226154   5.682   6.487   2.559
 8419SOL     OW26155   2.212   1.691   3.121
 8419SOL    HW126156   2.233   1.722   3.028
 8419SOL    HW226157   2.195   1.592   3.120
 8420SOL     OW26158   5.018   1.595   5.460
 8420SOL    HW126159   5.037   1.604   5.557
 8420SOL    HW226160   5.043   1.679   5.413
 8421SOL     OW26161   0.204   1.048   0.568
 8421SOL    HW126162   0.244   1.131   0.606
 8421SOL    HW226163   0.201   1.055   0.468
 8422SOL     OW26164   2.980   0.972   1.189
 8422SOL    HW126165   2.884   0.992   1.170
 8422SOL    HW226166   3.038   1.038   1.142
 8423SOL     OW26167   2.127   4.769   1.524
 8423SOL    HW126168   2.039   4.725   1.541
 8423SOL    HW226169   2.120   4.866   1.546
 8424SOL     OW26170   2.674   2.371   2.266
 8424SOL    HW126171   2.724   2.451   2.233
 8424SOL    HW226172   2.577   2.393   2.273
 8425SOL     OW26173   0.014   5.545   5.469
 8425SOL    HW126174   7.011   5.471   5.529
 8425SOL    HW226175   7.014   5.524   5.375
 8426SOL     OW26176   3.668   4.000   2.884
 8426SOL    HW126177   3.768   4.011   2.887
 8426SOL    HW226178   3.633   4.042   2.800
 8427SOL     OW26179   2.329   1.096   6.800
 8427SOL    HW126180   2.328   1.018   6.737
 8427SOL    HW226181   2.343   1.064   6.894
 8428SOL     OW26182   6.806   3.373   1.996
 8428SOL    HW126183   6.754   3.429   1.932
 8428SOL    HW226184   6.788   3.277   1.979
 8429SOL     OW26185   1.353   6.698   2.867
 8429SOL    HW126186   1.434   6.726   2.814
 8429SOL    HW226187   1.280   6.672   2.804
 8430SOL     OW26188   3.297   6.526   3.370
 8430SOL    HW126189   3.377   6.485   3.327
 8430SOL    HW226190   3.283   6.485   3.460
 8431SOL     OW26191   3.155   3.469   2.823
 8431SOL    HW126192   3.231   3.452   2.885
 8431SOL    HW226193   3.170   3.556   2.775
 8432SOL     OW26194   4.242   5.599   0.891
 8432SOL    HW126195   4.198   5.649   0.817
 8432SOL    HW226196   4.341   5.598   0.877
 8433SOL     OW26197   6.530   1.482   3.559
 8433SOL    HW126198   6.432   1.472   3.578
 8433SOL    HW226199   6.544   1.490   3.460
 8434SOL     OW26200   5.315   6.404   0.131
 8434SOL    HW126201   5.253   6.368   0.200
 8434SOL    HW226202   5.294   6.363   0.042
 8435SOL     OW26203   5.678   3.544   0.719
 8435SOL    HW126204   5.650   3.521   0.813
 8435SOL    HW226205   5.599   3.579   0.669
 8436SOL     OW26206   3.427   4.297   1.625
 8436SOL    HW126207   3.421   4.230   1.551
 8436SOL    HW226208   3.398   4.386   1.593
 8437SOL     OW26209   0.472   2.891   0.718
 8437SOL    HW126210   0.506   2.816   0.662
 8437SOL    HW226211   0.376   2.876   0.741
 8438SOL     OW26212   2.791   5.642   1.662
 8438SOL    HW126213   2.775   5.649   1.760
 8438SOL    HW226214   2.877   5.688   1.638
 8439SOL     OW26215   5.359   0.264   2.228
 8439SOL    HW126216   5.391   0.170   2.233
 8439SOL    HW226217   5.362   0.305   2.320
 8440SOL     OW26218   1.298   3.828   3.525
 8440SOL    HW126219   1.359   3.752   3.547
 8440SOL    HW226220   1.346   3.895   3.469
 8441SOL     OW26221   4.302   5.830   1.519
 8441SOL    HW126222   4.306   5.804   1.615
 8441SOL    HW226223   4.218   5.795   1.478
 8442SOL     OW26224   3.009   3.054   0.565
 8442SOL    HW126225   3.012   3.017   0.473
 8442SOL    HW226226   2.939   3.125   0.571
 8443SOL     OW26227   6.913   2.795   0.548
 8443SOL    HW126228   6.923   2.709   0.597
 8443SOL    HW226229   6.846   2.853   0.596
 8444SOL     OW26230   5.053   2.570   3.279
 8444SOL    HW126231   5.101   2.655   3.303
 8444SOL    HW226232   4.991   2.588   3.203
 8445SOL     OW26233   3.290   5.445   3.094
 8445SOL    HW126234   3.389   5.432   3.090
 8445SOL    HW226235   3.251   5.386   3.164
 8446SOL     OW26236   6.179   3.931   3.502
 8446SOL    HW126237   6.098   3.882   3.469
 8446SOL    HW226238   6.150   4.005   3.563
 8447SOL     OW26239   5.513   5.019   1.134
 8447SOL    HW126240   5.600   4.979   1.160
 8447SOL    HW226241   5.476   4.971   1.054
 8448SOL     OW26242   1.629   4.548   5.411
 8448SOL    HW126243   1.619   4.566   5.313
 8448SOL    HW226244   1.578   4.466   5.435
 8449SOL     OW26245   2.152   1.047   5.823
 8449SOL    HW126246   2.066   1.030   5.776
 8449SOL    HW226247   2.137   1.110   5.899
 8450SOL     OW26248   1.594   5.752   1.153
 8450SOL    HW126249   1.683   5.707   1.162
 8450SOL    HW226250   1.605   5.850   1.171
 8451SOL     OW26251   2.831   4.154   1.517
 8451SOL    HW126252   2.927   4.125   1.518
 8451SOL    HW226253   2.811   4.206   1.600
 8452SOL     OW26254   6.746   5.927   2.399
 8452SOL    HW126255   6.771   5.836   2.432
 8452SOL    HW226256   6.658   5.922   2.351
 8453SOL     OW26257   0.887   4.376   5.451
 8453SOL    HW126258   0.922   4.384   5.357
 8453SOL    HW226259   0.925   4.449   5.507
 8454SOL     OW26260   1.945   6.932   5.909
 8454SOL    HW126261   1.939   6.897   6.003
 8454SOL    HW226262   2.029   6.984   5.898
 8455SOL     OW26263   6.363   2.172   0.205
 8455SOL    HW126264   6.380   2.205   0.112
 8455SOL    HW226265   6.400   2.237   0.271
 8456SOL     OW26266   5.924   4.760   3.707
 8456SOL    HW126267   6.011   4.749   3.755
 8456SOL    HW226268   5.853   4.787   3.773
 8457SOL     OW26269   5.441   6.111   5.971
 8457SOL    HW126270   5.500   6.032   5.990
 8457SOL    HW226271   5.425   6.161   6.056
 8458SOL     OW26272   1.104   1.369   1.389
 8458SOL    HW126273   1.135   1.442   1.328
 8458SOL    HW226274   1.018   1.331   1.354
 8459SOL     OW26275   2.270   4.873   2.720
 8459SOL    HW126276   2.360   4.910   2.743
 8459SOL    HW226277   2.200   4.917   2.776
 8460SOL     OW26278   3.716   1.015   1.106
 8460SOL    HW126279   3.815   1.025   1.118
 8460SOL    HW226280   3.696   1.003   1.009
 8461SOL     OW26281   5.453   4.624   3.181
 8461SOL    HW126282   5.361   4.659   3.200
 8461SOL    HW226283   5.464   4.611   3.082
 8462SOL     OW26284   1.869   3.496   0.444
 8462SOL    HW126285   1.839   3.414   0.395
 8462SOL    HW226286   1.901   3.471   0.535
 8463SOL     OW26287   0.504   6.470   2.081
 8463SOL    HW126288   0.593   6.438   2.048
 8463SOL    HW226289   0.509   6.568   2.100
 8464SOL     OW26290   6.675   3.273   0.042
 8464SOL    HW126291   6.575   3.264   0.049
 8464SOL    HW226292   6.700   3.291   6.973
 8465SOL     OW26293   5.971   3.930   0.560
 8465SOL    HW126294   5.916   3.994   0.613
 8465SOL    HW226295   6.034   3.881   0.621
 8466SOL     OW26296   0.301   1.479   4.801
 8466SOL    HW126297   0.316   1.549   4.871
 8466SOL    HW226298   0.349   1.395   4.826
 8467SOL     OW26299   3.208   0.985   0.569
 8467SOL    HW126300   3.262   0.994   0.653
 8467SOL    HW226301   3.254   0.922   0.506
 8468SOL     OW26302   6.583   3.530   2.081
 8468SOL    HW126303   6.644   3.475   2.138
 8468SOL    HW226304   6.609   3.626   2.087
 8469SOL     OW26305   3.306   2.906   5.618
 8469SOL    HW126306   3.335   2.817   5.653
 8469SOL    HW226307   3.285   2.898   5.521
 8470SOL     OW26308   1.471   5.426   0.654
 8470SOL    HW126309   1.414   5.356   0.611
 8470SOL    HW226310   1.413   5.502   0.684
 8471SOL     OW26311   3.869   1.812   3.730
 8471SOL    HW126312   3.957   1.786   3.689
 8471SOL    HW226313   3.883   1.883   3.799
 8472SOL     OW26314   6.210   1.449   6.603
 8472SOL    HW126315   6.213   1.483   6.697
 8472SOL    HW226316   6.302   1.426   6.573
 8473SOL     OW26317   4.868   5.161   5.542
 8473SOL    HW126318   4.957   5.162   5.497
 8473SOL    HW226319   4.852   5.250   5.585
 8474SOL     OW26320   3.579   4.020   6.417
 8474SOL    HW126321   3.601   3.926   6.444
 8474SOL    HW226322   3.542   4.020   6.324
 8475SOL     OW26323   0.890   2.055   2.903
 8475SOL    HW126324   0.927   2.001   2.828
 8475SOL    HW226325   0.957   2.124   2.929
 8476SOL     OW26326   6.784   0.675   2.349
 8476SOL    HW126327   6.791   0.749   2.415
 8476SOL    HW226328   6.737   0.708   2.267
 8477SOL     OW26329   5.920   6.639   0.909
 8477SOL    HW126330   5.861   6.695   0.851
 8477SOL    HW226331   5.897   6.654   1.005
 8478SOL     OW26332   2.082   6.822   6.732
 8478SOL    HW126333   1.998   6.795   6.686
 8478SOL    HW226334   2.144   6.863   6.665
 8479SOL     OW26335   1.634   2.443   6.894
 8479SOL    HW126336   1.671   2.369   6.950
 8479SOL    HW226337   1.539   2.423   6.870
 8480SOL     OW26338   3.283   4.511   1.553
 8480SOL    HW126339   3.352   4.583   1.558
 8480SOL    HW226340   3.237   4.515   1.464
 8481SOL     OW26341   5.584   3.356   1.985
 8481SOL    HW126342   5.589   3.378   1.888
 8481SOL    HW226343   5.656   3.404   2.035
 8482SOL     OW26344   4.992   6.866   5.683
 8482SOL    HW126345   4.923   6.906   5.624
 8482SOL    HW226346   5.082   6.878   5.642
 8483SOL     OW26347   4.620   5.387   3.863
 8483SOL    HW126348   4.718   5.386   3.882
 8483SOL    HW226349   4.582   5.296   3.878
 8484SOL     OW26350   5.589   6.735   5.326
 8484SOL    HW126351   5.601   6.649   5.376
 8484SOL    HW226352   5.491   6.758   5.323
 8485SOL     OW26353   3.361   0.391   5.637
 8485SOL    HW126354   3.303   0.453   5.691
 8485SOL    HW226355   3.310   0.307   5.618
 8486SOL     OW26356   4.738   2.718   5.055
 8486SOL    HW126357   4.821   2.692   5.105
 8486SOL    HW226358   4.687   2.636   5.030
 8487SOL     OW26359   0.764   1.523   5.530
 8487SOL    HW126360   0.717   1.580   5.462
 8487SOL    HW226361   0.801   1.582   5.603
 8488SOL     OW26362   4.214   5.492   3.051
 8488SOL    HW126363   4.216   5.580   3.003
 8488SOL    HW226364   4.297   5.442   3.030
 8489SOL     OW26365   6.363   2.320   1.610
 8489SOL    HW126366   6.277   2.275   1.584
 8489SOL    HW226367   6.367   2.329   1.710
 8490SOL     OW26368   4.418   0.241   6.804
 8490SOL    HW126369   4.468   0.322   6.774
 8490SOL    HW226370   4.347   0.268   6.868
 8491SOL     OW26371   2.934   6.195   1.716
 8491SOL    HW126372   2.953   6.121   1.651
 8491SOL    HW226373   3.001   6.268   1.703
 8492SOL     OW26374   5.962   6.421   4.095
 8492SOL    HW126375   6.017   6.503   4.079
 8492SOL    HW226376   5.984   6.384   4.186
 8493SOL     OW26377   5.002   0.071   5.406
 8493SOL    HW126378   4.907   0.042   5.393
 8493SOL    HW226379   5.020   0.083   5.503
 8494SOL     OW26380   0.289   3.821   2.405
 8494SOL    HW126381   0.327   3.913   2.415
 8494SOL    HW226382   0.320   3.781   2.319
 8495SOL     OW26383   4.144   5.630   4.446
 8495SOL    HW126384   4.074   5.570   4.485
 8495SOL    HW226385   4.230   5.618   4.496
 8496SOL     OW26386   3.874   1.846   2.324
 8496SOL    HW126387   3.848   1.770   2.264
 8496SOL    HW226388   3.843   1.828   2.417
 8497SOL     OW26389   6.278   0.965   3.223
 8497SOL    HW126390   6.328   0.918   3.295
 8497SOL    HW226391   6.275   1.063   3.244
 8498SOL     OW26392   5.854   6.187   5.561
 8498SOL    HW126393   5.774   6.129   5.575
 8498SOL    HW226394   5.922   6.167   5.631
 8499SOL     OW26395   6.366   0.203   6.049
 8499SOL    HW126396   6.358   0.302   6.039
 8499SOL    HW226397   6.299   0.158   5.988
 8500SOL     OW26398   0.366   0.663   5.690
 8500SOL    HW126399   0.392   0.673   5.594
 8500SOL    HW226400   0.267   0.660   5.697
 8501SOL     OW26401   3.702   6.659   4.926
 8501SOL    HW126402   3.660   6.587   4.870
 8501SOL    HW226403   3.796   6.673   4.895
 8502SOL     OW26404   6.515   2.892   0.577
 8502SOL    HW126405   6.534   2.877   0.480
 8502SOL    HW226406   6.599   2.920   0.623
 8503SOL     OW26407   4.766   2.509   6.038
 8503SOL    HW126408   4.717   2.538   5.956
 8503SOL    HW226409   4.855   2.470   6.013
 8504SOL     OW26410   1.469   1.214   3.410
 8504SOL    HW126411   1.447   1.308   3.439
 8504SOL    HW226412   1.385   1.168   3.381
 8505SOL     OW26413   6.082   1.187   2.569
 8505SOL    HW126414   6.134   1.189   2.654
 8505SOL    HW226415   5.992   1.147   2.587
 8506SOL     OW26416   2.070   1.038   4.328
 8506SOL    HW126417   1.994   1.098   4.354
 8506SOL    HW226418   2.053   1.002   4.236
 8507SOL     OW26419   4.106   5.720   0.149
 8507SOL    HW126420   4.184   5.707   0.211
 8507SOL    HW226421   4.100   5.643   0.086
 8508SOL     OW26422   3.280   0.955   5.784
 8508SOL    HW126423   3.221   0.924   5.710
 8508SOL    HW226424   3.364   0.900   5.785
 8509SOL     OW26425   3.862   2.120   2.237
 8509SOL    HW126426   3.798   2.147   2.165
 8509SOL    HW226427   3.830   2.036   2.280
 8510SOL     OW26428   0.539   2.220   5.056
 8510SOL    HW126429   0.566   2.202   4.961
 8510SOL    HW226430   0.512   2.134   5.100
 8511SOL     OW26431   5.689   2.046   4.206
 8511SOL    HW126432   5.735   2.027   4.119
 8511SOL    HW226433   5.591   2.029   4.197
 8512SOL     OW26434   2.749   6.589   6.199
 8512SOL    HW126435   2.720   6.648   6.124
 8512SOL    HW226436   2.846   6.605   6.218
 8513SOL     OW26437   3.943   5.517   6.974
 8513SOL    HW126438   3.899   5.502   0.037
 8513SOL    HW226439   3.874   5.545   6.907
 8514SOL     OW26440   4.382   5.598   4.595
 8514SOL    HW126441   4.361   5.563   4.686
 8514SOL    HW226442   4.421   5.689   4.602
 8515SOL     OW26443   5.407   2.829   2.314
 8515SOL    HW126444   5.440   2.751   2.261
 8515SOL    HW226445   5.369   2.898   2.252
 8516SOL     OW26446   7.001   2.733   1.188
 8516SOL    HW126447   6.924   2.669   1.183
 8516SOL    HW226448   0.019   2.724   1.278
 8517SOL     OW26449   0.908   3.511   4.690
 8517SOL    HW126450   0.919   3.595   4.743
 8517SOL    HW226451   0.934   3.432   4.747
 8518SOL     OW26452   3.669   5.591   1.702
 8518SOL    HW126453   3.614   5.521   1.658
 8518SOL    HW226454   3.683   5.567   1.798
 8519SOL     OW26455   2.949   5.461   3.284
 8519SOL    HW126456   2.972   5.485   3.378
 8519SOL    HW226457   2.983   5.532   3.223
 8520SOL     OW26458   3.785   5.528   0.186
 8520SOL    HW126459   3.750   5.601   0.244
 8520SOL    HW226460   3.802   5.447   0.242
 8521SOL     OW26461   0.604   1.134   3.872
 8521SOL    HW126462   0.692   1.168   3.839
 8521SOL    HW226463   0.531   1.169   3.814
 8522SOL     OW26464   2.393   5.932   4.516
 8522SOL    HW126465   2.429   5.917   4.424
 8522SOL    HW226466   2.450   5.884   4.583
 8523SOL     OW26467   2.077   5.272   6.660
 8523SOL    HW126468   2.078   5.365   6.698
 8523SOL    HW226469   2.156   5.221   6.695
 8524SOL     OW26470   2.402   1.003   6.174
 8524SOL    HW126471   2.304   1.009   6.154
 8524SOL    HW226472   2.417   0.937   6.248
 8525SOL     OW26473   5.901   4.279   4.633
 8525SOL    HW126474   5.906   4.376   4.609
 8525SOL    HW226475   5.865   4.227   4.556
 8526SOL     OW26476   6.596   3.196   1.895
 8526SOL    HW126477   6.623   3.249   1.814
 8526SOL    HW226478   6.611   3.099   1.877
 8527SOL     OW26479   4.786   1.297   5.076
 8527SOL    HW126480   4.824   1.325   5.164
 8527SOL    HW226481   4.782   1.377   5.015
 8528SOL     OW26482   5.890   6.827   6.828
 8528SOL    HW126483   5.843   6.771   6.761
 8528SOL    HW226484   5.948   6.894   6.781
 8529SOL     OW26485   6.484   1.152   4.456
 8529SOL    HW126486   6.504   1.233   4.401
 8529SOL    HW226487   6.434   1.178   4.538
 8530SOL     OW26488   1.645   5.406   5.960
 8530SOL    HW126489   1.550   5.437   5.963
 8530SOL    HW226490   1.647   5.307   5.978
 8531SOL     OW26491   2.960   5.459   2.893
 8531SOL    HW126492   2.980   5.477   2.796
 8531SOL    HW226493   3.013   5.520   2.950
 8532SOL     OW26494   1.327   3.198   6.474
 8532SOL    HW126495   1.228   3.200   6.484
 8532SOL    HW226496   1.364   3.118   6.522
 8533SOL     OW26497   3.160   0.407   6.355
 8533SOL    HW126498   3.161   0.325   6.412
 8533SOL    HW226499   3.111   0.388   6.270
 8534SOL     OW26500   3.403   2.580   0.971
 8534SOL    HW126501   3.372   2.608   0.880
 8534SOL    HW226502   3.483   2.635   0.998
 8535SOL     OW26503   0.191   2.360   5.672
 8535SOL    HW126504   0.200   2.375   5.770
 8535SOL    HW226505   0.279   2.333   5.634
 8536SOL     OW26506   6.863   0.145   6.131
 8536SOL    HW126507   6.907   0.056   6.122
 8536SOL    HW226508   6.817   0.150   6.220
 8537SOL     OW26509   3.375   6.781   3.434
 8537SOL    HW126510   3.458   6.760   3.486
 8537SOL    HW226511   3.325   6.697   3.416
 8538SOL     OW26512   4.066   1.962   5.135
 8538SOL    HW126513   3.979   1.916   5.156
 8538SOL    HW226514   4.048   2.057   5.111
 8539SOL     OW26515   0.731   3.156   2.986
 8539SOL    HW126516   0.743   3.078   3.047
 8539SOL    HW226517   0.799   3.153   2.913
 8540SOL     OW26518   4.637   6.199   6.013
 8540SOL    HW126519   4.666   6.205   5.918
 8540SOL    HW226520   4.538   6.211   6.018
 8541SOL     OW26521   3.784   5.876   6.088
 8541SOL    HW126522   3.717   5.805   6.111
 8541SOL    HW226523   3.740   5.946   6.031
 8542SOL     OW26524   0.997   5.128   4.781
 8542SOL    HW126525   1.029   5.034   4.784
 8542SOL    HW226526   1.075   5.190   4.774
 8543SOL     OW26527   3.536   2.023   5.587
 8543SOL    HW126528   3.535   1.975   5.675
 8543SOL    HW226529   3.630   2.033   5.555
 8544SOL     OW26530   4.922   3.754   5.369
 8544SOL    HW126531   4.949   3.666   5.329
 8544SOL    HW226532   4.827   3.749   5.400
 8545SOL     OW26533   2.157   0.711   6.365
 8545SOL    HW126534   2.140   0.626   6.413
 8545SOL    HW226535   2.070   0.756   6.344
 8546SOL     OW26536   2.834   1.632   4.255
 8546SOL    HW126537   2.750   1.586   4.286
 8546SOL    HW226538   2.812   1.725   4.226
 8547SOL     OW26539   5.357   4.352   5.923
 8547SOL    HW126540   5.304   4.407   5.859
 8547SOL    HW226541   5.359   4.398   6.012
 8548SOL     OW26542   1.540   4.375   3.914
 8548SOL    HW126543   1.560   4.298   3.974
 8548SOL    HW226544   1.488   4.344   3.835
 8549SOL     OW26545   2.862   0.347   3.581
 8549SOL    HW126546   2.923   0.411   3.628
 8549SOL    HW226547   2.849   0.377   3.487
 8550SOL     OW26548   0.349   3.644   5.241
 8550SOL    HW126549   0.255   3.649   5.274
 8550SOL    HW226550   0.353   3.584   5.161
 8551SOL     OW26551   3.479   2.121   3.935
 8551SOL    HW126552   3.511   2.215   3.920
 8551SOL    HW226553   3.468   2.105   4.033
 8552SOL     OW26554   4.125   1.510   2.217
 8552SOL    HW126555   4.047   1.562   2.252
 8552SOL    HW226556   4.115   1.414   2.242
 8553SOL     OW26557   6.075   2.690   0.886
 8553SOL    HW126558   6.143   2.756   0.857
 8553SOL    HW226559   6.103   2.598   0.858
 8554SOL     OW26560   0.063   0.836   6.300
 8554SOL    HW126561   0.003   0.816   6.378
 8554SOL    HW226562   0.043   0.772   6.226
 8555SOL     OW26563   3.726   1.953   4.221
 8555SOL    HW126564   3.728   1.944   4.122
 8555SOL    HW226565   3.717   1.863   4.263
 8556SOL     OW26566   1.188   4.016   5.909
 8556SOL    HW126567   1.261   4.061   5.959
 8556SOL    HW226568   1.199   4.032   5.811
 8557SOL     OW26569   6.161   7.011   0.733
 8557SOL    HW126570   6.228   7.021   0.807
 8557SOL    HW226571   6.163   0.066   0.675
 8558SOL     OW26572   2.399   6.070   3.693
 8558SOL    HW126573   2.354   6.159   3.704
 8558SOL    HW226574   2.373   6.011   3.769
 8559SOL     OW26575   1.545   2.589   2.506
 8559SOL    HW126576   1.563   2.610   2.603
 8559SOL    HW226577   1.582   2.662   2.449
 8560SOL     OW26578   3.424   4.758   1.658
 8560SOL    HW126579   3.497   4.735   1.723
 8560SOL    HW226580   3.341   4.782   1.708
 8561SOL     OW26581   3.351   1.005   2.536
 8561SOL    HW126582   3.402   1.090   2.523
 8561SOL    HW226583   3.293   0.990   2.456
 8562SOL     OW26584   5.640   3.736   5.869
 8562SOL    HW126585   5.681   3.817   5.827
 8562SOL    HW226586   5.541   3.741   5.861
 8563SOL     OW26587   0.081   4.017   3.785
 8563SOL    HW126588   0.101   4.009   3.687
 8563SOL    HW226589   0.028   3.937   3.815
 8564SOL     OW26590   3.750   6.390   6.905
 8564SOL    HW126591   3.768   6.457   6.833
 8564SOL    HW226592   3.732   6.301   6.863
 8565SOL     OW26593   1.257   5.163   1.153
 8565SOL    HW126594   1.308   5.135   1.072
 8565SOL    HW226595   1.273   5.097   1.227
 8566SOL     OW26596   2.503   0.655   3.787
 8566SOL    HW126597   2.560   0.598   3.727
 8566SOL    HW226598   2.407   0.632   3.773
 8567SOL     OW26599   1.722   3.073   6.891
 8567SOL    HW126600   1.801   3.128   6.866
 8567SOL    HW226601   1.664   3.124   6.955
 8568SOL     OW26602   5.709   0.078   6.165
 8568SOL    HW126603   5.707   7.005   6.150
 8568SOL    HW226604   5.774   0.119   6.101
 8569SOL     OW26605   4.270   1.791   6.268
 8569SOL    HW126606   4.341   1.823   6.332
 8569SOL    HW226607   4.181   1.826   6.297
 8570SOL     OW26608   1.534   2.067   4.019
 8570SOL    HW126609   1.488   2.117   3.945
 8570SOL    HW226610   1.628   2.098   4.025
 8571SOL     OW26611   1.769   0.816   3.898
 8571SOL    HW126612   1.740   0.747   3.965
 8571SOL    HW226613   1.690   0.872   3.871
 8572SOL     OW26614   2.792   3.016   6.410
 8572SOL    HW126615   2.801   2.984   6.316
 8572SOL    HW226616   2.779   3.115   6.411
 8573SOL     OW26617   1.533   6.298   5.430
 8573SOL    HW126618   1.442   6.274   5.465
 8573SOL    HW226619   1.526   6.321   5.333
 8574SOL     OW26620   6.444   2.721   5.609
 8574SOL    HW126621   6.384   2.652   5.568
 8574SOL    HW226622   6.391   2.778   5.672
 8575SOL     OW26623   1.476   6.579   4.062
 8575SOL    HW126624   1.405   6.530   4.112
 8575SOL    HW226625   1.470   6.555   3.965
 8576SOL     OW26626   1.493   4.107   4.069
 8576SOL    HW126627   1.565   4.159   4.114
 8576SOL    HW226628   1.534   4.036   4.011
 8577SOL     OW26629   2.047   1.196   1.437
 8577SOL    HW126630   2.103   1.256   1.495
 8577SOL    HW226631   1.956   1.186   1.477
 8578SOL     OW26632   1.793   0.478   6.030
 8578SOL    HW126633   1.868   0.482   5.964
 8578SOL    HW226634   1.830   0.484   6.123
 8579SOL     OW26635   2.712   6.738   3.027
 8579SOL    HW126636   2.681   6.789   3.108
 8579SOL    HW226637   2.804   6.768   3.002
 8580SOL     OW26638   1.208   0.015   2.436
 8580SOL    HW126639   1.218   7.007   2.343
 8580SOL    HW226640   1.271   0.091   2.451
 8581SOL     OW26641   3.857   3.337   3.766
 8581SOL    HW126642   3.935   3.356   3.826
 8581SOL    HW226643   3.879   3.260   3.707
 8582SOL     OW26644   5.402   5.358   6.960
 8582SOL    HW126645   5.496   5.392   6.951
 8582SOL    HW226646   5.367   5.335   6.869
 8583SOL     OW26647   3.417   6.692   2.011
 8583SOL    HW126648   3.443   6.761   1.943
 8583SOL    HW226649   3.419   6.601   1.969
 8584SOL     OW26650   5.492   2.721   6.131
 8584SOL    HW126651   5.437   2.772   6.197
 8584SOL    HW226652   5.568   2.675   6.177
 8585SOL     OW26653   4.930   2.649   3.069
 8585SOL    HW126654   4.863   2.722   3.057
 8585SOL    HW226655   4.963   2.619   2.979
 8586SOL     OW26656   6.027   6.808   5.880
 8586SOL    HW126657   6.007   6.871   5.955
 8586SOL    HW226658   6.031   6.714   5.916
 8587SOL     OW26659   6.352   6.697   1.178
 8587SOL    HW126660   6.423   6.733   1.119
 8587SOL    HW226661   6.296   6.631   1.127
 8588SOL     OW26662   1.866   2.488   5.632
 8588SOL    HW126663   1.932   2.498   5.707
 8588SOL    HW226664   1.842   2.579   5.597
 8589SOL     OW26665   6.367   3.287   6.392
 8589SOL    HW126666   6.357   3.223   6.469
 8589SOL    HW226667   6.332   3.377   6.419
 8590SOL     OW26668   1.035   1.558   2.899
 8590SOL    HW126669   1.057   1.460   2.891
 8590SOL    HW226670   1.102   1.611   2.847
 8591SOL     OW26671   0.431   4.743   6.436
 8591SOL    HW126672   0.387   4.823   6.475
 8591SOL    HW226673   0.380   4.661   6.461
 8592SOL     OW26674   0.155   1.969   4.734
 8592SOL    HW126675   0.125   2.044   4.674
 8592SOL    HW226676   0.153   2.000   4.829
 8593SOL     OW26677   6.898   0.513   0.279
 8593SOL    HW126678   6.986   0.558   0.264
 8593SOL    HW226679   6.868   0.530   0.373
 8594SOL     OW26680   6.206   2.165   6.931
 8594SOL    HW126681   6.214   2.067   6.911
 8594SOL    HW226682   6.227   2.217   6.849
 8595SOL     OW26683   5.496   6.653   1.379
 8595SOL    HW126684   5.518   6.660   1.477
 8595SOL    HW226685   5.534   6.732   1.331
 8596SOL     OW26686   0.782   2.490   5.808
 8596SOL    HW126687   0.870   2.500   5.855
 8596SOL    HW226688   0.751   2.579   5.776
 8597SOL     OW26689   6.656   2.654   5.806
 8597SOL    HW126690   6.570   2.689   5.768
 8597SOL    HW226691   6.637   2.589   5.879
 8598SOL     OW26692   6.602   0.040   5.409
 8598SOL    HW126693   6.628   7.019   5.493
 8598SOL    HW226694   6.503   0.046   5.403
 8599SOL     OW26695   6.286   4.426   5.742
 8599SOL    HW126696   6.311   4.430   5.645
 8599SOL    HW226697   6.291   4.517   5.781
 8600SOL     OW26698   3.501   3.125   1.767
 8600SOL    HW126699   3.474   3.037   1.729
 8600SOL    HW226700   3.444   3.146   1.847
 8601SOL     OW26701   4.891   4.214   1.451
 8601SOL    HW126702   4.909   4.224   1.353
 8601SOL    HW226703   4.977   4.200   1.499
 8602SOL     OW26704   2.103   5.953   5.165
 8602SOL    HW126705   2.067   6.030   5.113
 8602SOL    HW226706   2.082   5.965   5.262
 8603SOL     OW26707   0.557   1.343   6.587
 8603SOL    HW126708   0.641   1.367   6.538
 8603SOL    HW226709   0.580   1.297   6.672
 8604SOL     OW26710   1.924   5.905   6.172
 8604SOL    HW126711   1.835   5.867   6.194
 8604SOL    HW226712   1.921   6.005   6.182
 8605SOL     OW26713   6.848   5.270   3.775
 8605SOL    HW126714   6.870   5.337   3.846
 8605SOL    HW226715   6.862   5.178   3.811
 8606SOL     OW26716   0.268   0.478   6.313
 8606SOL    HW126717   0.260   0.418   6.392
 8606SOL    HW226718   0.365   0.494   6.292
 8607SOL     OW26719   3.266   2.595   1.677
 8607SOL    HW126720   3.235   2.655   1.603
 8607SOL    HW226721   3.207   2.514   1.682
 8608SOL     OW26722   1.303   5.510   2.161
 8608SOL    HW126723   1.267   5.589   2.112
 8608SOL    HW226724   1.344   5.447   2.095
 8609SOL     OW26725   5.460   2.723   4.421
 8609SOL    HW126726   5.431   2.765   4.335
 8609SOL    HW226727   5.550   2.682   4.409
 8610SOL     OW26728   6.694   5.600   2.315
 8610SOL    HW126729   6.647   5.520   2.353
 8610SOL    HW226730   6.778   5.618   2.367
 8611SOL     OW26731   1.819   1.673   5.590
 8611SOL    HW126732   1.752   1.624   5.645
 8611SOL    HW226733   1.813   1.642   5.495
 8612SOL     OW26734   3.397   3.136   6.147
 8612SOL    HW126735   3.484   3.167   6.110
 8612SOL    HW226736   3.373   3.047   6.108
 8613SOL     OW26737   3.570   3.146   3.494
 8613SOL    HW126738   3.583   3.226   3.553
 8613SOL    HW226739   3.480   3.151   3.451
 8614SOL     OW26740   0.077   3.527   3.672
 8614SOL    HW126741   0.096   3.608   3.616
 8614SOL    HW226742   0.117   3.539   3.762
 8615SOL     OW26743   3.991   0.483   5.161
 8615SOL    HW126744   3.912   0.431   5.129
 8615SOL    HW226745   4.068   0.470   5.098
 8616SOL     OW26746   6.254   3.660   5.455
 8616SOL    HW126747   6.271   3.626   5.363
 8616SOL    HW226748   6.156   3.657   5.475
 8617SOL     OW26749   0.822   6.805   4.370
 8617SOL    HW126750   0.849   6.832   4.278
 8617SOL    HW226751   0.902   6.810   4.430
 8618SOL     OW26752   0.099   4.438   0.561
 8618SOL    HW126753   0.038   4.453   0.639
 8618SOL    HW226754   0.122   4.527   0.520
 8619SOL     OW26755   5.860   4.138   6.327
 8619SOL    HW126756   5.762   4.151   6.313
 8619SOL    HW226757   5.892   4.198   6.401
 8620SOL     OW26758   0.764   6.605   4.032
 8620SOL    HW126759   0.679   6.656   4.016
 8620SOL    HW226760   0.835   6.637   3.969
 8621SOL     OW26761   6.454   3.242   2.125
 8621SOL    HW126762   6.458   3.217   2.028
 8621SOL    HW226763   6.465   3.341   2.134
 8622SOL     OW26764   0.637   6.109   1.808
 8622SOL    HW126765   0.711   6.048   1.780
 8622SOL    HW226766   0.616   6.173   1.734
 8623SOL     OW26767   1.614   2.500   3.664
 8623SOL    HW126768   1.561   2.584   3.660
 8623SOL    HW226769   1.659   2.484   3.575
 8624SOL     OW26770   3.228   3.772   6.198
 8624SOL    HW126771   3.163   3.821   6.140
 8624SOL    HW226772   3.313   3.825   6.206
 8625SOL     OW26773   4.180   3.286   6.156
 8625SOL    HW126774   4.097   3.237   6.183
 8625SOL    HW226775   4.239   3.225   6.104
 8626SOL     OW26776   5.861   1.249   0.015
 8626SOL    HW126777   5.956   1.238   0.042
 8626SOL    HW226778   5.817   1.316   0.076
 8627SOL     OW26779   0.052   0.228   2.580
 8627SOL    HW126780   0.045   0.296   2.507
 8627SOL    HW226781   6.986   0.203   2.611
 8628SOL     OW26782   1.179   6.216   0.336
 8628SOL    HW126783   1.181   6.303   0.384
 8628SOL    HW226784   1.102   6.161   0.368
 8629SOL     OW26785   6.804   1.295   4.624
 8629SOL    HW126786   6.865   1.370   4.648
 8629SOL    HW226787   6.746   1.323   4.547
 8630SOL     OW26788   5.535   3.098   2.056
 8630SOL    HW126789   5.549   3.196   2.058
 8630SOL    HW226790   5.438   3.077   2.072
 8631SOL     OW26791   1.294   5.642   0.360
 8631SOL    HW126792   1.255   5.724   0.401
 8631SOL    HW226793   1.250   5.561   0.399
 8632SOL     OW26794   6.032   6.095   3.089
 8632SOL    HW126795   6.046   6.035   3.168
 8632SOL    HW226796   5.950   6.066   3.039
 8633SOL     OW26797   6.798   3.820   5.811
 8633SOL    HW126798   6.700   3.802   5.816
 8633SOL    HW226799   6.820   3.902   5.863
 8634SOL     OW26800   4.629   4.485   0.034
 8634SOL    HW126801   4.574   4.435   6.993
 8634SOL    HW226802   4.569   4.528   0.102
 8635SOL     OW26803   5.569   1.392   6.887
 8635SOL    HW126804   5.532   1.478   6.854
 8635SOL    HW226805   5.629   1.352   6.817
 8636SOL     OW26806   4.693   6.029   0.469
 8636SOL    HW126807   4.669   5.953   0.408
 8636SOL    HW226808   4.761   5.998   0.534
 8637SOL     OW26809   2.924   2.674   1.067
 8637SOL    HW126810   2.864   2.692   1.145
 8637SOL    HW226811   3.019   2.671   1.098
 8638SOL     OW26812   4.904   2.115   4.858
 8638SOL    HW126813   4.806   2.095   4.856
 8638SOL    HW226814   4.946   2.068   4.936
 8639SOL     OW26815   4.137   4.117   0.290
 8639SOL    HW126816   4.067   4.093   0.224
 8639SOL    HW226817   4.141   4.046   0.361
 8640SOL     OW26818   2.961   2.850   0.033
 8640SOL    HW126819   2.885   2.790   0.056
 8640SOL    HW226820   3.039   2.829   0.092
 8641SOL     OW26821   3.372   4.928   3.207
 8641SOL    HW126822   3.338   4.874   3.130
 8641SOL    HW226823   3.374   5.025   3.182
 8642SOL     OW26824   2.689   6.492   3.194
 8642SOL    HW126825   2.700   6.564   3.125
 8642SOL    HW226826   2.624   6.423   3.161
 8643SOL     OW26827   3.410   6.411   1.197
 8643SOL    HW126828   3.348   6.460   1.259
 8643SOL    HW226829   3.445   6.474   1.128
 8644SOL     OW26830   5.100   2.455   6.886
 8644SOL    HW126831   5.163   2.481   6.958
 8644SOL    HW226832   5.145   2.463   6.797
 8645SOL     OW26833   4.710   5.209   3.081
 8645SOL    HW126834   4.772   5.197   3.003
 8645SOL    HW226835   4.676   5.120   3.110
 8646SOL     OW26836   5.743   1.975   3.935
 8646SOL    HW126837   5.698   1.959   3.847
 8646SOL    HW226838   5.831   2.021   3.920
 8647SOL     OW26839   1.867   4.852   2.021
 8647SOL    HW126840   1.826   4.811   1.940
 8647SOL    HW226841   1.795   4.894   2.077
 8648SOL     OW26842   5.709   5.837   6.365
 8648SOL    HW126843   5.731   5.782   6.284
 8648SOL    HW226844   5.727   5.933   6.346
 8649SOL     OW26845   5.457   3.031   2.476
 8649SOL    HW126846   5.538   3.082   2.447
 8649SOL    HW226847   5.450   2.946   2.423
 8650SOL     OW26848   1.021   1.180   4.904
 8650SOL    HW126849   0.966   1.117   4.959
 8650SOL    HW226850   1.107   1.198   4.952
 8651SOL     OW26851   4.972   1.297   1.398
 8651SOL    HW126852   4.876   1.288   1.424
 8651SOL    HW226853   4.986   1.257   1.307
 8652SOL     OW26854   6.339   3.170   4.888
 8652SOL    HW126855   6.293   3.150   4.974
 8652SOL    HW226856   6.296   3.118   4.814
 8653SOL     OW26857   4.534   1.064   6.437
 8653SOL    HW126858   4.603   1.136   6.433
 8653SOL    HW226859   4.451   1.096   6.391
 8654SOL     OW26860   6.474   4.628   3.509
 8654SOL    HW126861   6.520   4.651   3.423
 8654SOL    HW226862   6.375   4.622   3.493
 8655SOL     OW26863   1.574   6.938   4.714
 8655SOL    HW126864   1.558   0.009   4.701
 8655SOL    HW226865   1.543   6.888   4.633
 8656SOL     OW26866   3.912   6.655   0.207
 8656SOL    HW126867   3.916   6.745   0.164
 8656SOL    HW226868   3.942   6.661   0.302
 8657SOL     OW26869   2.860   1.701   2.470
 8657SOL    HW126870   2.793   1.674   2.539
 8657SOL    HW226871   2.863   1.801   2.463
 8658SOL     OW26872   5.962   3.992   0.858
 8658SOL    HW126873   5.867   3.963   0.868
 8658SOL    HW226874   6.018   3.916   0.824
 8659SOL     OW26875   2.889   6.725   3.405
 8659SOL    HW126876   2.921   6.650   3.348
 8659SOL    HW226877   2.967   6.773   3.445
 8660SOL     OW26878   6.472   4.304   0.889
 8660SOL    HW126879   6.408   4.377   0.863
 8660SOL    HW226880   6.527   4.278   0.810
 8661SOL     OW26881   6.130   2.928   1.271
 8661SOL    HW126882   6.103   2.926   1.174
 8661SOL    HW226883   6.050   2.908   1.328
 8662SOL     OW26884   1.857   2.930   2.061
 8662SOL    HW126885   1.888   2.841   2.093
 8662SOL    HW226886   1.894   3.002   2.121
 8663SOL     OW26887   3.247   5.897   1.699
 8663SOL    HW126888   3.251   5.845   1.785
 8663SOL    HW226889   3.224   5.835   1.624
 8664SOL     OW26890   3.435   5.813   4.656
 8664SOL    HW126891   3.399   5.794   4.748
 8664SOL    HW226892   3.477   5.903   4.655
 8665SOL     OW26893   0.732   2.997   6.050
 8665SOL    HW126894   0.708   3.063   5.979
 8665SOL    HW226895   0.727   3.042   6.139
 8666SOL     OW26896   3.963   6.944   2.185
 8666SOL    HW126897   3.870   6.928   2.151
 8666SOL    HW226898   3.960   6.963   2.283
 8667SOL     OW26899   4.424   1.922   1.988
 8667SOL    HW126900   4.349   1.981   1.958
 8667SOL    HW226901   4.390   1.855   2.054
 8668SOL     OW26902   3.352   2.056   3.671
 8668SOL    HW126903   3.388   2.068   3.764
 8668SOL    HW226904   3.424   2.078   3.605
 8669SOL     OW26905   6.953   6.056   6.442
 8669SOL    HW126906   6.945   5.973   6.497
 8669SOL    HW226907   6.981   6.132   6.501
 8670SOL     OW26908   6.664   5.098   5.155
 8670SOL    HW126909   6.588   5.084   5.218
 8670SOL    HW226910   6.702   5.009   5.128
 8671SOL     OW26911   7.020   3.723   3.192
 8671SOL    HW126912   6.969   3.774   3.262
 8671SOL    HW226913   6.960   3.652   3.154
 8672SOL     OW26914   6.476   1.022   2.131
 8672SOL    HW126915   6.385   0.989   2.156
 8672SOL    HW226916   6.482   1.120   2.148
 8673SOL     OW26917   0.225   0.921   2.186
 8673SOL    HW126918   0.260   0.983   2.116
 8673SOL    HW226919   0.139   0.880   2.155
 8674SOL     OW26920   0.345   2.723   4.110
 8674SOL    HW126921   0.313   2.767   4.027
 8674SOL    HW226922   0.433   2.679   4.093
 8675SOL     OW26923   5.527   2.443   4.208
 8675SOL    HW126924   5.575   2.378   4.267
 8675SOL    HW226925   5.533   2.411   4.113
 8676SOL     OW26926   5.489   2.539   0.819
 8676SOL    HW126927   5.438   2.454   0.804
 8676SOL    HW226928   5.573   2.537   0.765
 8677SOL     OW26929   2.816   1.558   6.887
 8677SOL    HW126930   2.897   1.507   6.917
 8677SOL    HW226931   2.814   1.647   6.934
 8678SOL     OW26932   2.437   2.110   0.243
 8678SOL    HW126933   2.430   2.014   0.218
 8678SOL    HW226934   2.440   2.166   0.159
 8679SOL     OW26935   2.024   1.935   6.590
 8679SOL    HW126936   2.122   1.944   6.573
 8679SOL    HW226937   1.979   2.023   6.576
 8680SOL     OW26938   6.962   0.259   1.172
 8680SOL    HW126939   7.004   0.214   1.251
 8680SOL    HW226940   6.968   0.358   1.182
 8681SOL     OW26941   5.458   5.633   1.377
 8681SOL    HW126942   5.426   5.715   1.329
 8681SOL    HW226943   5.532   5.657   1.439
 8682SOL     OW26944   1.597   2.095   1.479
 8682SOL    HW126945   1.582   2.180   1.529
 8682SOL    HW226946   1.670   2.108   1.412
 8683SOL     OW26947   2.575   5.061   4.317
 8683SOL    HW126948   2.559   4.978   4.371
 8683SOL    HW226949   2.533   5.139   4.362
 8684SOL     OW26950   2.347   4.544   3.924
 8684SOL    HW126951   2.352   4.452   3.962
 8684SOL    HW226952   2.380   4.543   3.830
 8685SOL     OW26953   4.262   3.251   5.380
 8685SOL    HW126954   4.166   3.269   5.363
 8685SOL    HW226955   4.276   3.153   5.394
 8686SOL     OW26956   0.451   4.703   2.488
 8686SOL    HW126957   0.484   4.712   2.582
 8686SOL    HW226958   0.351   4.711   2.488
 8687SOL     OW26959   5.446   3.424   5.766
 8687SOL    HW126960   5.471   3.351   5.702
 8687SOL    HW226961   5.525   3.485   5.779
 8688SOL     OW26962   1.264   3.292   4.087
 8688SOL    HW126963   1.314   3.205   4.089
 8688SOL    HW226964   1.190   3.289   4.155
 8689SOL     OW26965   5.268   3.342   1.004
 8689SOL    HW126966   5.299   3.424   0.956
 8689SOL    HW226967   5.327   3.325   1.083
 8690SOL     OW26968   1.064   2.604   2.242
 8690SOL    HW126969   1.149   2.612   2.191
 8690SOL    HW226970   1.018   2.694   2.244
 8691SOL     OW26971   4.012   1.259   6.889
 8691SOL    HW126972   4.081   1.311   6.839
 8691SOL    HW226973   4.024   1.161   6.871
 8692SOL     OW26974   5.462   2.258   4.725
 8692SOL    HW126975   5.394   2.186   4.740
 8692SOL    HW226976   5.549   2.231   4.766
 8693SOL     OW26977   0.990   0.494   5.186
 8693SOL    HW126978   0.992   0.396   5.210
 8693SOL    HW226979   0.897   0.518   5.158
 8694SOL     OW26980   3.200   3.507   6.159
 8694SOL    HW126981   3.267   3.497   6.085
 8694SOL    HW226982   3.202   3.601   6.193
 8695SOL     OW26983   4.259   4.134   1.184
 8695SOL    HW126984   4.333   4.139   1.250
 8695SOL    HW226985   4.268   4.051   1.129
 8696SOL     OW26986   2.672   4.353   6.356
 8696SOL    HW126987   2.748   4.336   6.418
 8696SOL    HW226988   2.698   4.329   6.262
 8697SOL     OW26989   1.002   3.024   4.546
 8697SOL    HW126990   1.011   3.018   4.645
 8697SOL    HW226991   1.070   3.087   4.509
 8698SOL     OW26992   5.334   4.595   6.575
 8698SOL    HW126993   5.302   4.626   6.664
 8698SOL    HW226994   5.258   4.593   6.511
 8699SOL     OW26995   2.266   1.852   1.825
 8699SOL    HW126996   2.320   1.808   1.753
 8699SOL    HW226997   2.293   1.948   1.833
 8700SOL     OW26998   0.530   2.704   4.981
 8700SOL    HW126999   0.556   2.731   5.073
 8700SOL    HW227000   0.430   2.700   4.974
 8701SOL     OW27001   2.599   3.254   0.301
 8701SOL    HW127002   2.655   3.196   0.242
 8701SOL    HW227003   2.556   3.198   0.372
 8702SOL     OW27004   5.130   4.356   0.556
 8702SOL    HW127005   5.067   4.348   0.479
 8702SOL    HW227006   5.083   4.330   0.640
 8703SOL     OW27007   2.379   5.631   0.772
 8703SOL    HW127008   2.337   5.701   0.830
 8703SOL    HW227009   2.315   5.604   0.700
 8704SOL     OW27010   6.301   1.663   4.012
 8704SOL    HW127011   6.210   1.697   3.989
 8704SOL    HW227012   6.299   1.617   4.101
 8705SOL     OW27013   3.906   2.315   0.722
 8705SOL    HW127014   3.807   2.310   0.731
 8705SOL    HW227015   3.933   2.279   0.633
 8706SOL     OW27016   5.231   3.183   5.071
 8706SOL    HW127017   5.192   3.275   5.062
 8706SOL    HW227018   5.191   3.123   5.003
 8707SOL     OW27019   1.919   0.694   3.491
 8707SOL    HW127020   1.827   0.655   3.487
 8707SOL    HW227021   1.972   0.664   3.412
 8708SOL     OW27022   5.328   2.076   0.256
 8708SOL    HW127023   5.255   2.009   0.269
 8708SOL    HW227024   5.293   2.168   0.277
 8709SOL     OW27025   6.173   5.903   4.184
 8709SOL    HW127026   6.124   5.925   4.269
 8709SOL    HW227027   6.211   5.811   4.192
 8710SOL     OW27028   2.125   2.791   3.298
 8710SOL    HW127029   2.054   2.778   3.366
 8710SOL    HW227030   2.206   2.738   3.323
 8711SOL     OW27031   0.788   2.326   2.154
 8711SOL    HW127032   0.767   2.281   2.241
 8711SOL    HW227033   0.878   2.298   2.122
 8712SOL     OW27034   1.377   4.003   4.298
 8712SOL    HW127035   1.414   4.055   4.220
 8712SOL    HW227036   1.286   4.036   4.320
 8713SOL     OW27037   0.677   4.556   4.575
 8713SOL    HW127038   0.710   4.480   4.631
 8713SOL    HW227039   0.747   4.628   4.573
 8714SOL     OW27040   1.324   3.905   6.177
 8714SOL    HW127041   1.352   3.843   6.104
 8714SOL    HW227042   1.361   3.874   6.264
 8715SOL     OW27043   2.246   5.068   1.362
 8715SOL    HW127044   2.282   5.060   1.455
 8715SOL    HW227045   2.169   5.132   1.362
 8716SOL     OW27046   5.289   6.960   2.948
 8716SOL    HW127047   5.249   6.929   2.862
 8716SOL    HW227048   5.310   6.881   3.006
 8717SOL     OW27049   4.645   1.670   6.547
 8717SOL    HW127050   4.710   1.606   6.589
 8717SOL    HW227051   4.585   1.621   6.485
 8718SOL     OW27052   2.686   5.410   6.161
 8718SOL    HW127053   2.675   5.505   6.129
 8718SOL    HW227054   2.730   5.410   6.251
 8719SOL     OW27055   3.026   1.961   4.498
 8719SOL    HW127056   3.022   2.052   4.457
 8719SOL    HW227057   3.042   1.893   4.427
 8720SOL     OW27058   0.096   6.774   5.301
 8720SOL    HW127059   0.033   6.851   5.291
 8720SOL    HW227060   0.172   6.783   5.238
 8721SOL     OW27061   0.253   0.637   1.802
 8721SOL    HW127062   0.276   0.670   1.893
 8721SOL    HW227063   0.155   0.644   1.787
 8722SOL     OW27064   3.845   1.025   0.509
 8722SOL    HW127065   3.865   0.943   0.455
 8722SOL    HW227066   3.787   1.000   0.586
 8723SOL     OW27067   3.003   6.223   3.294
 8723SOL    HW127068   2.946   6.195   3.371
 8723SOL    HW227069   2.987   6.319   3.273
 8724SOL     OW27070   5.798   0.087   5.277
 8724SOL    HW127071   5.771   0.139   5.195
 8724SOL    HW227072   5.797   7.015   5.255
 8725SOL     OW27073   6.957   0.749   2.688
 8725SOL    HW127074   6.879   0.744   2.751
 8725SOL    HW227075   6.971   0.660   2.645
 8726SOL     OW27076   6.571   0.188   1.064
 8726SOL    HW127077   6.665   0.156   1.072
 8726SOL    HW227078   6.530   0.196   1.155
 8727SOL     OW27079   5.042   5.083   6.081
 8727SOL    HW127080   4.985   5.165   6.089
 8727SOL    HW227081   5.061   5.047   6.172
 8728SOL     OW27082   5.059   6.967   3.967
 8728SOL    HW127083   5.096   6.925   4.051
 8728SOL    HW227084   5.125   0.007   3.931
 8729SOL     OW27085   5.619   5.612   6.095
 8729SOL    HW127086   5.599   5.579   6.187
 8729SOL    HW227087   5.679   5.546   6.049
 8730SOL     OW27088   4.108   4.726   1.879
 8730SOL    HW127089   4.136   4.723   1.783
 8730SOL    HW227090   4.140   4.644   1.925
 8731SOL     OW27091   0.245   2.827   3.833
 8731SOL    HW127092   0.225   2.734   3.800
 8731SOL    HW227093   0.325   2.862   3.785
 8732SOL     OW27094   5.234   6.570   5.779
 8732SOL    HW127095   5.234   6.474   5.751
 8732SOL    HW227096   5.216   6.576   5.877
 8733SOL     OW27097   5.890   3.869   2.177
 8733SOL    HW127098   5.817   3.857   2.110
 8733SOL    HW227099   5.924   3.963   2.172
 8734SOL     OW27100   6.984   6.535   1.246
 8734SOL    HW127101   6.974   6.611   1.311
 8734SOL    HW227102   6.976   6.570   1.153
 8735SOL     OW27103   1.632   2.097   6.732
 8735SOL    HW127104   1.603   2.004   6.711
 8735SOL    HW227105   1.570   2.136   6.801
 8736SOL     OW27106   0.501   6.330   3.557
 8736SOL    HW127107   0.493   6.231   3.571
 8736SOL    HW227108   0.582   6.363   3.604
 8737SOL     OW27109   0.700   5.543   6.527
 8737SOL    HW127110   0.652   5.573   6.445
 8737SOL    HW227111   0.660   5.586   6.608
 8738SOL     OW27112   1.521   2.059   2.309
 8738SOL    HW127113   1.458   1.988   2.340
 8738SOL    HW227114   1.608   2.049   2.358
 8739SOL     OW27115   4.780   5.104   3.592
 8739SOL    HW127116   4.744   5.017   3.628
 8739SOL    HW227117   4.878   5.095   3.574
 8740SOL     OW27118   2.098   0.594   3.279
 8740SOL    HW127119   2.067   0.557   3.192
 8740SOL    HW227120   2.184   0.549   3.306
 8741SOL     OW27121   1.822   2.525   2.524
 8741SOL    HW127122   1.879   2.452   2.562
 8741SOL    HW227123   1.726   2.504   2.540
 8742SOL     OW27124   1.522   3.527   0.393
 8742SOL    HW127125   1.453   3.466   0.433
 8742SOL    HW227126   1.561   3.585   0.465
 8743SOL     OW27127   2.049   3.083   0.627
 8743SOL    HW127128   2.118   3.012   0.641
 8743SOL    HW227129   1.972   3.068   0.689
 8744SOL     OW27130   3.033   4.093   5.589
 8744SOL    HW127131   3.043   4.171   5.650
 8744SOL    HW227132   3.001   4.013   5.640
 8745SOL     OW27133   5.454   0.979   7.015
 8745SOL    HW127134   5.446   1.052   0.056
 8745SOL    HW227135   5.496   1.015   6.931
 8746SOL     OW27136   4.322   4.713   4.552
 8746SOL    HW127137   4.380   4.670   4.620
 8746SOL    HW227138   4.334   4.813   4.555
 8747SOL     OW27139   6.881   6.819   1.250
 8747SOL    HW127140   6.811   6.864   1.194
 8747SOL    HW227141   6.839   6.782   1.333
 8748SOL     OW27142   5.922   2.064   5.013
 8748SOL    HW127143   5.868   1.980   5.012
 8748SOL    HW227144   6.017   2.044   5.037
 8749SOL     OW27145   1.865   1.383   4.144
 8749SOL    HW127146   1.815   1.312   4.094
 8749SOL    HW227147   1.942   1.415   4.088
 8750SOL     OW27148   3.819   4.060   2.458
 8750SOL    HW127149   3.835   4.049   2.360
 8750SOL    HW227150   3.844   3.975   2.506
 8751SOL     OW27151   1.389   6.612   6.882
 8751SOL    HW127152   1.404   6.655   6.971
 8751SOL    HW227153   1.417   6.675   6.810
 8752SOL     OW27154   1.615   2.510   6.574
 8752SOL    HW127155   1.549   2.560   6.630
 8752SOL    HW227156   1.698   2.492   6.628
 8753SOL     OW27157   2.466   1.759   1.177
 8753SOL    HW127158   2.390   1.794   1.231
 8753SOL    HW227159   2.478   1.815   1.096
 8754SOL     OW27160   1.702   6.151   6.813
 8754SOL    HW127161   1.791   6.156   6.859
 8754SOL    HW227162   1.713   6.102   6.726
 8755SOL     OW27163   6.442   1.248   1.878
 8755SOL    HW127164   6.346   1.256   1.852
 8755SOL    HW227165   6.485   1.175   1.823
 8756SOL     OW27166   1.669   1.173   2.479
 8756SOL    HW127167   1.734   1.164   2.404
 8756SOL    HW227168   1.582   1.206   2.444
 8757SOL     OW27169   5.489   5.417   5.709
 8757SOL    HW127170   5.455   5.510   5.726
 8757SOL    HW227171   5.412   5.357   5.689
 8758SOL     OW27172   3.827   5.076   6.300
 8758SOL    HW127173   3.846   4.983   6.331
 8758SOL    HW227174   3.801   5.132   6.379
 8759SOL     OW27175   6.676   0.963   1.572
 8759SOL    HW127176   6.590   0.989   1.528
 8759SOL    HW227177   6.731   1.045   1.588
 8760SOL     OW27178   1.435   2.092   4.299
 8760SOL    HW127179   1.458   2.067   4.204
 8760SOL    HW227180   1.358   2.156   4.299
 8761SOL     OW27181   5.074   2.307   4.406
 8761SOL    HW127182   5.147   2.356   4.453
 8761SOL    HW227183   5.007   2.275   4.473
 8762SOL     OW27184   3.983   6.452   2.534
 8762SOL    HW127185   4.022   6.421   2.447
 8762SOL    HW227186   3.934   6.538   2.519
 8763SOL     OW27187   6.740   1.797   5.692
 8763SOL    HW127188   6.779   1.766   5.779
 8763SOL    HW227189   6.812   1.836   5.635
 8764SOL     OW27190   2.213   5.599   6.064
 8764SOL    HW127191   2.219   5.544   5.981
 8764SOL    HW227192   2.183   5.691   6.041
 8765SOL     OW27193   4.824   0.360   3.261
 8765SOL    HW127194   4.806   0.303   3.341
 8765SOL    HW227195   4.920   0.352   3.236
 8766SOL     OW27196   6.511   0.553   5.180
 8766SOL    HW127197   6.550   0.644   5.165
 8766SOL    HW227198   6.488   0.512   5.092
 8767SOL     OW27199   2.012   1.265   4.868
 8767SOL    HW127200   2.081   1.334   4.891
 8767SOL    HW227201   2.016   1.191   4.935
 8768SOL     OW27202   0.166   2.322   0.493
 8768SOL    HW127203   0.204   2.237   0.531
 8768SOL    HW227204   0.193   2.399   0.551
 8769SOL     OW27205   6.999   0.593   6.826
 8769SOL    HW127206   6.962   0.638   6.907
 8769SOL    HW227207   0.071   0.580   6.837
 8770SOL     OW27208   4.294   1.697   0.927
 8770SOL    HW127209   4.331   1.656   1.010
 8770SOL    HW227210   4.230   1.770   0.952
 8771SOL     OW27211   1.183   2.729   6.913
 8771SOL    HW127212   1.191   2.826   6.892
 8771SOL    HW227213   1.089   2.708   6.939
 8772SOL     OW27214   6.851   6.996   3.659
 8772SOL    HW127215   6.869   6.950   3.746
 8772SOL    HW227216   6.767   0.024   3.667
 8773SOL     OW27217   6.138   1.815   4.225
 8773SOL    HW127218   6.079   1.768   4.159
 8773SOL    HW227219   6.098   1.808   4.317
 8774SOL     OW27220   0.868   2.155   6.554
 8774SOL    HW127221   0.944   2.093   6.576
 8774SOL    HW227222   0.791   2.102   6.521
 8775SOL     OW27223   4.442   1.929   2.362
 8775SOL    HW127224   4.424   1.983   2.280
 8775SOL    HW227225   4.371   1.947   2.430
 8776SOL     OW27226   5.959   3.086   0.836
 8776SOL    HW127227   6.044   3.137   0.850
 8776SOL    HW227228   5.900   3.137   0.773
 8777SOL     OW27229   6.694   2.363   4.075
 8777SOL    HW127230   6.694   2.268   4.044
 8777SOL    HW227231   6.774   2.410   4.037
 8778SOL     OW27232   1.887   4.513   5.518
 8778SOL    HW127233   1.805   4.511   5.461
 8778SOL    HW227234   1.928   4.422   5.521
 8779SOL     OW27235   3.110   6.831   3.542
 8779SOL    HW127236   3.125   6.800   3.636
 8779SOL    HW227237   3.198   6.858   3.501
 8780SOL     OW27238   0.988   3.210   4.131
 8780SOL    HW127239   1.019   3.117   4.153
 8780SOL    HW227240   0.894   3.222   4.163
 8781SOL     OW27241   3.855   0.871   2.449
 8781SOL    HW127242   3.766   0.841   2.414
 8781SOL    HW227243   3.842   0.920   2.535
 8782SOL     OW27244   0.494   2.745   0.230
 8782SOL    HW127245   0.574   2.790   0.270
 8782SOL    HW227246   0.509   2.646   0.229
 8783SOL     OW27247   3.437   4.113   6.639
 8783SOL    HW127248   3.507   4.130   6.708
 8783SOL    HW227249   3.480   4.071   6.558
 8784SOL     OW27250   4.561   1.974   5.902
 8784SOL    HW127251   4.482   1.981   5.963
 8784SOL    HW227252   4.565   1.882   5.863
 8785SOL     OW27253   6.617   0.110   5.901
 8785SOL    HW127254   6.536   0.146   5.948
 8785SOL    HW227255   6.670   0.186   5.864
 8786SOL     OW27256   4.734   1.978   3.145
 8786SOL    HW127257   4.767   1.895   3.101
 8786SOL    HW227258   4.650   1.958   3.195
 8787SOL     OW27259   3.102   5.946   2.453
 8787SOL    HW127260   3.075   5.851   2.470
 8787SOL    HW227261   3.111   5.994   2.540
 8788SOL     OW27262   6.653   0.332   3.482
 8788SOL    HW127263   6.681   0.305   3.574
 8788SOL    HW227264   6.678   0.260   3.417
 8789SOL     OW27265   2.232   3.839   0.097
 8789SOL    HW127266   2.306   3.781   0.130
 8789SOL    HW227267   2.157   3.839   0.164
 8790SOL     OW27268   5.154   3.443   5.111
 8790SOL    HW127269   5.238   3.471   5.159
 8790SOL    HW227270   5.074   3.469   5.165
 8791SOL     OW27271   3.582   6.797   5.270
 8791SOL    HW127272   3.537   6.807   5.181
 8791SOL    HW227273   3.647   6.721   5.266
 8792SOL     OW27274   5.007   4.341   0.802
 8792SOL    HW127275   4.983   4.415   0.864
 8792SOL    HW227276   4.935   4.272   0.802
 8793SOL     OW27277   6.582   0.808   5.149
 8793SOL    HW127278   6.639   0.889   5.134
 8793SOL    HW227279   6.494   0.837   5.188
 8794SOL     OW27280   1.297   3.343   2.913
 8794SOL    HW127281   1.219   3.359   2.973
 8794SOL    HW227282   1.380   3.379   2.956
 8795SOL     OW27283   1.749   0.362   6.538
 8795SOL    HW127284   1.682   0.318   6.598
 8795SOL    HW227285   1.722   0.457   6.521
 8796SOL     OW27286   5.955   5.198   3.807
 8796SOL    HW127287   5.989   5.291   3.798
 8796SOL    HW227288   5.856   5.197   3.794
 8797SOL     OW27289   5.961   5.374   6.001
 8797SOL    HW127290   5.880   5.377   5.942
 8797SOL    HW227291   5.957   5.293   6.060
 8798SOL     OW27292   2.118   4.762   0.358
 8798SOL    HW127293   2.217   4.762   0.374
 8798SOL    HW227294   2.101   4.763   0.259
 8799SOL     OW27295   0.464   5.779   2.301
 8799SOL    HW127296   0.442   5.859   2.356
 8799SOL    HW227297   0.390   5.761   2.236
 8800SOL     OW27298   6.899   6.614   4.715
 8800SOL    HW127299   6.945   6.603   4.627
 8800SOL    HW227300   6.963   6.651   4.782
 8801SOL     OW27301   5.890   3.064   5.833
 8801SOL    HW127302   5.982   3.093   5.856
 8801SOL    HW227303   5.823   3.119   5.883
 8802SOL     OW27304   1.120   6.626   6.826
 8802SOL    HW127305   1.213   6.637   6.859
 8802SOL    HW227306   1.120   6.575   6.741
 8803SOL     OW27307   4.589   5.058   4.988
 8803SOL    HW127308   4.505   5.074   4.936
 8803SOL    HW227309   4.660   5.121   4.956
 8804SOL     OW27310   2.052   6.041   1.254
 8804SOL    HW127311   2.089   5.954   1.287
 8804SOL    HW227312   2.092   6.062   1.164
 8805SOL     OW27313   5.022   5.199   0.949
 8805SOL    HW127314   4.927   5.209   0.918
 8805SOL    HW227315   5.034   5.108   0.988
 8806SOL     OW27316   1.762   1.120   2.214
 8806SOL    HW127317   1.760   1.020   2.208
 8806SOL    HW227318   1.687   1.158   2.161
 8807SOL     OW27319   5.259   0.963   1.673
 8807SOL    HW127320   5.302   1.043   1.632
 8807SOL    HW227321   5.231   0.899   1.601
 8808SOL     OW27322   1.973   1.593   0.960
 8808SOL    HW127323   1.934   1.658   0.895
 8808SOL    HW227324   1.954   1.623   1.054
 8809SOL     OW27325   1.447   3.540   2.549
 8809SOL    HW127326   1.494   3.453   2.566
 8809SOL    HW227327   1.511   3.605   2.510
 8810SOL     OW27328   6.512   2.408   3.420
 8810SOL    HW127329   6.518   2.503   3.387
 8810SOL    HW227330   6.588   2.355   3.383
 8811SOL     OW27331   3.596   6.233   2.513
 8811SOL    HW127332   3.557   6.168   2.578
 8811SOL    HW227333   3.696   6.225   2.514
 8812SOL     OW27334   5.645   0.457   0.081
 8812SOL    HW127335   5.700   0.536   0.055
 8812SOL    HW227336   5.608   0.470   0.173
 8813SOL     OW27337   1.531   2.423   1.122
 8813SOL    HW127338   1.601   2.439   1.053
 8813SOL    HW227339   1.486   2.335   1.104
 8814SOL     OW27340   5.904   0.618   4.416
 8814SOL    HW127341   5.852   0.536   4.442
 8814SOL    HW227342   6.002   0.596   4.416
 8815SOL     OW27343   4.821   0.739   1.365
 8815SOL    HW127344   4.768   0.785   1.293
 8815SOL    HW227345   4.762   0.680   1.419
 8816SOL     OW27346   6.802   1.382   2.740
 8816SOL    HW127347   6.780   1.405   2.834
 8816SOL    HW227348   6.764   1.293   2.717
 8817SOL     OW27349   0.905   2.112   4.254
 8817SOL    HW127350   0.859   2.044   4.198
 8817SOL    HW227351   0.861   2.118   4.344
 8818SOL     OW27352   1.406   5.581   6.581
 8818SOL    HW127353   1.497   5.595   6.620
 8818SOL    HW227354   1.337   5.623   6.639
 8819SOL     OW27355   5.530   5.934   7.023
 8819SOL    HW127356   5.567   6.025   7.005
 8819SOL    HW227357   5.525   5.919   0.095
 8820SOL     OW27358   3.852   6.666   5.593
 8820SOL    HW127359   3.770   6.700   5.638
 8820SOL    HW227360   3.877   6.728   5.518
 8821SOL     OW27361   1.511   5.249   5.563
 8821SOL    HW127362   1.568   5.325   5.593
 8821SOL    HW227363   1.566   5.184   5.510
 8822SOL     OW27364   0.099   1.006   5.289
 8822SOL    HW127365   0.115   0.961   5.378
 8822SOL    HW227366   0.072   0.937   5.222
 8823SOL     OW27367   4.376   2.407   3.237
 8823SOL    HW127368   4.450   2.467   3.267
 8823SOL    HW227369   4.400   2.363   3.151
 8824SOL     OW27370   1.311   0.533   3.234
 8824SOL    HW127371   1.358   0.485   3.159
 8824SOL    HW227372   1.212   0.530   3.217
 8825SOL     OW27373   1.454   6.317   6.738
 8825SOL    HW127374   1.549   6.289   6.753
 8825SOL    HW227375   1.410   6.334   6.826
 8826SOL     OW27376   1.218   2.772   6.622
 8826SOL    HW127377   1.218   2.690   6.565
 8826SOL    HW227378   1.138   2.771   6.682
 8827SOL     OW27379   5.096   6.119   4.142
 8827SOL    HW127380   5.147   6.144   4.059
 8827SOL    HW227381   5.110   6.190   4.212
 8828SOL     OW27382   5.156   2.651   5.860
 8828SOL    HW127383   5.146   2.715   5.936
 8828SOL    HW227384   5.095   2.574   5.873
 8829SOL     OW27385   6.320   0.575   2.905
 8829SOL    HW127386   6.262   0.617   2.975
 8829SOL    HW227387   6.402   0.538   2.947
 8830SOL     OW27388   2.534   2.090   2.824
 8830SOL    HW127389   2.581   2.010   2.860
 8830SOL    HW227390   2.435   2.078   2.832
 8831SOL     OW27391   0.731   2.652   2.578
 8831SOL    HW127392   0.783   2.689   2.501
 8831SOL    HW227393   0.652   2.602   2.544
 8832SOL     OW27394   6.269   0.064   5.127
 8832SOL    HW127395   6.228   0.073   5.218
 8832SOL    HW227396   6.358   0.019   5.135
 8833SOL     OW27397   5.020   2.611   1.324
 8833SOL    HW127398   5.109   2.630   1.365
 8833SOL    HW227399   5.028   2.534   1.261
 8834SOL     OW27400   6.433   4.164   5.662
 8834SOL    HW127401   6.479   4.253   5.668
 8834SOL    HW227402   6.489   4.102   5.607
 8835SOL     OW27403   6.311   1.518   5.374
 8835SOL    HW127404   6.235   1.578   5.348
 8835SOL    HW227405   6.355   1.483   5.292
 8836SOL     OW27406   4.252   1.391   0.013
 8836SOL    HW127407   4.313   1.415   0.088
 8836SOL    HW227408   4.195   1.470   7.016
 8837SOL     OW27409   5.544   5.265   1.255
 8837SOL    HW127410   5.638   5.284   1.229
 8837SOL    HW227411   5.519   5.173   1.226
 8838SOL     OW27412   0.971   2.676   1.939
 8838SOL    HW127413   0.882   2.637   1.916
 8838SOL    HW227414   1.040   2.604   1.942
 8839SOL     OW27415   4.969   4.524   1.925
 8839SOL    HW127416   4.898   4.480   1.980
 8839SOL    HW227417   4.928   4.591   1.864
 8840SOL     OW27418   0.247   6.591   1.217
 8840SOL    HW127419   0.203   6.669   1.261
 8840SOL    HW227420   0.304   6.543   1.283
 8841SOL     OW27421   5.118   2.103   0.543
 8841SOL    HW127422   5.047   2.079   0.608
 8841SOL    HW227423   5.205   2.064   0.573
 8842SOL     OW27424   3.250   3.239   3.242
 8842SOL    HW127425   3.214   3.274   3.328
 8842SOL    HW227426   3.295   3.314   3.192
 8843SOL     OW27427   2.503   6.252   5.234
 8843SOL    HW127428   2.534   6.246   5.329
 8843SOL    HW227429   2.574   6.295   5.179
 8844SOL     OW27430   3.987   2.589   5.388
 8844SOL    HW127431   4.052   2.551   5.321
 8844SOL    HW227432   3.972   2.523   5.461
 8845SOL     OW27433   0.406   3.724   2.669
 8845SOL    HW127434   0.404   3.759   2.575
 8845SOL    HW227435   0.500   3.711   2.698
 8846SOL     OW27436   5.287   5.294   3.893
 8846SOL    HW127437   5.296   5.196   3.880
 8846SOL    HW227438   5.256   5.313   3.986
 8847SOL     OW27439   1.133   3.529   3.580
 8847SOL    HW127440   1.092   3.445   3.615
 8847SOL    HW227441   1.060   3.591   3.550
 8848SOL     OW27442   6.099   2.726   1.729
 8848SOL    HW127443   6.016   2.673   1.745
 8848SOL    HW227444   6.078   2.801   1.665
 8849SOL     OW27445   3.671   5.286   4.681
 8849SOL    HW127446   3.654   5.253   4.773
 8849SOL    HW227447   3.681   5.386   4.682
 8850SOL     OW27448   4.836   1.658   1.033
 8850SOL    HW127449   4.935   1.668   1.041
 8850SOL    HW227450   4.792   1.697   1.114
 8851SOL     OW27451   6.653   5.070   3.427
 8851SOL    HW127452   6.568   5.060   3.479
 8851SOL    HW227453   6.730   5.080   3.491
 8852SOL     OW27454   5.948   4.549   4.560
 8852SOL    HW127455   5.894   4.631   4.575
 8852SOL    HW227456   6.037   4.559   4.605
 8853SOL     OW27457   4.483   1.526   4.433
 8853SOL    HW127458   4.563   1.581   4.459
 8853SOL    HW227459   4.402   1.560   4.480
 8854SOL     OW27460   2.687   0.428   6.709
 8854SOL    HW127461   2.726   0.351   6.658
 8854SOL    HW227462   2.591   0.440   6.683
 8855SOL     OW27463   6.725   4.496   5.999
 8855SOL    HW127464   6.657   4.479   6.071
 8855SOL    HW227465   6.761   4.409   5.965
 8856SOL     OW27466   5.131   1.835   5.956
 8856SOL    HW127467   5.146   1.741   5.928
 8856SOL    HW227468   5.206   1.892   5.922
 8857SOL     OW27469   1.589   3.469   4.237
 8857SOL    HW127470   1.558   3.382   4.199
 8857SOL    HW227471   1.572   3.470   4.336
 8858SOL     OW27472   1.399   3.544   5.655
 8858SOL    HW127473   1.497   3.564   5.653
 8858SOL    HW227474   1.385   3.446   5.642
 8859SOL     OW27475   2.777   5.207   4.808
 8859SOL    HW127476   2.716   5.128   4.806
 8859SOL    HW227477   2.739   5.281   4.753
 8860SOL     OW27478   2.515   0.969   1.662
 8860SOL    HW127479   2.442   0.919   1.708
 8860SOL    HW227480   2.536   1.052   1.713
 8861SOL     OW27481   2.400   1.030   0.055
 8861SOL    HW127482   2.439   1.083   0.131
 8861SOL    HW227483   2.418   0.933   0.070
 8862SOL     OW27484   0.480   3.768   3.935
 8862SOL    HW127485   0.449   3.722   3.852
 8862SOL    HW227486   0.461   3.866   3.928
 8863SOL     OW27487   1.798   5.798   5.321
 8863SOL    HW127488   1.730   5.737   5.361
 8863SOL    HW227489   1.829   5.762   5.233
 8864SOL     OW27490   2.123   3.927   5.154
 8864SOL    HW127491   2.132   3.835   5.117
 8864SOL    HW227492   2.208   3.977   5.139
 8865SOL     OW27493   2.911   2.141   5.792
 8865SOL    HW127494   2.965   2.190   5.724
 8865SOL    HW227495   2.871   2.207   5.856
 8866SOL     OW27496   5.765   0.274   5.463
 8866SOL    HW127497   5.852   0.287   5.510
 8866SOL    HW227498   5.768   0.191   5.408
 8867SOL     OW27499   5.315   1.012   2.981
 8867SOL    HW127500   5.413   1.023   2.995
 8867SOL    HW227501   5.294   1.014   2.883
 8868SOL     OW27502   6.246   2.871   0.734
 8868SOL    HW127503   6.336   2.857   0.693
 8868SOL    HW227504   6.175   2.869   0.663
 8869SOL     OW27505   1.376   1.546   4.024
 8869SOL    HW127506   1.448   1.507   4.082
 8869SOL    HW227507   1.394   1.643   4.010
 8870SOL     OW27508   3.354   6.302   1.593
 8870SOL    HW127509   3.358   6.267   1.687
 8870SOL    HW227510   3.382   6.231   1.529
 8871SOL     OW27511   1.028   2.351   3.944
 8871SOL    HW127512   1.011   2.437   3.898
 8871SOL    HW227513   0.943   2.300   3.953
 8872SOL     OW27514   1.176   1.176   2.649
 8872SOL    HW127515   1.084   1.153   2.617
 8872SOL    HW227516   1.171   1.210   2.743
 8873SOL     OW27517   0.227   6.054   4.869
 8873SOL    HW127518   0.145   5.997   4.864
 8873SOL    HW227519   0.290   6.017   4.937
 8874SOL     OW27520   0.803   0.955   6.029
 8874SOL    HW127521   0.706   0.935   6.038
 8874SOL    HW227522   0.820   1.050   6.055
 8875SOL     OW27523   1.259   0.929   4.245
 8875SOL    HW127524   1.298   0.900   4.157
 8875SOL    HW227525   1.165   0.960   4.232
 8876SOL     OW27526   3.242   1.093   4.405
 8876SOL    HW127527   3.184   1.174   4.407
 8876SOL    HW227528   3.224   1.041   4.322
 8877SOL     OW27529   2.457   6.544   5.888
 8877SOL    HW127530   2.493   6.471   5.945
 8877SOL    HW227531   2.381   6.509   5.832
 8878SOL     OW27532   5.731   4.320   5.532
 8878SOL    HW127533   5.784   4.405   5.540
 8878SOL    HW227534   5.740   4.284   5.439
 8879SOL     OW27535   6.077   5.950   4.440
 8879SOL    HW127536   6.100   5.865   4.488
 8879SOL    HW227537   6.120   6.027   4.487
 8880SOL     OW27538   1.300   0.077   5.074
 8880SOL    HW127539   1.269   7.010   5.055
 8880SOL    HW227540   1.262   0.139   5.005
 8881SOL     OW27541   6.170   1.364   1.805
 8881SOL    HW127542   6.082   1.338   1.765
 8881SOL    HW227543   6.173   1.464   1.816
 8882SOL     OW27544   5.135   1.572   6.992
 8882SOL    HW127545   5.097   1.664   6.990
 8882SOL    HW227546   5.221   1.572   0.015
 8883SOL     OW27547   6.032   1.609   5.679
 8883SOL    HW127548   5.980   1.588   5.762
 8883SOL    HW227549   5.969   1.633   5.605
 8884SOL     OW27550   0.788   1.430   6.469
 8884SOL    HW127551   0.804   1.377   6.386
 8884SOL    HW227552   0.872   1.432   6.524
 8885SOL     OW27553   5.780   3.730   1.633
 8885SOL    HW127554   5.870   3.722   1.676
 8885SOL    HW227555   5.791   3.740   1.535
 8886SOL     OW27556   3.419   6.392   6.044
 8886SOL    HW127557   3.504   6.381   6.096
 8886SOL    HW227558   3.358   6.454   6.094
 8887SOL     OW27559   1.731   1.306   0.169
 8887SOL    HW127560   1.738   1.242   0.245
 8887SOL    HW227561   1.637   1.339   0.162
 8888SOL     OW27562   1.629   2.005   2.992
 8888SOL    HW127563   1.578   2.091   2.999
 8888SOL    HW227564   1.565   1.929   3.001
 8889SOL     OW27565   3.151   0.766   5.636
 8889SOL    HW127566   3.104   0.704   5.572
 8889SOL    HW227567   3.097   0.773   5.720
 8890SOL     OW27568   6.458   5.666   3.079
 8890SOL    HW127569   6.400   5.736   3.122
 8890SOL    HW227570   6.402   5.586   3.058
 8891SOL     OW27571   3.363   2.322   6.313
 8891SOL    HW127572   3.438   2.255   6.315
 8891SOL    HW227573   3.289   2.291   6.372
 8892SOL     OW27574   1.036   0.513   3.730
 8892SOL    HW127575   0.941   0.521   3.699
 8892SOL    HW227576   1.095   0.492   3.652
 8893SOL     OW27577   0.073   0.467   0.735
 8893SOL    HW127578   0.171   0.452   0.719
 8893SOL    HW227579   0.049   0.561   0.709
 8894SOL     OW27580   5.106   3.119   5.306
 8894SOL    HW127581   5.092   3.021   5.314
 8894SOL    HW227582   5.132   3.142   5.212
 8895SOL     OW27583   1.171   1.302   3.647
 8895SOL    HW127584   1.188   1.336   3.555
 8895SOL    HW227585   1.131   1.375   3.703
 8896SOL     OW27586   1.695   3.758   4.364
 8896SOL    HW127587   1.749   3.772   4.281
 8896SOL    HW227588   1.599   3.745   4.340
 8897SOL     OW27589   0.737   2.008   2.031
 8897SOL    HW127590   0.796   2.043   1.958
 8897SOL    HW227591   0.642   2.029   2.011
 8898SOL     OW27592   0.993   2.240   5.311
 8898SOL    HW127593   1.074   2.259   5.256
 8898SOL    HW227594   0.912   2.277   5.265
 8899SOL     OW27595   4.028   6.999   3.111
 8899SOL    HW127596   4.089   6.923   3.133
 8899SOL    HW227597   3.939   6.964   3.083
 8900SOL     OW27598   6.249   1.626   3.640
 8900SOL    HW127599   6.196   1.569   3.703
 8900SOL    HW227600   6.217   1.721   3.647
 8901SOL     OW27601   1.182   0.013   2.144
 8901SOL    HW127602   1.186   0.008   2.045
 8901SOL    HW227603   1.172   0.108   2.173
 8902SOL     OW27604   4.138   6.589   5.619
 8902SOL    HW127605   4.040   6.608   5.627
 8902SOL    HW227606   4.158   6.553   5.528
 8903SOL     OW27607   6.335   1.445   2.933
 8903SOL    HW127608   6.257   1.385   2.950
 8903SOL    HW227609   6.327   1.486   2.842
 8904SOL     OW27610   2.236   4.328   4.103
 8904SOL    HW127611   2.238   4.234   4.070
 8904SOL    HW227612   2.178   4.383   4.042
 8905SOL     OW27613   2.075   4.377   4.875
 8905SOL    HW127614   2.140   4.337   4.810
 8905SOL    HW227615   2.101   4.349   4.968
 8906SOL     OW27616   1.429   4.859   4.241
 8906SOL    HW127617   1.470   4.894   4.157
 8906SOL    HW227618   1.345   4.810   4.219
 8907SOL     OW27619   3.995   2.831   6.632
 8907SOL    HW127620   4.055   2.906   6.606
 8907SOL    HW227621   3.904   2.846   6.592
 8908SOL     OW27622   1.005   3.367   3.045
 8908SOL    HW127623   1.029   3.461   3.021
 8908SOL    HW227624   0.954   3.326   2.969
 8909SOL     OW27625   3.336   6.756   4.544
 8909SOL    HW127626   3.289   6.760   4.632
 8909SOL    HW227627   3.395   6.836   4.533
 8910SOL     OW27628   4.266   2.936   0.131
 8910SOL    HW127629   4.238   2.859   0.189
 8910SOL    HW227630   4.260   2.909   0.035
 8911SOL     OW27631   5.284   3.761   4.504
 8911SOL    HW127632   5.353   3.788   4.437
 8911SOL    HW227633   5.233   3.843   4.533
 8912SOL     OW27634   3.943   0.726   0.078
 8912SOL    HW127635   3.932   0.677   7.017
 8912SOL    HW227636   4.040   0.734   0.100
 8913SOL     OW27637   3.927   3.703   1.493
 8913SOL    HW127638   3.866   3.762   1.547
 8913SOL    HW227639   3.989   3.655   1.555
 8914SOL     OW27640   5.713   4.256   3.158
 8914SOL    HW127641   5.796   4.264   3.213
 8914SOL    HW227642   5.640   4.308   3.202
 8915SOL     OW27643   1.283   5.735   1.729
 8915SOL    HW127644   1.216   5.782   1.785
 8915SOL    HW227645   1.366   5.720   1.782
 8916SOL     OW27646   5.511   2.269   1.195
 8916SOL    HW127647   5.451   2.291   1.118
 8916SOL    HW227648   5.458   2.267   1.279
 8917SOL     OW27649   5.851   3.960   6.002
 8917SOL    HW127650   5.900   4.046   6.018
 8917SOL    HW227651   5.840   3.946   5.904
 8918SOL     OW27652   5.381   4.961   5.520
 8918SOL    HW127653   5.404   4.892   5.451
 8918SOL    HW227654   5.306   5.017   5.487
 8919SOL     OW27655   1.956   3.185   1.075
 8919SOL    HW127656   1.915   3.094   1.071
 8919SOL    HW227657   1.928   3.231   1.159
 8920SOL     OW27658   5.750   5.757   5.535
 8920SOL    HW127659   5.808   5.676   5.533
 8920SOL    HW227660   5.727   5.780   5.630
 8921SOL     OW27661   0.472   5.438   3.275
 8921SOL    HW127662   0.555   5.395   3.310
 8921SOL    HW227663   0.483   5.458   3.178
 8922SOL     OW27664   1.437   2.853   0.582
 8922SOL    HW127665   1.421   2.829   0.486
 8922SOL    HW227666   1.352   2.843   0.633
 8923SOL     OW27667   2.036   5.363   3.961
 8923SOL    HW127668   2.010   5.282   3.909
 8923SOL    HW227669   1.982   5.367   4.045
 8924SOL     OW27670   1.820   6.150   4.406
 8924SOL    HW127671   1.729   6.184   4.430
 8924SOL    HW227672   1.888   6.220   4.426
 8925SOL     OW27673   4.552   5.503   1.364
 8925SOL    HW127674   4.572   5.569   1.292
 8925SOL    HW227675   4.453   5.486   1.366
 8926SOL     OW27676   5.040   6.654   0.404
 8926SOL    HW127677   5.064   6.578   0.465
 8926SOL    HW227678   4.979   6.620   0.332
 8927SOL     OW27679   2.952   2.020   5.064
 8927SOL    HW127680   3.019   2.064   5.123
 8927SOL    HW227681   2.893   2.089   5.022
 8928SOL     OW27682   1.952   0.296   5.759
 8928SOL    HW127683   2.035   0.242   5.753
 8928SOL    HW227684   1.882   0.244   5.808
 8929SOL     OW27685   4.763   4.226   2.943
 8929SOL    HW127686   4.799   4.208   3.034
 8929SOL    HW227687   4.839   4.245   2.881
 8930SOL     OW27688   0.496   5.842   5.534
 8930SOL    HW127689   0.401   5.857   5.509
 8930SOL    HW227690   0.540   5.784   5.466
 8931SOL     OW27691   5.477   0.996   2.202
 8931SOL    HW127692   5.405   0.966   2.139
 8931SOL    HW227693   5.541   0.922   2.218
 8932SOL     OW27694   3.668   0.593   6.106
 8932SOL    HW127695   3.714   0.657   6.168
 8932SOL    HW227696   3.569   0.599   6.121
 8933SOL     OW27697   1.685   0.474   5.616
 8933SOL    HW127698   1.735   0.540   5.673
 8933SOL    HW227699   1.694   0.499   5.520
 8934SOL     OW27700   2.546   6.152   3.471
 8934SOL    HW127701   2.545   6.242   3.514
 8934SOL    HW227702   2.496   6.087   3.529
 8935SOL     OW27703   5.196   2.312   2.286
 8935SOL    HW127704   5.152   2.334   2.373
 8935SOL    HW227705   5.280   2.365   2.276
 8936SOL     OW27706   0.866   3.874   2.697
 8936SOL    HW127707   0.879   3.914   2.788
 8936SOL    HW227708   0.938   3.807   2.680
 8937SOL     OW27709   3.519   6.124   5.256
 8937SOL    HW127710   3.585   6.170   5.197
 8937SOL    HW227711   3.427   6.136   5.220
 8938SOL     OW27712   4.444   6.462   2.524
 8938SOL    HW127713   4.412   6.382   2.576
 8938SOL    HW227714   4.543   6.454   2.508
 8939SOL     OW27715   0.025   2.965   5.551
 8939SOL    HW127716   0.029   3.041   5.486
 8939SOL    HW227717   0.028   3.000   5.644
 8940SOL     OW27718   6.133   3.840   2.800
 8940SOL    HW127719   6.197   3.766   2.823
 8940SOL    HW227720   6.057   3.804   2.747
 8941SOL     OW27721   5.818   2.552   3.774
 8941SOL    HW127722   5.910   2.592   3.772
 8941SOL    HW227723   5.825   2.453   3.782
 8942SOL     OW27724   4.911   6.334   4.433
 8942SOL    HW127725   4.890   6.422   4.390
 8942SOL    HW227726   4.998   6.300   4.398
 8943SOL     OW27727   4.317   3.363   0.792
 8943SOL    HW127728   4.344   3.297   0.862
 8943SOL    HW227729   4.325   3.323   0.702
 8944SOL     OW27730   4.605   5.644   5.627
 8944SOL    HW127731   4.684   5.705   5.632
 8944SOL    HW227732   4.541   5.666   5.701
 8945SOL     OW27733   6.785   4.054   2.270
 8945SOL    HW127734   6.799   4.020   2.363
 8945SOL    HW227735   6.743   3.981   2.214
 8946SOL     OW27736   4.077   1.961   3.909
 8946SOL    HW127737   4.173   1.947   3.884
 8946SOL    HW227738   4.050   1.892   3.976
 8947SOL     OW27739   3.323   5.209   0.655
 8947SOL    HW127740   3.396   5.146   0.686
 8947SOL    HW227741   3.323   5.290   0.713
 8948SOL     OW27742   5.627   6.916   2.904
 8948SOL    HW127743   5.674   6.998   2.870
 8948SOL    HW227744   5.631   6.844   2.835
 8949SOL     OW27745   3.993   6.311   0.802
 8949SOL    HW127746   4.066   6.279   0.743
 8949SOL    HW227747   3.926   6.237   0.815
 8950SOL     OW27748   3.431   3.306   3.875
 8950SOL    HW127749   3.449   3.351   3.962
 8950SOL    HW227750   3.504   3.327   3.811
 8951SOL     OW27751   0.700   0.855   3.849
 8951SOL    HW127752   0.667   0.946   3.873
 8951SOL    HW227753   0.646   0.786   3.897
 8952SOL     OW27754   1.784   4.136   4.473
 8952SOL    HW127755   1.760   4.046   4.509
 8952SOL    HW227756   1.767   4.205   4.543
 8953SOL     OW27757   1.743   5.171   0.568
 8953SOL    HW127758   1.685   5.218   0.502
 8953SOL    HW227759   1.810   5.114   0.520
 8954SOL     OW27760   1.954   3.961   5.357
 8954SOL    HW127761   1.948   4.061   5.358
 8954SOL    HW227762   2.009   3.932   5.279
 8955SOL     OW27763   6.514   2.621   6.614
 8955SOL    HW127764   6.515   2.687   6.689
 8955SOL    HW227765   6.593   2.560   6.621
 8956SOL     OW27766   0.797   6.421   0.859
 8956SOL    HW127767   0.887   6.378   0.855
 8956SOL    HW227768   0.751   6.413   0.770
 8957SOL     OW27769   0.583   0.249   3.974
 8957SOL    HW127770   0.627   0.190   4.041
 8957SOL    HW227771   0.486   0.260   3.998
 8958SOL     OW27772   0.195   2.826   4.312
 8958SOL    HW127773   0.238   2.868   4.392
 8958SOL    HW227774   0.266   2.793   4.249
 8959SOL     OW27775   5.715   0.998   3.446
 8959SOL    HW127776   5.662   0.914   3.435
 8959SOL    HW227777   5.672   1.072   3.394
 8960SOL     OW27778   3.501   6.365   2.022
 8960SOL    HW127779   3.589   6.410   2.009
 8960SOL    HW227780   3.482   6.355   2.120
 8961SOL     OW27781   2.405   2.563   5.441
 8961SOL    HW127782   2.409   2.603   5.350
 8961SOL    HW227783   2.495   2.529   5.466
 8962SOL     OW27784   6.690   5.480   0.729
 8962SOL    HW127785   6.783   5.443   0.735
 8962SOL    HW227786   6.667   5.494   0.632
 8963SOL     OW27787   2.251   5.402   5.588
 8963SOL    HW127788   2.275   5.477   5.526
 8963SOL    HW227789   2.249   5.316   5.538
 8964SOL     OW27790   1.181   3.648   4.035
 8964SOL    HW127791   1.092   3.622   3.997
 8964SOL    HW227792   1.254   3.618   3.973
 8965SOL     OW27793   3.008   6.915   6.315
 8965SOL    HW127794   2.916   6.931   6.351
 8965SOL    HW227795   3.074   6.918   6.390
 8966SOL     OW27796   4.193   6.549   5.346
 8966SOL    HW127797   4.144   6.466   5.317
 8966SOL    HW227798   4.207   6.608   5.267
 8967SOL     OW27799   1.907   6.839   3.205
 8967SOL    HW127800   1.879   6.745   3.222
 8967SOL    HW227801   1.981   6.841   3.137
 8968SOL     OW27802   2.564   5.732   2.783
 8968SOL    HW127803   2.612   5.664   2.838
 8968SOL    HW227804   2.503   5.687   2.718
 8969SOL     OW27805   6.643   0.878   1.179
 8969SOL    HW127806   6.631   0.963   1.127
 8969SOL    HW227807   6.735   0.842   1.163
 8970SOL     OW27808   2.823   2.273   4.734
 8970SOL    HW127809   2.787   2.311   4.819
 8970SOL    HW227810   2.922   2.282   4.732
 8971SOL     OW27811   3.031   5.972   1.090
 8971SOL    HW127812   2.974   5.902   1.132
 8971SOL    HW227813   3.105   5.997   1.153
 8972SOL     OW27814   6.911   4.255   6.909
 8972SOL    HW127815   6.889   4.268   7.005
 8972SOL    HW227816   6.838   4.294   6.853
 8973SOL     OW27817   2.652   1.982   3.179
 8973SOL    HW127818   2.748   1.965   3.156
 8973SOL    HW227819   2.600   1.897   3.174
 8974SOL     OW27820   0.721   4.835   5.552
 8974SOL    HW127821   0.683   4.867   5.465
 8974SOL    HW227822   0.772   4.910   5.594
 8975SOL     OW27823   1.066   3.928   6.256
 8975SOL    HW127824   1.054   4.027   6.265
 8975SOL    HW227825   1.157   3.909   6.217
 8976SOL     OW27826   5.203   6.735   1.354
 8976SOL    HW127827   5.302   6.733   1.370
 8976SOL    HW227828   5.184   6.788   1.271
 8977SOL     OW27829   0.610   5.144   6.198
 8977SOL    HW127830   0.694   5.093   6.219
 8977SOL    HW227831   0.584   5.199   6.277
 8978SOL     OW27832   6.890   5.102   4.585
 8978SOL    HW127833   6.824   5.039   4.626
 8978SOL    HW227834   6.974   5.052   4.563
 8979SOL     OW27835   1.787   4.865   3.120
 8979SOL    HW127836   1.806   4.807   3.042
 8979SOL    HW227837   1.809   4.817   3.205
 8980SOL     OW27838   5.158   1.402   6.573
 8980SOL    HW127839   5.213   1.330   6.531
 8980SOL    HW227840   5.111   1.366   6.653
 8981SOL     OW27841   3.680   2.298   6.801
 8981SOL    HW127842   3.684   2.396   6.817
 8981SOL    HW227843   3.620   2.256   6.870
 8982SOL     OW27844   0.310   0.902   3.752
 8982SOL    HW127845   0.346   0.825   3.700
 8982SOL    HW227846   0.227   0.875   3.800
 8983SOL     OW27847   1.374   6.465   2.219
 8983SOL    HW127848   1.371   6.532   2.293
 8983SOL    HW227849   1.374   6.373   2.257
 8984SOL     OW27850   6.169   0.954   3.523
 8984SOL    HW127851   6.228   0.877   3.543
 8984SOL    HW227852   6.220   1.039   3.535
 8985SOL     OW27853   4.963   0.491   0.307
 8985SOL    HW127854   4.912   0.561   0.256
 8985SOL    HW227855   4.898   0.428   0.351
 8986SOL     OW27856   1.073   7.000   6.218
 8986SOL    HW127857   1.141   6.951   6.164
 8986SOL    HW227858   1.064   0.068   6.184
 8987SOL     OW27859   3.151   6.695   3.191
 8987SOL    HW127860   3.199   6.781   3.205
 8987SOL    HW227861   3.175   6.630   3.263
 8988SOL     OW27862   1.610   6.645   1.215
 8988SOL    HW127863   1.688   6.589   1.244
 8988SOL    HW227864   1.570   6.605   1.132
 8989SOL     OW27865   6.333   1.553   2.475
 8989SOL    HW127866   6.234   1.553   2.493
 8989SOL    HW227867   6.380   1.513   2.553
 8990SOL     OW27868   3.928   1.958   3.228
 8990SOL    HW127869   3.836   1.920   3.229
 8990SOL    HW227870   3.945   2.001   3.139
 8991SOL     OW27871   1.903   1.933   1.001
 8991SOL    HW127872   1.971   1.865   1.029
 8991SOL    HW227873   1.931   1.975   0.914
 8992SOL     OW27874   0.946   5.772   5.078
 8992SOL    HW127875   0.847   5.784   5.071
 8992SOL    HW227876   0.986   5.853   5.121
 8993SOL     OW27877   5.596   4.474   3.688
 8993SOL    HW127878   5.692   4.463   3.661
 8993SOL    HW227879   5.544   4.394   3.659
 8994SOL     OW27880   1.340   6.042   2.925
 8994SOL    HW127881   1.333   6.044   3.024
 8994SOL    HW227882   1.251   6.019   2.886
 8995SOL     OW27883   1.889   3.906   3.356
 8995SOL    HW127884   1.851   3.961   3.281
 8995SOL    HW227885   1.984   3.934   3.372
 8996SOL     OW27886   3.094   4.134   1.523
 8996SOL    HW127887   3.102   4.152   1.425
 8996SOL    HW227888   3.120   4.216   1.573
 8997SOL     OW27889   4.280   1.322   5.011
 8997SOL    HW127890   4.310   1.236   5.054
 8997SOL    HW227891   4.181   1.319   4.996
 8998SOL     OW27892   0.984   1.549   6.033
 8998SOL    HW127893   0.896   1.592   6.053
 8998SOL    HW227894   1.043   1.615   5.986
 8999SOL     OW27895   6.806   2.827   4.955
 8999SOL    HW127896   6.875   2.813   4.885
 8999SOL    HW227897   6.718   2.792   4.922
 9000SOL     OW27898   3.978   5.281   1.587
 9000SOL    HW127899   3.920   5.300   1.508
 9000SOL    HW227900   4.053   5.347   1.591
 9001SOL     OW27901   0.970   3.447   3.970
 9001SOL    HW127902   0.987   3.358   4.012
 9001SOL    HW227903   0.884   3.484   4.003
 9002SOL     OW27904   4.671   2.850   6.600
 9002SOL    HW127905   4.625   2.805   6.524
 9002SOL    HW227906   4.759   2.887   6.568
 9003SOL     OW27907   0.513   3.437   0.494
 9003SOL    HW127908   0.554   3.362   0.546
 9003SOL    HW227909   0.554   3.523   0.521
 9004SOL     OW27910   5.318   5.633   1.041
 9004SOL    HW127911   5.230   5.586   1.030
 9004SOL    HW227912   5.311   5.698   1.116
 9005SOL     OW27913   4.739   4.237   4.145
 9005SOL    HW127914   4.781   4.197   4.064
 9005SOL    HW227915   4.753   4.176   4.223
 9006SOL     OW27916   3.188   6.302   2.604
 9006SOL    HW127917   3.113   6.364   2.579
 9006SOL    HW227918   3.275   6.351   2.599
 9007SOL     OW27919   1.905   0.047   5.475
 9007SOL    HW127920   2.002   0.040   5.452
 9007SOL    HW227921   1.883   0.142   5.498
 9008SOL     OW27922   6.978   4.756   1.662
 9008SOL    HW127923   6.888   4.752   1.706
 9008SOL    HW227924   0.006   4.830   1.702
 9009SOL     OW27925   3.932   6.840   6.766
 9009SOL    HW127926   3.952   6.878   6.856
 9009SOL    HW227927   4.015   6.841   6.710
 9010SOL     OW27928   6.799   6.313   4.693
 9010SOL    HW127929   6.796   6.235   4.631
 9010SOL    HW227930   6.876   6.302   4.756
 9011SOL     OW27931   4.596   2.498   2.452
 9011SOL    HW127932   4.501   2.521   2.430
 9011SOL    HW227933   4.608   2.399   2.450
 9012SOL     OW27934   3.985   4.919   2.242
 9012SOL    HW127935   3.998   5.002   2.296
 9012SOL    HW227936   4.063   4.858   2.254
 9013SOL     OW27937   2.906   6.402   0.778
 9013SOL    HW127938   2.947   6.312   0.792
 9013SOL    HW227939   2.947   6.468   0.841
 9014SOL     OW27940   1.672   1.694   2.422
 9014SOL    HW127941   1.650   1.642   2.340
 9014SOL    HW227942   1.744   1.647   2.473
 9015SOL     OW27943   6.356   2.344   4.634
 9015SOL    HW127944   6.373   2.254   4.674
 9015SOL    HW227945   6.358   2.414   4.706
 9016SOL     OW27946   0.185   4.708   6.934
 9016SOL    HW127947   0.139   4.620   6.922
 9016SOL    HW227948   0.136   4.779   6.883
 9017SOL     OW27949   6.328   2.911   2.345
 9017SOL    HW127950   6.232   2.895   2.367
 9017SOL    HW227951   6.346   3.009   2.342
 9018SOL     OW27952   5.422   2.500   6.427
 9018SOL    HW127953   5.359   2.443   6.480
 9018SOL    HW227954   5.492   2.538   6.488
 9019SOL     OW27955   1.821   5.859   0.310
 9019SOL    HW127956   1.809   5.828   0.405
 9019SOL    HW227957   1.904   5.914   0.303
 9020SOL     OW27958   0.640   5.326   5.042
 9020SOL    HW127959   0.706   5.364   4.976
 9020SOL    HW227960   0.682   5.323   5.133
 9021SOL     OW27961   6.944   5.335   4.813
 9021SOL    HW127962   6.926   5.237   4.805
 9021SOL    HW227963   6.874   5.386   4.765
 9022SOL     OW27964   0.914   6.799   5.915
 9022SOL    HW127965   0.876   6.814   6.006
 9022SOL    HW227966   0.909   6.702   5.892
 9023SOL     OW27967   3.762   3.636   3.831
 9023SOL    HW127968   3.720   3.555   3.871
 9023SOL    HW227969   3.820   3.680   3.900
 9024SOL     OW27970   1.587   0.026   0.465
 9024SOL    HW127971   1.566   0.001   0.370
 9024SOL    HW227972   1.669   7.003   0.494
 9025SOL     OW27973   0.595   2.689   0.587
 9025SOL    HW127974   0.668   2.663   0.522
 9025SOL    HW227975   0.540   2.608   0.608
 9026SOL     OW27976   2.827   4.662   5.969
 9026SOL    HW127977   2.778   4.714   6.039
 9026SOL    HW227978   2.774   4.661   5.885
 9027SOL     OW27979   0.815   3.645   1.825
 9027SOL    HW127980   0.750   3.715   1.854
 9027SOL    HW227981   0.797   3.622   1.729
 9028SOL     OW27982   1.749   3.921   5.066
 9028SOL    HW127983   1.770   3.943   4.971
 9028SOL    HW227984   1.789   3.832   5.089
 9029SOL     OW27985   5.119   5.323   3.086
 9029SOL    HW127986   5.121   5.224   3.071
 9029SOL    HW227987   5.206   5.362   3.059
 9030SOL     OW27988   5.085   2.714   2.510
 9030SOL    HW127989   4.987   2.738   2.512
 9030SOL    HW227990   5.139   2.792   2.542
 9031SOL     OW27991   2.400   0.728   2.535
 9031SOL    HW127992   2.302   0.749   2.529
 9031SOL    HW227993   2.418   0.684   2.623
 9032SOL     OW27994   0.613   4.120   2.897
 9032SOL    HW127995   0.568   4.073   2.821
 9032SOL    HW227996   0.647   4.053   2.963
 9033SOL     OW27997   0.717   3.106   2.594
 9033SOL    HW127998   0.640   3.113   2.658
 9033SOL    HW227999   0.690   3.049   2.517
 9034SOL     OW28000   1.075   6.652   0.679
 9034SOL    HW128001   1.026   6.643   0.592
 9034SOL    HW228002   1.108   6.562   0.708
 9035SOL     OW28003   6.041   1.213   4.591
 9035SOL    HW128004   5.994   1.267   4.521
 9035SOL    HW228005   6.064   1.123   4.553
 9036SOL     OW28006   6.872   1.718   4.058
 9036SOL    HW128007   6.964   1.686   4.035
 9036SOL    HW228008   6.862   1.723   4.157
 9037SOL     OW28009   2.949   4.423   6.097
 9037SOL    HW128010   3.022   4.454   6.158
 9037SOL    HW228011   2.912   4.502   6.047
 9038SOL     OW28012   3.796   6.082   5.856
 9038SOL    HW128013   3.878   6.031   5.882
 9038SOL    HW228014   3.820   6.154   5.790
 9039SOL     OW28015   2.729   4.885   0.410
 9039SOL    HW128016   2.820   4.852   0.385
 9039SOL    HW228017   2.659   4.829   0.365
 9040SOL     OW28018   3.283   1.653   2.735
 9040SOL    HW128019   3.214   1.595   2.693
 9040SOL    HW228020   3.249   1.747   2.739
 9041SOL     OW28021   2.386   2.683   5.169
 9041SOL    HW128022   2.312   2.727   5.221
 9041SOL    HW228023   2.441   2.754   5.125
 9042SOL     OW28024   1.350   5.221   2.732
 9042SOL    HW128025   1.281   5.282   2.770
 9042SOL    HW228026   1.329   5.126   2.756
 9043SOL     OW28027   0.509   1.690   6.624
 9043SOL    HW128028   0.433   1.629   6.644
 9043SOL    HW228029   0.581   1.677   6.692
 9044SOL     OW28030   0.519   4.214   1.369
 9044SOL    HW128031   0.544   4.270   1.291
 9044SOL    HW228032   0.500   4.120   1.339
 9045SOL     OW28033   1.745   4.723   4.918
 9045SOL    HW128034   1.725   4.716   5.016
 9045SOL    HW228035   1.669   4.685   4.865
 9046SOL     OW28036   4.062   4.586   5.966
 9046SOL    HW128037   4.082   4.505   6.022
 9046SOL    HW228038   4.027   4.659   6.023
 9047SOL     OW28039   0.852   5.046   4.045
 9047SOL    HW128040   0.887   5.138   4.064
 9047SOL    HW228041   0.829   5.001   4.131
 9048SOL     OW28042   1.217   2.139   5.768
 9048SOL    HW128043   1.213   2.167   5.864
 9048SOL    HW228044   1.313   2.142   5.738
 9049SOL     OW28045   4.208   5.858   5.478
 9049SOL    HW128046   4.304   5.881   5.489
 9049SOL    HW228047   4.200   5.770   5.431
 9050SOL     OW28048   0.410   3.601   6.911
 9050SOL    HW128049   0.426   3.694   6.877
 9050SOL    HW228050   0.337   3.604   6.979
 9051SOL     OW28051   0.038   5.521   6.268
 9051SOL    HW128052   0.021   5.461   6.189
 9051SOL    HW228053   0.050   5.615   6.236
 9052SOL     OW28054   2.193   4.852   4.393
 9052SOL    HW128055   2.234   4.878   4.481
 9052SOL    HW228056   2.258   4.871   4.319
 9053SOL     OW28057   0.963   0.542   2.859
 9053SOL    HW128058   0.906   0.600   2.918
 9053SOL    HW228059   0.905   0.481   2.805
 9054SOL     OW28060   1.333   6.806   2.037
 9054SOL    HW128061   1.244   6.850   2.027
 9054SOL    HW228062   1.363   6.814   2.132
 9055SOL     OW28063   1.369   3.086   5.299
 9055SOL    HW128064   1.303   3.158   5.319
 9055SOL    HW228065   1.446   3.094   5.362
 9056SOL     OW28066   5.412   2.340   2.117
 9056SOL    HW128067   5.472   2.340   2.037
 9056SOL    HW228068   5.319   2.316   2.090
 9057SOL     OW28069   3.510   0.285   5.921
 9057SOL    HW128070   3.484   0.353   5.853
 9057SOL    HW228071   3.561   0.211   5.877
 9058SOL     OW28072   2.167   2.969   4.065
 9058SOL    HW128073   2.099   2.903   4.035
 9058SOL    HW228074   2.231   2.988   3.991
 9059SOL     OW28075   0.646   0.060   2.100
 9059SOL    HW128076   0.652   0.106   2.189
 9059SOL    HW228077   0.625   0.127   2.029
 9060SOL     OW28078   0.286   4.989   0.415
 9060SOL    HW128079   0.236   5.002   0.329
 9060SOL    HW228080   0.383   4.975   0.395
 9061SOL     OW28081   3.813   4.872   2.791
 9061SOL    HW128082   3.829   4.868   2.692
 9061SOL    HW228083   3.886   4.822   2.838
 9062SOL     OW28084   6.990   6.185   2.756
 9062SOL    HW128085   0.060   6.204   2.779
 9062SOL    HW228086   6.944   6.270   2.732
 9063SOL     OW28087   6.057   6.515   0.738
 9063SOL    HW128088   6.094   6.437   0.788
 9063SOL    HW228089   6.004   6.572   0.801
 9064SOL     OW28090   1.437   6.044   3.212
 9064SOL    HW128091   1.495   5.967   3.240
 9064SOL    HW228092   1.347   6.036   3.256
 9065SOL     OW28093   3.421   4.119   0.026
 9065SOL    HW128094   3.328   4.119   7.016
 9065SOL    HW228095   3.480   4.173   6.993
 9066SOL     OW28096   5.296   5.115   3.578
 9066SOL    HW128097   5.392   5.134   3.559
 9066SOL    HW228098   5.241   5.195   3.553
 9067SOL     OW28099   1.805   0.236   3.901
 9067SOL    HW128100   1.841   0.179   3.827
 9067SOL    HW228101   1.864   0.316   3.914
 9068SOL     OW28102   5.366   0.718   4.982
 9068SOL    HW128103   5.348   0.814   4.962
 9068SOL    HW228104   5.282   0.665   4.975
 9069SOL     OW28105   4.805   2.789   1.337
 9069SOL    HW128106   4.879   2.723   1.326
 9069SOL    HW228107   4.811   2.858   1.265
 9070SOL     OW28108   0.845   0.736   6.204
 9070SOL    HW128109   0.866   0.665   6.136
 9070SOL    HW228110   0.834   0.693   6.294
 9071SOL     OW28111   5.880   2.758   0.117
 9071SOL    HW128112   5.934   2.731   0.038
 9071SOL    HW228113   5.940   2.763   0.197
 9072SOL     OW28114   6.138   0.791   1.550
 9072SOL    HW128115   6.181   0.718   1.498
 9072SOL    HW228116   6.074   0.841   1.491
 9073SOL     OW28117   5.039   2.841   6.182
 9073SOL    HW128118   5.010   2.931   6.216
 9073SOL    HW228119   4.994   2.822   6.096
 9074SOL     OW28120   2.281   0.331   3.357
 9074SOL    HW128121   2.262   0.252   3.415
 9074SOL    HW228122   2.264   0.307   3.261
 9075SOL     OW28123   4.845   5.769   1.309
 9075SOL    HW128124   4.892   5.738   1.392
 9075SOL    HW228125   4.776   5.836   1.334
 9076SOL     OW28126   1.131   6.775   2.524
 9076SOL    HW128127   1.159   6.868   2.500
 9076SOL    HW228128   1.060   6.744   2.461
 9077SOL     OW28129   6.251   0.560   6.801
 9077SOL    HW128130   6.175   0.623   6.785
 9077SOL    HW228131   6.303   0.589   6.881
 9078SOL     OW28132   5.186   6.229   6.972
 9078SOL    HW128133   5.203   6.135   7.002
 9078SOL    HW228134   5.165   6.229   6.874
 9079SOL     OW28135   3.029   1.459   6.383
 9079SOL    HW128136   3.007   1.548   6.342
 9079SOL    HW228137   2.962   1.439   6.455
 9080SOL     OW28138   6.941   5.087   0.702
 9080SOL    HW128139   7.023   5.055   0.750
 9080SOL    HW228140   6.913   5.019   0.635
 9081SOL     OW28141   5.030   1.968   6.221
 9081SOL    HW128142   5.082   1.909   6.159
 9081SOL    HW228143   4.934   1.969   6.194
 9082SOL     OW28144   2.818   4.460   6.602
 9082SOL    HW128145   2.831   4.532   6.533
 9082SOL    HW228146   2.760   4.495   6.675
 9083SOL     OW28147   3.789   0.401   0.910
 9083SOL    HW128148   3.712   0.440   0.960
 9083SOL    HW228149   3.756   0.357   0.827
 9084SOL     OW28150   0.147   4.318   4.690
 9084SOL    HW128151   0.192   4.273   4.767
 9084SOL    HW228152   0.166   4.268   4.606
 9085SOL     OW28153   3.404   4.925   2.255
 9085SOL    HW128154   3.448   4.857   2.195
 9085SOL    HW228155   3.319   4.887   2.290
 9086SOL     OW28156   0.536   1.582   0.234
 9086SOL    HW128157   0.469   1.528   0.284
 9086SOL    HW228158   0.523   1.679   0.255
 9087SOL     OW28159   4.750   1.676   0.107
 9087SOL    HW128160   4.652   1.694   0.101
 9087SOL    HW228161   4.789   1.673   0.015
 9088SOL     OW28162   5.584   6.793   0.528
 9088SOL    HW128163   5.525   6.747   0.461
 9088SOL    HW228164   5.670   6.819   0.484
 9089SOL     OW28165   4.661   5.530   3.016
 9089SOL    HW128166   4.584   5.466   3.023
 9089SOL    HW228167   4.700   5.545   3.107
 9090SOL     OW28168   6.623   4.995   4.644
 9090SOL    HW128169   6.601   5.061   4.716
 9090SOL    HW228170   6.599   4.903   4.675
 9091SOL     OW28171   1.609   1.734   1.944
 9091SOL    HW128172   1.597   1.684   2.030
 9091SOL    HW228173   1.538   1.803   1.935
 9092SOL     OW28174   3.503   1.714   5.403
 9092SOL    HW128175   3.597   1.715   5.437
 9092SOL    HW228176   3.449   1.784   5.450
 9093SOL     OW28177   1.647   3.996   0.935
 9093SOL    HW128178   1.552   3.967   0.926
 9093SOL    HW228179   1.706   3.917   0.951
 9094SOL     OW28180   0.594   2.810   6.693
 9094SOL    HW128181   0.647   2.750   6.632
 9094SOL    HW228182   0.515   2.846   6.644
 9095SOL     OW28183   2.785   2.008   0.965
 9095SOL    HW128184   2.842   1.987   0.886
 9095SOL    HW228185   2.805   1.943   1.039
 9096SOL     OW28186   6.973   4.266   3.403
 9096SOL    HW128187   6.983   4.220   3.315
 9096SOL    HW228188   0.029   4.251   3.458
 9097SOL     OW28189   6.595   5.880   5.641
 9097SOL    HW128190   6.689   5.910   5.657
 9097SOL    HW228191   6.538   5.960   5.622
 9098SOL     OW28192   3.428   3.469   5.514
 9098SOL    HW128193   3.484   3.478   5.596
 9098SOL    HW228194   3.409   3.373   5.496
 9099SOL     OW28195   2.161   2.220   6.064
 9099SOL    HW128196   2.226   2.252   6.132
 9099SOL    HW228197   2.140   2.123   6.081
 9100SOL     OW28198   1.745   1.997   0.725
 9100SOL    HW128199   1.844   1.988   0.733
 9100SOL    HW228200   1.723   2.045   0.640
 9101SOL     OW28201   2.537   2.077   0.476
 9101SOL    HW128202   2.454   2.110   0.521
 9101SOL    HW228203   2.540   2.113   0.382
 9102SOL     OW28204   4.308   6.248   2.650
 9102SOL    HW128205   4.350   6.180   2.709
 9102SOL    HW228206   4.210   6.253   2.668
 9103SOL     OW28207   1.721   4.019   6.513
 9103SOL    HW128208   1.705   3.942   6.450
 9103SOL    HW228209   1.819   4.039   6.517
 9104SOL     OW28210   4.799   6.659   3.106
 9104SOL    HW128211   4.836   6.674   3.014
 9104SOL    HW228212   4.744   6.738   3.132
 9105SOL     OW28213   3.170   2.272   5.913
 9105SOL    HW128214   3.146   2.252   6.008
 9105SOL    HW228215   3.149   2.193   5.856
 9106SOL     OW28216   6.689   5.201   1.414
 9106SOL    HW128217   6.645   5.279   1.368
 9106SOL    HW228218   6.780   5.228   1.446
 9107SOL     OW28219   4.500   6.734   6.713
 9107SOL    HW128220   4.586   6.718   6.664
 9107SOL    HW228221   4.464   6.824   6.686
 9108SOL     OW28222   3.524   5.650   0.861
 9108SOL    HW128223   3.479   5.713   0.924
 9108SOL    HW228224   3.573   5.703   0.791
 9109SOL     OW28225   3.361   1.879   4.562
 9109SOL    HW128226   3.440   1.818   4.555
 9109SOL    HW228227   3.332   1.885   4.657
 9110SOL     OW28228   0.231   3.999   3.494
 9110SOL    HW128229   0.216   4.098   3.492
 9110SOL    HW228230   0.330   3.981   3.497
 9111SOL     OW28231   3.739   4.621   1.652
 9111SOL    HW128232   3.707   4.667   1.735
 9111SOL    HW228233   3.661   4.601   1.593
 9112SOL     OW28234   1.100   6.517   2.251
 9112SOL    HW128235   1.081   6.436   2.305
 9112SOL    HW228236   1.190   6.509   2.208
 9113SOL     OW28237   2.188   6.499   0.925
 9113SOL    HW128238   2.152   6.436   0.994
 9113SOL    HW228239   2.115   6.561   0.895
 9114SOL     OW28240   3.002   3.732   1.872
 9114SOL    HW128241   3.044   3.783   1.797
 9114SOL    HW228242   3.017   3.781   1.959
 9115SOL     OW28243   1.206   4.708   4.174
 9115SOL    HW128244   1.114   4.671   4.167
 9115SOL    HW228245   1.268   4.656   4.115
 9116SOL     OW28246   3.781   2.590   6.889
 9116SOL    HW128247   3.733   2.677   6.884
 9116SOL    HW228248   3.874   2.601   6.852
 9117SOL     OW28249   1.502   2.652   0.069
 9117SOL    HW128250   1.573   2.585   0.095
 9117SOL    HW228251   1.425   2.604   0.027
 9118SOL     OW28252   0.746   6.838   2.139
 9118SOL    HW128253   0.674   6.771   2.123
 9118SOL    HW228254   0.710   6.930   2.121
 9119SOL     OW28255   6.155   0.247   0.604
 9119SOL    HW128256   6.095   0.327   0.610
 9119SOL    HW228257   6.245   0.270   0.641
 9120SOL     OW28258   6.170   7.020   6.708
 9120SOL    HW128259   6.137   7.024   6.613
 9120SOL    HW228260   6.230   6.942   6.720
 9121SOL     OW28261   1.249   0.582   6.196
 9121SOL    HW128262   1.259   0.651   6.125
 9121SOL    HW228263   1.317   0.510   6.184
 9122SOL     OW28264   0.399   3.161   1.240
 9122SOL    HW128265   0.425   3.190   1.332
 9122SOL    HW228266   0.327   3.091   1.246
 9123SOL     OW28267   1.531   6.855   5.709
 9123SOL    HW128268   1.558   6.789   5.779
 9123SOL    HW228269   1.613   6.891   5.664
 9124SOL     OW28270   0.669   4.270   5.128
 9124SOL    HW128271   0.662   4.218   5.212
 9124SOL    HW228272   0.752   4.243   5.078
 9125SOL     OW28273   4.839   6.256   1.436
 9125SOL    HW128274   4.747   6.292   1.420
 9125SOL    HW228275   4.836   6.185   1.505
 9126SOL     OW28276   5.629   0.736   3.421
 9126SOL    HW128277   5.677   0.716   3.335
 9126SOL    HW228278   5.578   0.656   3.449
 9127SOL     OW28279   5.868   4.741   6.183
 9127SOL    HW128280   5.818   4.807   6.240
 9127SOL    HW228281   5.841   4.752   6.088
 9128SOL     OW28282   4.683   2.920   5.248
 9128SOL    HW128283   4.657   2.881   5.160
 9128SOL    HW228284   4.717   3.013   5.235
 9129SOL     OW28285   3.435   0.765   0.523
 9129SOL    HW128286   3.374   0.762   0.444
 9129SOL    HW228287   3.403   0.701   0.592
 9130SOL     OW28288   5.814   5.322   1.585
 9130SOL    HW128289   5.879   5.308   1.659
 9130SOL    HW228290   5.746   5.390   1.613
 9131SOL     OW28291   0.835   4.940   3.683
 9131SOL    HW128292   0.769   4.971   3.752
 9131SOL    HW228293   0.926   4.974   3.707
 9132SOL     OW28294   1.322   2.748   4.040
 9132SOL    HW128295   1.407   2.706   4.008
 9132SOL    HW228296   1.298   2.711   4.130
 9133SOL     OW28297   1.496   4.812   0.819
 9133SOL    HW128298   1.460   4.899   0.853
 9133SOL    HW228299   1.425   4.742   0.823
 9134SOL     OW28300   3.116   5.183   6.242
 9134SOL    HW128301   3.104   5.140   6.332
 9134SOL    HW228302   3.123   5.282   6.254
 9135SOL     OW28303   1.262   0.300   2.748
 9135SOL    HW128304   1.321   0.358   2.692
 9135SOL    HW228305   1.168   0.336   2.745
 9136SOL     OW28306   3.885   5.413   6.136
 9136SOL    HW128307   3.812   5.467   6.094
 9136SOL    HW228308   3.850   5.369   6.219
 9137SOL     OW28309   3.203   0.390   2.735
 9137SOL    HW128310   3.246   0.426   2.651
 9137SOL    HW228311   3.274   0.356   2.796
 9138SOL     OW28312   3.626   4.627   1.120
 9138SOL    HW128313   3.671   4.565   1.055
 9138SOL    HW228314   3.612   4.716   1.075
 9139SOL     OW28315   4.279   0.879   5.456
 9139SOL    HW128316   4.326   0.804   5.409
 9139SOL    HW228317   4.332   0.905   5.537
 9140SOL     OW28318   6.357   2.306   4.026
 9140SOL    HW128319   6.410   2.391   4.023
 9140SOL    HW228320   6.259   2.328   4.024
 9141SOL     OW28321   5.138   1.396   5.245
 9141SOL    HW128322   5.116   1.303   5.216
 9141SOL    HW228323   5.076   1.425   5.317
 9142SOL     OW28324   2.178   2.785   6.864
 9142SOL    HW128325   2.083   2.770   6.835
 9142SOL    HW228326   2.195   2.883   6.873
 9143SOL     OW28327   6.881   4.031   0.589
 9143SOL    HW128328   6.881   3.931   0.595
 9143SOL    HW228329   6.962   4.062   0.539
 9144SOL     OW28330   1.120   5.945   4.123
 9144SOL    HW128331   1.025   5.972   4.109
 9144SOL    HW228332   1.136   5.856   4.080
 9145SOL     OW28333   1.869   3.289   6.740
 9145SOL    HW128334   1.801   3.350   6.781
 9145SOL    HW228335   1.838   3.262   6.648
 9146SOL     OW28336   0.735   1.827   1.752
 9146SOL    HW128337   0.806   1.896   1.763
 9146SOL    HW228338   0.702   1.828   1.657
 9147SOL     OW28339   4.373   5.519   6.657
 9147SOL    HW128340   4.319   5.452   6.708
 9147SOL    HW228341   4.471   5.502   6.675
 9148SOL     OW28342   3.757   4.961   3.043
 9148SOL    HW128343   3.795   4.888   3.100
 9148SOL    HW228344   3.771   4.939   2.946
 9149SOL     OW28345   6.406   3.451   4.999
 9149SOL    HW128346   6.352   3.515   4.945
 9149SOL    HW228347   6.391   3.358   4.966
 9150SOL     OW28348   3.486   1.425   2.881
 9150SOL    HW128349   3.539   1.371   2.946
 9150SOL    HW228350   3.402   1.456   2.925
 9151SOL     OW28351   6.008   3.403   1.949
 9151SOL    HW128352   6.055   3.320   1.980
 9151SOL    HW228353   5.920   3.378   1.908
 9152SOL     OW28354   1.909   4.817   2.419
 9152SOL    HW128355   1.896   4.813   2.320
 9152SOL    HW228356   1.892   4.910   2.451
 9153SOL     OW28357   2.346   2.964   0.716
 9153SOL    HW128358   2.415   2.894   0.735
 9153SOL    HW228359   2.369   3.047   0.768
 9154SOL     OW28360   0.867   4.990   0.476
 9154SOL    HW128361   0.807   5.068   0.491
 9154SOL    HW228362   0.920   4.972   0.559
 9155SOL     OW28363   2.057   4.733   0.086
 9155SOL    HW128364   2.090   4.715   7.019
 9155SOL    HW228365   1.986   4.803   0.083
 9156SOL     OW28366   4.743   2.452   2.168
 9156SOL    HW128367   4.669   2.446   2.234
 9156SOL    HW228368   4.752   2.547   2.137
 9157SOL     OW28369   5.380   3.926   5.491
 9157SOL    HW128370   5.311   3.948   5.422
 9157SOL    HW228371   5.355   3.967   5.579
 9158SOL     OW28372   0.875   4.586   3.673
 9158SOL    HW128373   0.858   4.504   3.618
 9158SOL    HW228374   0.939   4.646   3.626
 9159SOL     OW28375   0.227   5.634   1.746
 9159SOL    HW128376   0.296   5.653   1.817
 9159SOL    HW228377   0.158   5.705   1.747
 9160SOL     OW28378   0.746   6.473   0.558
 9160SOL    HW128379   0.654   6.509   0.567
 9160SOL    HW228380   0.793   6.518   0.482
 9161SOL     OW28381   5.058   2.704   2.198
 9161SOL    HW128382   4.985   2.636   2.194
 9161SOL    HW228383   5.078   2.726   2.293
 9162SOL     OW28384   5.744   2.779   3.627
 9162SOL    HW128385   5.809   2.790   3.551
 9162SOL    HW228386   5.776   2.707   3.688
 9163SOL     OW28387   3.761   0.832   4.953
 9163SOL    HW128388   3.662   0.819   4.965
 9163SOL    HW228389   3.806   0.827   5.042
 9164SOL     OW28390   2.843   0.638   0.971
 9164SOL    HW128391   2.860   0.618   0.874
 9164SOL    HW228392   2.752   0.605   0.996
 9165SOL     OW28393   5.090   6.007   1.202
 9165SOL    HW128394   5.021   6.076   1.180
 9165SOL    HW228395   5.098   5.998   1.301
 9166SOL     OW28396   3.588   4.880   1.002
 9166SOL    HW128397   3.659   4.934   1.047
 9166SOL    HW228398   3.499   4.921   1.019
 9167SOL     OW28399   0.933   3.425   4.429
 9167SOL    HW128400   1.033   3.423   4.429
 9167SOL    HW228401   0.901   3.483   4.504
 9168SOL     OW28402   4.091   0.990   0.338
 9168SOL    HW128403   4.135   1.066   0.385
 9168SOL    HW228404   4.056   0.925   0.406
 9169SOL     OW28405   0.774   6.881   3.677
 9169SOL    HW128406   0.841   6.844   3.741
 9169SOL    HW228407   0.703   6.931   3.728
 9170SOL     OW28408   6.311   5.386   0.580
 9170SOL    HW128409   6.382   5.389   0.509
 9170SOL    HW228410   6.350   5.417   0.667
 9171SOL     OW28411   4.025   5.741   4.202
 9171SOL    HW128412   4.093   5.706   4.266
 9171SOL    HW228413   3.964   5.666   4.174
 9172SOL     OW28414   2.090   1.873   3.991
 9172SOL    HW128415   2.068   1.817   3.911
 9172SOL    HW228416   2.165   1.831   4.042
 9173SOL     OW28417   6.719   5.366   5.208
 9173SOL    HW128418   6.661   5.289   5.184
 9173SOL    HW228419   6.794   5.335   5.267
 9174SOL     OW28420   0.273   5.271   6.294
 9174SOL    HW128421   0.174   5.283   6.301
 9174SOL    HW228422   0.292   5.176   6.268
 9175SOL     OW28423   1.938   6.144   6.317
 9175SOL    HW128424   1.910   6.173   6.409
 9175SOL    HW228425   2.030   6.177   6.298
 9176SOL     OW28426   1.531   2.823   5.917
 9176SOL    HW128427   1.548   2.823   5.818
 9176SOL    HW228428   1.440   2.786   5.935
 9177SOL     OW28429   1.842   4.260   2.740
 9177SOL    HW128430   1.882   4.174   2.772
 9177SOL    HW228431   1.794   4.244   2.653
 9178SOL     OW28432   1.534   3.931   0.139
 9178SOL    HW128433   1.466   3.931   0.066
 9178SOL    HW228434   1.621   3.896   0.103
 9179SOL     OW28435   3.072   4.365   5.319
 9179SOL    HW128436   3.076   4.399   5.413
 9179SOL    HW228437   3.023   4.432   5.262
 9180SOL     OW28438   5.207   1.146   2.102
 9180SOL    HW128439   5.271   1.214   2.137
 9180SOL    HW228440   5.251   1.093   2.029
 9181SOL     OW28441   3.688   1.268   2.607
 9181SOL    HW128442   3.690   1.266   2.507
 9181SOL    HW228443   3.594   1.255   2.639
 9182SOL     OW28444   2.335   6.787   1.592
 9182SOL    HW128445   2.413   6.822   1.540
 9182SOL    HW228446   2.255   6.843   1.574
 9183SOL     OW28447   5.270   5.051   5.127
 9183SOL    HW128448   5.267   5.035   5.028
 9183SOL    HW228449   5.270   5.149   5.145
 9184SOL     OW28450   5.059   0.087   0.159
 9184SOL    HW128451   4.986   0.134   0.110
 9184SOL    HW228452   5.068   7.019   0.126
 9185SOL     OW28453   5.301   1.416   4.909
 9185SOL    HW128454   5.346   1.485   4.852
 9185SOL    HW228455   5.314   1.438   5.006
 9186SOL     OW28456   4.979   0.923   6.063
 9186SOL    HW128457   5.064   0.963   6.095
 9186SOL    HW228458   4.943   0.860   6.132
 9187SOL     OW28459   2.138   6.349   2.819
 9187SOL    HW128460   2.054   6.319   2.773
 9187SOL    HW228461   2.142   6.310   2.911
 9188SOL     OW28462   3.282   5.424   0.442
 9188SOL    HW128463   3.184   5.431   0.460
 9188SOL    HW228464   3.317   5.338   0.480
 9189SOL     OW28465   5.307   4.339   1.869
 9189SOL    HW128466   5.342   4.322   1.776
 9189SOL    HW228467   5.219   4.292   1.880
 9190SOL     OW28468   1.440   5.881   6.997
 9190SOL    HW128469   1.355   5.836   7.025
 9190SOL    HW228470   1.512   5.813   6.988
 9191SOL     OW28471   6.380   0.668   6.556
 9191SOL    HW128472   6.383   0.662   6.655
 9191SOL    HW228473   6.349   0.581   6.517
 9192SOL     OW28474   1.211   3.242   4.781
 9192SOL    HW128475   1.211   3.299   4.698
 9192SOL    HW228476   1.306   3.223   4.808
 9193SOL     OW28477   4.537   3.948   0.543
 9193SOL    HW128478   4.510   3.860   0.505
 9193SOL    HW228479   4.488   4.021   0.495
 9194SOL     OW28480   3.031   0.446   4.345
 9194SOL    HW128481   3.028   0.357   4.300
 9194SOL    HW228482   2.961   0.506   4.306
 9195SOL     OW28483   1.583   1.527   3.714
 9195SOL    HW128484   1.671   1.557   3.677
 9195SOL    HW228485   1.556   1.588   3.789
 9196SOL     OW28486   5.080   0.902   5.757
 9196SOL    HW128487   5.089   0.860   5.847
 9196SOL    HW228488   5.114   0.996   5.760
 9197SOL     OW28489   3.120   3.442   0.477
 9197SOL    HW128490   3.180   3.497   0.419
 9197SOL    HW228491   3.063   3.383   0.421
 9198SOL     OW28492   1.195   4.144   4.996
 9198SOL    HW128493   1.294   4.162   5.000
 9198SOL    HW228494   1.180   4.057   4.949
 9199SOL     OW28495   6.619   5.208   4.920
 9199SOL    HW128496   6.584   5.299   4.944
 9199SOL    HW228497   6.709   5.195   4.960
 9200SOL     OW28498   3.136   6.444   0.617
 9200SOL    HW128499   3.049   6.426   0.663
 9200SOL    HW228500   3.127   6.427   0.519
 9201SOL     OW28501   2.339   4.925   1.141
 9201SOL    HW128502   2.381   4.836   1.159
 9201SOL    HW228503   2.311   4.967   1.227
 9202SOL     OW28504   2.676   1.231   3.754
 9202SOL    HW128505   2.758   1.272   3.794
 9202SOL    HW228506   2.604   1.228   3.823
 9203SOL     OW28507   6.778   6.342   1.262
 9203SOL    HW128508   6.861   6.399   1.266
 9203SOL    HW228509   6.802   6.253   1.224
 9204SOL     OW28510   5.669   0.478   5.265
 9204SOL    HW128511   5.689   0.392   5.311
 9204SOL    HW228512   5.571   0.498   5.273
 9205SOL     OW28513   6.841   5.355   2.657
 9205SOL    HW128514   6.863   5.266   2.618
 9205SOL    HW228515   6.748   5.382   2.629
 9206SOL     OW28516   4.009   0.380   6.865
 9206SOL    HW128517   4.020   0.354   6.769
 9206SOL    HW228518   4.067   0.458   6.886
 9207SOL     OW28519   5.557   5.487   6.364
 9207SOL    HW128520   5.489   5.415   6.378
 9207SOL    HW228521   5.599   5.512   6.451
 9208SOL     OW28522   1.249   3.567   2.091
 9208SOL    HW128523   1.196   3.524   2.165
 9208SOL    HW228524   1.268   3.499   2.020
 9209SOL     OW28525   2.200   6.222   6.536
 9209SOL    HW128526   2.190   6.266   6.447
 9209SOL    HW228527   2.154   6.278   6.606
 9210SOL     OW28528   6.442   0.271   4.076
 9210SOL    HW128529   6.440   0.355   4.131
 9210SOL    HW228530   6.357   0.263   4.025
 9211SOL     OW28531   0.989   1.376   3.323
 9211SOL    HW128532   0.998   1.279   3.346
 9211SOL    HW228533   1.066   1.427   3.361
 9212SOL     OW28534   4.589   4.841   4.772
 9212SOL    HW128535   4.540   4.755   4.759
 9212SOL    HW228536   4.576   4.873   4.866
 9213SOL     OW28537   6.175   3.834   0.759
 9213SOL    HW128538   6.253   3.842   0.698
 9213SOL    HW228539   6.158   3.737   0.779
 9214SOL     OW28540   0.092   5.479   0.911
 9214SOL    HW128541   0.123   5.573   0.902
 9214SOL    HW228542   0.051   5.465   1.001
 9215SOL     OW28543   0.963   1.498   0.907
 9215SOL    HW128544   0.864   1.500   0.893
 9215SOL    HW228545   0.987   1.417   0.962
 9216SOL     OW28546   1.571   6.836   4.158
 9216SOL    HW128547   1.512   6.765   4.119
 9216SOL    HW228548   1.629   6.874   4.085
 9217SOL     OW28549   0.424   2.046   0.846
 9217SOL    HW128550   0.436   2.000   0.758
 9217SOL    HW228551   0.375   1.986   0.909
 9218SOL     OW28552   2.735   1.048   1.115
 9218SOL    HW128553   2.753   1.044   1.017
 9218SOL    HW228554   2.727   1.144   1.144
 9219SOL     OW28555   5.835   1.144   0.879
 9219SOL    HW128556   5.884   1.129   0.793
 9219SOL    HW228557   5.800   1.238   0.881
 9220SOL     OW28558   3.982   6.310   0.420
 9220SOL    HW128559   4.030   6.391   0.455
 9220SOL    HW228560   3.884   6.326   0.424
 9221SOL     OW28561   2.698   4.758   4.735
 9221SOL    HW128562   2.762   4.733   4.808
 9221SOL    HW228563   2.672   4.677   4.683
 9222SOL     OW28564   3.325   2.344   0.175
 9222SOL    HW128565   3.243   2.286   0.175
 9222SOL    HW228566   3.336   2.385   0.084
 9223SOL     OW28567   2.817   3.056   5.275
 9223SOL    HW128568   2.848   3.150   5.269
 9223SOL    HW228569   2.729   3.046   5.228
 9224SOL     OW28570   2.450   4.429   5.076
 9224SOL    HW128571   2.355   4.447   5.100
 9224SOL    HW228572   2.483   4.349   5.127
 9225SOL     OW28573   1.321   5.793   6.742
 9225SOL    HW128574   1.344   5.812   6.838
 9225SOL    HW228575   1.221   5.795   6.732
 9226SOL     OW28576   4.885   6.314   0.782
 9226SOL    HW128577   4.937   6.238   0.820
 9226SOL    HW228578   4.861   6.294   0.687
 9227SOL     OW28579   0.964   6.295   1.947
 9227SOL    HW128580   1.052   6.329   1.980
 9227SOL    HW228581   0.978   6.206   1.903
 9228SOL     OW28582   1.048   5.855   6.712
 9228SOL    HW128583   1.019   5.775   6.659
 9228SOL    HW228584   1.070   5.930   6.651
 9229SOL     OW28585   1.168   6.027   5.133
 9229SOL    HW128586   1.240   6.083   5.092
 9229SOL    HW228587   1.194   5.931   5.130
 9230SOL     OW28588   4.953   1.302   3.242
 9230SOL    HW128589   4.905   1.335   3.161
 9230SOL    HW228590   4.911   1.217   3.273
 9231SOL     OW28591   2.155   3.262   3.376
 9231SOL    HW128592   2.080   3.197   3.368
 9231SOL    HW228593   2.231   3.234   3.317
 9232SOL     OW28594   4.034   5.649   1.134
 9232SOL    HW128595   4.110   5.642   1.198
 9232SOL    HW228596   4.066   5.630   1.042
 9233SOL     OW28597   6.341   4.165   0.523
 9233SOL    HW128598   6.327   4.262   0.504
 9233SOL    HW228599   6.306   4.143   0.614
 9234SOL     OW28600   1.261   6.235   3.703
 9234SOL    HW128601   1.257   6.141   3.670
 9234SOL    HW228602   1.356   6.266   3.707
 9235SOL     OW28603   1.113   2.850   3.191
 9235SOL    HW128604   1.044   2.812   3.129
 9235SOL    HW228605   1.092   2.946   3.209
 9236SOL     OW28606   3.380   2.498   6.665
 9236SOL    HW128607   3.331   2.571   6.617
 9236SOL    HW228608   3.461   2.471   6.613
 9237SOL     OW28609   1.585   3.891   2.882
 9237SOL    HW128610   1.603   3.860   2.788
 9237SOL    HW228611   1.532   3.821   2.930
 9238SOL     OW28612   4.301   4.118   6.760
 9238SOL    HW128613   4.219   4.166   6.792
 9238SOL    HW228614   4.306   4.124   6.660
 9239SOL     OW28615   2.102   3.374   6.830
 9239SOL    HW128616   2.075   3.435   6.905
 9239SOL    HW228617   2.021   3.336   6.787
 9240SOL     OW28618   4.655   0.710   2.215
 9240SOL    HW128619   4.557   0.688   2.213
 9240SOL    HW228620   4.698   0.665   2.293
 9241SOL     OW28621   0.782   5.951   5.363
 9241SOL    HW128622   0.777   5.947   5.462
 9241SOL    HW228623   0.848   6.020   5.336
 9242SOL     OW28624   5.171   6.772   1.645
 9242SOL    HW128625   5.165   6.774   1.546
 9242SOL    HW228626   5.086   6.738   1.684
 9243SOL     OW28627   5.446   0.355   4.622
 9243SOL    HW128628   5.398   0.369   4.535
 9243SOL    HW228629   5.386   0.310   4.687
 9244SOL     OW28630   3.668   6.413   0.518
 9244SOL    HW128631   3.580   6.398   0.474
 9244SOL    HW228632   3.668   6.504   0.560
 9245SOL     OW28633   0.255   7.016   2.122
 9245SOL    HW128634   0.214   6.985   2.036
 9245SOL    HW228635   0.210   6.970   2.198
 9246SOL     OW28636   6.576   5.821   3.657
 9246SOL    HW128637   6.539   5.904   3.614
 9246SOL    HW228638   6.616   5.762   3.586
 9247SOL     OW28639   0.622   0.686   2.681
 9247SOL    HW128640   0.684   0.760   2.708
 9247SOL    HW228641   0.553   0.673   2.752
 9248SOL     OW28642   4.439   1.529   6.379
 9248SOL    HW128643   4.363   1.554   6.319
 9248SOL    HW228644   4.481   1.444   6.347
 9249SOL     OW28645   3.875   6.531   4.033
 9249SOL    HW128646   3.866   6.605   3.966
 9249SOL    HW228647   3.972   6.515   4.053
 9250SOL     OW28648   4.845   3.871   3.213
 9250SOL    HW128649   4.755   3.910   3.196
 9250SOL    HW228650   4.880   3.827   3.130
 9251SOL     OW28651   4.146   1.871   2.373
 9251SOL    HW128652   4.048   1.856   2.361
 9251SOL    HW228653   4.174   1.839   2.464
 9252SOL     OW28654   1.562   6.926   4.997
 9252SOL    HW128655   1.526   6.995   5.060
 9252SOL    HW228656   1.574   6.966   4.906
 9253SOL     OW28657   1.224   6.737   5.901
 9253SOL    HW128658   1.215   6.829   5.938
 9253SOL    HW228659   1.243   6.742   5.803
 9254SOL     OW28660   4.569   2.366   0.662
 9254SOL    HW128661   4.653   2.352   0.715
 9254SOL    HW228662   4.549   2.464   0.656
 9255SOL     OW28663   6.950   4.850   0.202
 9255SOL    HW128664   6.911   4.899   0.280
 9255SOL    HW228665   6.915   4.756   0.201
 9256SOL     OW28666   3.800   5.453   2.822
 9256SOL    HW128667   3.853   5.458   2.907
 9256SOL    HW228668   3.846   5.391   2.758
 9257SOL     OW28669   0.853   3.817   0.663
 9257SOL    HW128670   0.846   3.842   0.759
 9257SOL    HW228671   0.858   3.900   0.607
 9258SOL     OW28672   3.315   2.815   5.109
 9258SOL    HW128673   3.291   2.843   5.016
 9258SOL    HW228674   3.236   2.776   5.154
 9259SOL     OW28675   1.930   2.804   0.563
 9259SOL    HW128676   2.026   2.785   0.582
 9259SOL    HW228677   1.889   2.850   0.642
 9260SOL     OW28678   6.679   3.832   0.422
 9260SOL    HW128679   6.776   3.857   0.424
 9260SOL    HW228680   6.646   3.832   0.328
 9261SOL     OW28681   2.067   6.637   5.534
 9261SOL    HW128682   2.118   6.688   5.465
 9261SOL    HW228683   1.977   6.679   5.546
 9262SOL     OW28684   6.120   6.724   6.644
 9262SOL    HW128685   6.086   6.634   6.669
 9262SOL    HW228686   6.050   6.773   6.590
 9263SOL     OW28687   5.468   3.660   2.619
 9263SOL    HW128688   5.498   3.719   2.693
 9263SOL    HW228689   5.533   3.584   2.608
 9264SOL     OW28690   5.592   2.075   0.128
 9264SOL    HW128691   5.588   2.162   0.080
 9264SOL    HW228692   5.505   2.057   0.174
 9265SOL     OW28693   1.759   1.210   5.577
 9265SOL    HW128694   1.854   1.225   5.548
 9265SOL    HW228695   1.708   1.296   5.570
 9266SOL     OW28696   3.082   6.869   2.989
 9266SOL    HW128697   3.091   6.815   3.072
 9266SOL    HW228698   3.074   6.808   2.910
 9267SOL     OW28699   3.041   4.915   6.166
 9267SOL    HW128700   3.082   5.002   6.195
 9267SOL    HW228701   2.944   4.929   6.147
 9268SOL     OW28702   1.200   1.168   3.332
 9268SOL    HW128703   1.140   1.149   3.255
 9268SOL    HW228704   1.176   1.109   3.409
 9269SOL     OW28705   3.913   1.482   5.162
 9269SOL    HW128706   3.853   1.464   5.083
 9269SOL    HW228707   3.942   1.395   5.202
 9270SOL     OW28708   1.947   0.349   5.486
 9270SOL    HW128709   1.938   0.337   5.585
 9270SOL    HW228710   1.883   0.420   5.456
 9271SOL     OW28711   0.286   5.493   5.511
 9271SOL    HW128712   0.293   5.399   5.546
 9271SOL    HW228713   0.195   5.506   5.472
 9272SOL     OW28714   2.323   4.990   0.075
 9272SOL    HW128715   2.382   5.071   0.067
 9272SOL    HW228716   2.343   4.928   7.025
 9273SOL     OW28717   3.529   5.221   6.135
 9273SOL    HW128718   3.598   5.264   6.194
 9273SOL    HW228719   3.573   5.156   6.074
 9274SOL     OW28720   4.883   1.532   1.809
 9274SOL    HW128721   4.914   1.460   1.870
 9274SOL    HW228722   4.876   1.618   1.859
 9275SOL     OW28723   6.551   0.436   6.296
 9275SOL    HW128724   6.541   0.488   6.381
 9275SOL    HW228725   6.560   0.339   6.318
 9276SOL     OW28726   5.155   0.421   3.989
 9276SOL    HW128727   5.150   0.486   4.065
 9276SOL    HW228728   5.088   0.446   3.919
 9277SOL     OW28729   5.350   2.742   6.744
 9277SOL    HW128730   5.330   2.645   6.734
 9277SOL    HW228731   5.412   2.756   6.821
 9278SOL     OW28732   1.471   2.160   1.098
 9278SOL    HW128733   1.454   2.088   1.030
 9278SOL    HW228734   1.397   2.158   1.166
 9279SOL     OW28735   2.265   0.249   0.716
 9279SOL    HW128736   2.275   0.167   0.773
 9279SOL    HW228737   2.169   0.277   0.715
 9280SOL     OW28738   1.799   0.594   2.080
 9280SOL    HW128739   1.813   0.573   2.177
 9280SOL    HW228740   1.723   0.539   2.044
 9281SOL     OW28741   1.812   2.531   0.425
 9281SOL    HW128742   1.912   2.535   0.424
 9281SOL    HW228743   1.780   2.483   0.344
 9282SOL     OW28744   3.962   0.715   5.887
 9282SOL    HW128745   3.874   0.754   5.857
 9282SOL    HW228746   3.998   0.654   5.817
 9283SOL     OW28747   5.660   2.499   3.332
 9283SOL    HW128748   5.756   2.522   3.349
 9283SOL    HW228749   5.622   2.563   3.265
 9284SOL     OW28750   3.725   3.911   2.009
 9284SOL    HW128751   3.825   3.912   2.014
 9284SOL    HW228752   3.689   4.000   2.038
 9285SOL     OW28753   6.534   2.696   6.923
 9285SOL    HW128754   6.560   2.791   6.905
 9285SOL    HW228755   6.613   2.637   6.910
 9286SOL     OW28756   5.489   5.437   4.433
 9286SOL    HW128757   5.502   5.535   4.420
 9286SOL    HW228758   5.396   5.411   4.405
 9287SOL     OW28759   3.111   0.141   2.367
 9287SOL    HW128760   3.180   0.209   2.342
 9287SOL    HW228761   3.120   0.060   2.309
 9288SOL     OW28762   4.220   1.771   6.923
 9288SOL    HW128763   4.189   1.866   6.926
 9288SOL    HW228764   4.158   1.714   6.978
 9289SOL     OW28765   5.206   3.540   3.341
 9289SOL    HW128766   5.282   3.566   3.401
 9289SOL    HW228767   5.133   3.607   3.350
 9290SOL     OW28768   4.324   2.389   4.429
 9290SOL    HW128769   4.224   2.399   4.431
 9290SOL    HW228770   4.358   2.405   4.337
 9291SOL     OW28771   0.821   2.874   4.944
 9291SOL    HW128772   0.860   2.847   5.032
 9291SOL    HW228773   0.786   2.967   4.950
 9292SOL     OW28774   1.557   4.368   6.961
 9292SOL    HW128775   1.474   4.339   6.913
 9292SOL    HW228776   1.636   4.319   6.924
 9293SOL     OW28777   5.257   3.557   6.165
 9293SOL    HW128778   5.232   3.477   6.220
 9293SOL    HW228779   5.176   3.591   6.117
 9294SOL     OW28780   5.672   5.469   6.959
 9294SOL    HW128781   5.740   5.474   0.007
 9294SOL    HW228782   5.648   5.561   6.928
 9295SOL     OW28783   4.807   2.856   3.333
 9295SOL    HW128784   4.856   2.943   3.334
 9295SOL    HW228785   4.765   2.840   3.422
 9296SOL     OW28786   5.627   0.561   5.008
 9296SOL    HW128787   5.566   0.641   5.001
 9296SOL    HW228788   5.674   0.563   5.096
 9297SOL     OW28789   0.443   7.014   1.844
 9297SOL    HW128790   0.352   0.029   1.843
 9297SOL    HW228791   0.488   0.008   1.931
 9298SOL     OW28792   0.150   6.771   4.185
 9298SOL    HW128793   0.137   6.680   4.145
 9298SOL    HW228794   0.070   6.828   4.165
 9299SOL     OW28795   1.632   2.459   4.752
 9299SOL    HW128796   1.608   2.402   4.674
 9299SOL    HW228797   1.706   2.522   4.727
 9300SOL     OW28798   5.899   4.738   4.068
 9300SOL    HW128799   5.925   4.772   4.159
 9300SOL    HW228800   5.841   4.806   4.023
 9301SOL     OW28801   6.648   4.637   1.278
 9301SOL    HW128802   6.555   4.659   1.306
 9301SOL    HW228803   6.677   4.700   1.206
 9302SOL     OW28804   1.190   2.184   2.528
 9302SOL    HW128805   1.173   2.107   2.467
 9302SOL    HW228806   1.147   2.267   2.490
 9303SOL     OW28807   4.658   4.278   0.696
 9303SOL    HW128808   4.560   4.282   0.678
 9303SOL    HW228809   4.708   4.293   0.611
 9304SOL     OW28810   4.583   3.776   0.796
 9304SOL    HW128811   4.624   3.695   0.754
 9304SOL    HW228812   4.549   3.838   0.725
 9305SOL     OW28813   4.579   4.065   1.708
 9305SOL    HW128814   4.603   3.986   1.764
 9305SOL    HW228815   4.506   4.117   1.754
 9306SOL     OW28816   0.605   6.364   2.962
 9306SOL    HW128817   0.539   6.386   3.034
 9306SOL    HW228818   0.649   6.448   2.931
 9307SOL     OW28819   2.439   0.744   6.350
 9307SOL    HW128820   2.359   0.714   6.298
 9307SOL    HW228821   2.455   0.682   6.426
 9308SOL     OW28822   0.489   2.184   0.514
 9308SOL    HW128823   0.575   2.186   0.566
 9308SOL    HW228824   0.419   2.137   0.567
 9309SOL     OW28825   4.261   2.860   6.886
 9309SOL    HW128826   4.207   2.776   6.880
 9309SOL    HW228827   4.357   2.840   6.868
 9310SOL     OW28828   3.764   6.382   1.008
 9310SOL    HW128829   3.776   6.295   0.961
 9310SOL    HW228830   3.850   6.434   1.004
 9311SOL     OW28831   0.245   3.139   1.516
 9311SOL    HW128832   0.343   3.156   1.512
 9311SOL    HW228833   0.219   3.075   1.444
 9312SOL     OW28834   1.689   3.896   4.626
 9312SOL    HW128835   1.677   3.849   4.538
 9312SOL    HW228836   1.606   3.888   4.680
 9313SOL     OW28837   6.535   0.505   3.055
 9313SOL    HW128838   6.553   0.416   3.015
 9313SOL    HW228839   6.617   0.538   3.102
 9314SOL     OW28840   6.991   3.826   0.399
 9314SOL    HW128841   0.045   3.795   0.451
 9314SOL    HW228842   6.934   3.747   0.375
 9315SOL     OW28843   0.297   5.855   6.265
 9315SOL    HW128844   0.380   5.817   6.305
 9315SOL    HW228845   0.271   5.938   6.315
 9316SOL     OW28846   2.823   4.946   4.580
 9316SOL    HW128847   2.798   4.884   4.653
 9316SOL    HW228848   2.894   4.904   4.523
 9317SOL     OW28849   3.784   4.251   5.615
 9317SOL    HW128850   3.742   4.227   5.702
 9317SOL    HW228851   3.714   4.252   5.543
 9318SOL     OW28852   0.179   6.616   6.272
 9318SOL    HW128853   0.135   6.647   6.356
 9318SOL    HW228854   0.175   6.690   6.204
 9319SOL     OW28855   6.604   3.874   4.468
 9319SOL    HW128856   6.645   3.832   4.386
 9319SOL    HW228857   6.594   3.805   4.540
 9320SOL     OW28858   3.771   3.093   5.728
 9320SOL    HW128859   3.726   3.005   5.747
 9320SOL    HW228860   3.737   3.129   5.641
 9321SOL     OW28861   5.470   6.964   3.926
 9321SOL    HW128862   5.383   7.013   3.938
 9321SOL    HW228863   5.525   7.011   3.858
 9322SOL     OW28864   0.756   5.982   1.345
 9322SOL    HW128865   0.753   6.077   1.376
 9322SOL    HW228866   0.765   5.980   1.245
 9323SOL     OW28867   0.885   1.264   5.945
 9323SOL    HW128868   0.832   1.241   5.863
 9323SOL    HW228869   0.896   1.363   5.950
 9324SOL     OW28870   1.310   5.265   6.952
 9324SOL    HW128871   1.331   5.362   6.966
 9324SOL    HW228872   1.392   5.210   6.971
 9325SOL     OW28873   0.615   3.122   6.669
 9325SOL    HW128874   0.557   3.050   6.630
 9325SOL    HW228875   0.573   3.158   6.752
 9326SOL     OW28876   2.441   5.904   1.805
 9326SOL    HW128877   2.533   5.889   1.842
 9326SOL    HW228878   2.448   5.950   1.717
 9327SOL     OW28879   1.991   2.117   4.355
 9327SOL    HW128880   1.974   2.116   4.257
 9327SOL    HW228881   2.078   2.071   4.374
 9328SOL     OW28882   2.185   1.652   1.999
 9328SOL    HW128883   2.210   1.734   1.947
 9328SOL    HW228884   2.262   1.588   1.999
 9329SOL     OW28885   1.017   3.637   1.434
 9329SOL    HW128886   1.069   3.722   1.448
 9329SOL    HW228887   1.073   3.573   1.381
 9330SOL     OW28888   5.186   5.942   6.716
 9330SOL    HW128889   5.195   6.022   6.657
 9330SOL    HW228890   5.223   5.963   6.806
 9331SOL     OW28891   1.029   1.250   0.319
 9331SOL    HW128892   1.074   1.205   0.396
 9331SOL    HW228893   1.031   1.349   0.332
 9332SOL     OW28894   3.816   4.128   4.904
 9332SOL    HW128895   3.884   4.068   4.945
 9332SOL    HW228896   3.847   4.222   4.908
 9333SOL     OW28897   5.086   6.335   1.215
 9333SOL    HW128898   5.016   6.270   1.247
 9333SOL    HW228899   5.051   6.383   1.134
 9334SOL     OW28900   2.088   6.531   4.856
 9334SOL    HW128901   2.031   6.457   4.821
 9334SOL    HW228902   2.048   6.568   4.939
 9335SOL     OW28903   0.535   1.606   2.624
 9335SOL    HW128904   0.617   1.596   2.681
 9335SOL    HW228905   0.467   1.660   2.674
 9336SOL     OW28906   3.279   0.331   5.069
 9336SOL    HW128907   3.214   0.374   5.007
 9336SOL    HW228908   3.317   0.249   5.025
 9337SOL     OW28909   4.923   6.569   3.355
 9337SOL    HW128910   4.868   6.504   3.408
 9337SOL    HW228911   4.875   6.593   3.271
 9338SOL     OW28912   1.942   6.544   2.505
 9338SOL    HW128913   1.889   6.575   2.584
 9338SOL    HW228914   2.007   6.474   2.534
 9339SOL     OW28915   3.784   5.703   2.032
 9339SOL    HW128916   3.699   5.756   2.034
 9339SOL    HW228917   3.761   5.606   2.019
 9340SOL     OW28918   6.926   2.786   6.940
 9340SOL    HW128919   7.010   2.736   6.961
 9340SOL    HW228920   6.867   2.729   6.882
 9341SOL     OW28921   0.624   3.995   5.768
 9341SOL    HW128922   0.677   4.080   5.759
 9341SOL    HW228923   0.686   3.920   5.792
 9342SOL     OW28924   1.783   0.310   0.033
 9342SOL    HW128925   1.798   0.371   0.111
 9342SOL    HW228926   1.699   0.258   0.047
 9343SOL     OW28927   6.158   6.565   3.181
 9343SOL    HW128928   6.074   6.617   3.198
 9343SOL    HW228929   6.236   6.627   3.179
 9344SOL     OW28930   5.216   6.265   0.798
 9344SOL    HW128931   5.176   6.336   0.741
 9344SOL    HW228932   5.287   6.306   0.856
 9345SOL     OW28933   0.920   2.175   0.461
 9345SOL    HW128934   0.955   2.084   0.438
 9345SOL    HW228935   0.984   2.220   0.523
 9346SOL     OW28936   6.128   0.390   0.884
 9346SOL    HW128937   6.077   0.451   0.944
 9346SOL    HW228938   6.094   0.297   0.895
 9347SOL     OW28939   1.898   6.258   2.685
 9347SOL    HW128940   1.814   6.268   2.740
 9347SOL    HW228941   1.873   6.243   2.589
 9348SOL     OW28942   2.701   5.145   0.341
 9348SOL    HW128943   2.722   5.048   0.355
 9348SOL    HW228944   2.760   5.181   0.268
 9349SOL     OW28945   1.144   6.575   2.745
 9349SOL    HW128946   1.114   6.644   2.679
 9349SOL    HW228947   1.069   6.556   2.810
 9350SOL     OW28948   0.492   3.271   5.315
 9350SOL    HW128949   0.581   3.226   5.326
 9350SOL    HW228950   0.451   3.243   5.228
 9351SOL     OW28951   3.102   6.477   0.065
 9351SOL    HW128952   3.179   6.461   0.003
 9351SOL    HW228953   3.094   6.575   0.084
 9352SOL     OW28954   2.820   4.961   6.046
 9352SOL    HW128955   2.796   5.055   6.022
 9352SOL    HW228956   2.869   4.919   5.970
 9353SOL     OW28957   6.848   0.341   0.674
 9353SOL    HW128958   6.860   0.260   0.617
 9353SOL    HW228959   6.937   0.373   0.706
 9354SOL     OW28960   1.062   1.291   5.441
 9354SOL    HW128961   1.032   1.284   5.536
 9354SOL    HW228962   1.136   1.358   5.435
 9355SOL     OW28963   1.199   1.508   5.418
 9355SOL    HW128964   1.278   1.559   5.387
 9355SOL    HW228965   1.166   1.546   5.504
 9356SOL     OW28966   3.820   0.830   3.430
 9356SOL    HW128967   3.876   0.912   3.439
 9356SOL    HW228968   3.879   0.750   3.417
 9357SOL     OW28969   2.190   2.803   0.588
 9357SOL    HW128970   2.240   2.872   0.640
 9357SOL    HW228971   2.251   2.760   0.522
 9358SOL     OW28972   1.217   1.716   0.617
 9358SOL    HW128973   1.306   1.760   0.630
 9358SOL    HW228974   1.225   1.618   0.638
 9359SOL     OW28975   0.750   0.661   5.695
 9359SOL    HW128976   0.801   0.664   5.609
 9359SOL    HW228977   0.807   0.697   5.769
 9360SOL     OW28978   6.630   6.965   5.661
 9360SOL    HW128979   6.659   7.021   5.739
 9360SOL    HW228980   6.580   6.885   5.695
 9361SOL     OW28981   2.058   5.526   5.123
 9361SOL    HW128982   2.050   5.471   5.206
 9361SOL    HW228983   2.016   5.478   5.046
 9362SOL     OW28984   1.807   0.532   2.337
 9362SOL    HW128985   1.891   0.540   2.391
 9362SOL    HW228986   1.772   0.439   2.345
 9363SOL     OW28987   1.304   2.600   2.139
 9363SOL    HW128988   1.391   2.649   2.146
 9363SOL    HW228989   1.310   2.534   2.064
 9364SOL     OW28990   0.679   1.952   6.525
 9364SOL    HW128991   0.669   1.944   6.426
 9364SOL    HW228992   0.737   1.878   6.559
 9365SOL     OW28993   2.810   0.904   4.985
 9365SOL    HW128994   2.762   0.983   5.023
 9365SOL    HW228995   2.743   0.844   4.940
 9366SOL     OW28996   3.501   5.951   2.431
 9366SOL    HW128997   3.599   5.957   2.413
 9366SOL    HW228998   3.479   6.006   2.512
 9367SOL     OW28999   6.842   0.085   1.549
 9367SOL    HW129000   6.859   0.157   1.616
 9367SOL    HW229001   6.898   0.101   1.468
 9368SOL     OW29002   2.241   0.817   3.395
 9368SOL    HW129003   2.330   0.772   3.394
 9368SOL    HW229004   2.178   0.768   3.335
 9369SOL     OW29005   3.535   5.046   0.760
 9369SOL    HW129006   3.587   5.118   0.805
 9369SOL    HW229007   3.477   5.000   0.828
 9370SOL     OW29008   4.865   2.352   5.079
 9370SOL    HW129009   4.878   2.316   5.172
 9370SOL    HW229010   4.954   2.363   5.036
 9371SOL     OW29011   4.228   4.775   0.621
 9371SOL    HW129012   4.299   4.841   0.595
 9371SOL    HW229013   4.194   4.730   0.538
 9372SOL     OW29014   5.445   6.904   0.735
 9372SOL    HW129015   5.495   6.985   0.767
 9372SOL    HW229016   5.494   6.863   0.658
 9373SOL     OW29017   0.288   1.494   1.310
 9373SOL    HW129018   0.368   1.466   1.256
 9373SOL    HW229019   0.223   1.419   1.315
 9374SOL     OW29020   6.769   5.301   6.075
 9374SOL    HW129021   6.857   5.332   6.040
 9374SOL    HW229022   6.700   5.373   6.061
 9375SOL     OW29023   1.819   1.510   6.785
 9375SOL    HW129024   1.877   1.454   6.844
 9375SOL    HW229025   1.723   1.498   6.811
 9376SOL     OW29026   3.380   3.937   0.605
 9376SOL    HW129027   3.303   3.908   0.548
 9376SOL    HW229028   3.450   3.865   0.605
 9377SOL     OW29029   0.675   1.207   3.451
 9377SOL    HW129030   0.626   1.285   3.413
 9377SOL    HW229031   0.736   1.238   3.524
 9378SOL     OW29032   4.028   1.211   5.273
 9378SOL    HW129033   4.061   1.123   5.240
 9378SOL    HW229034   3.967   1.196   5.351
 9379SOL     OW29035   3.472   6.960   4.455
 9379SOL    HW129036   3.432   0.024   4.476
 9379SOL    HW229037   3.513   6.962   4.364
 9380SOL     OW29038   5.095   6.364   1.556
 9380SOL    HW129039   5.011   6.336   1.510
 9380SOL    HW229040   5.162   6.393   1.487
 9381SOL     OW29041   4.484   1.465   4.875
 9381SOL    HW129042   4.533   1.405   4.812
 9381SOL    HW229043   4.457   1.413   4.956
 9382SOL     OW29044   2.831   5.772   6.263
 9382SOL    HW129045   2.756   5.742   6.322
 9382SOL    HW229046   2.908   5.803   6.319
 9383SOL     OW29047   5.694   3.981   0.931
 9383SOL    HW129048   5.661   3.980   1.025
 9383SOL    HW229049   5.620   3.952   0.870
 9384SOL     OW29050   4.378   0.438   0.494
 9384SOL    HW129051   4.452   0.472   0.552
 9384SOL    HW229052   4.340   0.355   0.534
 9385SOL     OW29053   4.448   2.413   4.180
 9385SOL    HW129054   4.407   2.384   4.093
 9385SOL    HW229055   4.507   2.492   4.164
 9386SOL     OW29056   5.492   0.340   1.059
 9386SOL    HW129057   5.438   0.424   1.067
 9386SOL    HW229058   5.447   0.277   0.995
 9387SOL     OW29059   3.313   2.169   6.618
 9387SOL    HW129060   3.230   2.170   6.562
 9387SOL    HW229061   3.332   2.261   6.652
 9388SOL     OW29062   2.172   6.241   5.427
 9388SOL    HW129063   2.131   6.299   5.356
 9388SOL    HW229064   2.271   6.252   5.426
 9389SOL     OW29065   2.086   3.746   1.858
 9389SOL    HW129066   2.121   3.662   1.897
 9389SOL    HW229067   2.095   3.820   1.924
 9390SOL     OW29068   5.561   5.331   4.026
 9390SOL    HW129069   5.644   5.279   4.048
 9390SOL    HW229070   5.481   5.277   4.050
 9391SOL     OW29071   0.516   5.213   4.532
 9391SOL    HW129072   0.523   5.264   4.618
 9391SOL    HW229073   0.457   5.134   4.545
 9392SOL     OW29074   3.197   5.154   2.792
 9392SOL    HW129075   3.183   5.252   2.806
 9392SOL    HW229076   3.295   5.134   2.795
 9393SOL     OW29077   1.912   4.940   0.520
 9393SOL    HW129078   1.821   4.911   0.551
 9393SOL    HW229079   1.975   4.863   0.522
 9394SOL     OW29080   4.692   0.021   6.934
 9394SOL    HW129081   4.622   0.040   6.864
 9394SOL    HW229082   4.721   6.952   6.926
 9395SOL     OW29083   0.560   0.609   1.285
 9395SOL    HW129084   0.514   0.643   1.203
 9395SOL    HW229085   0.553   0.677   1.357
 9396SOL     OW29086   1.230   0.904   6.411
 9396SOL    HW129087   1.322   0.902   6.373
 9396SOL    HW229088   1.163   0.916   6.338
 9397SOL     OW29089   3.555   1.892   5.841
 9397SOL    HW129090   3.560   1.797   5.872
 9397SOL    HW229091   3.491   1.943   5.899
 9398SOL     OW29092   6.914   3.074   6.922
 9398SOL    HW129093   6.971   3.117   6.992
 9398SOL    HW229094   6.914   2.975   6.934
 9399SOL     OW29095   1.374   2.695   4.565
 9399SOL    HW129096   1.359   2.769   4.629
 9399SOL    HW229097   1.289   2.643   4.552
 9400SOL     OW29098   5.513   1.368   0.774
 9400SOL    HW129099   5.607   1.395   0.753
 9400SOL    HW229100   5.450   1.432   0.732
 9401SOL     OW29101   6.535   1.938   3.948
 9401SOL    HW129102   6.529   1.953   4.047
 9401SOL    HW229103   6.515   1.842   3.928
 9402SOL     OW29104   3.676   5.480   5.456
 9402SOL    HW129105   3.707   5.553   5.517
 9402SOL    HW229106   3.597   5.434   5.496
 9403SOL     OW29107   5.535   2.075   0.882
 9403SOL    HW129108   5.597   1.999   0.900
 9403SOL    HW229109   5.500   2.111   0.969
 9404SOL     OW29110   2.584   2.473   0.714
 9404SOL    HW129111   2.642   2.459   0.634
 9404SOL    HW229112   2.604   2.402   0.782
 9405SOL     OW29113   5.687   5.887   4.856
 9405SOL    HW129114   5.730   5.946   4.787
 9405SOL    HW229115   5.646   5.808   4.811
 9406SOL     OW29116   1.722   1.083   0.802
 9406SOL    HW129117   1.730   1.006   0.865
 9406SOL    HW229118   1.807   1.137   0.804
 9407SOL     OW29119   1.828   4.280   4.758
 9407SOL    HW129120   1.900   4.303   4.823
 9407SOL    HW229121   1.794   4.363   4.715
 9408SOL     OW29122   5.693   5.396   3.798
 9408SOL    HW129123   5.634   5.368   3.874
 9408SOL    HW229124   5.780   5.428   3.834
 9409SOL     OW29125   6.058   4.882   1.741
 9409SOL    HW129126   5.993   4.959   1.737
 9409SOL    HW229127   6.028   4.809   1.680
 9410SOL     OW29128   4.572   0.514   0.679
 9410SOL    HW129129   4.556   0.487   0.774
 9410SOL    HW229130   4.668   0.535   0.665
 9411SOL     OW29131   3.765   3.724   5.037
 9411SOL    HW129132   3.705   3.796   5.003
 9411SOL    HW229133   3.733   3.635   5.002
 9412SOL     OW29134   3.775   6.803   1.781
 9412SOL    HW129135   3.857   6.776   1.831
 9412SOL    HW229136   3.784   6.777   1.685
 9413SOL     OW29137   4.286   4.900   3.251
 9413SOL    HW129138   4.191   4.894   3.222
 9413SOL    HW229139   4.346   4.876   3.176
 9414SOL     OW29140   2.132   0.802   2.559
 9414SOL    HW129141   2.125   0.795   2.659
 9414SOL    HW229142   2.057   0.859   2.524
 9415SOL     OW29143   4.721   1.128   0.658
 9415SOL    HW129144   4.768   1.059   0.713
 9415SOL    HW229145   4.761   1.218   0.675
 9416SOL     OW29146   6.528   4.933   6.030
 9416SOL    HW129147   6.466   4.946   5.952
 9416SOL    HW229148   6.622   4.945   6.000
 9417SOL     OW29149   4.019   6.318   3.212
 9417SOL    HW129150   4.085   6.267   3.268
 9417SOL    HW229151   3.977   6.257   3.145
 9418SOL     OW29152   2.616   2.105   5.003
 9418SOL    HW129153   2.593   2.118   4.906
 9418SOL    HW229154   2.682   2.174   5.031
 9419SOL     OW29155   2.781   2.348   5.928
 9419SOL    HW129156   2.756   2.418   5.860
 9419SOL    HW229157   2.700   2.322   5.981
 9420SOL     OW29158   5.163   3.653   5.588
 9420SOL    HW129159   5.075   3.700   5.589
 9420SOL    HW229160   5.184   3.623   5.495
 9421SOL     OW29161   3.719   6.924   0.085
 9421SOL    HW129162   3.804   6.911   0.035
 9421SOL    HW229163   3.691   7.020   0.080
 9422SOL     OW29164   1.808   6.145   5.943
 9422SOL    HW129165   1.795   6.172   5.848
 9422SOL    HW229166   1.728   6.093   5.974
 9423SOL     OW29167   5.271   4.568   1.023
 9423SOL    HW129168   5.328   4.488   1.007
 9423SOL    HW229169   5.176   4.539   1.038
 9424SOL     OW29170   6.046   6.659   3.992
 9424SOL    HW129171   6.043   6.641   3.894
 9424SOL    HW229172   5.997   6.744   4.012
 9425SOL     OW29173   0.118   5.872   1.088
 9425SOL    HW129174   0.142   5.806   1.159
 9425SOL    HW229175   0.164   5.848   1.003
 9426SOL     OW29176   5.037   1.475   6.116
 9426SOL    HW129177   5.095   1.394   6.104
 9426SOL    HW229178   5.026   1.494   6.213
 9427SOL     OW29179   3.271   5.797   1.952
 9427SOL    HW129180   3.287   5.855   2.032
 9427SOL    HW229181   3.304   5.705   1.971
 9428SOL     OW29182   6.913   6.482   4.333
 9428SOL    HW129183   6.987   6.484   4.401
 9428SOL    HW229184   6.874   6.390   4.330
 9429SOL     OW29185   3.201   2.000   4.072
 9429SOL    HW129186   3.269   2.056   4.121
 9429SOL    HW229187   3.181   1.918   4.126
 9430SOL     OW29188   1.263   0.414   3.900
 9430SOL    HW129189   1.196   0.441   3.831
 9430SOL    HW229190   1.308   0.329   3.873
 9431SOL     OW29191   1.274   4.854   5.316
 9431SOL    HW129192   1.294   4.791   5.391
 9431SOL    HW229193   1.250   4.802   5.234
 9432SOL     OW29194   6.772   2.154   2.824
 9432SOL    HW129195   6.869   2.132   2.840
 9432SOL    HW229196   6.733   2.196   2.906
 9433SOL     OW29197   4.172   5.529   1.595
 9433SOL    HW129198   4.117   5.607   1.624
 9433SOL    HW229199   4.254   5.522   1.652
 9434SOL     OW29200   4.959   6.025   4.605
 9434SOL    HW129201   4.941   6.097   4.538
 9434SOL    HW229202   5.058   6.020   4.622
 9435SOL     OW29203   6.904   3.940   6.840
 9435SOL    HW129204   6.871   4.028   6.874
 9435SOL    HW229205   6.870   3.925   6.747
 9436SOL     OW29206   2.888   1.974   2.532
 9436SOL    HW129207   2.984   1.999   2.535
 9436SOL    HW229208   2.843   2.001   2.617
 9437SOL     OW29209   4.476   1.325   3.785
 9437SOL    HW129210   4.473   1.415   3.741
 9437SOL    HW229211   4.556   1.320   3.845
 9438SOL     OW29212   4.538   0.385   2.823
 9438SOL    HW129213   4.444   0.361   2.797
 9438SOL    HW229214   4.573   0.454   2.760
 9439SOL     OW29215   1.402   5.083   0.912
 9439SOL    HW129216   1.491   5.119   0.886
 9439SOL    HW229217   1.331   5.127   0.858
 9440SOL     OW29218   1.810   5.166   4.241
 9440SOL    HW129219   1.860   5.081   4.224
 9440SOL    HW229220   1.764   5.161   4.329
 9441SOL     OW29221   6.763   6.262   4.277
 9441SOL    HW129222   6.810   6.232   4.194
 9441SOL    HW229223   6.666   6.273   4.258
 9442SOL     OW29224   6.508   2.706   1.177
 9442SOL    HW129225   6.417   2.670   1.199
 9442SOL    HW229226   6.507   2.742   1.084
 9443SOL     OW29227   1.018   4.867   1.222
 9443SOL    HW129228   1.007   4.940   1.154
 9443SOL    HW229229   0.928   4.830   1.246
 9444SOL     OW29230   2.194   6.084   5.890
 9444SOL    HW129231   2.172   6.020   5.817
 9444SOL    HW229232   2.195   6.035   5.978
 9445SOL     OW29233   1.151   1.309   4.349
 9445SOL    HW129234   1.080   1.330   4.416
 9445SOL    HW229235   1.223   1.254   4.394
 9446SOL     OW29236   5.140   5.785   3.312
 9446SOL    HW129237   5.138   5.713   3.382
 9446SOL    HW229238   5.053   5.784   3.262
 9447SOL     OW29239   6.039   5.356   2.320
 9447SOL    HW129240   6.015   5.316   2.409
 9447SOL    HW229241   6.014   5.453   2.320
 9448SOL     OW29242   5.004   3.053   0.169
 9448SOL    HW129243   5.046   3.127   0.118
 9448SOL    HW229244   5.036   2.965   0.135
 9449SOL     OW29245   4.088   0.396   3.277
 9449SOL    HW129246   3.989   0.381   3.271
 9449SOL    HW229247   4.123   0.354   3.361
 9450SOL     OW29248   0.820   0.595   2.039
 9450SOL    HW129249   0.786   0.537   2.113
 9450SOL    HW229250   0.828   0.542   1.955
 9451SOL     OW29251   4.180   5.131   0.126
 9451SOL    HW129252   4.142   5.052   0.078
 9451SOL    HW229253   4.157   5.125   0.223
 9452SOL     OW29254   6.173   2.980   5.488
 9452SOL    HW129255   6.094   3.035   5.513
 9452SOL    HW229256   6.257   3.030   5.508
 9453SOL     OW29257   6.203   5.070   2.968
 9453SOL    HW129258   6.225   5.044   3.062
 9453SOL    HW229259   6.272   5.032   2.906
 9454SOL     OW29260   5.322   5.415   1.371
 9454SOL    HW129261   5.359   5.507   1.362
 9454SOL    HW229262   5.397   5.349   1.376
 9455SOL     OW29263   4.555   0.949   1.497
 9455SOL    HW129264   4.618   0.947   1.575
 9455SOL    HW229265   4.484   0.880   1.509
 9456SOL     OW29266   6.803   2.710   1.761
 9456SOL    HW129267   6.814   2.690   1.664
 9456SOL    HW229268   6.817   2.626   1.814
 9457SOL     OW29269   6.635   6.575   4.387
 9457SOL    HW129270   6.735   6.567   4.395
 9457SOL    HW229271   6.597   6.487   4.357
 9458SOL     OW29272   0.163   4.206   6.894
 9458SOL    HW129273   0.064   4.205   6.910
 9458SOL    HW229274   0.207   4.141   6.955
 9459SOL     OW29275   6.568   4.811   5.155
 9459SOL    HW129276   6.573   4.728   5.210
 9459SOL    HW229277   6.597   4.791   5.062
 9460SOL     OW29278   2.110   3.120   2.787
 9460SOL    HW129279   2.120   3.212   2.824
 9460SOL    HW229280   2.153   3.054   2.849
 9461SOL     OW29281   1.309   1.342   1.080
 9461SOL    HW129282   1.223   1.306   1.042
 9461SOL    HW229283   1.288   1.403   1.156
 9462SOL     OW29284   0.079   0.902   5.590
 9462SOL    HW129285   0.084   0.804   5.574
 9462SOL    HW229286   0.164   0.934   5.631
 9463SOL     OW29287   0.778   4.890   0.858
 9463SOL    HW129288   0.752   4.982   0.886
 9463SOL    HW229289   0.873   4.891   0.826
 9464SOL     OW29290   1.202   0.814   1.957
 9464SOL    HW129291   1.301   0.814   1.947
 9464SOL    HW229292   1.166   0.904   1.934
 9465SOL     OW29293   1.378   5.556   6.974
 9465SOL    HW129294   1.313   5.611   7.026
 9465SOL    HW229295   1.464   5.605   6.965
 9466SOL     OW29296   3.910   4.476   5.535
 9466SOL    HW129297   3.879   4.383   5.552
 9466SOL    HW229298   3.901   4.498   5.438
 9467SOL     OW29299   1.432   3.845   1.585
 9467SOL    HW129300   1.463   3.752   1.606
 9467SOL    HW229301   1.366   3.842   1.510
 9468SOL     OW29302   6.679   2.090   0.984
 9468SOL    HW129303   6.641   2.180   0.961
 9468SOL    HW229304   6.660   2.070   1.081
 9469SOL     OW29305   5.780   6.445   2.138
 9469SOL    HW129306   5.751   6.529   2.093
 9469SOL    HW229307   5.841   6.394   2.077
 9470SOL     OW29308   3.397   3.515   1.104
 9470SOL    HW129309   3.346   3.460   1.037
 9470SOL    HW229310   3.408   3.462   1.188
 9471SOL     OW29311   0.214   3.267   4.868
 9471SOL    HW129312   0.212   3.192   4.803
 9471SOL    HW229313   0.136   3.258   4.931
 9472SOL     OW29314   2.397   4.440   5.843
 9472SOL    HW129315   2.466   4.484   5.785
 9472SOL    HW229316   2.439   4.364   5.893
 9473SOL     OW29317   2.728   3.389   1.792
 9473SOL    HW129318   2.775   3.418   1.875
 9473SOL    HW229319   2.660   3.457   1.767
 9474SOL     OW29320   5.883   4.217   1.053
 9474SOL    HW129321   5.787   4.243   1.069
 9474SOL    HW229322   5.885   4.134   0.996
 9475SOL     OW29323   6.045   3.443   6.854
 9475SOL    HW129324   6.135   3.445   6.810
 9475SOL    HW229325   5.975   3.428   6.785
 9476SOL     OW29326   3.914   3.482   1.027
 9476SOL    HW129327   3.835   3.437   1.067
 9476SOL    HW229328   3.998   3.437   1.058
 9477SOL     OW29329   0.926   5.768   1.402
 9477SOL    HW129330   0.913   5.715   1.486
 9477SOL    HW229331   0.846   5.826   1.387
 9478SOL     OW29332   0.536   3.637   5.449
 9478SOL    HW129333   0.473   3.667   5.376
 9478SOL    HW229334   0.628   3.626   5.411
 9479SOL     OW29335   4.186   0.822   2.242
 9479SOL    HW129336   4.217   0.902   2.191
 9479SOL    HW229337   4.165   0.848   2.336
 9480SOL     OW29338   5.454   0.924   1.382
 9480SOL    HW129339   5.370   0.918   1.328
 9480SOL    HW229340   5.439   0.885   1.473
 9481SOL     OW29341   4.961   6.992   3.705
 9481SOL    HW129342   4.981   6.976   3.802
 9481SOL    HW229343   4.885   6.934   3.677
 9482SOL     OW29344   5.565   4.134   6.305
 9482SOL    HW129345   5.579   4.059   6.240
 9482SOL    HW229346   5.468   4.144   6.326
 9483SOL     OW29347   5.711   5.008   0.415
 9483SOL    HW129348   5.631   4.949   0.424
 9483SOL    HW229349   5.736   5.016   0.318
 9484SOL     OW29350   1.377   5.532   4.084
 9484SOL    HW129351   1.464   5.571   4.114
 9484SOL    HW229352   1.391   5.438   4.053
 9485SOL     OW29353   6.633   1.337   5.932
 9485SOL    HW129354   6.565   1.335   6.005
 9485SOL    HW229355   6.586   1.327   5.843
 9486SOL     OW29356   6.100   5.109   6.158
 9486SOL    HW129357   6.096   5.081   6.254
 9486SOL    HW229358   6.192   5.095   6.122
 9487SOL     OW29359   2.997   3.788   3.947
 9487SOL    HW129360   2.967   3.781   4.042
 9487SOL    HW229361   2.938   3.732   3.889
 9488SOL     OW29362   0.832   1.299   2.613
 9488SOL    HW129363   0.809   1.277   2.707
 9488SOL    HW229364   0.769   1.369   2.579
 9489SOL     OW29365   0.363   4.385   6.868
 9489SOL    HW129366   0.356   4.424   6.960
 9489SOL    HW229367   0.282   4.329   6.849
 9490SOL     OW29368   5.725   4.257   4.850
 9490SOL    HW129369   5.795   4.282   4.783
 9490SOL    HW229370   5.768   4.230   4.936
 9491SOL     OW29371   5.145   0.099   2.138
 9491SOL    HW129372   5.111   0.075   2.047
 9491SOL    HW229373   5.222   0.162   2.129
 9492SOL     OW29374   4.899   2.681   4.103
 9492SOL    HW129375   4.968   2.743   4.065
 9492SOL    HW229376   4.940   2.591   4.119
 9493SOL     OW29377   2.391   6.425   3.356
 9493SOL    HW129378   2.442   6.493   3.408
 9493SOL    HW229379   2.446   6.393   3.279
 9494SOL     OW29380   4.891   2.384   2.522
 9494SOL    HW129381   4.926   2.439   2.598
 9494SOL    HW229382   4.802   2.421   2.494
 9495SOL     OW29383   6.162   2.441   0.753
 9495SOL    HW129384   6.088   2.374   0.742
 9495SOL    HW229385   6.250   2.393   0.749
 9496SOL     OW29386   6.314   3.153   0.546
 9496SOL    HW129387   6.335   3.173   0.641
 9496SOL    HW229388   6.384   3.194   0.487
 9497SOL     OW29389   6.241   4.765   4.900
 9497SOL    HW129390   6.306   4.817   4.845
 9497SOL    HW229391   6.291   4.701   4.958
 9498SOL     OW29392   0.827   6.149   5.886
 9498SOL    HW129393   0.776   6.070   5.919
 9498SOL    HW229394   0.863   6.200   5.964
 9499SOL     OW29395   5.608   6.200   3.261
 9499SOL    HW129396   5.631   6.144   3.340
 9499SOL    HW229397   5.530   6.259   3.283
 9500SOL     OW29398   2.358   1.862   0.577
 9500SOL    HW129399   2.400   1.953   0.580
 9500SOL    HW229400   2.428   1.793   0.598
 9501SOL     OW29401   1.533   3.129   4.648
 9501SOL    HW129402   1.524   3.183   4.732
 9501SOL    HW229403   1.618   3.076   4.653
 9502SOL     OW29404   5.517   4.668   3.903
 9502SOL    HW129405   5.584   4.623   3.844
 9502SOL    HW229406   5.430   4.617   3.898
 9503SOL     OW29407   6.728   0.525   0.088
 9503SOL    HW129408   6.798   0.495   0.153
 9503SOL    HW229409   6.646   0.554   0.137
 9504SOL     OW29410   6.299   4.655   2.736
 9504SOL    HW129411   6.320   4.753   2.741
 9504SOL    HW229412   6.282   4.620   2.828
 9505SOL     OW29413   5.054   2.812   0.023
 9505SOL    HW129414   5.145   2.776   0.040
 9505SOL    HW229415   4.986   2.742   0.043
 9506SOL     OW29416   4.089   1.079   1.570
 9506SOL    HW129417   4.031   1.055   1.649
 9506SOL    HW229418   4.076   1.010   1.498
 9507SOL     OW29419   6.967   6.096   1.510
 9507SOL    HW129420   7.021   6.019   1.544
 9507SOL    HW229421   0.002   6.173   1.489
 9508SOL     OW29422   4.994   1.517   2.290
 9508SOL    HW129423   5.053   1.572   2.231
 9508SOL    HW229424   4.959   1.573   2.364
 9509SOL     OW29425   5.407   1.586   3.916
 9509SOL    HW129426   5.364   1.496   3.908
 9509SOL    HW229427   5.362   1.650   3.853
 9510SOL     OW29428   1.663   3.769   2.321
 9510SOL    HW129429   1.684   3.865   2.339
 9510SOL    HW229430   1.591   3.763   2.252
 9511SOL     OW29431   0.928   1.184   0.788
 9511SOL    HW129432   1.010   1.180   0.730
 9511SOL    HW229433   0.951   1.227   0.875
 9512SOL     OW29434   6.338   2.610   1.571
 9512SOL    HW129435   6.257   2.644   1.618
 9512SOL    HW229436   6.345   2.511   1.582
 9513SOL     OW29437   4.916   3.619   4.413
 9513SOL    HW129438   4.871   3.627   4.323
 9513SOL    HW229439   4.923   3.523   4.438
 9514SOL     OW29440   3.788   3.312   1.226
 9514SOL    HW129441   3.770   3.372   1.305
 9514SOL    HW229442   3.762   3.219   1.249
 9515SOL     OW29443   6.186   6.876   2.919
 9515SOL    HW129444   6.274   6.914   2.950
 9515SOL    HW229445   6.201   6.785   2.881
 9516SOL     OW29446   1.455   2.855   6.890
 9516SOL    HW129447   1.527   2.825   6.953
 9516SOL    HW229448   1.399   2.925   6.934
 9517SOL     OW29449   0.249   6.625   2.331
 9517SOL    HW129450   0.318   6.595   2.398
 9517SOL    HW229451   0.286   6.617   2.239
 9518SOL     OW29452   5.855   6.949   0.835
 9518SOL    HW129453   5.834   6.998   0.920
 9518SOL    HW229454   5.952   6.960   0.814
 9519SOL     OW29455   1.480   2.826   5.635
 9519SOL    HW129456   1.481   2.738   5.588
 9519SOL    HW229457   1.409   2.884   5.596
 9520SOL     OW29458   3.879   6.435   2.143
 9520SOL    HW129459   3.956   6.400   2.197
 9520SOL    HW229460   3.883   6.535   2.139
 9521SOL     OW29461   5.393   4.991   3.028
 9521SOL    HW129462   5.412   5.087   3.009
 9521SOL    HW229463   5.437   4.964   3.114
 9522SOL     OW29464   3.563   5.144   5.465
 9522SOL    HW129465   3.511   5.223   5.501
 9522SOL    HW229466   3.530   5.061   5.509
 9523SOL     OW29467   1.115   6.772   4.458
 9523SOL    HW129468   1.145   6.740   4.548
 9523SOL    HW229469   1.156   6.862   4.439
 9524SOL     OW29470   5.941   3.310   0.415
 9524SOL    HW129471   5.903   3.279   0.503
 9524SOL    HW229472   5.919   3.243   0.344
 9525SOL     OW29473   4.194   0.428   4.292
 9525SOL    HW129474   4.142   0.468   4.216
 9525SOL    HW229475   4.226   0.337   4.265
 9526SOL     OW29476   4.846   5.282   0.646
 9526SOL    HW129477   4.877   5.190   0.672
 9526SOL    HW229478   4.768   5.308   0.702
 9527SOL     OW29479   7.019   1.119   0.167
 9527SOL    HW129480   6.929   1.084   0.192
 9527SOL    HW229481   0.004   1.212   0.203
 9528SOL     OW29482   5.635   1.221   2.219
 9528SOL    HW129483   5.708   1.177   2.167
 9528SOL    HW229484   5.570   1.152   2.251
 9529SOL     OW29485   1.419   2.584   5.444
 9529SOL    HW129486   1.448   2.598   5.349
 9529SOL    HW229487   1.324   2.555   5.446
 9530SOL     OW29488   2.510   1.351   3.521
 9530SOL    HW129489   2.544   1.303   3.603
 9530SOL    HW229490   2.413   1.371   3.533
 9531SOL     OW29491   2.640   6.387   3.901
 9531SOL    HW129492   2.644   6.425   3.994
 9531SOL    HW229493   2.718   6.326   3.887
 9532SOL     OW29494   3.469   1.112   1.663
 9532SOL    HW129495   3.507   1.101   1.755
 9532SOL    HW229496   3.544   1.111   1.596
 9533SOL     OW29497   0.118   1.659   4.116
 9533SOL    HW129498   0.157   1.573   4.151
 9533SOL    HW229499   0.189   1.710   4.067
 9534SOL     OW29500   5.270   1.238   4.091
 9534SOL    HW129501   5.240   1.315   4.035
 9534SOL    HW229502   5.219   1.156   4.066
 9535SOL     OW29503   2.823   1.662   4.696
 9535SOL    HW129504   2.725   1.640   4.693
 9535SOL    HW229505   2.835   1.758   4.719
 9536SOL     OW29506   2.008   5.759   6.732
 9536SOL    HW129507   2.051   5.848   6.751
 9536SOL    HW229508   1.958   5.764   6.646
 9537SOL     OW29509   2.221   0.549   0.052
 9537SOL    HW129510   2.298   0.558   7.015
 9537SOL    HW229511   2.137   0.532   0.001
 9538SOL     OW29512   5.699   3.798   3.253
 9538SOL    HW129513   5.769   3.774   3.321
 9538SOL    HW229514   5.684   3.720   3.193
 9539SOL     OW29515   1.559   2.578   0.476
 9539SOL    HW129516   1.656   2.579   0.452
 9539SOL    HW229517   1.530   2.670   0.501
 9540SOL     OW29518   6.410   3.412   5.487
 9540SOL    HW129519   6.419   3.511   5.477
 9540SOL    HW229520   6.391   3.370   5.398
 9541SOL     OW29521   6.330   2.250   2.982
 9541SOL    HW129522   6.377   2.188   2.919
 9541SOL    HW229523   6.236   2.220   2.996
 9542SOL     OW29524   4.935   3.608   4.111
 9542SOL    HW129525   4.894   3.621   4.021
 9542SOL    HW229526   5.008   3.675   4.125
 9543SOL     OW29527   3.925   2.133   0.229
 9543SOL    HW129528   3.955   2.199   0.160
 9543SOL    HW229529   3.981   2.050   0.221
 9544SOL     OW29530   4.984   6.966   0.862
 9544SOL    HW129531   4.968   6.970   0.961
 9544SOL    HW229532   5.078   6.995   0.842
 9545SOL     OW29533   0.856   0.461   4.285
 9545SOL    HW129534   0.915   0.388   4.250
 9545SOL    HW229535   0.868   0.470   4.384
 9546SOL     OW29536   3.088   4.347   1.716
 9546SOL    HW129537   3.163   4.405   1.684
 9546SOL    HW229538   3.011   4.405   1.742
 9547SOL     OW29539   5.626   6.899   2.529
 9547SOL    HW129540   5.703   6.952   2.565
 9547SOL    HW229541   5.552   6.962   2.504
 9548SOL     OW29542   6.368   6.746   1.600
 9548SOL    HW129543   6.436   6.682   1.564
 9548SOL    HW229544   6.384   6.760   1.697
 9549SOL     OW29545   2.020   6.056   0.283
 9549SOL    HW129546   2.011   6.137   0.225
 9549SOL    HW229547   2.098   6.068   0.345
 9550SOL     OW29548   1.749   1.143   0.389
 9550SOL    HW129549   1.714   1.177   0.476
 9550SOL    HW229550   1.687   1.073   0.353
 9551SOL     OW29551   1.233   5.501   4.544
 9551SOL    HW129552   1.231   5.519   4.446
 9551SOL    HW229553   1.277   5.413   4.562
 9552SOL     OW29554   6.726   5.554   3.079
 9552SOL    HW129555   6.640   5.602   3.064
 9552SOL    HW229556   6.731   5.522   3.173
 9553SOL     OW29557   5.191   4.679   6.771
 9553SOL    HW129558   5.167   4.676   6.868
 9553SOL    HW229559   5.108   4.691   6.717
 9554SOL     OW29560   1.744   2.738   1.693
 9554SOL    HW129561   1.825   2.780   1.652
 9554SOL    HW229562   1.699   2.679   1.626
 9555SOL     OW29563   1.023   2.397   6.424
 9555SOL    HW129564   0.964   2.421   6.347
 9555SOL    HW229565   1.014   2.299   6.443
 9556SOL     OW29566   5.548   1.567   1.736
 9556SOL    HW129567   5.500   1.523   1.660
 9556SOL    HW229568   5.484   1.626   1.786
 9557SOL     OW29569   5.047   1.763   1.315
 9557SOL    HW129570   5.131   1.764   1.369
 9557SOL    HW229571   5.070   1.747   1.219
 9558SOL     OW29572   6.778   4.047   1.852
 9558SOL    HW129573   6.693   4.014   1.894
 9558SOL    HW229574   6.787   4.009   1.760
 9559SOL     OW29575   7.018   4.764   3.507
 9559SOL    HW129576   6.965   4.814   3.438
 9559SOL    HW229577   7.024   4.668   3.481
 9560SOL     OW29578   3.809   2.332   5.625
 9560SOL    HW129579   3.763   2.344   5.537
 9560SOL    HW229580   3.902   2.367   5.619
 9561SOL     OW29581   3.225   5.239   6.649
 9561SOL    HW129582   3.140   5.191   6.630
 9561SOL    HW229583   3.284   5.182   6.707
 9562SOL     OW29584   6.196   5.653   3.861
 9562SOL    HW129585   6.295   5.658   3.854
 9562SOL    HW229586   6.171   5.610   3.948
 9563SOL     OW29587   0.800   1.173   5.704
 9563SOL    HW129588   0.871   1.110   5.674
 9563SOL    HW229589   0.757   1.216   5.625
 9564SOL     OW29590   6.883   0.392   6.006
 9564SOL    HW129591   6.876   0.306   6.056
 9564SOL    HW229592   6.910   0.465   6.068
 9565SOL     OW29593   2.823   5.667   5.445
 9565SOL    HW129594   2.782   5.710   5.525
 9565SOL    HW229595   2.886   5.595   5.474
 9566SOL     OW29596   2.544   6.043   5.439
 9566SOL    HW129597   2.448   6.018   5.456
 9566SOL    HW229598   2.559   6.138   5.465
 9567SOL     OW29599   5.597   5.828   3.063
 9567SOL    HW129600   5.575   5.802   3.156
 9567SOL    HW229601   5.551   5.914   3.040
 9568SOL     OW29602   6.465   3.522   4.625
 9568SOL    HW129603   6.519   3.449   4.664
 9568SOL    HW229604   6.412   3.567   4.697
 9569SOL     OW29605   5.308   0.268   0.885
 9569SOL    HW129606   5.246   0.295   0.812
 9569SOL    HW229607   5.259   0.269   0.972
 9570SOL     OW29608   0.349   3.752   6.300
 9570SOL    HW129609   0.365   3.654   6.306
 9570SOL    HW229610   0.431   3.797   6.266
 9571SOL     OW29611   3.571   2.017   1.021
 9571SOL    HW129612   3.551   1.973   1.108
 9571SOL    HW229613   3.560   2.116   1.030
 9572SOL     OW29614   0.756   3.567   0.915
 9572SOL    HW129615   0.834   3.589   0.974
 9572SOL    HW229616   0.789   3.535   0.826
 9573SOL     OW29617   4.443   2.020   1.701
 9573SOL    HW129618   4.345   2.033   1.693
 9573SOL    HW229619   4.463   1.963   1.781
 9574SOL     OW29620   1.810   1.510   3.486
 9574SOL    HW129621   1.876   1.436   3.498
 9574SOL    HW229622   1.751   1.490   3.408
 9575SOL     OW29623   2.937   1.647   2.787
 9575SOL    HW129624   2.994   1.716   2.742
 9575SOL    HW229625   2.859   1.625   2.728
 9576SOL     OW29626   4.567   2.758   5.955
 9576SOL    HW129627   4.512   2.735   5.874
 9576SOL    HW229628   4.582   2.676   6.009
 9577SOL     OW29629   0.652   5.862   3.523
 9577SOL    HW129630   0.736   5.894   3.566
 9577SOL    HW229631   0.603   5.802   3.586
 9578SOL     OW29632   6.522   4.534   1.726
 9578SOL    HW129633   6.525   4.434   1.736
 9578SOL    HW229634   6.456   4.558   1.654
 9579SOL     OW29635   1.500   4.813   2.733
 9579SOL    HW129636   1.511   4.813   2.634
 9579SOL    HW229637   1.509   4.906   2.768
 9580SOL     OW29638   4.025   3.836   5.109
 9580SOL    HW129639   4.047   3.834   5.011
 9580SOL    HW229640   3.936   3.794   5.124
 9581SOL     OW29641   0.441   0.218   6.744
 9581SOL    HW129642   0.348   0.190   6.720
 9581SOL    HW229643   0.452   0.316   6.727
 9582SOL     OW29644   4.463   5.363   2.681
 9582SOL    HW129645   4.492   5.386   2.774
 9582SOL    HW229646   4.368   5.392   2.668
 9583SOL     OW29647   1.289   4.971   2.837
 9583SOL    HW129648   1.315   4.990   2.931
 9583SOL    HW229649   1.310   4.875   2.815
 9584SOL     OW29650   5.261   4.742   0.326
 9584SOL    HW129651   5.342   4.773   0.377
 9584SOL    HW229652   5.188   4.719   0.391
 9585SOL     OW29653   5.743   1.343   2.448
 9585SOL    HW129654   5.842   1.345   2.434
 9585SOL    HW229655   5.698   1.316   2.363
 9586SOL     OW29656   3.847   4.885   2.512
 9586SOL    HW129657   3.910   4.958   2.485
 9586SOL    HW229658   3.791   4.858   2.433
 9587SOL     OW29659   3.867   6.537   1.667
 9587SOL    HW129660   3.899   6.453   1.622
 9587SOL    HW229661   3.858   6.610   1.599
 9588SOL     OW29662   5.916   1.190   3.504
 9588SOL    HW129663   5.848   1.119   3.487
 9588SOL    HW229664   5.908   1.222   3.598
 9589SOL     OW29665   4.382   2.142   4.904
 9589SOL    HW129666   4.356   2.232   4.868
 9589SOL    HW229667   4.323   2.072   4.863
 9590SOL     OW29668   6.808   4.928   5.340
 9590SOL    HW129669   6.845   4.957   5.252
 9590SOL    HW229670   6.826   4.830   5.354
 9591SOL     OW29671   0.068   4.367   2.192
 9591SOL    HW129672   0.070   4.346   2.095
 9591SOL    HW229673   0.002   4.440   2.210
 9592SOL     OW29674   3.844   5.263   1.102
 9592SOL    HW129675   3.794   5.330   1.157
 9592SOL    HW229676   3.823   5.171   1.133
 9593SOL     OW29677   2.210   3.023   3.785
 9593SOL    HW129678   2.226   3.085   3.709
 9593SOL    HW229679   2.244   2.932   3.762
 9594SOL     OW29680   5.685   0.334   0.534
 9594SOL    HW129681   5.712   0.266   0.602
 9594SOL    HW229682   5.767   0.375   0.493
 9595SOL     OW29683   2.210   4.552   5.170
 9595SOL    HW129684   2.166   4.515   5.252
 9595SOL    HW229685   2.268   4.629   5.195
 9596SOL     OW29686   5.392   4.859   2.352
 9596SOL    HW129687   5.439   4.889   2.434
 9596SOL    HW229688   5.449   4.793   2.302
 9597SOL     OW29689   1.518   4.256   2.081
 9597SOL    HW129690   1.570   4.171   2.093
 9597SOL    HW229691   1.541   4.297   1.993
 9598SOL     OW29692   0.581   6.461   5.291
 9598SOL    HW129693   0.517   6.394   5.328
 9598SOL    HW229694   0.536   6.551   5.288
 9599SOL     OW29695   4.271   2.221   5.798
 9599SOL    HW129696   4.334   2.163   5.747
 9599SOL    HW229697   4.249   2.178   5.885
 9600SOL     OW29698   1.813   5.244   6.768
 9600SOL    HW129699   1.895   5.270   6.716
 9600SOL    HW229700   1.829   5.155   6.811
 9601SOL     OW29701   1.068   0.068   5.309
 9601SOL    HW129702   1.076   6.994   5.315
 9601SOL    HW229703   0.974   0.096   5.330
 9602SOL     OW29704   0.846   5.536   6.261
 9602SOL    HW129705   0.881   5.619   6.303
 9602SOL    HW229706   0.746   5.534   6.268
 9603SOL     OW29707   0.938   5.112   1.732
 9603SOL    HW129708   0.961   5.017   1.711
 9603SOL    HW229709   0.839   5.121   1.739
 9604SOL     OW29710   6.147   0.275   5.811
 9604SOL    HW129711   6.085   0.351   5.829
 9604SOL    HW229712   6.236   0.311   5.782
 9605SOL     OW29713   3.630   5.170   0.508
 9605SOL    HW129714   3.567   5.244   0.484
 9605SOL    HW229715   3.660   5.123   0.424
 9606SOL     OW29716   6.855   1.546   4.809
 9606SOL    HW129717   6.917   1.622   4.791
 9606SOL    HW229718   6.764   1.582   4.831
 9607SOL     OW29719   6.563   3.476   3.646
 9607SOL    HW129720   6.510   3.432   3.718
 9607SOL    HW229721   6.661   3.466   3.666
 9608SOL     OW29722   5.981   0.691   1.280
 9608SOL    HW129723   6.020   0.630   1.211
 9608SOL    HW229724   5.898   0.734   1.244
 9609SOL     OW29725   1.180   2.018   3.484
 9609SOL    HW129726   1.085   2.005   3.456
 9609SOL    HW229727   1.213   2.106   3.451
 9610SOL     OW29728   5.229   1.270   6.105
 9610SOL    HW129729   5.319   1.311   6.117
 9610SOL    HW229730   5.231   1.175   6.137
 9611SOL     OW29731   5.237   5.300   1.819
 9611SOL    HW129732   5.278   5.215   1.785
 9611SOL    HW229733   5.171   5.279   1.891
 9612SOL     OW29734   4.720   4.308   3.757
 9612SOL    HW129735   4.729   4.378   3.828
 9612SOL    HW229736   4.798   4.246   3.762
 9613SOL     OW29737   4.250   1.341   4.699
 9613SOL    HW129738   4.279   1.342   4.795
 9613SOL    HW229739   4.183   1.267   4.686
 9614SOL     OW29740   3.349   2.506   6.928
 9614SOL    HW129741   3.392   2.591   6.960
 9614SOL    HW229742   3.383   2.484   6.837
 9615SOL     OW29743   6.320   6.366   3.354
 9615SOL    HW129744   6.291   6.343   3.447
 9615SOL    HW229745   6.311   6.464   3.340
 9616SOL     OW29746   0.221   2.052   0.583
 9616SOL    HW129747   0.152   2.064   0.655
 9616SOL    HW229748   0.197   1.974   0.526
 9617SOL     OW29749   1.373   3.449   3.634
 9617SOL    HW129750   1.371   3.427   3.732
 9617SOL    HW229751   1.286   3.489   3.607
 9618SOL     OW29752   5.456   4.065   1.523
 9618SOL    HW129753   5.475   4.000   1.596
 9618SOL    HW229754   5.441   4.016   1.437
 9619SOL     OW29755   1.719   1.416   0.908
 9619SOL    HW129756   1.734   1.414   0.810
 9619SOL    HW229757   1.784   1.478   0.952
 9620SOL     OW29758   3.530   1.092   6.120
 9620SOL    HW129759   3.518   1.188   6.146
 9620SOL    HW229760   3.443   1.055   6.089
 9621SOL     OW29761   6.909   6.995   0.390
 9621SOL    HW129762   6.856   6.974   0.308
 9621SOL    HW229763   6.846   7.013   0.466
 9622SOL     OW29764   6.632   0.300   4.693
 9622SOL    HW129765   6.700   0.314   4.622
 9622SOL    HW229766   6.676   0.268   4.777
 9623SOL     OW29767   2.378   5.570   6.286
 9623SOL    HW129768   2.342   5.523   6.366
 9623SOL    HW229769   2.314   5.563   6.210
 9624SOL     OW29770   4.460   5.154   6.539
 9624SOL    HW129771   4.469   5.194   6.448
 9624SOL    HW229772   4.450   5.227   6.607
 9625SOL     OW29773   5.076   3.712   6.003
 9625SOL    HW129774   5.139   3.674   5.935
 9625SOL    HW229775   4.991   3.659   6.004
 9626SOL     OW29776   2.857   2.750   0.263
 9626SOL    HW129777   2.854   2.652   0.285
 9626SOL    HW229778   2.951   2.777   0.246
 9627SOL     OW29779   7.003   5.239   0.348
 9627SOL    HW129780   6.977   5.151   0.309
 9627SOL    HW229781   0.054   5.227   0.411
 9628SOL     OW29782   6.157   1.816   5.574
 9628SOL    HW129783   6.113   1.736   5.615
 9628SOL    HW229784   6.151   1.893   5.637
 9629SOL     OW29785   0.544   5.953   4.140
 9629SOL    HW129786   0.528   6.049   4.117
 9629SOL    HW229787   0.626   5.921   4.093
 9630SOL     OW29788   6.149   0.634   5.527
 9630SOL    HW129789   6.052   0.609   5.528
 9630SOL    HW229790   6.179   0.650   5.433
 9631SOL     OW29791   4.303   6.082   0.113
 9631SOL    HW129792   4.353   6.088   0.200
 9631SOL    HW229793   4.315   6.167   0.062
 9632SOL     OW29794   2.391   5.788   3.047
 9632SOL    HW129795   2.361   5.706   2.997
 9632SOL    HW229796   2.490   5.785   3.059
 9633SOL     OW29797   2.139   3.050   5.715
 9633SOL    HW129798   2.204   2.986   5.755
 9633SOL    HW229799   2.175   3.143   5.722
 9634SOL     OW29800   5.704   4.709   3.249
 9634SOL    HW129801   5.760   4.630   3.276
 9634SOL    HW229802   5.621   4.676   3.203
 9635SOL     OW29803   0.943   5.459   3.952
 9635SOL    HW129804   0.903   5.445   4.042
 9635SOL    HW229805   1.013   5.389   3.935
 9636SOL     OW29806   4.893   3.651   3.607
 9636SOL    HW129807   4.896   3.749   3.626
 9636SOL    HW229808   4.857   3.602   3.686
 9637SOL     OW29809   3.365   2.526   6.135
 9637SOL    HW129810   3.351   2.440   6.183
 9637SOL    HW229811   3.457   2.529   6.096
 9638SOL     OW29812   1.449   4.122   6.392
 9638SOL    HW129813   1.463   4.156   6.485
 9638SOL    HW229814   1.351   4.114   6.374
 9639SOL     OW29815   5.683   2.946   1.291
 9639SOL    HW129816   5.660   2.904   1.203
 9639SOL    HW229817   5.599   2.978   1.335
 9640SOL     OW29818   2.819   6.138   3.498
 9640SOL    HW129819   2.722   6.141   3.472
 9640SOL    HW229820   2.856   6.047   3.478
 9641SOL     OW29821   0.811   2.699   4.250
 9641SOL    HW129822   0.714   2.720   4.264
 9641SOL    HW229823   0.838   2.728   4.158
 9642SOL     OW29824   0.922   2.749   4.501
 9642SOL    HW129825   0.923   2.849   4.507
 9642SOL    HW229826   0.888   2.721   4.411
 9643SOL     OW29827   6.313   5.561   4.633
 9643SOL    HW129828   6.390   5.617   4.602
 9643SOL    HW229829   6.228   5.598   4.595
 9644SOL     OW29830   1.235   4.863   3.893
 9644SOL    HW129831   1.280   4.791   3.840
 9644SOL    HW229832   1.137   4.846   3.895
 9645SOL     OW29833   0.262   4.843   0.666
 9645SOL    HW129834   0.326   4.766   0.669
 9645SOL    HW229835   0.258   4.880   0.573
 9646SOL     OW29836   2.439   4.961   0.808
 9646SOL    HW129837   2.355   4.911   0.830
 9646SOL    HW229838   2.431   5.055   0.842
 9647SOL     OW29839   4.964   6.945   2.648
 9647SOL    HW129840   4.972   0.001   2.704
 9647SOL    HW229841   4.992   6.967   2.554
 9648SOL     OW29842   4.100   1.852   0.996
 9648SOL    HW129843   4.016   1.899   0.968
 9648SOL    HW229844   4.101   1.844   1.096
 9649SOL     OW29845   0.115   5.407   0.153
 9649SOL    HW129846   0.079   5.354   0.076
 9649SOL    HW229847   0.110   5.352   0.237
 9650SOL     OW29848   6.876   5.202   5.350
 9650SOL    HW129849   6.975   5.187   5.345
 9650SOL    HW229850   6.828   5.117   5.325
 9651SOL     OW29851   3.937   0.877   0.900
 9651SOL    HW129852   3.994   0.958   0.884
 9651SOL    HW229853   3.843   0.896   0.870
 9652SOL     OW29854   0.469   3.866   6.988
 9652SOL    HW129855   0.516   3.899   6.907
 9652SOL    HW229856   0.409   3.938   7.024
 9653SOL     OW29857   5.960   3.597   5.164
 9653SOL    HW129858   5.996   3.652   5.089
 9653SOL    HW229859   5.861   3.589   5.154
 9654SOL     OW29860   3.650   3.242   4.401
 9654SOL    HW129861   3.647   3.218   4.304
 9654SOL    HW229862   3.691   3.333   4.411
 9655SOL     OW29863   4.445   0.799   0.289
 9655SOL    HW129864   4.383   0.743   0.345
 9655SOL    HW229865   4.410   0.893   0.286
 9656SOL     OW29866   5.259   4.984   4.840
 9656SOL    HW129867   5.317   4.935   4.776
 9656SOL    HW229868   5.276   5.083   4.831
 9657SOL     OW29869   4.910   4.606   2.366
 9657SOL    HW129870   4.882   4.588   2.461
 9657SOL    HW229871   5.008   4.590   2.356
 9658SOL     OW29872   5.283   1.321   2.853
 9658SOL    HW129873   5.253   1.407   2.895
 9658SOL    HW229874   5.379   1.305   2.876
 9659SOL     OW29875   4.349   3.214   0.581
 9659SOL    HW129876   4.411   3.246   0.509
 9659SOL    HW229877   4.343   3.114   0.577
 9660SOL     OW29878   2.681   0.198   1.642
 9660SOL    HW129879   2.680   0.271   1.573
 9660SOL    HW229880   2.595   0.148   1.638
 9661SOL     OW29881   3.576   3.729   2.189
 9661SOL    HW129882   3.623   3.659   2.242
 9661SOL    HW229883   3.636   3.763   2.117
 9662SOL     OW29884   3.825   0.632   4.761
 9662SOL    HW129885   3.806   0.704   4.829
 9662SOL    HW229886   3.815   0.542   4.804
 9663SOL     OW29887   1.254   5.894   1.957
 9663SOL    HW129888   1.267   5.942   2.044
 9663SOL    HW229889   1.182   5.825   1.968
 9664SOL     OW29890   1.508   4.816   2.427
 9664SOL    HW129891   1.425   4.803   2.372
 9664SOL    HW229892   1.567   4.882   2.382
 9665SOL     OW29893   6.156   3.742   6.905
 9665SOL    HW129894   6.080   3.801   6.931
 9665SOL    HW229895   6.126   3.646   6.909
 9666SOL     OW29896   5.100   4.002   1.256
 9666SOL    HW129897   5.037   4.071   1.222
 9666SOL    HW229898   5.186   4.045   1.282
 9667SOL     OW29899   5.984   6.206   0.194
 9667SOL    HW129900   5.908   6.145   0.171
 9667SOL    HW229901   6.010   6.191   0.290
 9668SOL     OW29902   2.344   0.667   0.697
 9668SOL    HW129903   2.273   0.644   0.630
 9668SOL    HW229904   2.301   0.704   0.780
 9669SOL     OW29905   3.506   0.045   0.635
 9669SOL    HW129906   3.584   7.018   0.671
 9669SOL    HW229907   3.513   0.051   0.536
 9670SOL     OW29908   0.584   0.255   2.782
 9670SOL    HW129909   0.515   0.275   2.852
 9670SOL    HW229910   0.567   0.164   2.744
 9671SOL     OW29911   1.206   5.497   6.763
 9671SOL    HW129912   1.248   5.526   6.849
 9671SOL    HW229913   1.263   5.427   6.720
 9672SOL     OW29914   0.476   4.135   4.504
 9672SOL    HW129915   0.387   4.129   4.458
 9672SOL    HW229916   0.528   4.052   4.486
 9673SOL     OW29917   2.022   2.589   5.359
 9673SOL    HW129918   1.931   2.547   5.353
 9673SOL    HW229919   2.092   2.518   5.354
 9674SOL     OW29920   2.046   0.742   3.754
 9674SOL    HW129921   2.055   0.732   3.655
 9674SOL    HW229922   1.951   0.765   3.777
 9675SOL     OW29923   6.844   4.010   5.994
 9675SOL    HW129924   6.921   3.948   6.009
 9675SOL    HW229925   6.810   4.045   6.082
 9676SOL     OW29926   0.936   2.822   6.104
 9676SOL    HW129927   0.927   2.829   6.203
 9676SOL    HW229928   0.881   2.893   6.060
 9677SOL     OW29929   0.582   4.993   3.348
 9677SOL    HW129930   0.665   5.027   3.304
 9677SOL    HW229931   0.602   4.907   3.395
 9678SOL     OW29932   4.921   2.937   6.853
 9678SOL    HW129933   4.897   3.028   6.887
 9678SOL    HW229934   4.987   2.895   6.915
 9679SOL     OW29935   1.930   1.237   4.405
 9679SOL    HW129936   1.960   1.294   4.481
 9679SOL    HW229937   1.915   1.294   4.324
 9680SOL     OW29938   4.368   6.437   2.901
 9680SOL    HW129939   4.293   6.433   2.834
 9680SOL    HW229940   4.430   6.360   2.885
 9681SOL     OW29941   0.812   2.635   0.840
 9681SOL    HW129942   0.851   2.596   0.757
 9681SOL    HW229943   0.773   2.563   0.897
 9682SOL     OW29944   3.752   6.607   5.278
 9682SOL    HW129945   3.772   6.562   5.192
 9682SOL    HW229946   3.757   6.540   5.353
 9683SOL     OW29947   2.892   5.971   3.889
 9683SOL    HW129948   2.942   5.892   3.853
 9683SOL    HW229949   2.798   5.969   3.856
 9684SOL     OW29950   1.621   2.769   6.347
 9684SOL    HW129951   1.678   2.726   6.277
 9684SOL    HW229952   1.609   2.706   6.424
 9685SOL     OW29953   3.876   4.878   1.903
 9685SOL    HW129954   3.948   4.813   1.879
 9685SOL    HW229955   3.797   4.863   1.843
 9686SOL     OW29956   1.158   2.262   6.003
 9686SOL    HW129957   1.088   2.296   6.067
 9686SOL    HW229958   1.248   2.295   6.031
 9687SOL     OW29959   5.619   0.541   3.960
 9687SOL    HW129960   5.699   0.522   3.904
 9687SOL    HW229961   5.543   0.481   3.932
 9688SOL     OW29962   0.708   5.073   2.467
 9688SOL    HW129963   0.757   5.041   2.549
 9688SOL    HW229964   0.739   5.020   2.388
 9689SOL     OW29965   1.658   5.803   0.829
 9689SOL    HW129966   1.676   5.707   0.807
 9689SOL    HW229967   1.648   5.813   0.928
 9690SOL     OW29968   6.068   4.459   3.738
 9690SOL    HW129969   6.146   4.416   3.694
 9690SOL    HW229970   6.096   4.545   3.780
 9691SOL     OW29971   3.983   3.947   1.836
 9691SOL    HW129972   4.060   3.990   1.788
 9691SOL    HW229973   4.007   3.853   1.858
 9692SOL     OW29974   6.566   5.297   0.316
 9692SOL    HW129975   6.481   5.337   0.283
 9692SOL    HW229976   6.550   5.201   0.341
 9693SOL     OW29977   4.342   3.854   6.892
 9693SOL    HW129978   4.291   3.937   6.872
 9693SOL    HW229979   4.319   3.783   6.825
 9694SOL     OW29980   2.546   6.197   1.096
 9694SOL    HW129981   2.505   6.247   1.020
 9694SOL    HW229982   2.606   6.258   1.148
 9695SOL     OW29983   1.497   2.758   3.442
 9695SOL    HW129984   1.509   2.835   3.504
 9695SOL    HW229985   1.448   2.787   3.360
 9696SOL     OW29986   4.691   4.442   3.510
 9696SOL    HW129987   4.653   4.520   3.560
 9696SOL    HW229988   4.708   4.367   3.574
 9697SOL     OW29989   6.837   6.848   3.153
 9697SOL    HW129990   6.752   6.817   3.109
 9697SOL    HW229991   6.817   6.876   3.247
 9698SOL     OW29992   0.527   2.590   1.260
 9698SOL    HW129993   0.486   2.615   1.348
 9698SOL    HW229994   0.621   2.625   1.256
 9699SOL     OW29995   1.661   0.283   2.391
 9699SOL    HW129996   1.690   0.208   2.331
 9699SOL    HW229997   1.646   0.247   2.483
 9700SOL     OW29998   6.268   0.773   6.100
 9700SOL    HW129999   6.242   0.695   6.042
 9700SOL    HW230000   6.269   0.856   6.045
 9701SOL     OW30001   5.763   3.798   6.506
 9701SOL    HW130002   5.818   3.815   6.424
 9701SOL    HW230003   5.791   3.860   6.579
 9702SOL     OW30004   2.876   3.503   1.997
 9702SOL    HW130005   2.829   3.539   2.077
 9702SOL    HW230006   2.948   3.567   1.968
 9703SOL     OW30007   6.199   4.551   3.430
 9703SOL    HW130008   6.144   4.630   3.457
 9703SOL    HW230009   6.160   4.468   3.469
 9704SOL     OW30010   0.558   4.817   2.030
 9704SOL    HW130011   0.545   4.893   1.966
 9704SOL    HW230012   0.491   4.823   2.103
 9705SOL     OW30013   0.097   4.351   5.290
 9705SOL    HW130014   0.053   4.268   5.257
 9705SOL    HW230015   0.061   4.373   5.381
 9706SOL     OW30016   0.153   6.888   2.357
 9706SOL    HW130017   0.181   6.944   2.435
 9706SOL    HW230018   0.193   6.796   2.365
 9707SOL     OW30019   0.951   4.333   1.451
 9707SOL    HW130020   0.923   4.331   1.356
 9707SOL    HW230021   0.893   4.397   1.502
 9708SOL     OW30022   2.935   0.716   1.923
 9708SOL    HW130023   3.011   0.709   1.859
 9708SOL    HW230024   2.888   0.803   1.910
 9709SOL     OW30025   3.395   1.731   2.140
 9709SOL    HW130026   3.339   1.741   2.223
 9709SOL    HW230027   3.451   1.813   2.128
 9710SOL     OW30028   5.065   4.743   4.429
 9710SOL    HW130029   5.124   4.671   4.464
 9710SOL    HW230030   5.067   4.742   4.329
 9711SOL     OW30031   3.232   0.431   6.669
 9711SOL    HW130032   3.238   0.510   6.608
 9711SOL    HW230033   3.319   0.418   6.716
 9712SOL     OW30034   4.635   6.552   5.578
 9712SOL    HW130035   4.655   6.584   5.671
 9712SOL    HW230036   4.620   6.630   5.518
 9713SOL     OW30037   0.540   0.790   3.020
 9713SOL    HW130038   0.619   0.736   3.051
 9713SOL    HW230039   0.472   0.729   2.979
 9714SOL     OW30040   2.311   2.767   3.754
 9714SOL    HW130041   2.227   2.714   3.738
 9714SOL    HW230042   2.380   2.708   3.796
 9715SOL     OW30043   0.624   1.849   6.272
 9715SOL    HW130044   0.602   1.758   6.309
 9715SOL    HW230045   0.677   1.838   6.188
 9716SOL     OW30046   1.297   6.137   1.022
 9716SOL    HW130047   1.269   6.229   0.992
 9716SOL    HW230048   1.372   6.146   1.088
 9717SOL     OW30049   4.504   2.024   6.274
 9717SOL    HW130050   4.586   2.082   6.272
 9717SOL    HW230051   4.493   1.986   6.366
 9718SOL     OW30052   3.083   2.743   6.694
 9718SOL    HW130053   3.128   2.655   6.677
 9718SOL    HW230054   3.041   2.776   6.610
 9719SOL     OW30055   5.107   0.337   6.044
 9719SOL    HW130056   5.151   0.358   6.131
 9719SOL    HW230057   5.090   0.239   6.038
 9720SOL     OW30058   2.413   2.416   2.248
 9720SOL    HW130059   2.381   2.497   2.296
 9720SOL    HW230060   2.363   2.336   2.280
 9721SOL     OW30061   0.164   1.762   1.198
 9721SOL    HW130062   0.191   1.676   1.242
 9721SOL    HW230063   0.242   1.824   1.195
 9722SOL     OW30064   3.394   2.658   5.712
 9722SOL    HW130065   3.480   2.611   5.694
 9722SOL    HW230066   3.326   2.591   5.742
 9723SOL     OW30067   5.826   1.380   4.477
 9723SOL    HW130068   5.839   1.327   4.393
 9723SOL    HW230069   5.731   1.373   4.506
 9724SOL     OW30070   1.594   5.408   1.628
 9724SOL    HW130071   1.628   5.500   1.650
 9724SOL    HW230072   1.667   5.353   1.588
 9725SOL     OW30073   5.792   5.559   5.009
 9725SOL    HW130074   5.737   5.608   4.942
 9725SOL    HW230075   5.736   5.488   5.052
 9726SOL     OW30076   6.766   0.078   2.840
 9726SOL    HW130077   6.700   0.107   2.771
 9726SOL    HW230078   6.835   0.149   2.853
 9727SOL     OW30079   6.731   3.346   1.020
 9727SOL    HW130080   6.806   3.390   1.070
 9727SOL    HW230081   6.679   3.414   0.970
 9728SOL     OW30082   5.285   2.362   5.149
 9728SOL    HW130083   5.318   2.453   5.124
 9728SOL    HW230084   5.221   2.329   5.079
 9729SOL     OW30085   6.823   3.535   2.677
 9729SOL    HW130086   6.818   3.581   2.588
 9729SOL    HW230087   6.872   3.593   2.742
 9730SOL     OW30088   0.263   6.628   3.372
 9730SOL    HW130089   0.278   6.529   3.372
 9730SOL    HW230090   0.220   6.656   3.457
 9731SOL     OW30091   6.425   0.894   1.365
 9731SOL    HW130092   6.394   0.805   1.396
 9731SOL    HW230093   6.501   0.883   1.301
 9732SOL     OW30094   6.852   2.729   2.869
 9732SOL    HW130095   6.842   2.791   2.792
 9732SOL    HW230096   6.877   2.638   2.837
 9733SOL     OW30097   4.881   5.834   0.624
 9733SOL    HW130098   4.914   5.808   0.533
 9733SOL    HW230099   4.790   5.797   0.639
 9734SOL     OW30100   3.973   3.847   0.252
 9734SOL    HW130101   3.933   3.758   0.233
 9734SOL    HW230102   4.039   3.839   0.327
 9735SOL     OW30103   1.028   2.210   0.204
 9735SOL    HW130104   0.981   2.143   0.147
 9735SOL    HW230105   0.972   2.231   0.284
 9736SOL     OW30106   6.035   2.816   5.872
 9736SOL    HW130107   6.060   2.807   5.969
 9736SOL    HW230108   5.987   2.902   5.857
 9737SOL     OW30109   5.185   3.870   5.283
 9737SOL    HW130110   5.200   3.898   5.188
 9737SOL    HW230111   5.087   3.856   5.298
 9738SOL     OW30112   2.483   6.068   1.575
 9738SOL    HW130113   2.528   6.151   1.607
 9738SOL    HW230114   2.443   6.084   1.485
 9739SOL     OW30115   5.350   6.110   1.227
 9739SOL    HW130116   5.382   6.178   1.160
 9739SOL    HW230117   5.256   6.083   1.205
 9740SOL     OW30118   6.990   0.054   0.758
 9740SOL    HW130119   0.046   0.055   0.816
 9740SOL    HW230120   7.007   0.105   0.674
 9741SOL     OW30121   2.372   2.724   3.082
 9741SOL    HW130122   2.336   2.649   3.026
 9741SOL    HW230123   2.422   2.687   3.160
 9742SOL     OW30124   5.132   6.728   6.650
 9742SOL    HW130125   5.171   6.702   6.562
 9742SOL    HW230126   5.085   6.816   6.641
 9743SOL     OW30127   5.796   3.853   4.473
 9743SOL    HW130128   5.799   3.790   4.396
 9743SOL    HW230129   5.882   3.849   4.523
 9744SOL     OW30130   1.579   2.690   2.109
 9744SOL    HW130131   1.589   2.761   2.179
 9744SOL    HW230132   1.572   2.733   2.019
 9745SOL     OW30133   1.441   0.092   5.807
 9745SOL    HW130134   1.451   0.001   5.767
 9745SOL    HW230135   1.447   0.161   5.735
 9746SOL     OW30136   3.938   5.636   5.743
 9746SOL    HW130137   3.998   5.556   5.747
 9746SOL    HW230138   3.992   5.719   5.734
 9747SOL     OW30139   4.551   1.602   3.621
 9747SOL    HW130140   4.613   1.664   3.670
 9747SOL    HW230141   4.457   1.631   3.636
 9748SOL     OW30142   0.518   1.714   1.891
 9748SOL    HW130143   0.421   1.725   1.870
 9748SOL    HW230144   0.569   1.793   1.856
 9749SOL     OW30145   6.593   6.984   1.555
 9749SOL    HW130146   6.686   7.020   1.550
 9749SOL    HW230147   6.595   6.885   1.539
 9750SOL     OW30148   5.118   3.054   4.842
 9750SOL    HW130149   5.029   3.098   4.857
 9750SOL    HW230150   5.176   3.115   4.788
 9751SOL     OW30151   2.875   5.143   0.724
 9751SOL    HW130152   2.797   5.083   0.705
 9751SOL    HW230153   2.861   5.231   0.680
 9752SOL     OW30154   4.533   4.328   1.060
 9752SOL    HW130155   4.532   4.334   1.159
 9752SOL    HW230156   4.608   4.268   1.031
 9753SOL     OW30157   5.805   6.369   2.834
 9753SOL    HW130158   5.764   6.279   2.818
 9753SOL    HW230159   5.896   6.358   2.872
 9754SOL     OW30160   3.441   1.104   2.145
 9754SOL    HW130161   3.359   1.157   2.162
 9754SOL    HW230162   3.420   1.006   2.152
 9755SOL     OW30163   3.822   4.316   1.248
 9755SOL    HW130164   3.780   4.337   1.336
 9755SOL    HW230165   3.764   4.252   1.197
 9756SOL     OW30166   4.816   0.490   6.882
 9756SOL    HW130167   4.875   0.571   6.887
 9756SOL    HW230168   4.837   0.438   6.799
 9757SOL     OW30169   5.143   4.113   3.788
 9757SOL    HW130170   5.167   4.202   3.829
 9757SOL    HW230171   5.217   4.082   3.729
 9758SOL     OW30172   3.074   0.707   0.642
 9758SOL    HW130173   3.074   0.771   0.565
 9758SOL    HW230174   2.986   0.662   0.649
 9759SOL     OW30175   6.359   0.990   0.577
 9759SOL    HW130176   6.386   1.048   0.653
 9759SOL    HW230177   6.439   0.968   0.521
 9760SOL     OW30178   4.698   0.580   5.653
 9760SOL    HW130179   4.782   0.621   5.616
 9760SOL    HW230180   4.712   0.555   5.748
 9761SOL     OW30181   0.870   2.290   1.498
 9761SOL    HW130182   0.943   2.337   1.447
 9761SOL    HW230183   0.900   2.197   1.521
 9762SOL     OW30184   3.730   1.480   5.526
 9762SOL    HW130185   3.762   1.567   5.489
 9762SOL    HW230186   3.689   1.496   5.616
 9763SOL     OW30187   6.391   2.004   0.752
 9763SOL    HW130188   6.347   1.998   0.841
 9763SOL    HW230189   6.384   2.098   0.718
 9764SOL     OW30190   6.991   2.849   3.157
 9764SOL    HW130191   0.038   2.844   3.089
 9764SOL    HW230192   6.930   2.925   3.135
 9765SOL     OW30193   0.047   2.094   0.904
 9765SOL    HW130194   0.076   2.000   0.925
 9765SOL    HW230195   0.102   2.158   0.958
 9766SOL     OW30196   0.925   3.251   2.787
 9766SOL    HW130197   0.845   3.246   2.727
 9766SOL    HW230198   1.005   3.219   2.737
 9767SOL     OW30199   4.086   1.588   4.842
 9767SOL    HW130200   4.093   1.589   4.742
 9767SOL    HW230201   4.006   1.535   4.869
 9768SOL     OW30202   4.362   3.435   6.990
 9768SOL    HW130203   4.359   3.488   6.905
 9768SOL    HW230204   4.389   3.341   6.970
 9769SOL     OW30205   2.961   0.746   5.831
 9769SOL    HW130206   2.980   0.778   5.924
 9769SOL    HW230207   2.872   0.780   5.802
 9770SOL     OW30208   1.752   3.449   4.952
 9770SOL    HW130209   1.733   3.361   4.908
 9770SOL    HW230210   1.709   3.523   4.901
 9771SOL     OW30211   3.840   0.154   1.507
 9771SOL    HW130212   3.875   0.232   1.456
 9771SOL    HW230213   3.861   0.166   1.604
 9772SOL     OW30214   0.365   0.384   1.819
 9772SOL    HW130215   0.337   0.479   1.814
 9772SOL    HW230216   0.382   0.349   1.727
 9773SOL     OW30217   4.084   6.451   2.771
 9773SOL    HW130218   4.039   6.440   2.683
 9773SOL    HW230219   4.018   6.480   2.840
 9774SOL     OW30220   1.145   5.084   5.408
 9774SOL    HW130221   1.176   5.152   5.341
 9774SOL    HW230222   1.188   4.996   5.388
 9775SOL     OW30223   1.196   1.486   3.418
 9775SOL    HW130224   1.295   1.493   3.434
 9775SOL    HW230225   1.163   1.572   3.379
 9776SOL     OW30226   0.704   5.712   1.578
 9776SOL    HW130227   0.609   5.733   1.597
 9776SOL    HW230228   0.712   5.616   1.550
 9777SOL     OW30229   5.222   2.678   5.139
 9777SOL    HW130230   5.231   2.747   5.211
 9777SOL    HW230231   5.265   2.712   5.056
 9778SOL     OW30232   1.825   3.101   2.830
 9778SOL    HW130233   1.922   3.076   2.821
 9778SOL    HW230234   1.775   3.065   2.752
 9779SOL     OW30235   1.886   0.928   2.793
 9779SOL    HW130236   1.837   0.929   2.880
 9779SOL    HW230237   1.980   0.896   2.808
 9780SOL     OW30238   1.722   1.772   1.380
 9780SOL    HW130239   1.699   1.843   1.313
 9780SOL    HW230240   1.728   1.813   1.471
 9781SOL     OW30241   1.326   1.100   2.157
 9781SOL    HW130242   1.307   1.011   2.198
 9781SOL    HW230243   1.335   1.091   2.058
 9782SOL     OW30244   0.610   2.599   6.890
 9782SOL    HW130245   0.528   2.555   6.926
 9782SOL    HW230246   0.584   2.669   6.823
 9783SOL     OW30247   5.375   1.325   2.219
 9783SOL    HW130248   5.475   1.336   2.216
 9783SOL    HW230249   5.342   1.350   2.310
 9784SOL     OW30250   2.494   1.176   0.256
 9784SOL    HW130251   2.405   1.182   0.301
 9784SOL    HW230252   2.538   1.266   0.258
 9785SOL     OW30253   1.875   3.808   4.152
 9785SOL    HW130254   1.972   3.805   4.130
 9785SOL    HW230255   1.857   3.885   4.213
 9786SOL     OW30256   3.156   4.403   0.048
 9786SOL    HW130257   3.158   4.314   0.003
 9786SOL    HW230258   3.064   4.422   0.081
 9787SOL     OW30259   2.728   3.497   0.921
 9787SOL    HW130260   2.720   3.578   0.978
 9787SOL    HW230261   2.637   3.460   0.902
 9788SOL     OW30262   2.818   0.285   3.903
 9788SOL    HW130263   2.900   0.274   3.847
 9788SOL    HW230264   2.747   0.224   3.868
 9789SOL     OW30265   4.380   1.422   0.283
 9789SOL    HW130266   4.418   1.511   0.305
 9789SOL    HW230267   4.345   1.379   0.366
 9790SOL     OW30268   4.531   5.708   5.063
 9790SOL    HW130269   4.496   5.700   5.157
 9790SOL    HW230270   4.504   5.628   5.010
 9791SOL     OW30271   0.322   0.756   0.768
 9791SOL    HW130272   0.263   0.740   0.689
 9791SOL    HW230273   0.407   0.799   0.739
 9792SOL     OW30274   2.976   3.505   0.091
 9792SOL    HW130275   2.970   3.437   0.164
 9792SOL    HW230276   2.884   3.535   0.066
 9793SOL     OW30277   5.576   0.828   1.915
 9793SOL    HW130278   5.582   0.800   2.011
 9793SOL    HW230279   5.489   0.875   1.900
 9794SOL     OW30280   3.852   6.006   5.552
 9794SOL    HW130281   3.868   6.087   5.496
 9794SOL    HW230282   3.931   5.991   5.611
 9795SOL     OW30283   2.006   4.353   3.381
 9795SOL    HW130284   2.068   4.304   3.442
 9795SOL    HW230285   2.057   4.426   3.335
 9796SOL     OW30286   3.985   3.524   5.083
 9796SOL    HW130287   4.039   3.529   5.167
 9796SOL    HW230288   4.045   3.533   5.004
 9797SOL     OW30289   4.069   5.069   0.408
 9797SOL    HW130290   4.020   5.115   0.482
 9797SOL    HW230291   4.023   4.983   0.387
 9798SOL     OW30292   0.715   4.270   5.802
 9798SOL    HW130293   0.810   4.293   5.820
 9798SOL    HW230294   0.672   4.236   5.886
 9799SOL     OW30295   3.413   0.277   6.160
 9799SOL    HW130296   3.364   0.189   6.157
 9799SOL    HW230297   3.470   0.286   6.078
 9800SOL     OW30298   0.380   4.549   4.694
 9800SOL    HW130299   0.410   4.455   4.705
 9800SOL    HW230300   0.445   4.599   4.636
 9801SOL     OW30301   3.935   6.649   1.043
 9801SOL    HW130302   3.858   6.709   1.064
 9801SOL    HW230303   4.013   6.675   1.100
 9802SOL     OW30304   3.957   2.244   0.471
 9802SOL    HW130305   4.056   2.244   0.480
 9802SOL    HW230306   3.931   2.209   0.381
 9803SOL     OW30307   2.466   3.701   0.140
 9803SOL    HW130308   2.492   3.753   0.221
 9803SOL    HW230309   2.465   3.603   0.162
 9804SOL     OW30310   1.109   3.845   3.141
 9804SOL    HW130311   1.184   3.903   3.107
 9804SOL    HW230312   1.136   3.806   3.229
 9805SOL     OW30313   6.861   4.676   5.378
 9805SOL    HW130314   6.853   4.644   5.473
 9805SOL    HW230315   6.849   4.599   5.316
 9806SOL     OW30316   3.528   1.227   0.164
 9806SOL    HW130317   3.477   1.313   0.171
 9806SOL    HW230318   3.601   1.238   0.096
 9807SOL     OW30319   4.102   3.573   4.644
 9807SOL    HW130320   4.039   3.509   4.599
 9807SOL    HW230321   4.151   3.625   4.575
 9808SOL     OW30322   2.573   6.792   2.623
 9808SOL    HW130323   2.548   6.806   2.719
 9808SOL    HW230324   2.593   6.696   2.608
 9809SOL     OW30325   6.941   3.527   1.207
 9809SOL    HW130326   6.952   3.552   1.304
 9809SOL    HW230327   7.020   3.472   1.178
 9810SOL     OW30328   4.088   2.709   1.301
 9810SOL    HW130329   4.010   2.728   1.361
 9810SOL    HW230330   4.169   2.692   1.358
 9811SOL     OW30331   5.368   3.533   3.919
 9811SOL    HW130332   5.319   3.484   3.847
 9811SOL    HW230333   5.418   3.468   3.975
 9812SOL     OW30334   3.280   5.454   6.480
 9812SOL    HW130335   3.252   5.385   6.547
 9812SOL    HW230336   3.214   5.456   6.405
 9813SOL     OW30337   4.496   0.160   2.126
 9813SOL    HW130338   4.424   0.122   2.068
 9813SOL    HW230339   4.519   0.253   2.096
 9814SOL     OW30340   6.496   1.454   6.645
 9814SOL    HW130341   6.568   1.522   6.635
 9814SOL    HW230342   6.533   1.362   6.634
 9815SOL     OW30343   5.231   2.798   4.873
 9815SOL    HW130344   5.302   2.815   4.804
 9815SOL    HW230345   5.170   2.877   4.877
 9816SOL     OW30346   3.983   1.059   0.093
 9816SOL    HW130347   4.044   1.022   0.162
 9816SOL    HW230348   3.888   1.047   0.123
 9817SOL     OW30349   6.029   6.939   1.214
 9817SOL    HW130350   6.099   6.887   1.264
 9817SOL    HW230351   6.073   7.013   1.162
 9818SOL     OW30352   4.059   2.205   5.024
 9818SOL    HW130353   4.026   2.203   4.930
 9818SOL    HW230354   4.122   2.283   5.036
 9819SOL     OW30355   2.515   0.225   2.105
 9819SOL    HW130356   2.422   0.260   2.115
 9819SOL    HW230357   2.537   0.165   2.181
 9820SOL     OW30358   4.187   2.717   0.273
 9820SOL    HW130359   4.174   2.668   0.360
 9820SOL    HW230360   4.112   2.695   0.211
 9821SOL     OW30361   0.625   6.462   6.892
 9821SOL    HW130362   0.655   6.369   6.913
 9821SOL    HW230363   0.667   6.526   6.957
 9822SOL     OW30364   0.002   2.001   2.342
 9822SOL    HW130365   0.015   2.063   2.419
 9822SOL    HW230366   0.064   1.923   2.351
 9823SOL     OW30367   2.831   6.144   2.552
 9823SOL    HW130368   2.796   6.056   2.584
 9823SOL    HW230369   2.847   6.140   2.453
 9824SOL     OW30370   2.295   3.965   5.404
 9824SOL    HW130371   2.198   3.989   5.414
 9824SOL    HW230372   2.324   3.980   5.309
 9825SOL     OW30373   4.461   4.547   5.385
 9825SOL    HW130374   4.364   4.557   5.406
 9825SOL    HW230375   4.505   4.492   5.456
 9826SOL     OW30376   5.966   0.344   5.168
 9826SOL    HW130377   5.885   0.319   5.115
 9826SOL    HW230378   5.959   0.439   5.197
 9827SOL     OW30379   1.099   5.682   4.867
 9827SOL    HW130380   1.037   5.725   4.932
 9827SOL    HW230381   1.046   5.629   4.800
 9828SOL     OW30382   2.462   1.453   0.345
 9828SOL    HW130383   2.538   1.471   0.282
 9828SOL    HW230384   2.386   1.515   0.323
 9829SOL     OW30385   3.205   4.520   1.222
 9829SOL    HW130386   3.125   4.518   1.161
 9829SOL    HW230387   3.235   4.615   1.233
 9830SOL     OW30388   5.886   1.051   1.147
 9830SOL    HW130389   5.909   1.145   1.174
 9830SOL    HW230390   5.843   1.052   1.057
 9831SOL     OW30391   6.876   5.815   1.073
 9831SOL    HW130392   6.968   5.845   1.048
 9831SOL    HW230393   6.874   5.788   1.169
 9832SOL     OW30394   3.111   3.879   1.691
 9832SOL    HW130395   3.191   3.876   1.631
 9832SOL    HW230396   3.107   3.969   1.735
 9833SOL     OW30397   4.984   4.297   0.312
 9833SOL    HW130398   4.912   4.264   0.251
 9833SOL    HW230399   5.066   4.319   0.259
 9834SOL     OW30400   1.970   3.206   3.875
 9834SOL    HW130401   2.008   3.299   3.880
 9834SOL    HW230402   2.044   3.141   3.857
 9835SOL     OW30403   5.136   2.559   4.797
 9835SOL    HW130404   5.194   2.538   4.718
 9835SOL    HW230405   5.179   2.632   4.851
 9836SOL     OW30406   5.364   4.947   1.446
 9836SOL    HW130407   5.360   4.865   1.388
 9836SOL    HW230408   5.302   5.016   1.410
 9837SOL     OW30409   2.163   5.070   5.190
 9837SOL    HW130410   2.234   5.116   5.136
 9837SOL    HW230411   2.140   4.983   5.148
 9838SOL     OW30412   6.826   6.591   5.012
 9838SOL    HW130413   6.828   6.691   5.002
 9838SOL    HW230414   6.834   6.567   5.109
 9839SOL     OW30415   5.686   3.182   3.037
 9839SOL    HW130416   5.655   3.153   2.946
 9839SOL    HW230417   5.683   3.282   3.042
 9840SOL     OW30418   6.040   0.107   0.377
 9840SOL    HW130419   6.086   0.145   0.457
 9840SOL    HW230420   5.973   0.173   0.343
 9841SOL     OW30421   1.659   2.840   4.085
 9841SOL    HW130422   1.613   2.759   4.120
 9841SOL    HW230423   1.690   2.896   4.162
 9842SOL     OW30424   2.893   3.396   4.253
 9842SOL    HW130425   2.915   3.493   4.267
 9842SOL    HW230426   2.801   3.388   4.213
 9843SOL     OW30427   5.824   4.436   3.569
 9843SOL    HW130428   5.909   4.452   3.617
 9843SOL    HW230429   5.826   4.482   3.480
 9844SOL     OW30430   4.070   0.247   1.896
 9844SOL    HW130431   4.034   0.331   1.936
 9844SOL    HW230432   4.123   0.270   1.814
 9845SOL     OW30433   1.471   1.625   4.384
 9845SOL    HW130434   1.372   1.617   4.395
 9845SOL    HW230435   1.501   1.714   4.418
 9846SOL     OW30436   2.980   3.653   4.298
 9846SOL    HW130437   3.024   3.651   4.388
 9846SOL    HW230438   3.017   3.729   4.244
 9847SOL     OW30439   2.479   4.437   4.265
 9847SOL    HW130440   2.420   4.381   4.208
 9847SOL    HW230441   2.503   4.521   4.217
 9848SOL     OW30442   0.057   4.414   0.262
 9848SOL    HW130443   0.042   4.480   0.336
 9848SOL    HW230444   0.155   4.395   0.255
 9849SOL     OW30445   6.759   6.053   5.392
 9849SOL    HW130446   6.801   6.011   5.472
 9849SOL    HW230447   6.804   6.020   5.309
 9850SOL     OW30448   5.607   6.804   3.651
 9850SOL    HW130449   5.515   6.843   3.655
 9850SOL    HW230450   5.650   6.829   3.564
 9851SOL     OW30451   5.756   2.546   5.016
 9851SOL    HW130452   5.786   2.637   5.044
 9851SOL    HW230453   5.753   2.486   5.095
 9852SOL     OW30454   5.330   2.054   3.703
 9852SOL    HW130455   5.386   2.135   3.721
 9852SOL    HW230456   5.345   2.022   3.610
 9853SOL     OW30457   7.007   5.112   1.103
 9853SOL    HW130458   0.073   5.147   1.118
 9853SOL    HW230459   6.988   5.037   1.167
 9854SOL     OW30460   3.188   6.949   4.148
 9854SOL    HW130461   3.134   0.008   4.145
 9854SOL    HW230462   3.128   6.873   4.175
 9855SOL     OW30463   2.515   4.410   1.357
 9855SOL    HW130464   2.503   4.311   1.350
 9855SOL    HW230465   2.426   4.454   1.361
 9856SOL     OW30466   3.685   3.252   0.975
 9856SOL    HW130467   3.699   3.299   1.062
 9856SOL    HW230468   3.653   3.317   0.906
 9857SOL     OW30469   5.800   4.885   3.064
 9857SOL    HW130470   5.753   4.825   3.128
 9857SOL    HW230471   5.787   4.980   3.090
 9858SOL     OW30472   3.466   0.845   1.362
 9858SOL    HW130473   3.476   0.944   1.350
 9858SOL    HW230474   3.467   0.823   1.459
 9859SOL     OW30475   0.402   6.598   1.565
 9859SOL    HW130476   0.442   6.542   1.492
 9859SOL    HW230477   0.413   6.550   1.653
 9860SOL     OW30478   0.999   1.176   3.129
 9860SOL    HW130479   0.924   1.154   3.191
 9860SOL    HW230480   1.024   1.094   3.076
 9861SOL     OW30481   2.064   6.173   3.715
 9861SOL    HW130482   2.137   6.227   3.757
 9861SOL    HW230483   2.039   6.213   3.627
 9862SOL     OW30484   0.441   1.850   0.310
 9862SOL    HW130485   0.476   1.873   0.401
 9862SOL    HW230486   0.346   1.821   0.318
 9863SOL     OW30487   4.820   0.612   0.558
 9863SOL    HW130488   4.839   0.524   0.514
 9863SOL    HW230489   4.792   0.678   0.489
 9864SOL     OW30490   3.604   5.460   3.894
 9864SOL    HW130491   3.649   5.386   3.945
 9864SOL    HW230492   3.516   5.428   3.861
 9865SOL     OW30493   2.155   3.715   3.597
 9865SOL    HW130494   2.080   3.762   3.644
 9865SOL    HW230495   2.175   3.629   3.645
 9866SOL     OW30496   2.751   4.935   3.333
 9866SOL    HW130497   2.835   4.946   3.278
 9866SOL    HW230498   2.713   5.025   3.353
 9867SOL     OW30499   3.767   6.516   5.888
 9867SOL    HW130500   3.835   6.590   5.886
 9867SOL    HW230501   3.675   6.555   5.879
 9868SOL     OW30502   1.390   5.301   6.130
 9868SOL    HW130503   1.315   5.266   6.074
 9868SOL    HW230504   1.355   5.370   6.193
 9869SOL     OW30505   0.812   5.095   3.213
 9869SOL    HW130506   0.775   5.154   3.141
 9869SOL    HW230507   0.856   5.016   3.172
 9870SOL     OW30508   4.411   5.483   1.751
 9870SOL    HW130509   4.400   5.494   1.850
 9870SOL    HW230510   4.464   5.560   1.715
 9871SOL     OW30511   2.238   2.708   5.731
 9871SOL    HW130512   2.215   2.741   5.639
 9871SOL    HW230513   2.276   2.616   5.725
 9872SOL     OW30514   1.419   3.676   3.006
 9872SOL    HW130515   1.369   3.682   3.093
 9872SOL    HW230516   1.459   3.585   2.997
 9873SOL     OW30517   2.270   2.243   1.598
 9873SOL    HW130518   2.268   2.339   1.624
 9873SOL    HW230519   2.364   2.210   1.601
 9874SOL     OW30520   1.143   3.845   4.511
 9874SOL    HW130521   1.098   3.926   4.546
 9874SOL    HW230522   1.236   3.840   4.547
 9875SOL     OW30523   1.233   1.607   3.105
 9875SOL    HW130524   1.141   1.592   3.069
 9875SOL    HW230525   1.226   1.634   3.202
 9876SOL     OW30526   6.530   6.173   2.184
 9876SOL    HW130527   6.478   6.247   2.228
 9876SOL    HW230528   6.471   6.093   2.175
 9877SOL     OW30529   4.164   0.247   1.113
 9877SOL    HW130530   4.222   0.298   1.176
 9877SOL    HW230531   4.221   0.186   1.058
 9878SOL     OW30532   6.541   1.581   4.982
 9878SOL    HW130533   6.457   1.624   5.017
 9878SOL    HW230534   6.614   1.650   4.978
 9879SOL     OW30535   5.131   5.147   5.438
 9879SOL    HW130536   5.175   5.194   5.514
 9879SOL    HW230537   5.157   5.191   5.352
 9880SOL     OW30538   0.981   2.512   3.663
 9880SOL    HW130539   0.955   2.578   3.592
 9880SOL    HW230540   0.962   2.419   3.631
 9881SOL     OW30541   0.265   1.661   6.021
 9881SOL    HW130542   0.300   1.567   6.013
 9881SOL    HW230543   0.328   1.724   5.975
 9882SOL     OW30544   1.703   2.568   3.411
 9882SOL    HW130545   1.644   2.641   3.447
 9882SOL    HW230546   1.677   2.548   3.316
 9883SOL     OW30547   2.943   1.362   2.321
 9883SOL    HW130548   2.995   1.304   2.384
 9883SOL    HW230549   2.988   1.364   2.232
 9884SOL     OW30550   3.009   0.533   3.727
 9884SOL    HW130551   3.022   0.556   3.824
 9884SOL    HW230552   2.946   0.598   3.685
 9885SOL     OW30553   6.883   2.939   4.540
 9885SOL    HW130554   6.905   2.970   4.448
 9885SOL    HW230555   6.870   3.019   4.600
 9886SOL     OW30556   0.120   2.828   2.135
 9886SOL    HW130557   0.172   2.896   2.187
 9886SOL    HW230558   0.071   2.767   2.197
 9887SOL     OW30559   4.370   6.222   5.907
 9887SOL    HW130560   4.368   6.135   5.858
 9887SOL    HW230561   4.415   6.291   5.850
 9888SOL     OW30562   6.579   5.491   4.982
 9888SOL    HW130563   6.480   5.490   4.993
 9888SOL    HW230564   6.621   5.443   5.060
 9889SOL     OW30565   0.550   5.776   0.850
 9889SOL    HW130566   0.563   5.853   0.788
 9889SOL    HW230567   0.638   5.734   0.871
 9890SOL     OW30568   0.864   2.983   1.070
 9890SOL    HW130569   0.819   3.055   1.123
 9890SOL    HW230570   0.807   2.959   0.991
 9891SOL     OW30571   5.084   1.134   2.554
 9891SOL    HW130572   5.058   1.186   2.472
 9891SOL    HW230573   5.008   1.074   2.580
 9892SOL     OW30574   1.162   0.354   6.589
 9892SOL    HW130575   1.218   0.404   6.522
 9892SOL    HW230576   1.084   0.313   6.543
 9893SOL     OW30577   2.263   1.635   0.231
 9893SOL    HW130578   2.171   1.621   0.269
 9893SOL    HW230579   2.259   1.628   0.132
 9894SOL     OW30580   2.343   1.090   1.423
 9894SOL    HW130581   2.270   1.133   1.477
 9894SOL    HW230582   2.426   1.082   1.479
 9895SOL     OW30583   4.256   2.624   5.584
 9895SOL    HW130584   4.279   2.649   5.490
 9895SOL    HW230585   4.275   2.701   5.645
 9896SOL     OW30586   6.464   6.808   5.871
 9896SOL    HW130587   6.480   6.711   5.852
 9896SOL    HW230588   6.409   6.817   5.954
 9897SOL     OW30589   6.189   5.038   5.238
 9897SOL    HW130590   6.200   5.081   5.148
 9897SOL    HW230591   6.097   5.000   5.246
 9898SOL     OW30592   2.505   6.892   6.548
 9898SOL    HW130593   2.504   6.987   6.577
 9898SOL    HW230594   2.558   6.837   6.612
 9899SOL     OW30595   0.106   4.679   0.405
 9899SOL    HW130596   0.026   4.709   0.457
 9899SOL    HW230597   0.134   4.752   0.342
 9900SOL     OW30598   2.409   4.820   3.502
 9900SOL    HW130599   2.436   4.862   3.415
 9900SOL    HW230600   2.488   4.820   3.564
 9901SOL     OW30601   1.952   3.305   5.343
 9901SOL    HW130602   1.951   3.206   5.349
 9901SOL    HW230603   2.020   3.334   5.275
 9902SOL     OW30604   2.982   4.592   1.089
 9902SOL    HW130605   2.956   4.689   1.096
 9902SOL    HW230606   2.928   4.539   1.154
 9903SOL     OW30607   5.442   1.150   5.312
 9903SOL    HW130608   5.420   1.058   5.344
 9903SOL    HW230609   5.394   1.168   5.226
 9904SOL     OW30610   6.129   1.612   0.464
 9904SOL    HW130611   6.111   1.520   0.500
 9904SOL    HW230612   6.192   1.660   0.525
 9905SOL     OW30613   4.986   0.189   0.512
 9905SOL    HW130614   5.023   0.128   0.442
 9905SOL    HW230615   4.913   0.142   0.562
 9906SOL     OW30616   3.001   3.332   5.350
 9906SOL    HW130617   2.914   3.330   5.302
 9906SOL    HW230618   2.986   3.356   5.446
 9907SOL     OW30619   1.535   6.186   1.666
 9907SOL    HW130620   1.482   6.188   1.581
 9907SOL    HW230621   1.499   6.115   1.726
 9908SOL     OW30622   5.259   3.490   1.742
 9908SOL    HW130623   5.287   3.498   1.838
 9908SOL    HW230624   5.338   3.506   1.683
 9909SOL     OW30625   1.723   0.222   4.442
 9909SOL    HW130626   1.643   0.204   4.500
 9909SOL    HW230627   1.727   0.153   4.370
 9910SOL     OW30628   0.470   4.669   4.153
 9910SOL    HW130629   0.397   4.625   4.101
 9910SOL    HW230630   0.440   4.760   4.182
 9911SOL     OW30631   2.488   6.456   2.305
 9911SOL    HW130632   2.574   6.492   2.342
 9911SOL    HW230633   2.508   6.398   2.226
 9912SOL     OW30634   4.725   0.938   5.706
 9912SOL    HW130635   4.625   0.935   5.701
 9912SOL    HW230636   4.753   0.983   5.791
 9913SOL     OW30637   5.111   3.144   0.872
 9913SOL    HW130638   5.162   3.216   0.917
 9913SOL    HW230639   5.075   3.178   0.785
 9914SOL     OW30640   0.394   3.286   4.516
 9914SOL    HW130641   0.298   3.257   4.524
 9914SOL    HW230642   0.400   3.384   4.534
 9915SOL     OW30643   4.292   1.148   3.824
 9915SOL    HW130644   4.208   1.191   3.791
 9915SOL    HW230645   4.370   1.209   3.807
 9916SOL     OW30646   1.675   3.161   1.472
 9916SOL    HW130647   1.676   3.118   1.563
 9916SOL    HW230648   1.590   3.136   1.425
 9917SOL     OW30649   6.269   4.684   5.798
 9917SOL    HW130650   6.213   4.716   5.874
 9917SOL    HW230651   6.240   4.728   5.713
 9918SOL     OW30652   4.954   3.015   2.565
 9918SOL    HW130653   5.050   2.987   2.574
 9918SOL    HW230654   4.937   3.046   2.471
 9919SOL     OW30655   4.986   5.715   0.410
 9919SOL    HW130656   4.977   5.626   0.455
 9919SOL    HW230657   5.082   5.731   0.386
 9920SOL     OW30658   4.539   0.969   2.390
 9920SOL    HW130659   4.538   0.989   2.292
 9920SOL    HW230660   4.617   0.909   2.411
 9921SOL     OW30661   4.232   5.144   6.269
 9921SOL    HW130662   4.285   5.081   6.211
 9921SOL    HW230663   4.196   5.094   6.347
 9922SOL     OW30664   0.115   6.327   1.391
 9922SOL    HW130665   0.117   6.281   1.302
 9922SOL    HW230666   0.077   6.419   1.380
 9923SOL     OW30667   6.433   4.116   0.101
 9923SOL    HW130668   6.347   4.146   0.059
 9923SOL    HW230669   6.424   4.116   0.201
 9924SOL     OW30670   1.551   4.630   4.763
 9924SOL    HW130671   1.604   4.563   4.712
 9924SOL    HW230672   1.549   4.716   4.713
 9925SOL     OW30673   4.631   2.665   4.105
 9925SOL    HW130674   4.729   2.672   4.124
 9925SOL    HW230675   4.584   2.746   4.141
 9926SOL     OW30676   3.515   5.414   1.563
 9926SOL    HW130677   3.495   5.340   1.500
 9926SOL    HW230678   3.432   5.467   1.579
 9927SOL     OW30679   5.252   0.691   3.968
 9927SOL    HW130680   5.160   0.698   3.930
 9927SOL    HW230681   5.320   0.699   3.895
 9928SOL     OW30682   5.178   4.349   2.429
 9928SOL    HW130683   5.199   4.446   2.414
 9928SOL    HW230684   5.196   4.298   2.344
 9929SOL     OW30685   1.118   4.111   3.614
 9929SOL    HW130686   1.145   4.135   3.520
 9929SOL    HW230687   1.115   4.011   3.623
 9930SOL     OW30688   5.540   0.895   2.828
 9930SOL    HW130689   5.535   0.820   2.894
 9930SOL    HW230690   5.509   0.862   2.738
 9931SOL     OW30691   1.423   5.643   5.335
 9931SOL    HW130692   1.391   5.559   5.379
 9931SOL    HW230693   1.462   5.704   5.404
 9932SOL     OW30694   0.242   5.848   4.466
 9932SOL    HW130695   0.278   5.823   4.376
 9932SOL    HW230696   0.205   5.766   4.510
 9933SOL     OW30697   6.668   6.835   2.833
 9933SOL    HW130698   6.684   6.800   2.741
 9933SOL    HW230699   6.717   6.922   2.844
 9934SOL     OW30700   0.202   2.618   4.656
 9934SOL    HW130701   0.226   2.621   4.753
 9934SOL    HW230702   0.284   2.612   4.601
 9935SOL     OW30703   1.778   0.138   5.881
 9935SOL    HW130704   1.838   0.061   5.901
 9935SOL    HW230705   1.686   0.104   5.863
 9936SOL     OW30706   1.792   4.482   3.609
 9936SOL    HW130707   1.790   4.408   3.542
 9936SOL    HW230708   1.879   4.531   3.603
 9937SOL     OW30709   6.816   2.904   5.744
 9937SOL    HW130710   6.754   2.828   5.763
 9937SOL    HW230711   6.905   2.868   5.717
 9938SOL     OW30712   6.612   6.205   2.665
 9938SOL    HW130713   6.643   6.283   2.719
 9938SOL    HW230714   6.514   6.190   2.682
 9939SOL     OW30715   3.295   3.043   3.517
 9939SOL    HW130716   3.317   2.990   3.435
 9939SOL    HW230717   3.334   2.998   3.597
 9940SOL     OW30718   0.368   1.065   0.957
 9940SOL    HW130719   0.423   1.100   1.033
 9940SOL    HW230720   0.425   1.006   0.900
 9941SOL     OW30721   3.468   5.871   5.311
 9941SOL    HW130722   3.528   5.812   5.257
 9941SOL    HW230723   3.501   5.965   5.307
 9942SOL     OW30724   2.870   6.260   4.015
 9942SOL    HW130725   2.897   6.167   3.991
 9942SOL    HW230726   2.805   6.256   4.091
 9943SOL     OW30727   0.522   6.383   4.868
 9943SOL    HW130728   0.553   6.468   4.909
 9943SOL    HW230729   0.518   6.394   4.768
 9944SOL     OW30730   1.800   4.570   5.764
 9944SOL    HW130731   1.875   4.556   5.829
 9944SOL    HW230732   1.835   4.568   5.671
 9945SOL     OW30733   0.121   5.548   6.772
 9945SOL    HW130734   0.112   5.598   6.687
 9945SOL    HW230735   0.201   5.582   6.823
 9946SOL     OW30736   5.507   0.736   3.817
 9946SOL    HW130737   5.555   0.659   3.859
 9946SOL    HW230738   5.573   0.805   3.789
 9947SOL     OW30739   6.143   4.269   4.005
 9947SOL    HW130740   6.133   4.369   3.996
 9947SOL    HW230741   6.076   4.235   4.071
 9948SOL     OW30742   5.364   4.288   3.539
 9948SOL    HW130743   5.337   4.197   3.508
 9948SOL    HW230744   5.285   4.349   3.535
 9949SOL     OW30745   5.942   4.724   1.945
 9949SOL    HW130746   5.978   4.631   1.952
 9949SOL    HW230747   6.001   4.778   1.885
 9950SOL     OW30748   4.040   6.218   0.136
 9950SOL    HW130749   3.975   6.215   0.212
 9950SOL    HW230750   4.131   6.197   0.170
 9951SOL     OW30751   5.873   3.082   2.762
 9951SOL    HW130752   5.849   2.989   2.790
 9951SOL    HW230753   5.959   3.081   2.711
 9952SOL     OW30754   0.681   4.654   6.333
 9952SOL    HW130755   0.618   4.732   6.330
 9952SOL    HW230756   0.740   4.655   6.252
 9953SOL     OW30757   5.635   3.439   3.596
 9953SOL    HW130758   5.638   3.535   3.625
 9953SOL    HW230759   5.540   3.409   3.592
 9954SOL     OW30760   5.270   0.974   4.994
 9954SOL    HW130761   5.259   1.023   4.907
 9954SOL    HW230762   5.182   0.935   5.020
 9955SOL     OW30763   0.890   5.197   5.074
 9955SOL    HW130764   0.975   5.144   5.071
 9955SOL    HW230765   0.840   5.185   4.988
 9956SOL     OW30766   0.665   5.982   0.284
 9956SOL    HW130767   0.566   5.984   0.269
 9956SOL    HW230768   0.709   6.050   0.226
 9957SOL     OW30769   5.624   5.845   2.401
 9957SOL    HW130770   5.580   5.856   2.311
 9957SOL    HW230771   5.717   5.880   2.397
 9958SOL     OW30772   3.038   4.629   0.583
 9958SOL    HW130773   3.133   4.602   0.566
 9958SOL    HW230774   3.022   4.634   0.681
 9959SOL     OW30775   3.721   4.113   1.073
 9959SOL    HW130776   3.681   4.058   1.000
 9959SOL    HW230777   3.816   4.088   1.086
 9960SOL     OW30778   0.778   1.039   1.951
 9960SOL    HW130779   0.818   0.952   1.925
 9960SOL    HW230780   0.704   1.024   2.016
 9961SOL     OW30781   2.011   4.414   4.513
 9961SOL    HW130782   2.053   4.324   4.498
 9961SOL    HW230783   2.080   4.477   4.549
 9962SOL     OW30784   6.182   6.589   4.588
 9962SOL    HW130785   6.268   6.624   4.549
 9962SOL    HW230786   6.198   6.498   4.626
 9963SOL     OW30787   3.412   2.465   0.401
 9963SOL    HW130788   3.392   2.424   0.312
 9963SOL    HW230789   3.437   2.561   0.389
 9964SOL     OW30790   5.427   6.493   4.703
 9964SOL    HW130791   5.457   6.572   4.648
 9964SOL    HW230792   5.337   6.463   4.671
 9965SOL     OW30793   4.605   0.130   1.720
 9965SOL    HW130794   4.611   0.074   1.803
 9965SOL    HW230795   4.676   0.101   1.656
 9966SOL     OW30796   6.529   1.174   2.445
 9966SOL    HW130797   6.570   1.227   2.519
 9966SOL    HW230798   6.464   1.230   2.395
 9967SOL     OW30799   0.845   5.360   0.562
 9967SOL    HW130800   0.786   5.296   0.513
 9967SOL    HW230801   0.849   5.335   0.658
 9968SOL     OW30802   3.510   2.934   2.958
 9968SOL    HW130803   3.514   2.897   2.866
 9968SOL    HW230804   3.416   2.932   2.991
 9969SOL     OW30805   1.571   2.997   0.908
 9969SOL    HW130806   1.498   2.961   0.966
 9969SOL    HW230807   1.544   2.990   0.812
 9970SOL     OW30808   6.958   4.334   2.874
 9970SOL    HW130809   6.942   4.382   2.788
 9970SOL    HW230810   0.030   4.331   2.893
 9971SOL     OW30811   2.904   6.597   6.900
 9971SOL    HW130812   2.867   6.661   6.967
 9971SOL    HW230813   2.988   6.557   6.936
 9972SOL     OW30814   0.027   5.021   1.832
 9972SOL    HW130815   0.057   5.116   1.844
 9972SOL    HW230816   0.051   4.968   1.914
 9973SOL     OW30817   4.950   6.589   3.810
 9973SOL    HW130818   5.028   6.551   3.859
 9973SOL    HW230819   4.960   6.569   3.712
 9974SOL     OW30820   2.699   1.104   4.068
 9974SOL    HW130821   2.649   1.170   4.012
 9974SOL    HW230822   2.681   1.012   4.036
 9975SOL     OW30823   6.300   3.709   1.613
 9975SOL    HW130824   6.340   3.790   1.568
 9975SOL    HW230825   6.235   3.665   1.551
 9976SOL     OW30826   3.053   6.134   4.685
 9976SOL    HW130827   2.969   6.080   4.683
 9976SOL    HW230828   3.039   6.216   4.740
 9977SOL     OW30829   6.563   4.870   3.923
 9977SOL    HW130830   6.642   4.880   3.862
 9977SOL    HW230831   6.593   4.839   4.013
 9978SOL     OW30832   0.336   3.103   4.072
 9978SOL    HW130833   0.259   3.049   4.038
 9978SOL    HW230834   0.386   3.051   4.141
 9979SOL     OW30835   0.782   3.448   5.286
 9979SOL    HW130836   0.853   3.494   5.338
 9979SOL    HW230837   0.789   3.474   5.189
 9980SOL     OW30838   3.059   6.681   5.726
 9980SOL    HW130839   3.077   6.761   5.668
 9980SOL    HW230840   2.973   6.638   5.697
 9981SOL     OW30841   3.326   1.626   3.209
 9981SOL    HW130842   3.294   1.628   3.304
 9981SOL    HW230843   3.250   1.645   3.148
 9982SOL     OW30844   6.049   0.189   2.593
 9982SOL    HW130845   6.127   0.179   2.531
 9982SOL    HW230846   6.025   0.286   2.602
 9983SOL     OW30847   6.561   0.474   1.145
 9983SOL    HW130848   6.596   0.484   1.051
 9983SOL    HW230849   6.478   0.419   1.143
 9984SOL     OW30850   3.361   0.657   6.911
 9984SOL    HW130851   3.394   0.565   6.888
 9984SOL    HW230852   3.267   0.651   6.945
 9985SOL     OW30853   1.436   1.892   0.605
 9985SOL    HW130854   1.461   1.982   0.641
 9985SOL    HW230855   1.508   1.860   0.544
 9986SOL     OW30856   5.230   4.229   5.226
 9986SOL    HW130857   5.159   4.297   5.208
 9986SOL    HW230858   5.256   4.184   5.140
 9987SOL     OW30859   0.370   4.599   4.981
 9987SOL    HW130860   0.357   4.581   4.884
 9987SOL    HW230861   0.343   4.519   5.034
 9988SOL     OW30862   6.291   1.236   4.135
 9988SOL    HW130863   6.309   1.270   4.043
 9988SOL    HW230864   6.193   1.236   4.152
 9989SOL     OW30865   1.512   2.652   5.202
 9989SOL    HW130866   1.506   2.568   5.148
 9989SOL    HW230867   1.426   2.703   5.195
 9990SOL     OW30868   0.847   4.275   1.197
 9990SOL    HW130869   0.755   4.313   1.205
 9990SOL    HW230870   0.889   4.306   1.111
 9991SOL     OW30871   4.054   2.231   3.889
 9991SOL    HW130872   4.055   2.135   3.915
 9991SOL    HW230873   3.960   2.261   3.873
 9992SOL     OW30874   6.505   4.829   6.277
 9992SOL    HW130875   6.502   4.862   6.182
 9992SOL    HW230876   6.547   4.899   6.335
 9993SOL     OW30877   1.500   1.027   1.646
 9993SOL    HW130878   1.405   0.996   1.637
 9993SOL    HW230879   1.531   1.065   1.558
 9994SOL     OW30880   5.873   4.494   3.304
 9994SOL    HW130881   5.878   4.395   3.318
 9994SOL    HW230882   5.948   4.524   3.246
 9995SOL     OW30883   5.262   1.785   4.570
 9995SOL    HW130884   5.329   1.717   4.599
 9995SOL    HW230885   5.301   1.841   4.497
 9996SOL     OW30886   3.390   2.978   1.254
 9996SOL    HW130887   3.356   3.038   1.327
 9996SOL    HW230888   3.319   2.967   1.184
 9997SOL     OW30889   2.789   0.805   4.630
 9997SOL    HW130890   2.749   0.745   4.562
 9997SOL    HW230891   2.863   0.757   4.677
 9998SOL     OW30892   6.336   6.340   5.410
 9998SOL    HW130893   6.340   6.398   5.329
 9998SOL    HW230894   6.389   6.257   5.394
 9999SOL     OW30895   0.530   0.894   5.356
 9999SOL    HW130896   0.526   0.983   5.400
 9999SOL    HW230897   0.448   0.880   5.301
10000SOL     OW30898   6.667   4.845   0.595
10000SOL    HW130899   6.591   4.908   0.608
10000SOL    HW230900   6.662   4.771   0.662
10001SOL     OW30901   3.768   0.595   4.068
10001SOL    HW130902   3.836   0.616   3.998
10001SOL    HW230903   3.810   0.540   4.140
10002SOL     OW30904   1.131   2.051   1.793
10002SOL    HW130905   1.154   1.956   1.816
10002SOL    HW230906   1.209   2.110   1.813
10003SOL     OW30907   5.630   3.404   1.425
10003SOL    HW130908   5.682   3.370   1.346
10003SOL    HW230909   5.541   3.358   1.427
10004SOL     OW30910   5.970   3.609   4.256
10004SOL    HW130911   6.047   3.555   4.223
10004SOL    HW230912   5.954   3.589   4.353
10005SOL     OW30913   4.458   6.761   3.200
10005SOL    HW130914   4.431   6.685   3.261
10005SOL    HW230915   4.475   6.843   3.255
10006SOL     OW30916   5.318   2.888   4.185
10006SOL    HW130917   5.357   2.932   4.104
10006SOL    HW230918   5.271   2.956   4.241
10007SOL     OW30919   5.004   5.712   3.875
10007SOL    HW130920   5.027   5.810   3.873
10007SOL    HW230921   5.084   5.659   3.846
10008SOL     OW30922   2.436   6.433   4.255
10008SOL    HW130923   2.470   6.355   4.204
10008SOL    HW230924   2.362   6.404   4.316
10009SOL     OW30925   2.444   4.278   1.814
10009SOL    HW130926   2.462   4.376   1.812
10009SOL    HW230927   2.504   4.232   1.749
10010SOL     OW30928   5.392   0.513   5.286
10010SOL    HW130929   5.334   0.589   5.257
10010SOL    HW230930   5.435   0.536   5.373
10011SOL     OW30931   6.247   6.753   3.535
10011SOL    HW130932   6.244   6.846   3.571
10011SOL    HW230933   6.342   6.720   3.537
10012SOL     OW30934   4.863   1.838   5.065
10012SOL    HW130935   4.916   1.768   5.113
10012SOL    HW230936   4.794   1.793   5.008
10013SOL     OW30937   1.875   0.677   1.045
10013SOL    HW130938   1.776   0.688   1.051
10013SOL    HW230939   1.918   0.714   1.128
10014SOL     OW30940   1.243   4.954   5.785
10014SOL    HW130941   1.172   5.022   5.768
10014SOL    HW230942   1.333   4.996   5.772
10015SOL     OW30943   2.582   6.019   6.351
10015SOL    HW130944   2.621   6.062   6.432
10015SOL    HW230945   2.501   5.966   6.376
10016SOL     OW30946   2.578   1.598   5.246
10016SOL    HW130947   2.654   1.663   5.237
10016SOL    HW230948   2.510   1.636   5.309
10017SOL     OW30949   6.121   2.037   2.794
10017SOL    HW130950   6.171   1.959   2.757
10017SOL    HW230951   6.120   2.032   2.894
10018SOL     OW30952   4.306   0.018   5.750
10018SOL    HW130953   4.223   6.989   5.758
10018SOL    HW230954   4.280   0.114   5.734
10019SOL     OW30955   0.571   0.777   3.607
10019SOL    HW130956   0.600   0.832   3.685
10019SOL    HW230957   0.589   0.826   3.522
10020SOL     OW30958   0.999   3.698   0.485
10020SOL    HW130959   0.945   3.734   0.560
10020SOL    HW230960   0.941   3.687   0.404
10021SOL     OW30961   5.035   2.675   1.017
10021SOL    HW130962   5.117   2.639   1.063
10021SOL    HW230963   5.044   2.774   1.009
10022SOL     OW30964   2.435   1.454   5.744
10022SOL    HW130965   2.429   1.527   5.677
10022SOL    HW230966   2.506   1.389   5.716
10023SOL     OW30967   0.942   3.421   0.483
10023SOL    HW130968   0.998   3.367   0.420
10023SOL    HW230969   0.980   3.513   0.491
10024SOL     OW30970   0.629   3.706   2.388
10024SOL    HW130971   0.670   3.792   2.359
10024SOL    HW230972   0.540   3.694   2.344
10025SOL     OW30973   1.720   1.529   0.505
10025SOL    HW130974   1.661   1.468   0.451
10025SOL    HW230975   1.816   1.505   0.488
10026SOL     OW30976   5.882   0.426   4.139
10026SOL    HW130977   5.888   0.513   4.189
10026SOL    HW230978   5.962   0.370   4.160
10027SOL     OW30979   6.313   2.772   5.862
10027SOL    HW130980   6.215   2.789   5.867
10027SOL    HW230981   6.353   2.778   5.954
10028SOL     OW30982   1.678   1.628   1.162
10028SOL    HW130983   1.641   1.687   1.091
10028SOL    HW230984   1.660   1.669   1.252
10029SOL     OW30985   3.775   1.466   4.879
10029SOL    HW130986   3.751   1.372   4.899
10029SOL    HW230987   3.712   1.503   4.811
10030SOL     OW30988   0.871   0.958   1.663
10030SOL    HW130989   0.880   0.859   1.651
10030SOL    HW230990   0.782   0.988   1.627
10031SOL     OW30991   0.288   5.266   3.188
10031SOL    HW130992   0.352   5.328   3.234
10031SOL    HW230993   0.213   5.320   3.148
10032SOL     OW30994   3.891   2.224   5.246
10032SOL    HW130995   3.943   2.271   5.174
10032SOL    HW230996   3.843   2.146   5.207
10033SOL     OW30997   6.251   3.140   4.178
10033SOL    HW130998   6.295   3.063   4.224
10033SOL    HW230999   6.152   3.127   4.177
10034SOL     OW31000   4.009   6.923   5.802
10034SOL    HW131001   3.950   6.850   5.836
10034SOL    HW231002   3.959   6.977   5.733
10035SOL     OW31003   0.094   6.127   3.927
10035SOL    HW131004   0.064   6.119   4.023
10035SOL    HW231005   0.160   6.202   3.920
10036SOL     OW31006   6.009   0.074   0.021
10036SOL    HW131007   5.996   0.033   6.956
10036SOL    HW231008   5.996   0.003   0.091
10037SOL     OW31009   6.972   0.405   1.552
10037SOL    HW131010   6.876   0.390   1.577
10037SOL    HW231011   6.980   0.491   1.502
10038SOL     OW31012   5.337   6.977   1.762
10038SOL    HW131013   5.254   6.921   1.757
10038SOL    HW231014   5.336   0.019   1.689
10039SOL     OW31015   3.462   0.868   3.065
10039SOL    HW131016   3.544   0.842   3.116
10039SOL    HW231017   3.403   0.788   3.054
10040SOL     OW31018   0.706   1.718   0.686
10040SOL    HW131019   0.689   1.657   0.764
10040SOL    HW231020   0.801   1.709   0.656
10041SOL     OW31021   0.532   6.852   0.119
10041SOL    HW131022   0.532   6.865   0.218
10041SOL    HW231023   0.508   6.938   0.074
10042SOL     OW31024   6.445   1.851   4.219
10042SOL    HW131025   6.358   1.806   4.197
10042SOL    HW231026   6.435   1.950   4.210
10043SOL     OW31027   2.333   3.214   5.309
10043SOL    HW131028   2.245   3.208   5.261
10043SOL    HW231029   2.402   3.164   5.257
10044SOL     OW31030   4.018   0.447   6.166
10044SOL    HW131031   4.090   0.477   6.104
10044SOL    HW231032   3.946   0.400   6.115
10045SOL     OW31033   2.621   6.884   1.036
10045SOL    HW131034   2.710   6.841   1.051
10045SOL    HW231035   2.572   6.834   0.965
10046SOL     OW31036   0.728   6.646   0.026
10046SOL    HW131037   0.824   6.675   0.022
10046SOL    HW231038   0.675   6.713   0.078
10047SOL     OW31039   1.667   3.842   1.334
10047SOL    HW131040   1.604   3.919   1.345
10047SOL    HW231041   1.757   3.876   1.306
10048SOL     OW31042   6.667   2.980   1.264
10048SOL    HW131043   6.635   3.074   1.250
10048SOL    HW231044   6.591   2.923   1.296
10049SOL     OW31045   6.746   2.181   4.577
10049SOL    HW131046   6.703   2.271   4.586
10049SOL    HW231047   6.754   2.158   4.480
10050SOL     OW31048   0.450   1.816   5.882
10050SOL    HW131049   0.486   1.814   5.789
10050SOL    HW231050   0.382   1.890   5.889
10051SOL     OW31051   1.451   0.552   2.423
10051SOL    HW131052   1.414   0.532   2.332
10051SOL    HW231053   1.551   0.555   2.418
10052SOL     OW31054   0.890   0.031   4.546
10052SOL    HW131055   0.944   0.057   4.466
10052SOL    HW231056   0.910   0.092   4.622
10053SOL     OW31057   5.743   5.661   1.882
10053SOL    HW131058   5.735   5.587   1.948
10053SOL    HW231059   5.804   5.732   1.919
10054SOL     OW31060   4.918   4.801   3.373
10054SOL    HW131061   4.836   4.813   3.316
10054SOL    HW231062   4.947   4.889   3.409
10055SOL     OW31063   1.945   1.777   6.866
10055SOL    HW131064   1.903   1.694   6.829
10055SOL    HW231065   1.978   1.834   6.791
10056SOL     OW31066   4.979   3.339   4.478
10056SOL    HW131067   4.990   3.341   4.378
10056SOL    HW231068   4.927   3.258   4.504
10057SOL     OW31069   6.077   4.298   4.950
10057SOL    HW131070   5.995   4.299   4.892
10057SOL    HW231071   6.118   4.207   4.948
10058SOL     OW31072   5.562   3.932   4.066
10058SOL    HW131073   5.619   3.851   4.079
10058SOL    HW231074   5.485   3.909   4.007
10059SOL     OW31075   5.443   6.458   6.125
10059SOL    HW131076   5.445   6.372   6.177
10059SOL    HW231077   5.533   6.476   6.087
10060SOL     OW31078   3.150   1.207   1.856
10060SOL    HW131079   3.089   1.250   1.790
10060SOL    HW231080   3.241   1.195   1.815
10061SOL     OW31081   3.693   0.307   3.031
10061SOL    HW131082   3.747   0.278   2.952
10061SOL    HW231083   3.752   0.316   3.111
10062SOL     OW31084   6.260   6.642   4.192
10062SOL    HW131085   6.187   6.646   4.124
10062SOL    HW231086   6.333   6.706   4.166
10063SOL     OW31087   4.415   2.313   2.936
10063SOL    HW131088   4.441   2.240   2.873
10063SOL    HW231089   4.467   2.396   2.916
10064SOL     OW31090   1.708   6.253   2.348
10064SOL    HW131091   1.784   6.193   2.322
10064SOL    HW231092   1.719   6.342   2.303
10065SOL     OW31093   6.601   1.701   1.018
10065SOL    HW131094   6.690   1.741   1.037
10065SOL    HW231095   6.587   1.693   0.919
10066SOL     OW31096   5.770   4.087   3.612
10066SOL    HW131097   5.738   4.152   3.681
10066SOL    HW231098   5.848   4.036   3.648
10067SOL     OW31099   5.635   3.503   5.252
10067SOL    HW131100   5.570   3.427   5.255
10067SOL    HW231101   5.620   3.563   5.331
10068SOL     OW31102   2.289   4.345   3.037
10068SOL    HW131103   2.352   4.392   2.975
10068SOL    HW231104   2.195   4.376   3.019
10069SOL     OW31105   3.162   5.526   0.890
10069SOL    HW131106   3.095   5.472   0.941
10069SOL    HW231107   3.230   5.465   0.850
10070SOL     OW31108   5.321   0.537   0.001
10070SOL    HW131109   5.356   0.455   0.046
10070SOL    HW231110   5.268   0.511   6.946
10071SOL     OW31111   5.230   1.292   4.572
10071SOL    HW131112   5.289   1.364   4.537
10071SOL    HW231113   5.240   1.210   4.515
10072SOL     OW31114   5.979   2.989   1.594
10072SOL    HW131115   5.923   3.023   1.670
10072SOL    HW231116   5.931   2.915   1.548
10073SOL     OW31117   5.769   5.306   5.422
10073SOL    HW131118   5.726   5.224   5.458
10073SOL    HW231119   5.752   5.312   5.323
10074SOL     OW31120   2.283   4.564   1.356
10074SOL    HW131121   2.253   4.629   1.426
10074SOL    HW231122   2.212   4.554   1.287
10075SOL     OW31123   0.518   3.585   1.431
10075SOL    HW131124   0.501   3.635   1.346
10075SOL    HW231125   0.453   3.616   1.501
10076SOL     OW31126   6.143   4.979   3.864
10076SOL    HW131127   6.189   5.015   3.945
10076SOL    HW231128   6.066   5.039   3.840
10077SOL     OW31129   4.507   4.280   6.890
10077SOL    HW131130   4.412   4.252   6.880
10077SOL    HW231131   4.557   4.211   6.943
10078SOL     OW31132   5.875   6.131   3.543
10078SOL    HW131133   5.834   6.071   3.475
10078SOL    HW231134   5.904   6.216   3.499
10079SOL     OW31135   6.031   5.169   3.400
10079SOL    HW131136   6.119   5.122   3.390
10079SOL    HW231137   6.036   5.233   3.477
10080SOL     OW31138   5.126   2.995   4.371
10080SOL    HW131139   5.033   3.028   4.354
10080SOL    HW231140   5.123   2.899   4.397
10081SOL     OW31141   1.609   5.211   0.784
10081SOL    HW131142   1.670   5.182   0.710
10081SOL    HW231143   1.543   5.277   0.748
10082SOL     OW31144   6.732   4.313   1.978
10082SOL    HW131145   6.808   4.262   2.018
10082SOL    HW231146   6.727   4.296   1.880
10083SOL     OW31147   3.114   5.391   2.630
10083SOL    HW131148   3.156   5.436   2.709
10083SOL    HW231149   3.068   5.458   2.573
10084SOL     OW31150   1.951   4.095   4.268
10084SOL    HW131151   1.886   4.108   4.344
10084SOL    HW231152   2.044   4.096   4.304
10085SOL     OW31153   3.122   6.426   1.660
10085SOL    HW131154   3.189   6.398   1.591
10085SOL    HW231155   3.164   6.424   1.751
10086SOL     OW31156   2.680   1.114   2.691
10086SOL    HW131157   2.594   1.131   2.740
10086SOL    HW231158   2.720   1.028   2.723
10087SOL     OW31159   1.719   5.417   0.203
10087SOL    HW131160   1.677   5.496   0.248
10087SOL    HW231161   1.752   5.443   0.113
10088SOL     OW31162   5.382   1.998   0.659
10088SOL    HW131163   5.429   1.979   0.572
10088SOL    HW231164   5.447   2.039   0.723
10089SOL     OW31165   3.355   0.222   3.657
10089SOL    HW131166   3.352   0.322   3.656
10089SOL    HW231167   3.268   0.187   3.691
10090SOL     OW31168   3.306   6.200   3.352
10090SOL    HW131169   3.216   6.199   3.308
10090SOL    HW231170   3.297   6.236   3.444
10091SOL     OW31171   4.432   6.291   3.381
10091SOL    HW131172   4.521   6.293   3.425
10091SOL    HW231173   4.399   6.385   3.368
10092SOL     OW31174   6.172   0.979   1.765
10092SOL    HW131175   6.180   0.886   1.728
10092SOL    HW231176   6.225   1.042   1.708
10093SOL     OW31177   4.395   4.246   6.129
10093SOL    HW131178   4.328   4.196   6.076
10093SOL    HW231179   4.464   4.183   6.164
10094SOL     OW31180   4.355   3.483   0.289
10094SOL    HW131181   4.315   3.399   0.253
10094SOL    HW231182   4.333   3.559   0.228
10095SOL     OW31183   4.342   2.698   5.342
10095SOL    HW131184   4.271   2.650   5.290
10095SOL    HW231185   4.428   2.647   5.333
10096SOL     OW31186   6.044   4.646   1.528
10096SOL    HW131187   6.075   4.725   1.474
10096SOL    HW231188   6.005   4.577   1.467
10097SOL     OW31189   0.648   0.391   0.749
10097SOL    HW131190   0.635   0.299   0.711
10097SOL    HW231191   0.736   0.396   0.795
10098SOL     OW31192   3.832   4.575   0.762
10098SOL    HW131193   3.772   4.517   0.817
10098SOL    HW231194   3.780   4.650   0.722
10099SOL     OW31195   0.219   6.219   2.833
10099SOL    HW131196   0.249   6.159   2.907
10099SOL    HW231197   0.246   6.313   2.852
10100SOL     OW31198   5.829   5.770   3.764
10100SOL    HW131199   5.905   5.815   3.811
10100SOL    HW231200   5.766   5.839   3.728
10101SOL     OW31201   0.022   2.337   6.339
10101SOL    HW131202   0.082   2.405   6.380
10101SOL    HW231203   0.009   2.261   6.403
10102SOL     OW31204   7.002   4.912   4.189
10102SOL    HW131205   0.045   4.852   4.151
10102SOL    HW231206   0.020   4.993   4.229
10103SOL     OW31207   0.879   0.625   6.486
10103SOL    HW131208   0.815   0.670   6.549
10103SOL    HW231209   0.877   0.527   6.501
10104SOL     OW31210   2.954   1.531   4.471
10104SOL    HW131211   2.911   1.567   4.388
10104SOL    HW231212   2.899   1.556   4.551
10105SOL     OW31213   3.470   1.529   4.503
10105SOL    HW131214   3.382   1.487   4.524
10105SOL    HW231215   3.490   1.600   4.570
10106SOL     OW31216   0.064   3.479   2.010
10106SOL    HW131217   0.131   3.418   2.052
10106SOL    HW231218   7.003   3.431   1.998
10107SOL     OW31219   4.756   5.824   4.879
10107SOL    HW131220   4.777   5.922   4.873
10107SOL    HW231221   4.676   5.810   4.937
10108SOL     OW31222   3.567   2.115   4.618
10108SOL    HW131223   3.484   2.059   4.623
10108SOL    HW231224   3.556   2.184   4.547
10109SOL     OW31225   1.223   2.814   0.753
10109SOL    HW131226   1.178   2.764   0.679
10109SOL    HW231227   1.165   2.813   0.834
10110SOL     OW31228   6.232   6.194   1.742
10110SOL    HW131229   6.278   6.235   1.664
10110SOL    HW231230   6.279   6.220   1.827
10111SOL     OW31231   6.674   2.357   1.283
10111SOL    HW131232   6.580   2.388   1.270
10111SOL    HW231233   6.678   2.257   1.280
10112SOL     OW31234   0.281   3.164   3.358
10112SOL    HW131235   0.270   3.188   3.261
10112SOL    HW231236   0.197   3.184   3.407
10113SOL     OW31237   6.747   6.606   6.037
10113SOL    HW131238   6.823   6.589   6.100
10113SOL    HW231239   6.739   6.704   6.021
10114SOL     OW31240   5.736   4.031   1.817
10114SOL    HW131241   5.652   4.067   1.857
10114SOL    HW231242   5.775   3.962   1.879
10115SOL     OW31243   2.477   1.776   6.796
10115SOL    HW131244   2.382   1.784   6.766
10115SOL    HW231245   2.537   1.769   6.716
10116SOL     OW31246   1.228   7.012   5.946
10116SOL    HW131247   1.157   7.016   5.876
10116SOL    HW231248   1.302   0.049   5.922
10117SOL     OW31249   1.011   4.445   1.015
10117SOL    HW131250   0.931   4.506   1.013
10117SOL    HW231251   1.030   4.412   0.923
10118SOL     OW31252   3.959   5.735   3.320
10118SOL    HW131253   3.924   5.828   3.307
10118SOL    HW231254   3.886   5.669   3.301
10119SOL     OW31255   5.966   5.564   6.898
10119SOL    HW131256   5.931   5.547   6.990
10119SOL    HW231257   5.952   5.660   6.874
10120SOL     OW31258   2.439   2.045   2.503
10120SOL    HW131259   2.486   1.975   2.448
10120SOL    HW231260   2.486   2.054   2.591
10121SOL     OW31261   6.683   6.253   1.709
10121SOL    HW131262   6.764   6.207   1.745
10121SOL    HW231263   6.616   6.266   1.783
10122SOL     OW31264   1.710   6.945   3.944
10122SOL    HW131265   1.748   6.870   3.890
10122SOL    HW231266   1.646   6.998   3.888
10123SOL     OW31267   6.267   6.208   6.596
10123SOL    HW131268   6.288   6.121   6.551
10123SOL    HW231269   6.218   6.267   6.531
10124SOL     OW31270   0.412   4.684   3.397
10124SOL    HW131271   0.349   4.677   3.474
10124SOL    HW231272   0.506   4.694   3.431
10125SOL     OW31273   2.471   2.563   3.839
10125SOL    HW131274   2.498   2.552   3.934
10125SOL    HW231275   2.551   2.558   3.780
10126SOL     OW31276   6.757   6.118   4.507
10126SOL    HW131277   6.736   6.186   4.437
10126SOL    HW231278   6.735   6.027   4.473
10127SOL     OW31279   2.211   0.720   5.345
10127SOL    HW131280   2.197   0.633   5.390
10127SOL    HW231281   2.186   0.795   5.406
10128SOL     OW31282   3.156   0.416   0.456
10128SOL    HW131283   3.072   0.466   0.437
10128SOL    HW231284   3.139   0.346   0.526
10129SOL     OW31285   6.891   2.531   5.736
10129SOL    HW131286   6.969   2.594   5.737
10129SOL    HW231287   6.806   2.583   5.731
10130SOL     OW31288   0.794   2.689   3.513
10130SOL    HW131289   0.803   2.770   3.570
10130SOL    HW231290   0.697   2.663   3.506
10131SOL     OW31291   2.456   0.665   4.961
10131SOL    HW131292   2.389   0.606   4.916
10131SOL    HW231293   2.525   0.693   4.895
10132SOL     OW31294   6.032   1.007   1.993
10132SOL    HW131295   6.083   0.986   1.910
10132SOL    HW231296   5.934   0.999   1.974
10133SOL     OW31297   4.880   5.303   1.212
10133SOL    HW131298   4.924   5.385   1.249
10133SOL    HW231299   4.947   5.228   1.209
10134SOL     OW31300   6.430   0.936   2.758
10134SOL    HW131301   6.453   0.970   2.849
10134SOL    HW231302   6.486   0.856   2.737
10135SOL     OW31303   5.917   6.735   3.268
10135SOL    HW131304   5.841   6.721   3.205
10135SOL    HW231305   5.927   6.832   3.288
10136SOL     OW31306   5.059   0.236   3.144
10136SOL    HW131307   5.133   0.220   3.078
10136SOL    HW231308   4.988   0.168   3.131
10137SOL     OW31309   5.925   5.857   1.956
10137SOL    HW131310   5.987   5.826   1.885
10137SOL    HW231311   5.967   5.931   2.008
10138SOL     OW31312   0.638   1.198   1.774
10138SOL    HW131313   0.664   1.293   1.791
10138SOL    HW231314   0.695   1.138   1.830
10139SOL     OW31315   4.509   2.053   0.322
10139SOL    HW131316   4.433   2.010   0.370
10139SOL    HW231317   4.493   2.152   0.315
10140SOL     OW31318   6.018   6.580   3.482
10140SOL    HW131319   5.953   6.629   3.424
10140SOL    HW231320   6.101   6.635   3.493
10141SOL     OW31321   0.565   1.817   5.528
10141SOL    HW131322   0.598   1.773   5.444
10141SOL    HW231323   0.619   1.899   5.547
10142SOL     OW31324   4.021   5.740   1.616
10142SOL    HW131325   3.987   5.766   1.707
10142SOL    HW231326   3.943   5.722   1.556
10143SOL     OW31327   0.658   3.375   6.369
10143SOL    HW131328   0.714   3.440   6.317
10143SOL    HW231329   0.663   3.398   6.466
10144SOL     OW31330   4.491   0.044   2.632
10144SOL    HW131331   4.541   0.065   2.548
10144SOL    HW231332   4.449   0.128   2.668
10145SOL     OW31333   6.029   1.011   5.260
10145SOL    HW131334   6.063   1.008   5.166
10145SOL    HW231335   5.948   1.070   5.265
10146SOL     OW31336   1.887   0.979   5.714
10146SOL    HW131337   1.827   0.912   5.756
10146SOL    HW231338   1.832   1.047   5.665
10147SOL     OW31339   4.032   4.861   6.676
10147SOL    HW131340   4.122   4.878   6.636
10147SOL    HW231341   4.017   4.762   6.683
10148SOL     OW31342   6.579   5.648   6.288
10148SOL    HW131343   6.564   5.658   6.190
10148SOL    HW231344   6.668   5.687   6.313
10149SOL     OW31345   3.361   3.198   4.806
10149SOL    HW131346   3.328   3.166   4.895
10149SOL    HW231347   3.292   3.257   4.764
10150SOL     OW31348   6.595   4.165   6.748
10150SOL    HW131349   6.512   4.161   6.693
10150SOL    HW231350   6.598   4.085   6.809
10151SOL     OW31351   0.233   0.543   6.879
10151SOL    HW131352   0.290   0.536   6.797
10151SOL    HW231353   0.280   0.598   6.947
10152SOL     OW31354   3.375   0.012   3.960
10152SOL    HW131355   3.316   6.983   4.019
10152SOL    HW231356   3.322   0.042   3.881
10153SOL     OW31357   4.155   4.612   0.428
10153SOL    HW131358   4.150   4.521   0.469
10153SOL    HW231359   4.221   4.611   0.352
10154SOL     OW31360   4.548   5.196   6.286
10154SOL    HW131361   4.561   5.286   6.327
10154SOL    HW231362   4.497   5.206   6.201
10155SOL     OW31363   4.702   2.824   4.397
10155SOL    HW131364   4.624   2.770   4.427
10155SOL    HW231365   4.775   2.763   4.366
10156SOL     OW31366   3.127   2.219   6.419
10156SOL    HW131367   3.071   2.250   6.495
10156SOL    HW231368   3.103   2.271   6.336
10157SOL     OW31369   0.268   5.517   2.826
10157SOL    HW131370   0.266   5.432   2.774
10157SOL    HW231371   0.220   5.588   2.775
10158SOL     OW31372   0.392   4.864   5.899
10158SOL    HW131373   0.382   4.954   5.942
10158SOL    HW231374   0.390   4.874   5.800
10159SOL     OW31375   4.157   3.046   1.725
10159SOL    HW131376   4.170   3.100   1.808
10159SOL    HW231377   4.154   2.949   1.748
10160SOL     OW31378   6.951   4.468   2.633
10160SOL    HW131379   7.011   4.545   2.614
10160SOL    HW231380   6.953   4.404   2.556
10161SOL     OW31381   6.476   2.663   0.170
10161SOL    HW131382   6.516   2.669   0.079
10161SOL    HW231383   6.415   2.741   0.185
10162SOL     OW31384   1.759   2.120   2.526
10162SOL    HW131385   1.852   2.128   2.490
10162SOL    HW231386   1.712   2.207   2.518
10163SOL     OW31387   4.232   5.229   4.429
10163SOL    HW131388   4.274   5.277   4.352
10163SOL    HW231389   4.132   5.231   4.420
10164SOL     OW31390   0.787   1.952   3.717
10164SOL    HW131391   0.833   1.891   3.781
10164SOL    HW231392   0.707   1.993   3.762
10165SOL     OW31393   1.886   2.857   3.700
10165SOL    HW131394   1.794   2.858   3.740
10165SOL    HW231395   1.952   2.823   3.767
10166SOL     OW31396   3.285   6.431   3.889
10166SOL    HW131397   3.267   6.340   3.928
10166SOL    HW231398   3.273   6.500   3.960
10167SOL     OW31399   3.650   2.110   0.250
10167SOL    HW131400   3.750   2.115   0.250
10167SOL    HW231401   3.618   2.081   0.340
10168SOL     OW31402   0.525   0.875   6.408
10168SOL    HW131403   0.496   0.936   6.481
10168SOL    HW231404   0.477   0.898   6.324
10169SOL     OW31405   4.734   4.811   2.494
10169SOL    HW131406   4.803   4.751   2.454
10169SOL    HW231407   4.778   4.875   2.558
10170SOL     OW31408   4.195   0.095   0.077
10170SOL    HW131409   4.282   0.143   0.084
10170SOL    HW231410   4.121   0.160   0.066
10171SOL     OW31411   0.973   4.919   3.043
10171SOL    HW131412   0.930   4.833   3.069
10171SOL    HW231413   0.991   4.918   2.944
10172SOL     OW31414   0.458   0.101   3.608
10172SOL    HW131415   0.401   0.180   3.633
10172SOL    HW231416   0.554   0.129   3.607
10173SOL     OW31417   4.849   2.893   3.776
10173SOL    HW131418   4.768   2.837   3.791
10173SOL    HW231419   4.927   2.835   3.752
10174SOL     OW31420   3.660   5.766   1.267
10174SOL    HW131421   3.731   5.794   1.203
10174SOL    HW231422   3.696   5.767   1.360
10175SOL     OW31423   0.080   6.690   4.931
10175SOL    HW131424   0.166   6.735   4.955
10175SOL    HW231425   0.003   6.744   4.966
10176SOL     OW31426   0.048   1.426   4.919
10176SOL    HW131427   0.125   1.422   4.855
10176SOL    HW231428   6.994   1.463   4.874
10177SOL     OW31429   3.052   0.683   4.696
10177SOL    HW131430   3.128   0.633   4.736
10177SOL    HW231431   3.083   0.735   4.617
10178SOL     OW31432   5.814   1.588   1.633
10178SOL    HW131433   5.872   1.661   1.669
10178SOL    HW231434   5.725   1.591   1.678
10179SOL     OW31435   6.630   5.945   1.067
10179SOL    HW131436   6.712   5.887   1.075
10179SOL    HW231437   6.552   5.898   1.109
10180SOL     OW31438   2.109   0.233   6.121
10180SOL    HW131439   2.112   0.312   6.059
10180SOL    HW231440   2.191   0.232   6.178
10181SOL     OW31441   0.038   4.182   2.643
10181SOL    HW131442   0.083   4.254   2.696
10181SOL    HW231443   0.066   4.188   2.547
10182SOL     OW31444   2.748   6.977   6.403
10182SOL    HW131445   2.666   6.924   6.425
10182SOL    HW231446   2.723   0.032   6.351
10183SOL     OW31447   3.647   6.055   6.567
10183SOL    HW131448   3.561   6.053   6.617
10183SOL    HW231449   3.629   6.078   6.471
10184SOL     OW31450   5.214   2.628   4.184
10184SOL    HW131451   5.160   2.627   4.268
10184SOL    HW231452   5.275   2.707   4.184
10185SOL     OW31453   2.771   4.874   1.833
10185SOL    HW131454   2.816   4.809   1.893
10185SOL    HW231455   2.706   4.929   1.886
10186SOL     OW31456   3.327   3.151   1.966
10186SOL    HW131457   3.321   3.064   2.015
10186SOL    HW231458   3.237   3.195   1.965
10187SOL     OW31459   1.586   3.457   4.541
10187SOL    HW131460   1.675   3.425   4.509
10187SOL    HW231461   1.597   3.508   4.626
10188SOL     OW31462   2.602   6.489   0.111
10188SOL    HW131463   2.656   6.432   0.049
10188SOL    HW231464   2.506   6.488   0.081
10189SOL     OW31465   1.465   1.647   5.671
10189SOL    HW131466   1.532   1.612   5.736
10189SOL    HW231467   1.449   1.744   5.687
10190SOL     OW31468   2.822   4.357   1.314
10190SOL    HW131469   2.742   4.409   1.283
10190SOL    HW231470   2.828   4.361   1.414
10191SOL     OW31471   6.804   0.247   6.643
10191SOL    HW131472   6.746   0.283   6.716
10191SOL    HW231473   6.814   0.148   6.653
10192SOL     OW31474   3.026   1.160   3.823
10192SOL    HW131475   2.969   1.237   3.850
10192SOL    HW231476   3.062   1.176   3.731
10193SOL     OW31477   3.518   2.889   4.351
10193SOL    HW131478   3.583   2.942   4.405
10193SOL    HW231479   3.433   2.941   4.340
10194SOL     OW31480   3.370   5.922   3.490
10194SOL    HW131481   3.312   5.944   3.412
10194SOL    HW231482   3.390   6.005   3.542
10195SOL     OW31483   5.489   6.699   1.644
10195SOL    HW131484   5.526   6.641   1.717
10195SOL    HW231485   5.401   6.738   1.674
10196SOL     OW31486   4.913   4.455   4.767
10196SOL    HW131487   4.923   4.411   4.677
10196SOL    HW231488   4.908   4.554   4.755
10197SOL     OW31489   5.779   2.086   2.597
10197SOL    HW131490   5.800   2.129   2.684
10197SOL    HW231491   5.817   2.141   2.522
10198SOL     OW31492   3.542   1.558   2.313
10198SOL    HW131493   3.499   1.629   2.257
10198SOL    HW231494   3.477   1.483   2.328
10199SOL     OW31495   1.510   1.823   6.692
10199SOL    HW131496   1.512   1.836   6.791
10199SOL    HW231497   1.586   1.763   6.665
10200SOL     OW31498   3.980   6.835   3.425
10200SOL    HW131499   3.963   6.923   3.381
10200SOL    HW231500   3.988   6.764   3.355
10201SOL     OW31501   0.187   4.924   2.423
10201SOL    HW131502   0.217   4.955   2.332
10201SOL    HW231503   0.159   5.003   2.477
10202SOL     OW31504   1.770   3.052   3.526
10202SOL    HW131505   1.799   2.977   3.586
10202SOL    HW231506   1.775   3.022   3.430
10203SOL     OW31507   6.417   2.429   1.242
10203SOL    HW131508   6.373   2.510   1.280
10203SOL    HW231509   6.354   2.351   1.245
10204SOL     OW31510   1.235   6.006   4.360
10204SOL    HW131511   1.184   5.988   4.276
10204SOL    HW231512   1.256   5.919   4.405
10205SOL     OW31513   3.412   6.609   1.583
10205SOL    HW131514   3.428   6.642   1.490
10205SOL    HW231515   3.428   6.511   1.587
10206SOL     OW31516   5.910   5.919   6.595
10206SOL    HW131517   5.931   6.013   6.621
10206SOL    HW231518   5.812   5.903   6.604
10207SOL     OW31519   2.845   1.252   1.431
10207SOL    HW131520   2.854   1.153   1.433
10207SOL    HW231521   2.919   1.292   1.377
10208SOL     OW31522   1.224   2.561   6.112
10208SOL    HW131523   1.317   2.531   6.089
10208SOL    HW231524   1.229   2.631   6.183
10209SOL     OW31525   3.987   6.552   0.716
10209SOL    HW131526   3.969   6.464   0.760
10209SOL    HW231527   4.066   6.544   0.656
10210SOL     OW31528   4.221   6.259   6.784
10210SOL    HW131529   4.128   6.295   6.792
10210SOL    HW231530   4.262   6.291   6.699
10211SOL     OW31531   3.514   4.980   4.707
10211SOL    HW131532   3.415   4.974   4.717
10211SOL    HW231533   3.549   5.052   4.766
10212SOL     OW31534   6.482   5.597   5.704
10212SOL    HW131535   6.538   5.579   5.623
10212SOL    HW231536   6.493   5.692   5.733
10213SOL     OW31537   3.271   0.526   4.801
10213SOL    HW131538   3.347   0.507   4.863
10213SOL    HW231539   3.307   0.547   4.710
10214SOL     OW31540   6.780   6.929   0.162
10214SOL    HW131541   6.699   6.982   0.189
10214SOL    HW231542   6.752   6.836   0.137
10215SOL     OW31543   4.858   2.376   6.934
10215SOL    HW131544   4.876   2.281   6.955
10215SOL    HW231545   4.938   2.416   6.889
10216SOL     OW31546   5.004   0.146   2.783
10216SOL    HW131547   4.951   0.227   2.808
10216SOL    HW231548   5.020   0.090   2.864
10217SOL     OW31549   2.448   2.059   5.986
10217SOL    HW131550   2.369   2.035   6.042
10217SOL    HW231551   2.489   1.977   5.947
10218SOL     OW31552   3.810   0.876   5.640
10218SOL    HW131553   3.902   0.892   5.604
10218SOL    HW231554   3.779   0.957   5.689
10219SOL     OW31555   6.586   5.036   1.139
10219SOL    HW131556   6.633   5.050   1.051
10219SOL    HW231557   6.626   5.096   1.208
10220SOL     OW31558   4.292   2.482   6.551
10220SOL    HW131559   4.204   2.488   6.504
10220SOL    HW231560   4.323   2.387   6.552
10221SOL     OW31561   1.923   0.038   4.511
10221SOL    HW131562   1.861   0.116   4.504
10221SOL    HW231563   1.955   0.013   4.420
10222SOL     OW31564   2.661   5.247   5.631
10222SOL    HW131565   2.621   5.186   5.563
10222SOL    HW231566   2.596   5.260   5.706
10223SOL     OW31567   2.485   5.832   5.849
10223SOL    HW131568   2.424   5.765   5.808
10223SOL    HW231569   2.501   5.807   5.945
10224SOL     OW31570   3.742   5.765   5.275
10224SOL    HW131571   3.725   5.667   5.270
10224SOL    HW231572   3.772   5.789   5.367
10225SOL     OW31573   4.964   0.564   5.401
10225SOL    HW131574   4.873   0.547   5.362
10225SOL    HW231575   4.964   0.652   5.447
10226SOL     OW31576   6.243   2.534   6.680
10226SOL    HW131577   6.242   2.514   6.777
10226SOL    HW231578   6.336   2.560   6.652
10227SOL     OW31579   4.663   5.062   5.381
10227SOL    HW131580   4.714   5.081   5.465
10227SOL    HW231581   4.727   5.039   5.307
10228SOL     OW31582   1.178   2.460   0.978
10228SOL    HW131583   1.120   2.540   0.967
10228SOL    HW231584   1.167   2.423   1.070
10229SOL     OW31585   2.488   0.576   2.009
10229SOL    HW131586   2.482   0.601   2.106
10229SOL    HW231587   2.584   0.565   1.983
10230SOL     OW31588   5.504   0.059   3.195
10230SOL    HW131589   5.432   0.128   3.188
10230SOL    HW231590   5.549   0.050   3.106
10231SOL     OW31591   5.166   0.485   5.008
10231SOL    HW131592   5.148   0.454   5.101
10231SOL    HW231593   5.209   0.412   4.955
10232SOL     OW31594   4.001   1.896   2.774
10232SOL    HW131595   3.935   1.822   2.782
10232SOL    HW231596   4.089   1.860   2.744
10233SOL     OW31597   4.809   6.732   4.989
10233SOL    HW131598   4.909   6.732   4.990
10233SOL    HW231599   4.775   6.825   4.975
10234SOL     OW31600   3.412   4.069   0.994
10234SOL    HW131601   3.320   4.037   0.970
10234SOL    HW231602   3.405   4.140   1.064
10235SOL     OW31603   5.013   6.464   0.045
10235SOL    HW131604   4.992   6.371   0.016
10235SOL    HW231605   5.112   6.480   0.037
10236SOL     OW31606   1.218   5.082   1.427
10236SOL    HW131607   1.134   5.125   1.393
10236SOL    HW231608   1.290   5.151   1.434
10237SOL     OW31609   5.945   2.079   2.085
10237SOL    HW131610   6.016   2.011   2.069
10237SOL    HW231611   5.857   2.045   2.052
10238SOL     OW31612   5.122   4.552   6.403
10238SOL    HW131613   5.064   4.538   6.483
10238SOL    HW231614   5.079   4.618   6.341
10239SOL     OW31615   5.909   4.210   3.368
10239SOL    HW131616   5.873   4.211   3.461
10239SOL    HW231617   5.915   4.116   3.335
10240SOL     OW31618   5.251   3.457   2.009
10240SOL    HW131619   5.193   3.436   2.088
10240SOL    HW231620   5.328   3.514   2.039
10241SOL     OW31621   1.027   2.306   2.774
10241SOL    HW131622   0.937   2.322   2.732
10241SOL    HW231623   1.086   2.258   2.710
10242SOL     OW31624   1.157   5.564   6.442
10242SOL    HW131625   1.138   5.466   6.436
10242SOL    HW231626   1.246   5.578   6.484
10243SOL     OW31627   6.759   6.171   3.516
10243SOL    HW131628   6.785   6.139   3.425
10243SOL    HW231629   6.840   6.176   3.574
10244SOL     OW31630   2.411   6.348   0.480
10244SOL    HW131631   2.492   6.360   0.423
10244SOL    HW231632   2.386   6.436   0.521
10245SOL     OW31633   4.023   3.092   0.732
10245SOL    HW131634   3.939   3.053   0.692
10245SOL    HW231635   4.007   3.113   0.828
10246SOL     OW31636   3.547   3.458   4.685
10246SOL    HW131637   3.497   3.396   4.625
10246SOL    HW231638   3.510   3.551   4.677
10247SOL     OW31639   1.129   5.280   6.493
10247SOL    HW131640   1.092   5.287   6.401
10247SOL    HW231641   1.151   5.185   6.513
10248SOL     OW31642   5.752   6.767   3.889
10248SOL    HW131643   5.776   6.673   3.865
10248SOL    HW231644   5.684   6.801   3.824
10249SOL     OW31645   4.555   1.508   5.973
10249SOL    HW131646   4.582   1.510   5.877
10249SOL    HW231647   4.629   1.470   6.028
10250SOL     OW31648   4.456   5.374   1.111
10250SOL    HW131649   4.372   5.347   1.159
10250SOL    HW231650   4.521   5.299   1.114
10251SOL     OW31651   4.283   4.448   1.217
10251SOL    HW131652   4.286   4.537   1.170
10251SOL    HW231653   4.375   4.422   1.244
10252SOL     OW31654   0.237   4.057   0.721
10252SOL    HW131655   0.151   4.066   0.671
10252SOL    HW231656   0.270   4.148   0.747
10253SOL     OW31657   5.381   3.811   0.355
10253SOL    HW131658   5.471   3.834   0.319
10253SOL    HW231659   5.312   3.872   0.316
10254SOL     OW31660   3.845   2.128   5.819
10254SOL    HW131661   3.839   2.204   5.755
10254SOL    HW231662   3.840   2.042   5.768
10255SOL     OW31663   2.715   4.820   4.005
10255SOL    HW131664   2.808   4.793   4.034
10255SOL    HW231665   2.719   4.909   3.961
10256SOL     OW31666   5.700   4.459   0.024
10256SOL    HW131667   5.709   4.497   6.959
10256SOL    HW231668   5.788   4.464   0.072
10257SOL     OW31669   1.565   4.218   4.857
10257SOL    HW131670   1.662   4.231   4.837
10257SOL    HW231671   1.511   4.255   4.781
10258SOL     OW31672   3.623   1.281   2.305
10258SOL    HW131673   3.637   1.352   2.236
10258SOL    HW231674   3.571   1.206   2.265
10259SOL     OW31675   5.893   3.068   3.371
10259SOL    HW131676   5.887   3.157   3.417
10259SOL    HW231677   5.947   3.076   3.287
10260SOL     OW31678   0.059   5.902   2.440
10260SOL    HW131679   0.119   5.981   2.427
10260SOL    HW231680   7.020   5.922   2.514
10261SOL     OW31681   1.898   0.184   2.582
10261SOL    HW131682   1.939   0.270   2.611
10261SOL    HW231683   1.800   0.184   2.605
10262SOL     OW31684   6.380   6.697   3.251
10262SOL    HW131685   6.460   6.667   3.199
10262SOL    HW231686   6.394   6.790   3.283
10263SOL     OW31687   6.978   3.960   4.930
10263SOL    HW131688   0.034   3.932   4.880
10263SOL    HW231689   6.902   3.970   4.866
10264SOL     OW31690   0.774   0.107   1.057
10264SOL    HW131691   0.703   0.167   1.095
10264SOL    HW231692   0.745   0.012   1.064
10265SOL     OW31693   5.318   2.416   4.509
10265SOL    HW131694   5.367   2.426   4.423
10265SOL    HW231695   5.379   2.379   4.579
10266SOL     OW31696   3.204   3.572   0.222
10266SOL    HW131697   3.118   3.567   0.172
10266SOL    HW231698   3.242   3.665   0.214
10267SOL     OW31699   6.734   0.607   6.165
10267SOL    HW131700   6.708   0.686   6.220
10267SOL    HW231701   6.689   0.525   6.201
10268SOL     OW31702   6.543   4.536   0.451
10268SOL    HW131703   6.579   4.587   0.373
10268SOL    HW231704   6.614   4.476   0.488
10269SOL     OW31705   3.805   1.571   5.812
10269SOL    HW131706   3.719   1.585   5.763
10269SOL    HW231707   3.868   1.644   5.789
10270SOL     OW31708   3.884   6.060   3.993
10270SOL    HW131709   3.817   5.986   3.999
10270SOL    HW231710   3.837   6.147   3.979
10271SOL     OW31711   1.123   4.744   0.811
10271SOL    HW131712   1.144   4.692   0.894
10271SOL    HW231713   1.130   4.684   0.731
10272SOL     OW31714   1.392   3.470   3.917
10272SOL    HW131715   1.343   3.419   3.987
10272SOL    HW231716   1.482   3.428   3.901
10273SOL     OW31717   4.564   0.393   4.498
10273SOL    HW131718   4.602   0.461   4.561
10273SOL    HW231719   4.571   0.427   4.405
10274SOL     OW31720   2.157   4.225   6.697
10274SOL    HW131721   2.060   4.217   6.677
10274SOL    HW231722   2.179   4.320   6.721
10275SOL     OW31723   6.846   5.830   2.086
10275SOL    HW131724   6.873   5.853   2.180
10275SOL    HW231725   6.763   5.774   2.088
10276SOL     OW31726   3.038   6.724   0.179
10276SOL    HW131727   2.969   6.726   0.252
10276SOL    HW231728   3.125   6.756   0.216
10277SOL     OW31729   6.070   6.130   2.217
10277SOL    HW131730   5.981   6.165   2.243
10277SOL    HW231731   6.074   6.031   2.236
10278SOL     OW31732   6.297   1.121   5.126
10278SOL    HW131733   6.353   1.202   5.111
10278SOL    HW231734   6.224   1.119   5.058
10279SOL     OW31735   3.836   6.945   3.633
10279SOL    HW131736   3.829   6.902   3.722
10279SOL    HW231737   3.900   6.894   3.576
10280SOL     OW31738   2.778   2.450   6.992
10280SOL    HW131739   2.756   2.473   6.897
10280SOL    HW231740   2.874   2.469   7.010
10281SOL     OW31741   4.055   1.199   4.337
10281SOL    HW131742   3.956   1.202   4.351
10281SOL    HW231743   4.089   1.292   4.325
10282SOL     OW31744   1.308   3.058   3.750
10282SOL    HW131745   1.283   3.144   3.706
10282SOL    HW231746   1.331   3.076   3.846
10283SOL     OW31747   2.151   5.703   0.059
10283SOL    HW131748   2.142   5.793   0.018
10283SOL    HW231749   2.229   5.702   0.123
10284SOL     OW31750   5.554   2.151   0.472
10284SOL    HW131751   5.601   2.196   0.396
10284SOL    HW231752   5.583   2.055   0.477
10285SOL     OW31753   5.045   1.363   0.167
10285SOL    HW131754   5.068   1.268   0.150
10285SOL    HW231755   5.084   1.421   0.095
10286SOL     OW31756   2.492   6.420   3.652
10286SOL    HW131757   2.531   6.499   3.606
10286SOL    HW231758   2.547   6.399   3.734
10287SOL     OW31759   2.260   4.680   2.047
10287SOL    HW131760   2.265   4.767   2.096
10287SOL    HW231761   2.335   4.621   2.078
10288SOL     OW31762   5.009   6.967   4.379
10288SOL    HW131763   5.058   6.928   4.301
10288SOL    HW231764   5.063   0.015   4.418
10289SOL     OW31765   2.640   1.644   2.671
10289SOL    HW131766   2.551   1.682   2.650
10289SOL    HW231767   2.647   1.551   2.634
10290SOL     OW31768   3.235   3.978   2.936
10290SOL    HW131769   3.224   4.047   2.864
10290SOL    HW231770   3.228   3.887   2.897
10291SOL     OW31771   3.991   0.608   3.471
10291SOL    HW131772   3.982   0.566   3.561
10291SOL    HW231773   4.059   0.558   3.418
10292SOL     OW31774   0.139   3.209   4.527
10292SOL    HW131775   0.078   3.287   4.537
10292SOL    HW231776   0.110   3.136   4.589
10293SOL     OW31777   1.654   5.168   3.434
10293SOL    HW131778   1.559   5.175   3.464
10293SOL    HW231779   1.699   5.095   3.485
10294SOL     OW31780   6.188   0.758   3.072
10294SOL    HW131781   6.202   0.831   3.139
10294SOL    HW231782   6.110   0.780   3.014
10295SOL     OW31783   1.584   4.329   3.453
10295SOL    HW131784   1.571   4.427   3.470
10295SOL    HW231785   1.654   4.316   3.383
10296SOL     OW31786   0.373   3.632   1.161
10296SOL    HW131787   0.361   3.566   1.235
10296SOL    HW231788   0.304   3.703   1.168
10297SOL     OW31789   3.665   4.210   6.199
10297SOL    HW131790   3.719   4.223   6.282
10297SOL    HW231791   3.716   4.245   6.121
10298SOL     OW31792   5.560   3.063   2.795
10298SOL    HW131793   5.638   3.091   2.739
10298SOL    HW231794   5.497   3.140   2.804
10299SOL     OW31795   3.693   5.214   3.001
10299SOL    HW131796   3.778   5.251   2.963
10299SOL    HW231797   3.708   5.120   3.031
10300SOL     OW31798   0.597   5.956   2.620
10300SOL    HW131799   0.623   6.006   2.703
10300SOL    HW231800   0.520   5.896   2.640
10301SOL     OW31801   4.365   0.660   1.833
10301SOL    HW131802   4.320   0.588   1.886
10301SOL    HW231803   4.445   0.692   1.884
10302SOL     OW31804   6.746   4.639   3.319
10302SOL    HW131805   6.677   4.629   3.246
10302SOL    HW231806   6.835   4.656   3.277
10303SOL     OW31807   4.832   3.438   0.875
10303SOL    HW131808   4.764   3.459   0.945
10303SOL    HW231809   4.922   3.427   0.919
10304SOL     OW31810   5.907   6.605   4.597
10304SOL    HW131811   5.852   6.564   4.524
10304SOL    HW231812   6.004   6.594   4.575
10305SOL     OW31813   0.695   5.576   1.153
10305SOL    HW131814   0.605   5.603   1.185
10305SOL    HW231815   0.688   5.535   1.062
10306SOL     OW31816   4.621   3.606   6.636
10306SOL    HW131817   4.527   3.578   6.616
10306SOL    HW231818   4.645   3.684   6.578
10307SOL     OW31819   2.412   2.423   5.952
10307SOL    HW131820   2.372   2.425   5.860
10307SOL    HW231821   2.441   2.330   5.974
10308SOL     OW31822   2.779   4.812   4.306
10308SOL    HW131823   2.708   4.833   4.239
10308SOL    HW231824   2.736   4.779   4.390
10309SOL     OW31825   6.465   6.665   3.864
10309SOL    HW131826   6.491   6.653   3.768
10309SOL    HW231827   6.494   6.586   3.917
10310SOL     OW31828   4.129   3.376   4.283
10310SOL    HW131829   4.087   3.299   4.235
10310SOL    HW231830   4.209   3.345   4.334
10311SOL     OW31831   1.989   1.112   0.508
10311SOL    HW131832   1.907   1.109   0.451
10311SOL    HW231833   1.963   1.120   0.604
10312SOL     OW31834   3.110   4.262   0.383
10312SOL    HW131835   3.028   4.316   0.402
10312SOL    HW231836   3.189   4.306   0.427
10313SOL     OW31837   6.575   5.919   3.037
10313SOL    HW131838   6.621   5.859   2.972
10313SOL    HW231839   6.508   5.866   3.090
10314SOL     OW31840   6.876   5.895   5.197
10314SOL    HW131841   6.856   5.955   5.120
10314SOL    HW231842   6.825   5.809   5.185
10315SOL     OW31843   4.356   5.503   5.172
10315SOL    HW131844   4.256   5.499   5.167
10315SOL    HW231845   4.386   5.470   5.261
10316SOL     OW31846   0.142   2.688   3.573
10316SOL    HW131847   0.147   2.643   3.663
10316SOL    HW231848   0.134   2.619   3.502
10317SOL     OW31849   6.232   4.015   6.154
10317SOL    HW131850   6.265   4.051   6.067
10317SOL    HW231851   6.226   3.915   6.148
10318SOL     OW31852   5.210   4.599   2.322
10318SOL    HW131853   5.172   4.609   2.230
10318SOL    HW231854   5.273   4.674   2.340
10319SOL     OW31855   6.210   6.520   3.798
10319SOL    HW131856   6.296   6.546   3.843
10319SOL    HW231857   6.177   6.596   3.743
10320SOL     OW31858   2.782   6.597   1.597
10320SOL    HW131859   2.808   6.649   1.678
10320SOL    HW231860   2.864   6.563   1.551
10321SOL     OW31861   4.961   6.192   5.381
10321SOL    HW131862   4.977   6.240   5.294
10321SOL    HW231863   5.013   6.107   5.382
10322SOL     OW31864   6.910   1.763   6.298
10322SOL    HW131865   6.935   1.713   6.216
10322SOL    HW231866   6.935   1.709   6.379
10323SOL     OW31867   6.931   1.935   5.551
10323SOL    HW131868   7.019   1.896   5.579
10323SOL    HW231869   6.933   2.034   5.560
10324SOL     OW31870   2.747   3.617   5.280
10324SOL    HW131871   2.669   3.679   5.275
10324SOL    HW231872   2.831   3.670   5.287
10325SOL     OW31873   0.479   2.914   3.727
10325SOL    HW131874   0.503   2.845   3.658
10325SOL    HW231875   0.542   2.992   3.719
10326SOL     OW31876   5.634   0.853   0.860
10326SOL    HW131877   5.657   0.948   0.877
10326SOL    HW231878   5.542   0.848   0.820
10327SOL     OW31879   6.540   2.174   3.739
10327SOL    HW131880   6.522   2.267   3.771
10327SOL    HW231881   6.509   2.108   3.808
10328SOL     OW31882   0.376   3.309   1.899
10328SOL    HW131883   0.321   3.279   1.821
10328SOL    HW231884   0.410   3.229   1.948
10329SOL     OW31885   2.330   5.749   2.521
10329SOL    HW131886   2.233   5.738   2.542
10329SOL    HW231887   2.345   5.736   2.422
10330SOL     OW31888   4.039   3.371   0.666
10330SOL    HW131889   3.963   3.306   0.672
10330SOL    HW231890   4.116   3.327   0.619
10331SOL     OW31891   4.553   1.579   4.029
10331SOL    HW131892   4.615   1.500   4.037
10331SOL    HW231893   4.607   1.663   4.035
10332SOL     OW31894   1.983   3.035   6.169
10332SOL    HW131895   1.904   3.088   6.137
10332SOL    HW231896   1.990   3.043   6.268
10333SOL     OW31897   6.964   4.114   5.532
10333SOL    HW131898   6.885   4.156   5.487
10333SOL    HW231899   7.003   4.044   5.472
10334SOL     OW31900   0.548   5.077   5.761
10334SOL    HW131901   0.494   5.151   5.720
10334SOL    HW231902   0.637   5.072   5.715
10335SOL     OW31903   2.919   5.147   3.024
10335SOL    HW131904   2.899   5.049   3.017
10335SOL    HW231905   2.922   5.186   2.933
10336SOL     OW31906   4.161   0.502   2.729
10336SOL    HW131907   4.157   0.474   2.825
10336SOL    HW231908   4.071   0.536   2.701
10337SOL     OW31909   2.188   3.241   6.278
10337SOL    HW131910   2.242   3.199   6.205
10337SOL    HW231911   2.247   3.259   6.357
10338SOL     OW31912   2.274   4.197   3.452
10338SOL    HW131913   2.240   4.103   3.446
10338SOL    HW231914   2.296   4.218   3.547
10339SOL     OW31915   3.521   6.885   6.517
10339SOL    HW131916   3.528   6.913   6.613
10339SOL    HW231917   3.502   6.787   6.512
10340SOL     OW31918   1.969   5.901   0.766
10340SOL    HW131919   1.980   6.000   0.755
10340SOL    HW231920   1.926   5.882   0.854
10341SOL     OW31921   0.384   2.507   1.987
10341SOL    HW131922   0.300   2.490   2.039
10341SOL    HW231923   0.454   2.442   2.016
10342SOL     OW31924   3.248   4.865   3.995
10342SOL    HW131925   3.259   4.823   3.905
10342SOL    HW231926   3.230   4.963   3.985
10343SOL     OW31927   2.685   2.276   4.417
10343SOL    HW131928   2.690   2.294   4.516
10343SOL    HW231929   2.612   2.210   4.400
10344SOL     OW31930   5.043   4.745   1.185
10344SOL    HW131931   5.007   4.676   1.122
10344SOL    HW231932   5.133   4.716   1.219
10345SOL     OW31933   2.620   2.235   6.135
10345SOL    HW131934   2.544   2.171   6.127
10345SOL    HW231935   2.593   2.312   6.193
10346SOL     OW31936   6.609   5.030   6.447
10346SOL    HW131937   6.646   5.111   6.401
10346SOL    HW231938   6.659   5.015   6.532
10347SOL     OW31939   3.365   6.491   2.544
10347SOL    HW131940   3.301   6.479   2.468
10347SOL    HW231941   3.454   6.521   2.508
10348SOL     OW31942   0.568   2.664   3.988
10348SOL    HW131943   0.621   2.748   3.975
10348SOL    HW231944   0.537   2.630   3.899
10349SOL     OW31945   6.449   1.417   0.102
10349SOL    HW131946   6.507   1.467   0.037
10349SOL    HW231947   6.378   1.478   0.137
10350SOL     OW31948   1.948   5.396   4.231
10350SOL    HW131949   1.907   5.305   4.241
10350SOL    HW231950   2.047   5.388   4.244
10351SOL     OW31951   3.762   5.748   5.572
10351SOL    HW131952   3.777   5.846   5.572
10351SOL    HW231953   3.823   5.704   5.638
10352SOL     OW31954   0.554   1.551   2.115
10352SOL    HW131955   0.595   1.460   2.112
10352SOL    HW231956   0.559   1.593   2.025
10353SOL     OW31957   5.214   2.836   3.560
10353SOL    HW131958   5.170   2.752   3.591
10353SOL    HW231959   5.313   2.829   3.576
10354SOL     OW31960   6.868   2.425   1.932
10354SOL    HW131961   6.950   2.429   1.875
10354SOL    HW231962   6.789   2.399   1.875
10355SOL     OW31963   6.550   1.524   0.387
10355SOL    HW131964   6.597   1.579   0.317
10355SOL    HW231965   6.581   1.429   0.382
10356SOL     OW31966   6.376   2.738   6.130
10356SOL    HW131967   6.424   2.731   6.218
10356SOL    HW231968   6.277   2.736   6.146
10357SOL     OW31969   0.699   6.453   6.416
10357SOL    HW131970   0.684   6.485   6.510
10357SOL    HW231971   0.736   6.360   6.419
10358SOL     OW31972   0.491   3.766   4.229
10358SOL    HW131973   0.468   3.767   4.132
10358SOL    HW231974   0.569   3.707   4.244
10359SOL     OW31975   0.587   2.951   1.834
10359SOL    HW131976   0.569   3.034   1.886
10359SOL    HW231977   0.685   2.946   1.813
10360SOL     OW31978   5.587   4.665   1.315
10360SOL    HW131979   5.636   4.706   1.238
10360SOL    HW231980   5.629   4.695   1.401
10361SOL     OW31981   5.406   2.060   4.211
10361SOL    HW131982   5.354   2.038   4.128
10361SOL    HW231983   5.350   2.040   4.292
10362SOL     OW31984   6.719   6.425   2.364
10362SOL    HW131985   6.746   6.346   2.420
10362SOL    HW231986   6.620   6.423   2.349
10363SOL     OW31987   5.018   5.440   6.583
10363SOL    HW131988   4.922   5.448   6.558
10363SOL    HW231989   5.070   5.405   6.505
10364SOL     OW31990   6.493   5.000   1.395
10364SOL    HW131991   6.526   5.005   1.301
10364SOL    HW231992   6.561   5.040   1.456
10365SOL     OW31993   6.251   5.959   6.486
10365SOL    HW131994   6.189   5.982   6.410
10365SOL    HW231995   6.220   5.876   6.531
10366SOL     OW31996   2.425   0.553   3.421
10366SOL    HW131997   2.389   0.464   3.392
10366SOL    HW231998   2.374   0.586   3.501
10367SOL     OW31999   3.756   6.419   2.808
10367SOL    HW132000   3.761   6.392   2.712
10367SOL    HW232001   3.671   6.470   2.824
10368SOL     OW32002   1.116   6.110   1.797
10368SOL    HW132003   1.185   6.175   1.767
10368SOL    HW232004   1.152   6.054   1.872
10369SOL     OW32005   2.989   1.413   5.283
10369SOL    HW132006   2.974   1.503   5.242
10369SOL    HW232007   3.079   1.410   5.326
10370SOL     OW32008   2.457   1.932   7.021
10370SOL    HW132009   2.479   1.864   6.951
10370SOL    HW232010   2.373   1.980   6.996
10371SOL     OW32011   3.355   5.747   2.535
10371SOL    HW132012   3.409   5.702   2.606
10371SOL    HW232013   3.410   5.817   2.491
10372SOL     OW32014   1.013   6.255   1.151
10372SOL    HW132015   0.952   6.331   1.176
10372SOL    HW232016   1.083   6.288   1.088
10373SOL     OW32017   6.878   0.726   5.325
10373SOL    HW132018   6.836   0.813   5.349
10373SOL    HW232019   6.819   0.651   5.355
10374SOL     OW32020   1.924   5.539   2.025
10374SOL    HW132021   1.939   5.587   1.938
10374SOL    HW232022   1.880   5.451   2.007
10375SOL     OW32023   2.395   5.124   6.718
10375SOL    HW132024   2.371   5.029   6.700
10375SOL    HW232025   2.435   5.164   6.636
10376SOL     OW32026   1.902   5.557   3.468
10376SOL    HW132027   1.910   5.656   3.474
10376SOL    HW232028   1.993   5.516   3.462
10377SOL     OW32029   3.237   1.157   4.091
10377SOL    HW132030   3.208   1.143   3.996
10377SOL    HW232031   3.211   1.249   4.120
10378SOL     OW32032   6.742   6.666   5.384
10378SOL    HW132033   6.745   6.766   5.372
10378SOL    HW232034   6.816   6.624   5.332
10379SOL     OW32035   0.463   5.174   3.612
10379SOL    HW132036   0.561   5.191   3.624
10379SOL    HW232037   0.440   5.179   3.515
10380SOL     OW32038   3.064   1.653   3.789
10380SOL    HW132039   2.977   1.648   3.838
10380SOL    HW232040   3.137   1.619   3.848
10381SOL     OW32041   2.139   6.830   4.015
10381SOL    HW132042   2.114   6.873   4.102
10381SOL    HW232043   2.227   6.864   3.985
10382SOL     OW32044   3.257   5.496   2.816
10382SOL    HW132045   3.225   5.475   2.909
10382SOL    HW232046   3.269   5.594   2.806
10383SOL     OW32047   0.204   6.948   0.113
10383SOL    HW132048   0.295   6.937   0.072
10383SOL    HW232049   0.160   0.003   0.074
10384SOL     OW32050   5.265   5.140   1.283
10384SOL    HW132051   5.242   5.079   1.207
10384SOL    HW232052   5.306   5.224   1.246
10385SOL     OW32053   3.563   4.257   6.825
10385SOL    HW132054   3.622   4.296   6.755
10385SOL    HW232055   3.529   4.330   6.885
10386SOL     OW32056   6.940   0.230   1.779
10386SOL    HW132057   6.854   0.277   1.799
10386SOL    HW232058   7.009   0.297   1.750
10387SOL     OW32059   5.174   0.956   2.320
10387SOL    HW132060   5.147   1.021   2.391
10387SOL    HW232061   5.271   0.970   2.298
10388SOL     OW32062   0.864   6.597   4.631
10388SOL    HW132063   0.767   6.607   4.613
10388SOL    HW232064   0.900   6.519   4.579
10389SOL     OW32065   0.812   3.871   0.953
10389SOL    HW132066   0.886   3.926   0.993
10389SOL    HW232067   0.754   3.836   1.026
10390SOL     OW32068   1.283   2.196   2.236
10390SOL    HW132069   1.233   2.114   2.261
10390SOL    HW232070   1.379   2.173   2.217
10391SOL     OW32071   6.446   0.464   3.307
10391SOL    HW132072   6.523   0.440   3.365
10391SOL    HW232073   6.474   0.462   3.211
10392SOL     OW32074   5.494   3.118   4.254
10392SOL    HW132075   5.411   3.076   4.291
10392SOL    HW232076   5.553   3.047   4.215
10393SOL     OW32077   1.763   2.475   1.287
10393SOL    HW132078   1.696   2.447   1.219
10393SOL    HW232079   1.851   2.430   1.268
10394SOL     OW32080   2.651   5.520   4.276
10394SOL    HW132081   2.693   5.448   4.222
10394SOL    HW232082   2.699   5.606   4.261
10395SOL     OW32083   0.804   1.044   1.355
10395SOL    HW132084   0.712   1.016   1.328
10395SOL    HW232085   0.866   0.966   1.345
10396SOL     OW32086   3.439   1.961   5.204
10396SOL    HW132087   3.417   1.887   5.267
10396SOL    HW232088   3.370   1.966   5.132
10397SOL     OW32089   4.567   0.951   4.029
10397SOL    HW132090   4.529   1.037   4.064
10397SOL    HW232091   4.524   0.930   3.941
10398SOL     OW32092   4.630   2.523   2.970
10398SOL    HW132093   4.634   2.542   2.872
10398SOL    HW232094   4.657   2.428   2.986
10399SOL     OW32095   0.841   2.427   1.754
10399SOL    HW132096   0.850   2.398   1.658
10399SOL    HW232097   0.751   2.467   1.769
10400SOL     OW32098   1.453   6.668   0.114
10400SOL    HW132099   1.549   6.697   0.112
10400SOL    HW232100   1.414   6.691   0.203
10401SOL     OW32101   6.343   0.917   5.306
10401SOL    HW132102   6.314   0.936   5.400
10401SOL    HW232103   6.321   0.996   5.248
10402SOL     OW32104   6.529   4.206   6.038
10402SOL    HW132105   6.440   4.180   6.002
10402SOL    HW232106   6.576   4.125   6.074
10403SOL     OW32107   3.322   7.006   1.785
10403SOL    HW132108   3.347   0.071   1.752
10403SOL    HW232109   3.400   6.945   1.777
10404SOL     OW32110   0.548   5.404   5.734
10404SOL    HW132111   0.634   5.455   5.741
10404SOL    HW232112   0.471   5.468   5.738
10405SOL     OW32113   0.432   1.195   6.885
10405SOL    HW132114   0.359   1.202   6.817
10405SOL    HW232115   0.482   1.282   6.889
10406SOL     OW32116   2.084   5.049   1.626
10406SOL    HW132117   2.050   5.075   1.716
10406SOL    HW232118   2.039   5.105   1.556
10407SOL     OW32119   1.947   6.447   0.695
10407SOL    HW132120   1.857   6.484   0.718
10407SOL    HW232121   1.986   6.499   0.619
10408SOL     OW32122   4.693   0.824   6.216
10408SOL    HW132123   4.688   0.894   6.287
10408SOL    HW232124   4.773   0.766   6.231
10409SOL     OW32125   6.465   3.854   0.575
10409SOL    HW132126   6.552   3.834   0.529
10409SOL    HW232127   6.393   3.866   0.506
10410SOL     OW32128   4.053   0.089   0.809
10410SOL    HW132129   4.074   7.018   0.819
10410SOL    HW232130   4.113   0.129   0.740
10411SOL     OW32131   1.605   5.080   4.064
10411SOL    HW132132   1.628   5.000   4.008
10411SOL    HW232133   1.686   5.106   4.118
10412SOL     OW32134   4.879   0.458   1.880
10412SOL    HW132135   4.793   0.456   1.829
10412SOL    HW232136   4.888   0.375   1.935
10413SOL     OW32137   6.320   3.592   2.258
10413SOL    HW132138   6.336   3.690   2.243
10413SOL    HW232139   6.292   3.549   2.172
10414SOL     OW32140   5.002   4.104   3.533
10414SOL    HW132141   5.035   4.169   3.601
10414SOL    HW232142   5.047   4.123   3.445
10415SOL     OW32143   0.489   1.025   6.639
10415SOL    HW132144   0.569   1.085   6.648
10415SOL    HW232145   0.407   1.075   6.664
10416SOL     OW32146   4.934   2.503   2.800
10416SOL    HW132147   4.876   2.584   2.784
10416SOL    HW232148   4.878   2.429   2.835
10417SOL     OW32149   1.949   4.078   2.285
10417SOL    HW132150   1.969   4.171   2.315
10417SOL    HW232151   2.032   4.023   2.289
10418SOL     OW32152   1.510   5.839   6.301
10418SOL    HW132153   1.589   5.896   6.282
10418SOL    HW232154   1.434   5.896   6.333
10419SOL     OW32155   1.040   0.946   6.214
10419SOL    HW132156   0.966   0.900   6.165
10419SOL    HW232157   1.087   1.009   6.152
10420SOL     OW32158   0.783   3.339   2.134
10420SOL    HW132159   0.780   3.434   2.103
10420SOL    HW232160   0.754   3.335   2.230
10421SOL     OW32161   0.809   2.397   2.647
10421SOL    HW132162   0.736   2.367   2.709
10421SOL    HW232163   0.790   2.491   2.617
10422SOL     OW32164   5.854   2.052   0.122
10422SOL    HW132165   5.905   2.030   0.205
10422SOL    HW232166   5.756   2.057   0.143
10423SOL     OW32167   4.230   5.677   2.826
10423SOL    HW132168   4.197   5.599   2.773
10423SOL    HW232169   4.199   5.762   2.782
10424SOL     OW32170   4.572   1.341   6.250
10424SOL    HW132171   4.649   1.366   6.192
10424SOL    HW232172   4.514   1.274   6.202
10425SOL     OW32173   1.530   6.691   1.887
10425SOL    HW132174   1.549   6.611   1.944
10425SOL    HW232175   1.467   6.752   1.934
10426SOL     OW32176   6.395   4.193   6.563
10426SOL    HW132177   6.473   4.240   6.521
10426SOL    HW232178   6.334   4.161   6.490
10427SOL     OW32179   4.693   0.863   0.396
10427SOL    HW132180   4.672   0.951   0.438
10427SOL    HW232181   4.608   0.820   0.365
10428SOL     OW32182   4.394   2.391   3.718
10428SOL    HW132183   4.423   2.475   3.672
10428SOL    HW232184   4.411   2.313   3.659
10429SOL     OW32185   5.748   5.514   2.099
10429SOL    HW132186   5.708   5.432   2.140
10429SOL    HW232187   5.821   5.549   2.158
10430SOL     OW32188   3.617   6.129   3.019
10430SOL    HW132189   3.575   6.182   2.946
10430SOL    HW232190   3.694   6.180   3.057
10431SOL     OW32191   3.313   1.923   5.440
10431SOL    HW132192   3.387   1.970   5.489
10431SOL    HW232193   3.261   1.990   5.387
10432SOL     OW32194   4.230   0.453   4.750
10432SOL    HW132195   4.186   0.412   4.829
10432SOL    HW232196   4.242   0.384   4.678
10433SOL     OW32197   1.877   5.879   1.016
10433SOL    HW132198   1.891   5.820   1.095
10433SOL    HW232199   1.869   5.974   1.046
10434SOL     OW32200   3.685   2.341   5.369
10434SOL    HW132201   3.754   2.316   5.301
10434SOL    HW232202   3.598   2.298   5.346
10435SOL     OW32203   5.684   4.738   6.931
10435SOL    HW132204   5.594   4.764   6.896
10435SOL    HW232205   5.714   4.807   6.998
10436SOL     OW32206   0.117   1.757   2.967
10436SOL    HW132207   0.134   1.727   3.061
10436SOL    HW232208   0.094   1.678   2.911
10437SOL     OW32209   1.271   3.085   0.794
10437SOL    HW132210   1.274   2.987   0.774
10437SOL    HW232211   1.254   3.136   0.709
10438SOL     OW32212   2.653   6.969   5.873
10438SOL    HW132213   2.688   6.984   5.781
10438SOL    HW232214   2.563   7.012   5.882
10439SOL     OW32215   3.579   0.411   5.464
10439SOL    HW132216   3.498   0.413   5.524
10439SOL    HW232217   3.635   0.492   5.482
10440SOL     OW32218   0.957   6.012   0.350
10440SOL    HW132219   0.913   6.039   0.264
10440SOL    HW232220   0.888   5.976   0.412
10441SOL     OW32221   4.686   6.454   0.932
10441SOL    HW132222   4.644   6.537   0.897
10441SOL    HW232223   4.771   6.437   0.883
10442SOL     OW32224   3.514   6.610   6.515
10442SOL    HW132225   3.598   6.583   6.468
10442SOL    HW232226   3.436   6.560   6.475
10443SOL     OW32227   0.536   3.005   4.730
10443SOL    HW132228   0.574   3.042   4.814
10443SOL    HW232229   0.547   3.072   4.656
10444SOL     OW32230   3.823   4.829   5.232
10444SOL    HW132231   3.873   4.862   5.151
10444SOL    HW232232   3.870   4.860   5.314
10445SOL     OW32233   6.490   6.259   1.887
10445SOL    HW132234   6.498   6.194   1.963
10445SOL    HW232235   6.456   6.346   1.921
10446SOL     OW32236   1.276   6.781   5.642
10446SOL    HW132237   1.365   6.828   5.641
10446SOL    HW232238   1.282   6.697   5.588
10447SOL     OW32239   5.362   2.956   6.559
10447SOL    HW132240   5.455   2.982   6.535
10447SOL    HW232241   5.364   2.874   6.617
10448SOL     OW32242   3.728   3.311   2.179
10448SOL    HW132243   3.780   3.371   2.240
10448SOL    HW232244   3.728   3.350   2.086
10449SOL     OW32245   1.218   5.303   5.214
10449SOL    HW132246   1.243   5.363   5.291
10449SOL    HW232247   1.169   5.357   5.145
10450SOL     OW32248   0.750   3.193   0.273
10450SOL    HW132249   0.768   3.267   0.208
10450SOL    HW232250   0.818   3.197   0.347
10451SOL     OW32251   2.055   4.324   2.343
10451SOL    HW132252   2.140   4.375   2.335
10451SOL    HW232253   1.984   4.383   2.382
10452SOL     OW32254   2.455   3.139   6.103
10452SOL    HW132255   2.477   3.174   6.012
10452SOL    HW232256   2.380   3.073   6.096
10453SOL     OW32257   5.162   0.561   2.122
10453SOL    HW132258   5.137   0.654   2.146
10453SOL    HW232259   5.089   0.498   2.150
10454SOL     OW32260   3.604   5.354   2.515
10454SOL    HW132261   3.569   5.405   2.594
10454SOL    HW232262   3.615   5.417   2.437
10455SOL     OW32263   1.400   5.199   3.509
10455SOL    HW132264   1.368   5.138   3.581
10455SOL    HW232265   1.353   5.287   3.518
10456SOL     OW32266   3.590   6.554   0.897
10456SOL    HW132267   3.616   6.584   0.805
10456SOL    HW232268   3.645   6.474   0.922
10457SOL     OW32269   3.382   2.920   3.295
10457SOL    HW132270   3.322   2.946   3.220
10457SOL    HW232271   3.454   2.859   3.261
10458SOL     OW32272   6.353   6.260   2.757
10458SOL    HW132273   6.357   6.322   2.836
10458SOL    HW232274   6.284   6.294   2.692
10459SOL     OW32275   6.978   5.486   2.054
10459SOL    HW132276   6.915   5.552   2.015
10459SOL    HW232277   6.984   5.500   2.153
10460SOL     OW32278   1.212   4.303   1.194
10460SOL    HW132279   1.230   4.320   1.291
10460SOL    HW232280   1.126   4.348   1.168
10461SOL     OW32281   3.841   0.444   6.416
10461SOL    HW132282   3.895   0.480   6.340
10461SOL    HW232283   3.747   0.429   6.387
10462SOL     OW32284   5.401   6.848   1.092
10462SOL    HW132285   5.468   6.840   1.019
10462SOL    HW232286   5.443   6.888   1.173
10463SOL     OW32287   4.527   2.994   0.299
10463SOL    HW132288   4.446   2.957   0.253
10463SOL    HW232289   4.533   2.956   0.391
10464SOL     OW32290   5.675   6.887   1.652
10464SOL    HW132291   5.628   6.973   1.673
10464SOL    HW232292   5.607   6.814   1.639
10465SOL     OW32293   7.016   4.547   5.800
10465SOL    HW132294   7.002   4.583   5.892
10465SOL    HW232295   0.078   4.580   5.765
10466SOL     OW32296   4.086   5.618   5.365
10466SOL    HW132297   4.097   5.568   5.279
10466SOL    HW232298   3.989   5.634   5.382
10467SOL     OW32299   4.292   1.743   4.154
10467SOL    HW132300   4.314   1.645   4.156
10467SOL    HW232301   4.374   1.796   4.177
10468SOL     OW32302   2.779   5.288   3.204
10468SOL    HW132303   2.828   5.234   3.135
10468SOL    HW232304   2.840   5.360   3.239
10469SOL     OW32305   0.908   4.812   5.942
10469SOL    HW132306   0.892   4.911   5.939
10469SOL    HW232307   0.843   4.767   5.880
10470SOL     OW32308   2.219   2.278   4.102
10470SOL    HW132309   2.201   2.329   4.018
10470SOL    HW232310   2.159   2.198   4.106
10471SOL     OW32311   4.652   3.640   6.893
10471SOL    HW132312   4.614   3.623   6.803
10471SOL    HW232313   4.664   3.738   6.907
10472SOL     OW32314   4.091   1.705   3.589
10472SOL    HW132315   4.158   1.682   3.517
10472SOL    HW232316   4.139   1.717   3.676
10473SOL     OW32317   4.860   4.578   0.589
10473SOL    HW132318   4.808   4.509   0.539
10473SOL    HW232319   4.805   4.613   0.664
10474SOL     OW32320   4.826   0.935   4.162
10474SOL    HW132321   4.783   0.972   4.244
10474SOL    HW232322   4.762   0.941   4.085
10475SOL     OW32323   4.200   6.456   0.925
10475SOL    HW132324   4.133   6.411   0.866
10475SOL    HW232325   4.175   6.443   1.021
10476SOL     OW32326   0.654   4.685   0.059
10476SOL    HW132327   0.695   4.646   7.002
10476SOL    HW232328   0.727   4.714   0.121
10477SOL     OW32329   5.166   4.436   4.462
10477SOL    HW132330   5.221   4.467   4.539
10477SOL    HW232331   5.082   4.393   4.496
10478SOL     OW32332   0.832   0.349   2.750
10478SOL    HW132333   0.737   0.330   2.773
10478SOL    HW232334   0.877   0.264   2.720
10479SOL     OW32335   0.941   3.967   2.957
10479SOL    HW132336   0.861   4.006   3.004
10479SOL    HW232337   1.013   3.948   3.024
10480SOL     OW32338   4.765   1.443   6.681
10480SOL    HW132339   4.844   1.428   6.741
10480SOL    HW232340   4.686   1.393   6.716
10481SOL     OW32341   3.425   1.450   3.668
10481SOL    HW132342   3.455   1.356   3.680
10481SOL    HW232343   3.428   1.474   3.571
10482SOL     OW32344   0.358   6.514   5.993
10482SOL    HW132345   0.388   6.503   6.088
10482SOL    HW232346   0.401   6.595   5.954
10483SOL     OW32347   0.643   6.195   0.543
10483SOL    HW132348   0.676   6.283   0.575
10483SOL    HW232349   0.599   6.206   0.454
10484SOL     OW32350   6.777   1.493   2.004
10484SOL    HW132351   6.769   1.469   2.101
10484SOL    HW232352   6.686   1.499   1.963
10485SOL     OW32353   3.610   3.887   4.695
10485SOL    HW132354   3.549   3.810   4.715
10485SOL    HW232355   3.577   3.969   4.742
10486SOL     OW32356   6.236   4.498   6.064
10486SOL    HW132357   6.322   4.463   6.103
10486SOL    HW232358   6.243   4.597   6.051
10487SOL     OW32359   5.293   4.004   2.497
10487SOL    HW132360   5.320   4.096   2.469
10487SOL    HW232361   5.330   3.985   2.588
10488SOL     OW32362   0.932   1.998   5.454
10488SOL    HW132363   0.974   2.082   5.421
10488SOL    HW232364   0.834   2.014   5.470
10489SOL     OW32365   5.881   4.800   2.835
10489SOL    HW132366   5.919   4.709   2.817
10489SOL    HW232367   5.836   4.800   2.925
10490SOL     OW32368   5.467   6.055   6.501
10490SOL    HW132369   5.493   6.151   6.503
10490SOL    HW232370   5.368   6.047   6.506
10491SOL     OW32371   2.083   1.736   5.596
10491SOL    HW132372   2.000   1.694   5.560
10491SOL    HW232373   2.124   1.793   5.525
10492SOL     OW32374   3.539   6.905   6.806
10492SOL    HW132375   3.444   6.923   6.830
10492SOL    HW232376   3.592   6.889   6.890
10493SOL     OW32377   4.081   6.766   0.405
10493SOL    HW132378   4.151   6.829   0.373
10493SOL    HW232379   4.009   6.818   0.451
10494SOL     OW32380   6.500   6.067   3.561
10494SOL    HW132381   6.466   6.079   3.655
10494SOL    HW232382   6.566   6.139   3.541
10495SOL     OW32383   6.287   6.381   0.248
10495SOL    HW132384   6.254   6.302   0.299
10495SOL    HW232385   6.256   6.465   0.293
10496SOL     OW32386   1.730   3.786   6.330
10496SOL    HW132387   1.822   3.746   6.320
10496SOL    HW232388   1.721   3.863   6.268
10497SOL     OW32389   3.991   0.261   0.104
10497SOL    HW132390   3.978   0.308   0.017
10497SOL    HW232391   4.007   0.328   0.177
10498SOL     OW32392   3.553   3.730   0.546
10498SOL    HW132393   3.572   3.701   0.453
10498SOL    HW232394   3.634   3.719   0.603
10499SOL     OW32395   4.014   4.850   3.965
10499SOL    HW132396   4.069   4.784   3.916
10499SOL    HW232397   4.059   4.875   4.051
10500SOL     OW32398   1.862   2.604   4.692
10500SOL    HW132399   1.859   2.699   4.662
10500SOL    HW232400   1.957   2.571   4.691
10501SOL     OW32401   4.007   4.776   2.967
10501SOL    HW132402   4.075   4.717   2.923
10501SOL    HW232403   4.013   4.767   3.066
10502SOL     OW32404   3.750   3.240   3.248
10502SOL    HW132405   3.720   3.313   3.187
10502SOL    HW232406   3.675   3.213   3.308
10503SOL     OW32407   6.910   6.106   0.666
10503SOL    HW132408   6.846   6.033   0.641
10503SOL    HW232409   6.859   6.185   0.698
10504SOL     OW32410   1.769   2.729   5.548
10504SOL    HW132411   1.835   2.800   5.571
10504SOL    HW232412   1.678   2.756   5.581
10505SOL     OW32413   4.944   6.623   1.395
10505SOL    HW132414   4.919   6.557   1.466
10505SOL    HW232415   5.040   6.649   1.405
10506SOL     OW32416   0.392   5.283   5.949
10506SOL    HW132417   0.459   5.231   6.003
10506SOL    HW232418   0.435   5.318   5.867
10507SOL     OW32419   2.197   6.506   5.762
10507SOL    HW132420   2.166   6.553   5.679
10507SOL    HW232421   2.131   6.435   5.786
10508SOL     OW32422   1.849   6.474   1.224
10508SOL    HW132423   1.874   6.466   1.128
10508SOL    HW232424   1.928   6.506   1.277
10509SOL     OW32425   4.882   3.554   1.975
10509SOL    HW132426   4.866   3.483   1.906
10509SOL    HW232427   4.854   3.643   1.938
10510SOL     OW32428   4.945   6.620   1.936
10510SOL    HW132429   5.022   6.581   1.986
10510SOL    HW232430   4.887   6.672   1.998
10511SOL     OW32431   3.801   1.651   0.657
10511SOL    HW132432   3.765   1.744   0.665
10511SOL    HW232433   3.896   1.656   0.626
10512SOL     OW32434   3.957   0.090   4.754
10512SOL    HW132435   4.049   0.051   4.745
10512SOL    HW232436   3.906   0.075   4.669
10513SOL     OW32437   3.943   3.910   0.753
10513SOL    HW132438   3.887   3.991   0.743
10513SOL    HW232439   4.031   3.935   0.795
10514SOL     OW32440   0.761   4.779   1.388
10514SOL    HW132441   0.731   4.872   1.370
10514SOL    HW232442   0.713   4.743   1.468
10515SOL     OW32443   2.187   3.402   4.692
10515SOL    HW132444   2.122   3.454   4.637
10515SOL    HW232445   2.280   3.436   4.674
10516SOL     OW32446   5.348   1.921   1.094
10516SOL    HW132447   5.286   1.842   1.089
10516SOL    HW232448   5.297   2.005   1.075
10517SOL     OW32449   6.775   1.826   2.158
10517SOL    HW132450   6.744   1.878   2.078
10517SOL    HW232451   6.861   1.780   2.136
10518SOL     OW32452   6.977   5.628   3.211
10518SOL    HW132453   6.961   5.699   3.142
10518SOL    HW232454   6.994   5.541   3.166
10519SOL     OW32455   1.635   6.604   0.480
10519SOL    HW132456   1.559   6.630   0.421
10519SOL    HW232457   1.708   6.565   0.425
10520SOL     OW32458   3.200   2.527   5.912
10520SOL    HW132459   3.262   2.525   5.990
10520SOL    HW232460   3.170   2.434   5.891
10521SOL     OW32461   5.935   1.848   1.742
10521SOL    HW132462   5.896   1.919   1.683
10521SOL    HW232463   5.861   1.805   1.795
10522SOL     OW32464   5.263   1.016   2.709
10522SOL    HW132465   5.238   0.920   2.705
10522SOL    HW232466   5.202   1.069   2.650
10523SOL     OW32467   0.054   3.867   1.778
10523SOL    HW132468   0.096   3.777   1.785
10523SOL    HW232469   7.021   3.871   1.697
10524SOL     OW32470   5.957   6.552   4.869
10524SOL    HW132471   5.950   6.569   4.771
10524SOL    HW232472   5.919   6.630   4.919
10525SOL     OW32473   4.900   2.293   3.810
10525SOL    HW132474   4.950   2.379   3.811
10525SOL    HW232475   4.933   2.233   3.882
10526SOL     OW32476   1.688   6.448   6.055
10526SOL    HW132477   1.589   6.453   6.069
10526SOL    HW232478   1.707   6.412   5.964
10527SOL     OW32479   0.702   6.344   5.659
10527SOL    HW132480   0.762   6.349   5.739
10527SOL    HW232481   0.684   6.248   5.637
10528SOL     OW32482   2.760   5.970   5.322
10528SOL    HW132483   2.736   5.888   5.271
10528SOL    HW232484   2.680   6.002   5.373
10529SOL     OW32485   6.926   5.531   6.503
10529SOL    HW132486   6.985   5.514   6.424
10529SOL    HW232487   6.831   5.516   6.478
10530SOL     OW32488   5.565   0.344   1.596
10530SOL    HW132489   5.653   0.387   1.613
10530SOL    HW232490   5.492   0.411   1.610
10531SOL     OW32491   3.605   0.693   6.401
10531SOL    HW132492   3.566   0.730   6.486
10531SOL    HW232493   3.656   0.764   6.354
10532SOL     OW32494   4.056   5.895   5.699
10532SOL    HW132495   4.103   5.903   5.611
10532SOL    HW232496   4.123   5.900   5.773
10533SOL     OW32497   4.137   6.474   4.094
10533SOL    HW132498   4.196   6.551   4.119
10533SOL    HW232499   4.165   6.393   4.147
10534SOL     OW32500   0.655   6.172   5.017
10534SOL    HW132501   0.582   6.232   4.985
10534SOL    HW232502   0.616   6.099   5.072
10535SOL     OW32503   3.804   1.606   2.208
10535SOL    HW132504   3.773   1.652   2.125
10535SOL    HW232505   3.724   1.574   2.260
10536SOL     OW32506   5.625   3.194   4.551
10536SOL    HW132507   5.694   3.172   4.481
10536SOL    HW232508   5.541   3.144   4.531
10537SOL     OW32509   2.378   1.325   2.250
10537SOL    HW132510   2.396   1.424   2.251
10537SOL    HW232511   2.405   1.286   2.339
10538SOL     OW32512   6.486   2.817   3.701
10538SOL    HW132513   6.412   2.758   3.667
10538SOL    HW232514   6.496   2.895   3.640
10539SOL     OW32515   6.709   0.376   1.618
10539SOL    HW132516   6.673   0.446   1.556
10539SOL    HW232517   6.636   0.311   1.640
10540SOL     OW32518   1.977   2.355   5.911
10540SOL    HW132519   1.921   2.424   5.957
10540SOL    HW232520   2.053   2.329   5.971
10541SOL     OW32521   4.052   2.608   0.069
10541SOL    HW132522   4.043   2.613   6.995
10541SOL    HW232523   4.054   2.512   0.097
10542SOL     OW32524   3.329   6.508   3.007
10542SOL    HW132525   3.423   6.542   3.001
10542SOL    HW232526   3.277   6.567   3.069
10543SOL     OW32527   0.790   2.911   3.663
10543SOL    HW132528   0.740   2.991   3.695
10543SOL    HW232529   0.850   2.877   3.736
10544SOL     OW32530   2.798   2.296   2.475
10544SOL    HW132531   2.741   2.312   2.394
10544SOL    HW232532   2.871   2.232   2.452
10545SOL     OW32533   1.009   3.025   1.581
10545SOL    HW132534   1.088   3.084   1.598
10545SOL    HW232535   1.037   2.945   1.527
10546SOL     OW32536   1.839   0.254   4.771
10546SOL    HW132537   1.869   0.285   4.681
10546SOL    HW232538   1.746   0.287   4.789
10547SOL     OW32539   3.037   5.871   6.441
10547SOL    HW132540   3.104   5.821   6.496
10547SOL    HW232541   3.063   5.967   6.434
10548SOL     OW32542   1.355   5.069   3.088
10548SOL    HW132543   1.432   5.121   3.126
10548SOL    HW232544   1.328   4.998   3.153
10549SOL     OW32545   6.752   1.657   2.475
10549SOL    HW132546   6.831   1.700   2.519
10549SOL    HW232547   6.717   1.716   2.403
10550SOL     OW32548   0.278   4.540   2.744
10550SOL    HW132549   0.202   4.589   2.701
10550SOL    HW232550   0.341   4.506   2.674
10551SOL     OW32551   4.747   0.778   4.610
10551SOL    HW132552   4.656   0.781   4.570
10551SOL    HW232553   4.740   0.780   4.710
10552SOL     OW32554   2.432   6.886   4.010
10552SOL    HW132555   2.438   6.906   4.108
10552SOL    HW232556   2.463   6.966   3.958
10553SOL     OW32557   5.790   5.002   1.688
10553SOL    HW132558   5.734   5.043   1.617
10553SOL    HW232559   5.773   5.049   1.775
10554SOL     OW32560   5.312   5.633   1.809
10554SOL    HW132561   5.227   5.681   1.785
10554SOL    HW232562   5.323   5.554   1.750
10555SOL     OW32563   3.219   2.920   2.504
10555SOL    HW132564   3.246   2.936   2.409
10555SOL    HW232565   3.159   2.994   2.534
10556SOL     OW32566   2.353   1.960   2.100
10556SOL    HW132567   2.345   1.998   2.008
10556SOL    HW232568   2.270   1.909   2.122
10557SOL     OW32569   1.128   4.529   3.192
10557SOL    HW132570   1.122   4.496   3.286
10557SOL    HW232571   1.224   4.548   3.169
10558SOL     OW32572   5.191   5.415   4.369
10558SOL    HW132573   5.113   5.472   4.393
10558SOL    HW232574   5.183   5.327   4.416
10559SOL     OW32575   3.940   5.830   1.845
10559SOL    HW132576   3.990   5.915   1.862
10559SOL    HW232577   3.882   5.809   1.924
10560SOL     OW32578   5.450   6.962   4.381
10560SOL    HW132579   5.547   6.978   4.398
10560SOL    HW232580   5.426   6.869   4.407
10561SOL     OW32581   0.782   5.562   5.735
10561SOL    HW132582   0.805   5.569   5.638
10561SOL    HW232583   0.863   5.535   5.787
10562SOL     OW32584   2.735   1.398   2.592
10562SOL    HW132585   2.820   1.390   2.540
10562SOL    HW232586   2.708   1.309   2.627
10563SOL     OW32587   1.452   5.162   2.216
10563SOL    HW132588   1.353   5.146   2.210
10563SOL    HW232589   1.493   5.147   2.126
10564SOL     OW32590   5.432   5.672   3.702
10564SOL    HW132591   5.447   5.759   3.655
10564SOL    HW232592   5.470   5.598   3.647
10565SOL     OW32593   0.387   1.276   4.524
10565SOL    HW132594   0.360   1.219   4.602
10565SOL    HW232595   0.387   1.372   4.551
10566SOL     OW32596   4.000   1.568   1.045
10566SOL    HW132597   3.912   1.542   1.007
10566SOL    HW232598   4.056   1.611   0.974
10567SOL     OW32599   3.219   1.618   6.100
10567SOL    HW132600   3.241   1.583   6.009
10567SOL    HW232601   3.304   1.645   6.146
10568SOL     OW32602   6.320   1.578   6.835
10568SOL    HW132603   6.385   1.524   6.781
10568SOL    HW232604   6.368   1.618   6.914
10569SOL     OW32605   3.944   0.430   1.513
10569SOL    HW132606   3.925   0.508   1.453
10569SOL    HW232607   3.905   0.448   1.603
10570SOL     OW32608   1.428   4.021   3.364
10570SOL    HW132609   1.515   3.973   3.352
10570SOL    HW232610   1.425   4.102   3.306
10571SOL     OW32611   1.115   3.943   4.839
10571SOL    HW132612   1.082   4.001   4.764
10571SOL    HW232613   1.134   3.851   4.804
10572SOL     OW32614   6.929   5.359   0.744
10572SOL    HW132615   6.949   5.265   0.716
10572SOL    HW232616   7.004   5.393   0.801
10573SOL     OW32617   5.762   1.947   2.962
10573SOL    HW132618   5.790   1.888   2.887
10573SOL    HW232619   5.768   1.896   3.048
10574SOL     OW32620   5.597   2.616   2.743
10574SOL    HW132621   5.514   2.593   2.793
10574SOL    HW232622   5.671   2.554   2.772
10575SOL     OW32623   4.690   6.958   3.010
10575SOL    HW132624   4.636   6.944   2.926
10575SOL    HW232625   4.632   6.995   3.082
10576SOL     OW32626   1.026   3.254   5.111
10576SOL    HW132627   0.999   3.334   5.057
10576SOL    HW232628   0.945   3.213   5.152
10577SOL     OW32629   4.250   4.981   6.528
10577SOL    HW132630   4.287   4.917   6.461
10577SOL    HW232631   4.312   5.059   6.538
10578SOL     OW32632   1.390   3.144   1.790
10578SOL    HW132633   1.364   3.143   1.694
10578SOL    HW232634   1.308   3.155   1.846
10579SOL     OW32635   0.421   3.039   0.494
10579SOL    HW132636   0.467   3.008   0.577
10579SOL    HW232637   0.326   3.011   0.495
10580SOL     OW32638   4.477   6.102   6.288
10580SOL    HW132639   4.478   6.202   6.289
10580SOL    HW232640   4.427   6.068   6.368
10581SOL     OW32641   3.476   0.637   2.777
10581SOL    HW132642   3.486   0.575   2.699
10581SOL    HW232643   3.520   0.597   2.858
10582SOL     OW32644   0.212   3.560   0.070
10582SOL    HW132645   0.255   3.508   0.144
10582SOL    HW232646   0.170   3.498   0.005
10583SOL     OW32647   4.046   2.046   6.000
10583SOL    HW132648   3.991   1.993   6.065
10583SOL    HW232649   3.985   2.090   5.934
10584SOL     OW32650   7.015   0.437   3.978
10584SOL    HW132651   0.035   0.501   4.040
10584SOL    HW232652   6.919   0.429   4.004
10585SOL     OW32653   1.711   0.943   4.680
10585SOL    HW132654   1.669   0.999   4.609
10585SOL    HW232655   1.713   0.847   4.651
10586SOL     OW32656   4.412   3.260   6.352
10586SOL    HW132657   4.346   3.202   6.399
10586SOL    HW232658   4.404   3.354   6.386
10587SOL     OW32659   1.911   4.963   6.038
10587SOL    HW132660   1.822   4.978   6.082
10587SOL    HW232661   1.961   4.892   6.086
10588SOL     OW32662   1.144   4.531   4.560
10588SOL    HW132663   1.186   4.509   4.648
10588SOL    HW232664   1.208   4.509   4.487
10589SOL     OW32665   6.434   0.771   3.432
10589SOL    HW132666   6.387   0.701   3.378
10589SOL    HW232667   6.527   0.742   3.451
10590SOL     OW32668   6.270   6.590   2.436
10590SOL    HW132669   6.211   6.650   2.381
10590SOL    HW232670   6.304   6.640   2.515
10591SOL     OW32671   6.478   4.232   2.840
10591SOL    HW132672   6.421   4.185   2.773
10591SOL    HW232673   6.468   4.188   2.929
10592SOL     OW32674   6.279   3.747   5.746
10592SOL    HW132675   6.222   3.829   5.754
10592SOL    HW232676   6.297   3.729   5.649
10593SOL     OW32677   3.565   6.083   3.270
10593SOL    HW132678   3.471   6.111   3.290
10593SOL    HW232679   3.582   6.094   3.172
10594SOL     OW32680   3.990   6.042   3.570
10594SOL    HW132681   3.913   6.105   3.555
10594SOL    HW232682   4.033   6.063   3.658
10595SOL     OW32683   6.153   5.441   1.245
10595SOL    HW132684   6.151   5.535   1.279
10595SOL    HW232685   6.075   5.391   1.283
10596SOL     OW32686   6.316   3.204   1.190
10596SOL    HW132687   6.244   3.199   1.259
10596SOL    HW232688   6.315   3.295   1.148
10597SOL     OW32689   0.931   6.711   5.063
10597SOL    HW132690   0.992   6.778   5.105
10597SOL    HW232691   0.985   6.646   5.009
10598SOL     OW32692   3.057   1.538   0.851
10598SOL    HW132693   3.091   1.487   0.930
10598SOL    HW232694   3.135   1.578   0.802
10599SOL     OW32695   0.965   1.720   1.068
10599SOL    HW132696   0.903   1.793   1.038
10599SOL    HW232697   0.954   1.640   1.009
10600SOL     OW32698   4.529   1.051   1.868
10600SOL    HW132699   4.508   1.138   1.822
10600SOL    HW232700   4.446   0.996   1.874
10601SOL     OW32701   1.722   2.055   5.155
10601SOL    HW132702   1.640   2.016   5.113
10601SOL    HW232703   1.768   2.114   5.089
10602SOL     OW32704   6.751   6.455   0.973
10602SOL    HW132705   6.799   6.540   0.993
10602SOL    HW232706   6.723   6.411   1.058
10603SOL     OW32707   5.694   0.262   3.036
10603SOL    HW132708   5.643   0.235   3.118
10603SOL    HW232709   5.789   0.233   3.045
10604SOL     OW32710   5.607   2.267   4.398
10604SOL    HW132711   5.679   2.288   4.465
10604SOL    HW232712   5.593   2.169   4.394
10605SOL     OW32713   4.821   1.729   1.597
10605SOL    HW132714   4.855   1.655   1.656
10605SOL    HW232715   4.859   1.718   1.505
10606SOL     OW32716   5.751   1.900   0.929
10606SOL    HW132717   5.830   1.958   0.948
10606SOL    HW232718   5.780   1.822   0.873
10607SOL     OW32719   1.573   4.999   1.529
10607SOL    HW132720   1.497   4.973   1.588
10607SOL    HW232721   1.660   4.974   1.572
10608SOL     OW32722   5.228   3.565   2.502
10608SOL    HW132723   5.307   3.551   2.561
10608SOL    HW232724   5.190   3.657   2.519
10609SOL     OW32725   5.675   5.736   6.891
10609SOL    HW132726   5.669   5.763   6.795
10609SOL    HW232727   5.625   5.802   6.947
10610SOL     OW32728   0.460   2.371   3.548
10610SOL    HW132729   0.429   2.417   3.464
10610SOL    HW232730   0.479   2.275   3.528
10611SOL     OW32731   4.294   5.720   6.805
10611SOL    HW132732   4.322   5.639   6.753
10611SOL    HW232733   4.196   5.735   6.795
10612SOL     OW32734   5.609   2.387   3.940
10612SOL    HW132735   5.565   2.346   3.860
10612SOL    HW232736   5.620   2.486   3.925
10613SOL     OW32737   4.998   4.785   6.279
10613SOL    HW132738   5.044   4.772   6.191
10613SOL    HW232739   4.910   4.737   6.278
10614SOL     OW32740   4.584   1.438   0.093
10614SOL    HW132741   4.681   1.449   0.115
10614SOL    HW232742   4.532   1.422   0.177
10615SOL     OW32743   4.312   3.092   5.783
10615SOL    HW132744   4.358   3.106   5.871
10615SOL    HW232745   4.214   3.112   5.793
10616SOL     OW32746   1.837   4.908   0.236
10616SOL    HW132747   1.798   4.999   0.244
10616SOL    HW232748   1.885   4.884   0.320
10617SOL     OW32749   2.247   3.397   0.457
10617SOL    HW132750   2.219   3.492   0.467
10617SOL    HW232751   2.326   3.379   0.515
10618SOL     OW32752   6.907   4.962   5.089
10618SOL    HW132753   6.883   4.913   5.005
10618SOL    HW232754   7.003   4.990   5.085
10619SOL     OW32755   1.536   1.981   0.882
10619SOL    HW132756   1.536   1.881   0.886
10619SOL    HW232757   1.619   2.013   0.838
10620SOL     OW32758   4.087   1.419   5.895
10620SOL    HW132759   4.169   1.462   5.934
10620SOL    HW232760   4.006   1.456   5.940
10621SOL     OW32761   0.744   5.576   4.566
10621SOL    HW132762   0.727   5.533   4.478
10621SOL    HW232763   0.672   5.644   4.584
10622SOL     OW32764   3.614   2.172   6.336
10622SOL    HW132765   3.624   2.194   6.239
10622SOL    HW232766   3.613   2.073   6.348
10623SOL     OW32767   5.705   5.126   5.051
10623SOL    HW132768   5.690   5.217   5.089
10623SOL    HW232769   5.731   5.133   4.955
10624SOL     OW32770   0.391   1.158   5.421
10624SOL    HW132771   0.483   1.198   5.414
10624SOL    HW232772   0.335   1.188   5.344
10625SOL     OW32773   6.435   5.251   6.683
10625SOL    HW132774   6.406   5.221   6.592
10625SOL    HW232775   6.533   5.270   6.681
10626SOL     OW32776   5.541   3.594   1.673
10626SOL    HW132777   5.512   3.621   1.581
10626SOL    HW232778   5.631   3.632   1.692
10627SOL     OW32779   5.026   5.441   5.663
10627SOL    HW132780   5.018   5.485   5.752
10627SOL    HW232781   5.074   5.502   5.600
10628SOL     OW32782   2.287   6.613   1.935
10628SOL    HW132783   2.321   6.528   1.894
10628SOL    HW232784   2.235   6.665   1.867
10629SOL     OW32785   4.453   5.939   4.157
10629SOL    HW132786   4.445   5.942   4.256
10629SOL    HW232787   4.408   5.857   4.122
10630SOL     OW32788   4.302   0.930   1.834
10630SOL    HW132789   4.294   0.983   1.751
10630SOL    HW232790   4.325   0.835   1.811
10631SOL     OW32791   3.724   5.998   2.138
10631SOL    HW132792   3.655   5.926   2.148
10631SOL    HW232793   3.703   6.052   2.056
10632SOL     OW32794   5.926   0.810   4.952
10632SOL    HW132795   5.907   0.763   5.038
10632SOL    HW232796   5.843   0.858   4.921
10633SOL     OW32797   2.763   3.794   0.228
10633SOL    HW132798   2.829   3.841   0.171
10633SOL    HW232799   2.736   3.853   0.305
10634SOL     OW32800   0.908   4.183   0.911
10634SOL    HW132801   0.976   4.110   0.918
10634SOL    HW232802   0.949   4.263   0.867
10635SOL     OW32803   3.079   5.072   0.567
10635SOL    HW132804   3.005   5.093   0.631
10635SOL    HW232805   3.165   5.110   0.601
10636SOL     OW32806   0.855   2.762   0.269
10636SOL    HW132807   0.902   2.728   0.187
10636SOL    HW232808   0.810   2.848   0.247
10637SOL     OW32809   1.803   6.423   5.269
10637SOL    HW132810   1.774   6.450   5.360
10637SOL    HW232811   1.724   6.398   5.214
10638SOL     OW32812   5.449   4.332   6.685
10638SOL    HW132813   5.406   4.403   6.630
10638SOL    HW232814   5.540   4.362   6.713
10639SOL     OW32815   6.756   5.223   6.352
10639SOL    HW132816   6.726   5.240   6.258
10639SOL    HW232817   6.726   5.298   6.411
10640SOL     OW32818   4.272   5.806   4.797
10640SOL    HW132819   4.318   5.746   4.863
10640SOL    HW232820   4.284   5.901   4.826
10641SOL     OW32821   0.965   1.046   3.425
10641SOL    HW132822   0.881   1.047   3.372
10641SOL    HW232823   0.947   1.012   3.518
10642SOL     OW32824   6.540   2.455   5.983
10642SOL    HW132825   6.554   2.356   5.978
10642SOL    HW232826   6.555   2.486   6.077
10643SOL     OW32827   3.593   5.638   4.933
10643SOL    HW132828   3.626   5.584   4.855
10643SOL    HW232829   3.497   5.661   4.918
10644SOL     OW32830   1.953   4.092   4.005
10644SOL    HW132831   1.952   4.190   3.987
10644SOL    HW232832   1.951   4.077   4.104
10645SOL     OW32833   1.867   3.164   3.106
10645SOL    HW132834   1.961   3.136   3.123
10645SOL    HW232835   1.842   3.140   3.012
10646SOL     OW32836   5.317   1.310   3.542
10646SOL    HW132837   5.239   1.371   3.559
10646SOL    HW232838   5.284   1.217   3.525
10647SOL     OW32839   4.807   6.080   4.828
10647SOL    HW132840   4.744   6.154   4.803
10647SOL    HW232841   4.867   6.060   4.750
10648SOL     OW32842   4.550   3.373   5.887
10648SOL    HW132843   4.487   3.384   5.810
10648SOL    HW232844   4.513   3.308   5.952
10649SOL     OW32845   6.076   3.372   3.455
10649SOL    HW132846   6.006   3.416   3.399
10649SOL    HW232847   6.158   3.357   3.399
10650SOL     OW32848   0.488   1.090   2.651
10650SOL    HW132849   0.455   1.014   2.706
10650SOL    HW232850   0.587   1.080   2.637
10651SOL     OW32851   2.581   5.762   5.127
10651SOL    HW132852   2.522   5.842   5.141
10651SOL    HW232853   2.540   5.682   5.171
10652SOL     OW32854   3.657   0.379   0.067
10652SOL    HW132855   3.578   0.434   0.094
10652SOL    HW232856   3.740   0.416   0.111
10653SOL     OW32857   6.129   5.946   4.903
10653SOL    HW132858   6.050   5.925   4.960
10653SOL    HW232859   6.207   5.970   4.962
10654SOL     OW32860   6.625   1.538   4.069
10654SOL    HW132861   6.692   1.611   4.081
10654SOL    HW232862   6.581   1.547   3.980
10655SOL     OW32863   6.278   4.730   0.712
10655SOL    HW132864   6.227   4.719   0.626
10655SOL    HW232865   6.290   4.640   0.755
10656SOL     OW32866   5.432   0.613   5.564
10656SOL    HW132867   5.381   0.698   5.551
10656SOL    HW232868   5.403   0.571   5.650
10657SOL     OW32869   5.065   0.152   5.689
10657SOL    HW132870   5.065   0.246   5.723
10657SOL    HW232871   5.016   0.093   5.753
10658SOL     OW32872   1.080   0.881   5.168
10658SOL    HW132873   1.129   0.944   5.228
10658SOL    HW232874   1.126   0.792   5.170
10659SOL     OW32875   0.362   5.712   6.913
10659SOL    HW132876   0.359   5.768   6.831
10659SOL    HW232877   0.379   5.770   6.993
10660SOL     OW32878   6.444   2.426   6.294
10660SOL    HW132879   6.427   2.517   6.256
10660SOL    HW232880   6.541   2.417   6.317
10661SOL     OW32881   4.215   5.800   5.985
10661SOL    HW132882   4.228   5.876   6.049
10661SOL    HW232883   4.129   5.754   6.006
10662SOL     OW32884   3.523   1.881   1.255
10662SOL    HW132885   3.507   1.919   1.347
10662SOL    HW232886   3.507   1.782   1.256
10663SOL     OW32887   6.911   3.413   3.972
10663SOL    HW132888   6.878   3.405   4.066
10663SOL    HW232889   7.003   3.454   3.972
10664SOL     OW32890   0.505   6.103   4.392
10664SOL    HW132891   0.598   6.080   4.364
10664SOL    HW232892   0.484   6.057   4.479
10665SOL     OW32893   4.821   3.904   0.925
10665SOL    HW132894   4.857   3.851   1.002
10665SOL    HW232895   4.754   3.849   0.875
10666SOL     OW32896   5.282   3.755   1.895
10666SOL    HW132897   5.261   3.670   1.846
10666SOL    HW232898   5.262   3.743   1.992
10667SOL     OW32899   5.616   2.895   4.146
10667SOL    HW132900   5.607   2.796   4.143
10667SOL    HW232901   5.616   2.931   4.053
10668SOL     OW32902   2.807   3.426   6.092
10668SOL    HW132903   2.817   3.329   6.114
10668SOL    HW232904   2.818   3.440   5.994
10669SOL     OW32905   0.060   2.447   1.697
10669SOL    HW132906   0.126   2.521   1.715
10669SOL    HW232907   0.001   2.473   1.621
10670SOL     OW32908   4.811   4.679   4.453
10670SOL    HW132909   4.795   4.583   4.427
10670SOL    HW232910   4.909   4.697   4.455
10671SOL     OW32911   1.827   3.357   4.165
10671SOL    HW132912   1.814   3.275   4.109
10671SOL    HW232913   1.741   3.408   4.171
10672SOL     OW32914   6.334   4.957   1.606
10672SOL    HW132915   6.391   4.971   1.526
10672SOL    HW232916   6.388   4.913   1.678
10673SOL     OW32917   3.315   0.884   1.607
10673SOL    HW132918   3.233   0.904   1.553
10673SOL    HW232919   3.357   0.969   1.638
10674SOL     OW32920   3.888   2.972   3.380
10674SOL    HW132921   3.927   2.991   3.290
10674SOL    HW232922   3.794   2.941   3.369
10675SOL     OW32923   3.831   6.325   5.694
10675SOL    HW132924   3.929   6.308   5.695
10675SOL    HW232925   3.812   6.413   5.737
10676SOL     OW32926   1.490   1.448   4.647
10676SOL    HW132927   1.453   1.433   4.556
10676SOL    HW232928   1.589   1.462   4.641
10677SOL     OW32929   0.244   1.144   6.678
10677SOL    HW132930   0.223   1.046   6.677
10677SOL    HW232931   0.233   1.182   6.587
10678SOL     OW32932   3.290   4.882   2.948
10678SOL    HW132933   3.369   4.868   2.888
10678SOL    HW232934   3.207   4.851   2.900
10679SOL     OW32935   5.572   3.996   6.842
10679SOL    HW132936   5.635   4.024   6.770
10679SOL    HW232937   5.591   4.050   6.925
10680SOL     OW32938   4.199   1.928   4.807
10680SOL    HW132939   4.209   1.852   4.872
10680SOL    HW232940   4.157   1.894   4.723
10681SOL     OW32941   2.731   3.185   5.674
10681SOL    HW132942   2.688   3.095   5.674
10681SOL    HW232943   2.681   3.247   5.614
10682SOL     OW32944   5.245   3.302   6.271
10682SOL    HW132945   5.217   3.285   6.365
10682SOL    HW232946   5.335   3.261   6.255
10683SOL     OW32947   1.759   6.602   3.128
10683SOL    HW132948   1.701   6.577   3.051
10683SOL    HW232949   1.711   6.583   3.214
10684SOL     OW32950   5.132   3.481   1.365
10684SOL    HW132951   5.057   3.415   1.359
10684SOL    HW232952   5.097   3.569   1.395
10685SOL     OW32953   0.446   0.733   2.473
10685SOL    HW132954   0.507   0.713   2.550
10685SOL    HW232955   0.501   0.764   2.395
10686SOL     OW32956   2.762   1.897   6.894
10686SOL    HW132957   2.688   1.913   6.960
10686SOL    HW232958   2.722   1.875   6.805
10687SOL     OW32959   0.741   3.391   3.600
10687SOL    HW132960   0.734   3.489   3.618
10687SOL    HW232961   0.700   3.370   3.511
10688SOL     OW32962   4.822   1.356   3.604
10688SOL    HW132963   4.754   1.383   3.537
10688SOL    HW232964   4.861   1.267   3.578
10689SOL     OW32965   1.680   1.161   3.224
10689SOL    HW132966   1.619   1.177   3.146
10689SOL    HW232967   1.625   1.150   3.307
10690SOL     OW32968   1.470   5.878   4.937
10690SOL    HW132969   1.384   5.878   4.887
10690SOL    HW232970   1.457   5.922   5.026
10691SOL     OW32971   3.500   6.747   1.367
10691SOL    HW132972   3.540   6.837   1.377
10691SOL    HW232973   3.433   6.748   1.293
10692SOL     OW32974   2.737   2.392   4.179
10692SOL    HW132975   2.827   2.362   4.145
10692SOL    HW232976   2.729   2.368   4.276
10693SOL     OW32977   1.249   4.165   0.168
10693SOL    HW132978   1.209   4.078   0.197
10693SOL    HW232979   1.291   4.155   0.078
10694SOL     OW32980   4.912   2.642   5.575
10694SOL    HW132981   4.935   2.735   5.605
10694SOL    HW232982   4.812   2.633   5.569
10695SOL     OW32983   4.801   4.644   1.718
10695SOL    HW132984   4.733   4.715   1.735
10695SOL    HW232985   4.755   4.557   1.702
10696SOL     OW32986   6.560   5.240   4.304
10696SOL    HW132987   6.592   5.148   4.282
10696SOL    HW232988   6.636   5.295   4.339
10697SOL     OW32989   2.589   4.996   4.920
10697SOL    HW132990   2.675   4.978   4.968
10697SOL    HW232991   2.534   4.912   4.919
10698SOL     OW32992   4.020   4.972   6.940
10698SOL    HW132993   4.038   4.884   6.983
10698SOL    HW232994   4.004   4.959   6.843
10699SOL     OW32995   4.634   3.730   1.479
10699SOL    HW132996   4.665   3.723   1.573
10699SOL    HW232997   4.535   3.716   1.475
10700SOL     OW32998   4.885   0.296   1.267
10700SOL    HW132999   4.931   0.383   1.250
10700SOL    HW233000   4.803   0.312   1.322
10701SOL     OW33001   3.570   0.007   5.561
10701SOL    HW133002   3.482   0.051   5.582
10701SOL    HW233003   3.557   6.970   5.485
10702SOL     OW33004   6.035   3.036   2.540
10702SOL    HW133005   6.011   2.946   2.504
10702SOL    HW233006   6.053   3.099   2.464
10703SOL     OW33007   0.661   2.089   5.490
10703SOL    HW133008   0.719   2.158   5.533
10703SOL    HW233009   0.565   2.116   5.499
10704SOL     OW33010   5.159   6.588   2.117
10704SOL    HW133011   5.170   6.489   2.117
10704SOL    HW233012   5.133   6.618   2.209
10705SOL     OW33013   4.785   3.812   1.839
10705SOL    HW133014   4.810   3.902   1.876
10705SOL    HW233015   4.821   3.802   1.747
10706SOL     OW33016   3.119   1.158   2.128
10706SOL    HW133017   3.027   1.121   2.142
10706SOL    HW233018   3.130   1.185   2.032
10707SOL     OW33019   3.682   0.012   3.329
10707SOL    HW133020   3.605   0.070   3.357
10707SOL    HW233021   3.767   0.056   3.356
10708SOL     OW33022   4.401   1.209   1.350
10708SOL    HW133023   4.467   1.261   1.296
10708SOL    HW233024   4.402   1.241   1.444
10709SOL     OW33025   5.806   4.259   2.884
10709SOL    HW133026   5.765   4.253   2.975
10709SOL    HW233027   5.735   4.252   2.814
10710SOL     OW33028   4.491   1.634   3.266
10710SOL    HW133029   4.584   1.605   3.243
10710SOL    HW233030   4.429   1.603   3.194
10711SOL     OW33031   2.500   6.351   3.093
10711SOL    HW133032   2.443   6.269   3.104
10711SOL    HW233033   2.484   6.389   3.002
10712SOL     OW33034   5.309   0.828   3.356
10712SOL    HW133035   5.309   0.831   3.256
10712SOL    HW233036   5.390   0.780   3.387
10713SOL     OW33037   1.157   4.002   1.278
10713SOL    HW133038   1.108   4.080   1.239
10713SOL    HW233039   1.207   3.955   1.205
10714SOL     OW33040   3.123   3.948   5.040
10714SOL    HW133041   3.046   3.884   5.045
10714SOL    HW233042   3.106   4.025   5.101
10715SOL     OW33043   6.716   0.657   1.549
10715SOL    HW133044   6.696   0.747   1.586
10715SOL    HW233045   6.639   0.625   1.494
10716SOL     OW33046   4.882   0.814   3.194
10716SOL    HW133047   4.801   0.772   3.235
10716SOL    HW233048   4.964   0.766   3.226
10717SOL     OW33049   3.321   3.017   0.357
10717SOL    HW133050   3.308   3.017   0.456
10717SOL    HW233051   3.404   2.966   0.334
10718SOL     OW33052   1.779   4.999   6.490
10718SOL    HW133053   1.711   5.022   6.558
10718SOL    HW233054   1.734   4.972   6.405
10719SOL     OW33055   6.820   4.592   5.634
10719SOL    HW133056   6.746   4.528   5.653
10719SOL    HW233057   6.897   4.573   5.695
10720SOL     OW33058   6.901   5.545   2.862
10720SOL    HW133059   6.835   5.539   2.937
10720SOL    HW233060   6.879   5.478   2.792
10721SOL     OW33061   4.946   2.910   6.576
10721SOL    HW133062   4.996   2.989   6.541
10721SOL    HW233063   4.953   2.907   6.676
10722SOL     OW33064   0.154   3.867   5.576
10722SOL    HW133065   0.233   3.922   5.604
10722SOL    HW233066   0.102   3.838   5.657
10723SOL     OW33067   5.692   5.902   1.246
10723SOL    HW133068   5.647   5.914   1.334
10723SOL    HW233069   5.625   5.873   1.177
10724SOL     OW33070   0.552   6.129   6.300
10724SOL    HW133071   0.643   6.151   6.335
10724SOL    HW233072   0.493   6.210   6.308
10725SOL     OW33073   2.533   6.758   6.238
10725SOL    HW133074   2.592   6.688   6.278
10725SOL    HW233075   2.475   6.718   6.168
10726SOL     OW33076   3.489   0.532   4.144
10726SOL    HW133077   3.588   0.545   4.140
10726SOL    HW233078   3.468   0.438   4.118
10727SOL     OW33079   2.131   6.321   6.807
10727SOL    HW133080   2.140   6.245   6.872
10727SOL    HW233081   2.063   6.386   6.842
10728SOL     OW33082   5.401   6.280   2.173
10728SOL    HW133083   5.363   6.303   2.083
10728SOL    HW233084   5.445   6.361   2.212
10729SOL     OW33085   6.384   1.728   0.488
10729SOL    HW133086   6.378   1.806   0.425
10729SOL    HW233087   6.421   1.649   0.439
10730SOL     OW33088   4.731   0.481   2.993
10730SOL    HW133089   4.673   0.423   2.936
10730SOL    HW233090   4.754   0.432   3.077
10731SOL     OW33091   3.289   6.940   0.590
10731SOL    HW133092   3.257   6.892   0.671
10731SOL    HW233093   3.366   6.999   0.614
10732SOL     OW33094   0.692   3.204   5.788
10732SOL    HW133095   0.697   3.222   5.690
10732SOL    HW233096   0.602   3.233   5.822
10733SOL     OW33097   6.009   0.364   0.034
10733SOL    HW133098   6.019   0.266   0.049
10733SOL    HW233099   6.022   0.384   6.963
10734SOL     OW33100   5.540   2.922   1.721
10734SOL    HW133101   5.480   2.935   1.800
10734SOL    HW233102   5.633   2.905   1.752
10735SOL     OW33103   6.562   5.719   2.569
10735SOL    HW133104   6.467   5.709   2.541
10735SOL    HW233105   6.613   5.635   2.545
10736SOL     OW33106   2.202   1.537   5.131
10736SOL    HW133107   2.125   1.509   5.188
10736SOL    HW233108   2.169   1.591   5.054
10737SOL     OW33109   0.289   1.523   6.387
10737SOL    HW133110   0.388   1.521   6.380
10737SOL    HW233111   0.257   1.617   6.383
10738SOL     OW33112   4.081   6.760   4.414
10738SOL    HW133113   4.016   6.761   4.490
10738SOL    HW233114   4.056   6.832   4.349
10739SOL     OW33115   1.593   1.204   2.010
10739SOL    HW133116   1.511   1.147   2.002
10739SOL    HW233117   1.585   1.282   1.948
10740SOL     OW33118   4.199   6.332   3.873
10740SOL    HW133119   4.135   6.346   3.948
10740SOL    HW233120   4.172   6.251   3.821
10741SOL     OW33121   2.244   0.551   2.861
10741SOL    HW133122   2.303   0.519   2.934
10741SOL    HW233123   2.195   0.473   2.821
10742SOL     OW33124   6.484   5.681   6.983
10742SOL    HW133125   6.412   5.715   6.922
10742SOL    HW233126   6.448   5.674   0.050
10743SOL     OW33127   3.286   1.385   5.034
10743SOL    HW133128   3.320   1.318   4.968
10743SOL    HW233129   3.205   1.347   5.080
10744SOL     OW33130   5.993   1.089   0.659
10744SOL    HW133131   5.916   1.080   0.596
10744SOL    HW233132   6.042   1.174   0.640
10745SOL     OW33133   6.505   6.015   6.156
10745SOL    HW133134   6.512   5.961   6.240
10745SOL    HW233135   6.594   6.057   6.136
10746SOL     OW33136   1.854   4.448   5.142
10746SOL    HW133137   1.881   4.352   5.135
10746SOL    HW233138   1.931   4.507   5.116
10747SOL     OW33139   2.852   2.279   5.069
10747SOL    HW133140   2.951   2.290   5.079
10747SOL    HW233141   2.805   2.350   5.121
10748SOL     OW33142   5.680   1.545   2.905
10748SOL    HW133143   5.757   1.609   2.909
10748SOL    HW233144   5.675   1.505   2.813
10749SOL     OW33145   3.818   0.255   0.501
10749SOL    HW133146   3.743   0.198   0.467
10749SOL    HW233147   3.862   0.208   0.578
10750SOL     OW33148   4.830   6.131   6.577
10750SOL    HW133149   4.853   6.132   6.480
10750SOL    HW233150   4.734   6.156   6.589
10751SOL     OW33151   2.542   6.224   2.633
10751SOL    HW133152   2.551   6.209   2.535
10751SOL    HW233153   2.492   6.147   2.674
10752SOL     OW33154   4.837   5.643   4.238
10752SOL    HW133155   4.851   5.741   4.226
10752SOL    HW233156   4.749   5.617   4.200
10753SOL     OW33157   5.769   4.128   4.466
10753SOL    HW133158   5.767   4.031   4.445
10753SOL    HW233159   5.676   4.162   4.477
10754SOL     OW33160   1.368   6.634   2.433
10754SOL    HW133161   1.387   6.561   2.499
10754SOL    HW233162   1.281   6.677   2.455
10755SOL     OW33163   6.091   5.676   1.423
10755SOL    HW133164   6.109   5.639   1.514
10755SOL    HW233165   5.993   5.693   1.413
10756SOL     OW33166   0.265   6.868   5.086
10756SOL    HW133167   0.246   6.955   5.040
10756SOL    HW233168   0.364   6.852   5.087
10757SOL     OW33169   2.911   2.697   1.675
10757SOL    HW133170   2.919   2.640   1.757
10757SOL    HW233171   2.970   2.660   1.603
10758SOL     OW33172   6.834   5.416   4.165
10758SOL    HW133173   6.761   5.481   4.145
10758SOL    HW233174   6.852   5.414   4.263
10759SOL     OW33175   6.577   0.809   6.729
10759SOL    HW133176   6.674   0.829   6.722
10759SOL    HW233177   6.551   0.741   6.661
10760SOL     OW33178   5.760   1.913   4.437
10760SOL    HW133179   5.805   1.983   4.492
10760SOL    HW233180   5.742   1.949   4.345
10761SOL     OW33181   3.722   5.594   5.940
10761SOL    HW133182   3.802   5.621   5.887
10761SOL    HW233183   3.639   5.616   5.888
10762SOL     OW33184   3.118   0.644   6.111
10762SOL    HW133185   3.077   0.553   6.108
10762SOL    HW233186   3.075   0.698   6.183
10763SOL     OW33187   4.912   5.175   4.259
10763SOL    HW133188   4.934   5.097   4.318
10763SOL    HW233189   4.869   5.247   4.313
10764SOL     OW33190   4.894   0.302   4.780
10764SOL    HW133191   4.904   0.276   4.877
10764SOL    HW233192   4.977   0.276   4.731
10765SOL     OW33193   6.891   3.685   6.899
10765SOL    HW133194   6.924   3.779   6.910
10765SOL    HW233195   6.834   3.661   6.977
10766SOL     OW33196   3.097   3.314   2.023
10766SOL    HW133197   3.098   3.268   2.112
10766SOL    HW233198   3.043   3.398   2.031
10767SOL     OW33199   4.724   2.010   2.266
10767SOL    HW133200   4.726   2.003   2.167
10767SOL    HW233201   4.649   1.954   2.303
10768SOL     OW33202   5.755   4.504   6.476
10768SOL    HW133203   5.840   4.458   6.451
10768SOL    HW233204   5.686   4.490   6.405
10769SOL     OW33205   2.054   3.576   4.543
10769SOL    HW133206   1.993   3.640   4.590
10769SOL    HW233207   2.060   3.602   4.446
10770SOL     OW33208   4.093   6.058   3.832
10770SOL    HW133209   4.020   6.021   3.889
10770SOL    HW233210   4.179   6.010   3.852
10771SOL     OW33211   2.489   2.057   3.740
10771SOL    HW133212   2.498   2.129   3.808
10771SOL    HW233213   2.417   2.081   3.675
10772SOL     OW33214   5.352   5.968   3.978
10772SOL    HW133215   5.320   5.967   3.884
10772SOL    HW233216   5.400   5.882   3.997
10773SOL     OW33217   5.420   5.338   2.585
10773SOL    HW133218   5.515   5.334   2.616
10773SOL    HW233219   5.375   5.251   2.606
10774SOL     OW33220   0.076   0.308   3.375
10774SOL    HW133221   0.051   0.212   3.392
10774SOL    HW233222   0.143   0.337   3.443
10775SOL     OW33223   0.325   2.634   1.054
10775SOL    HW133224   0.330   2.734   1.064
10775SOL    HW233225   0.378   2.591   1.128
10776SOL     OW33226   1.881   0.645   5.732
10776SOL    HW133227   1.811   0.714   5.750
10776SOL    HW233228   1.959   0.661   5.793
10777SOL     OW33229   3.177   5.779   1.453
10777SOL    HW133230   3.101   5.762   1.391
10777SOL    HW233231   3.263   5.772   1.403
10778SOL     OW33232   5.577   6.158   1.404
10778SOL    HW133233   5.547   6.192   1.493
10778SOL    HW233234   5.499   6.117   1.356
10779SOL     OW33235   4.883   3.156   3.562
10779SOL    HW133236   4.852   3.072   3.607
10779SOL    HW233237   4.900   3.138   3.465
10780SOL     OW33238   6.784   0.367   1.993
10780SOL    HW133239   6.805   0.399   2.086
10780SOL    HW233240   6.713   0.297   1.998
10781SOL     OW33241   3.207   0.386   4.005
10781SOL    HW133242   3.230   0.382   3.907
10781SOL    HW233243   3.190   0.481   4.032
10782SOL     OW33244   6.838   5.831   3.363
10782SOL    HW133245   6.808   5.901   3.299
10782SOL    HW233246   6.874   5.753   3.313
10783SOL     OW33247   6.460   2.472   2.807
10783SOL    HW133248   6.460   2.385   2.856
10783SOL    HW233249   6.509   2.541   2.861
10784SOL     OW33250   1.960   1.898   4.843
10784SOL    HW133251   2.035   1.923   4.904
10784SOL    HW233252   1.904   1.978   4.823
10785SOL     OW33253   1.523   3.451   5.975
10785SOL    HW133254   1.442   3.394   5.961
10785SOL    HW233255   1.537   3.466   6.073
10786SOL     OW33256   6.566   4.743   4.846
10786SOL    HW133257   6.621   4.664   4.821
10786SOL    HW233258   6.493   4.756   4.779
10787SOL     OW33259   1.869   2.126   5.817
10787SOL    HW133260   1.950   2.067   5.812
10787SOL    HW233261   1.890   2.208   5.870
10788SOL     OW33262   5.756   3.688   6.172
10788SOL    HW133263   5.710   3.700   6.084
10788SOL    HW233264   5.689   3.658   6.240
10789SOL     OW33265   4.841   1.071   6.784
10789SOL    HW133266   4.749   1.044   6.755
10789SOL    HW233267   4.835   1.143   6.853
10790SOL     OW33268   5.580   6.707   2.734
10790SOL    HW133269   5.585   6.781   2.667
10790SOL    HW233270   5.642   6.633   2.706
10791SOL     OW33271   0.952   5.860   2.922
10791SOL    HW133272   0.866   5.808   2.921
10791SOL    HW233273   0.940   5.947   2.875
10792SOL     OW33274   4.095   4.648   6.292
10792SOL    HW133275   4.027   4.705   6.247
10792SOL    HW233276   4.134   4.584   6.226
10793SOL     OW33277   5.531   4.235   4.506
10793SOL    HW133278   5.499   4.284   4.587
10793SOL    HW233279   5.468   4.250   4.430
10794SOL     OW33280   3.416   3.282   4.532
10794SOL    HW133281   3.485   3.246   4.470
10794SOL    HW233282   3.406   3.220   4.610
10795SOL     OW33283   6.924   4.732   2.827
10795SOL    HW133284   6.873   4.649   2.852
10795SOL    HW233285   6.956   4.777   2.910
10796SOL     OW33286   0.737   6.629   5.640
10796SOL    HW133287   0.736   6.551   5.578
10796SOL    HW233288   0.781   6.707   5.595
10797SOL     OW33289   4.153   2.552   0.473
10797SOL    HW133290   4.168   2.561   0.572
10797SOL    HW233291   4.055   2.539   0.456
10798SOL     OW33292   5.786   1.415   0.801
10798SOL    HW133293   5.825   1.432   0.710
10798SOL    HW233294   5.850   1.448   0.871
10799SOL     OW33295   5.210   1.412   1.126
10799SOL    HW133296   5.227   1.451   1.217
10799SOL    HW233297   5.160   1.326   1.135
10800SOL     OW33298   6.539   6.349   1.146
10800SOL    HW133299   6.472   6.279   1.172
10800SOL    HW233300   6.621   6.338   1.203
10801SOL     OW33301   2.330   0.650   1.340
10801SOL    HW133302   2.283   0.577   1.290
10801SOL    HW233303   2.425   0.655   1.310
10802SOL     OW33304   5.196   1.411   3.888
10802SOL    HW133305   5.126   1.481   3.902
10802SOL    HW233306   5.195   1.382   3.792
10803SOL     OW33307   2.159   4.839   5.060
10803SOL    HW133308   2.246   4.808   5.097
10803SOL    HW233309   2.105   4.760   5.030
10804SOL     OW33310   6.266   3.461   4.014
10804SOL    HW133311   6.340   3.457   3.947
10804SOL    HW233312   6.298   3.427   4.102
10805SOL     OW33313   0.030   6.702   6.490
10805SOL    HW133314   0.018   6.772   6.419
10805SOL    HW233315   0.050   6.746   6.577
10806SOL     OW33316   1.658   4.855   1.029
10806SOL    HW133317   1.595   4.836   1.104
10806SOL    HW233318   1.613   4.836   0.941
10807SOL     OW33319   3.122   5.340   5.249
10807SOL    HW133320   3.201   5.383   5.205
10807SOL    HW233321   3.041   5.398   5.238
10808SOL     OW33322   1.703   3.329   0.325
10808SOL    HW133323   1.623   3.376   0.364
10808SOL    HW233324   1.675   3.279   0.243
10809SOL     OW33325   1.323   0.686   4.870
10809SOL    HW133326   1.380   0.637   4.804
10809SOL    HW233327   1.373   0.696   4.956
10810SOL     OW33328   6.655   0.602   3.480
10810SOL    HW133329   6.731   0.652   3.438
10810SOL    HW233330   6.685   0.509   3.502
10811SOL     OW33331   5.327   5.665   4.987
10811SOL    HW133332   5.264   5.587   4.988
10811SOL    HW233333   5.280   5.745   4.949
10812SOL     OW33334   0.462   2.899   1.061
10812SOL    HW133335   0.492   2.994   1.054
10812SOL    HW233336   0.524   2.840   1.009
10813SOL     OW33337   1.155   3.544   6.843
10813SOL    HW133338   1.057   3.539   6.823
10813SOL    HW233339   1.171   3.607   6.918
10814SOL     OW33340   3.455   2.068   2.428
10814SOL    HW133341   3.440   2.000   2.357
10814SOL    HW233342   3.447   2.160   2.388
10815SOL     OW33343   5.537   1.191   4.595
10815SOL    HW133344   5.443   1.157   4.588
10815SOL    HW233345   5.593   1.147   4.525
10816SOL     OW33346   3.097   3.083   5.686
10816SOL    HW133347   3.033   3.045   5.619
10816SOL    HW233348   3.183   3.033   5.681
10817SOL     OW33349   1.725   6.253   4.851
10817SOL    HW133350   1.739   6.161   4.886
10817SOL    HW233351   1.793   6.273   4.781
10818SOL     OW33352   4.754   3.692   0.419
10818SOL    HW133353   4.672   3.720   0.369
10818SOL    HW233354   4.732   3.683   0.517
10819SOL     OW33355   6.172   5.894   5.532
10819SOL    HW133356   6.249   5.834   5.557
10819SOL    HW233357   6.089   5.839   5.523
10820SOL     OW33358   1.655   4.935   6.233
10820SOL    HW133359   1.608   4.863   6.182
10820SOL    HW233360   1.630   5.024   6.195
10821SOL     OW33361   4.330   5.716   4.058
10821SOL    HW133362   4.384   5.669   3.988
10821SOL    HW233363   4.243   5.746   4.019
10822SOL     OW33364   5.260   0.324   2.756
10822SOL    HW133365   5.287   0.365   2.669
10822SOL    HW233366   5.163   0.341   2.773
10823SOL     OW33367   5.314   6.632   2.673
10823SOL    HW133368   5.303   6.542   2.716
10823SOL    HW233369   5.407   6.664   2.685
10824SOL     OW33370   1.773   2.204   3.623
10824SOL    HW133371   1.844   2.219   3.554
10824SOL    HW233372   1.696   2.264   3.605
10825SOL     OW33373   0.039   1.358   0.263
10825SOL    HW133374   0.060   1.432   0.200
10825SOL    HW233375   0.014   1.396   0.352
10826SOL     OW33376   6.913   3.321   2.982
10826SOL    HW133377   6.889   3.413   3.013
10826SOL    HW233378   6.990   3.326   2.918
10827SOL     OW33379   0.253   3.072   3.641
10827SOL    HW133380   0.239   3.028   3.730
10827SOL    HW233381   0.349   3.065   3.615
10828SOL     OW33382   0.018   4.330   4.951
10828SOL    HW133383   0.032   4.308   4.854
10828SOL    HW233384   0.043   4.251   5.007
10829SOL     OW33385   4.019   3.024   5.552
10829SOL    HW133386   4.010   3.052   5.647
10829SOL    HW233387   3.949   2.955   5.531
10830SOL     OW33388   5.042   1.857   3.930
10830SOL    HW133389   4.999   1.946   3.942
10830SOL    HW233390   5.092   1.832   4.013
10831SOL     OW33391   4.148   0.088   2.883
10831SOL    HW133392   4.172   0.049   2.972
10831SOL    HW233393   4.056   0.128   2.888
10832SOL     OW33394   6.726   3.240   6.559
10832SOL    HW133395   6.755   3.332   6.531
10832SOL    HW233396   6.646   3.213   6.504
10833SOL     OW33397   0.987   1.271   6.710
10833SOL    HW133398   0.993   1.366   6.740
10833SOL    HW233399   0.993   1.210   6.789
10834SOL     OW33400   6.919   6.602   2.425
10834SOL    HW133401   6.948   6.645   2.340
10834SOL    HW233402   6.849   6.533   2.405
10835SOL     OW33403   6.936   2.785   5.382
10835SOL    HW133404   6.846   2.754   5.412
10835SOL    HW233405   6.965   2.862   5.438
10836SOL     OW33406   6.801   1.746   3.227
10836SOL    HW133407   6.711   1.728   3.188
10836SOL    HW233408   6.836   1.833   3.192
10837SOL     OW33409   0.070   3.277   3.578
10837SOL    HW133410   0.154   3.222   3.579
10837SOL    HW233411   0.087   3.366   3.618
10838SOL     OW33412   0.322   6.644   2.714
10838SOL    HW133413   0.357   6.597   2.634
10838SOL    HW233414   0.362   6.736   2.720
10839SOL     OW33415   4.605   2.353   7.025
10839SOL    HW133416   4.673   2.381   6.957
10839SOL    HW233417   4.578   2.432   0.054
10840SOL     OW33418   3.054   0.768   2.182
10840SOL    HW133419   3.097   0.763   2.092
10840SOL    HW233420   2.956   0.783   2.172
10841SOL     OW33421   2.030   5.288   4.532
10841SOL    HW133422   2.052   5.297   4.435
10841SOL    HW233423   2.114   5.299   4.585
10842SOL     OW33424   6.749   4.665   1.799
10842SOL    HW133425   6.801   4.606   1.860
10842SOL    HW233426   6.676   4.612   1.756
10843SOL     OW33427   2.719   1.305   1.173
10843SOL    HW133428   2.640   1.306   1.234
10843SOL    HW233429   2.736   1.398   1.140
10844SOL     OW33430   1.752   5.514   4.402
10844SOL    HW133431   1.803   5.459   4.335
10844SOL    HW233432   1.730   5.603   4.361
10845SOL     OW33433   3.690   0.840   4.315
10845SOL    HW133434   3.610   0.854   4.257
10845SOL    HW233435   3.673   0.878   4.405
10846SOL     OW33436   5.695   6.746   6.578
10846SOL    HW133437   5.718   6.834   6.536
10846SOL    HW233438   5.597   6.730   6.569
10847SOL     OW33439   3.321   0.175   6.873
10847SOL    HW133440   3.247   0.222   6.921
10847SOL    HW233441   3.293   0.156   6.779
10848SOL     OW33442   1.348   3.114   2.139
10848SOL    HW133443   1.355   3.107   2.040
10848SOL    HW233444   1.404   3.191   2.171
10849SOL     OW33445   1.261   6.751   3.617
10849SOL    HW133446   1.192   6.682   3.640
10849SOL    HW233447   1.315   6.720   3.539
10850SOL     OW33448   4.752   4.265   0.137
10850SOL    HW133449   4.693   4.344   0.125
10850SOL    HW233450   4.713   4.186   0.089
10851SOL     OW33451   1.349   4.583   0.753
10851SOL    HW133452   1.385   4.490   0.748
10851SOL    HW233453   1.322   4.613   0.662
10852SOL     OW33454   3.317   0.452   1.060
10852SOL    HW133455   3.317   0.539   1.109
10852SOL    HW233456   3.256   0.459   0.981
10853SOL     OW33457   3.250   0.920   6.066
10853SOL    HW133458   3.265   0.933   5.968
10853SOL    HW233459   3.208   0.831   6.083
10854SOL     OW33460   3.021   6.288   6.036
10854SOL    HW133461   3.108   6.249   6.066
10854SOL    HW233462   2.946   6.251   6.091
10855SOL     OW33463   4.390   0.816   6.536
10855SOL    HW133464   4.323   0.766   6.590
10855SOL    HW233465   4.343   0.864   6.461
10856SOL     OW33466   0.342   0.371   0.718
10856SOL    HW133467   0.355   0.312   0.798
10856SOL    HW233468   0.429   0.413   0.693
10857SOL     OW33469   6.261   1.647   1.544
10857SOL    HW133470   6.270   1.746   1.536
10857SOL    HW233471   6.219   1.624   1.631
10858SOL     OW33472   2.113   6.309   1.786
10858SOL    HW133473   2.022   6.270   1.803
10858SOL    HW233474   2.120   6.338   1.690
10859SOL     OW33475   1.715   5.018   3.680
10859SOL    HW133476   1.778   4.975   3.616
10859SOL    HW233477   1.760   5.095   3.726
10860SOL     OW33478   0.704   3.991   3.111
10860SOL    HW133479   0.693   3.892   3.095
10860SOL    HW233480   0.679   4.012   3.205
10861SOL     OW33481   4.463   3.473   5.366
10861SOL    HW133482   4.389   3.408   5.381
10861SOL    HW233483   4.471   3.494   5.268
10862SOL     OW33484   1.096   0.388   5.913
10862SOL    HW133485   1.192   0.415   5.914
10862SOL    HW233486   1.038   0.468   5.930
10863SOL     OW33487   1.987   6.440   4.176
10863SOL    HW133488   1.891   6.453   4.153
10863SOL    HW233489   1.997   6.361   4.236
10864SOL     OW33490   3.162   0.075   3.788
10864SOL    HW133491   3.104   0.026   3.854
10864SOL    HW233492   3.116   0.078   3.700
10865SOL     OW33493   6.595   0.941   6.096
10865SOL    HW133494   6.621   0.864   6.038
10865SOL    HW233495   6.561   0.907   6.184
10866SOL     OW33496   6.297   4.972   6.936
10866SOL    HW133497   6.319   4.874   6.930
10866SOL    HW233498   6.215   4.990   6.881
10867SOL     OW33499   2.831   1.687   0.119
10867SOL    HW133500   2.903   1.632   0.163
10867SOL    HW233501   2.828   1.777   0.161
10868SOL     OW33502   1.338   2.480   3.508
10868SOL    HW133503   1.289   2.542   3.448
10868SOL    HW233504   1.325   2.508   3.603
10869NA      NA33505   6.799   2.425   5.242
10870NA      NA33506   4.489   4.596   5.150
10871NA      NA33507   2.037   3.371   1.994
10872NA      NA33508   5.050   3.558   4.890
10873NA      NA33509   4.319   2.377   5.242
10874NA      NA33510   3.786   4.895   2.127
10875NA      NA33511   6.705   6.501   4.820
10876NA      NA33512   3.827   3.346   5.040
10877NA      NA33513   4.657   6.024   6.158
10878NA      NA33514   2.740   6.879   5.003
10879NA      NA33515   0.400   4.886   3.212
10880NA      NA33516   2.018   0.546   1.971
10881NA      NA33517   4.075   4.347   1.231
10882NA      NA33518   4.024   3.478   3.076
   7.02592   7.02592   7.02592
