Generated by trjconv : CNT in water t= 163.00000
33518
    1C        C    1   2.844   2.774   4.751
    1C        C    2   2.899   2.720   4.869
    1C        C    3   2.836   2.771   4.984
    1C        C    4   2.851   2.777   4.261
    1C        C    5   2.900   2.729   4.385
    1C        C    6   2.848   2.776   4.508
    1C        C    7   3.016   2.647   4.627
    1C        C    8   2.899   2.727   4.630
    1C        C    9   3.078   2.604   4.747
    1C        C   10   3.010   2.633   4.867
    1C        C   11   3.182   2.492   4.978
    1C        C   12   3.061   2.562   4.976
    1C        C   13   2.853   2.779   3.772
    1C        C   14   2.901   2.725   3.893
    1C        C   15   2.849   2.775   4.015
    1C        C   16   3.019   2.651   4.140
    1C        C   17   2.902   2.730   4.138
    1C        C   18   3.081   2.620   4.263
    1C        C   19   3.018   2.652   4.385
    1C        C   20   3.207   2.555   4.503
    1C        C   21   3.076   2.608   4.506
    1C        C   22   3.278   2.536   4.624
    1C        C   23   3.209   2.550   4.746
    1C        C   24   3.413   2.491   4.864
    1C        C   25   3.270   2.505   4.867
    1C        C   26   3.489   2.478   4.981
    1C        C   27   2.854   2.774   3.283
    1C        C   28   2.903   2.727   3.406
    1C        C   29   2.855   2.779   3.528
    1C        C   30   3.018   2.644   3.647
    1C        C   31   2.906   2.730   3.650
    1C        C   32   3.077   2.609   3.771
    1C        C   33   3.017   2.643   3.894
    1C        C   34   3.208   2.558   4.016
    1C        C   35   3.078   2.612   4.018
    1C        C   36   3.278   2.539   4.138
    1C        C   37   3.210   2.562   4.260
    1C        C   38   3.417   2.510   4.382
    1C        C   39   3.278   2.538   4.382
    1C        C   40   3.487   2.500   4.504
    1C        C   41   3.415   2.503   4.625
    1C        C   42   3.632   2.487   4.745
    1C        C   43   3.490   2.489   4.745
    1C        C   44   3.708   2.489   4.865
    1C        C   45   3.627   2.487   4.979
    1C        C   46   2.835   2.754   2.795
    1C        C   47   2.898   2.716   2.916
    1C        C   48   2.850   2.769   3.038
    1C        C   49   3.020   2.644   3.161
    1C        C   50   2.906   2.727   3.160
    1C        C   51   3.080   2.608   3.284
    1C        C   52   3.016   2.641   3.406
    1C        C   53   3.211   2.551   3.528
    1C        C   54   3.081   2.607   3.527
    1C        C   55   3.278   2.531   3.651
    1C        C   56   3.207   2.554   3.770
    1C        C   57   3.413   2.509   3.894
    1C        C   58   3.274   2.535   3.893
    1C        C   59   3.486   2.501   4.014
    1C        C   60   3.416   2.513   4.137
    1C        C   61   3.627   2.501   4.259
    1C        C   62   3.486   2.501   4.259
    1C        C   63   3.701   2.504   4.379
    1C        C   64   3.628   2.497   4.500
    1C        C   65   3.834   2.544   4.621
    1C        C   66   3.699   2.505   4.622
    1C        C   67   3.903   2.569   4.742
    1C        C   68   3.842   2.533   4.864
    1C        C   69   4.049   2.592   4.982
    1C        C   70   3.922   2.533   4.979
    1C        C   71   2.825   2.735   2.309
    1C        C   72   2.884   2.697   2.431
    1C        C   73   2.835   2.746   2.553
    1C        C   74   3.008   2.624   2.674
    1C        C   75   2.892   2.705   2.676
    1C        C   76   3.075   2.597   2.796
    1C        C   77   3.016   2.638   2.918
    1C        C   78   3.210   2.551   3.038
    1C        C   79   3.080   2.606   3.039
    1C        C   80   3.277   2.527   3.161
    1C        C   81   3.210   2.555   3.282
    1C        C   82   3.414   2.494   3.404
    1C        C   83   3.277   2.532   3.405
    1C        C   84   3.487   2.494   3.525
    1C        C   85   3.417   2.506   3.647
    1C        C   86   3.625   2.504   3.770
    1C        C   87   3.484   2.501   3.771
    1C        C   88   3.695   2.508   3.892
    1C        C   89   3.627   2.500   4.016
    1C        C   90   3.835   2.547   4.134
    1C        C   91   3.698   2.510   4.137
    1C        C   92   3.902   2.573   4.256
    1C        C   93   3.836   2.545   4.377
    1C        C   94   4.027   2.635   4.500
    1C        C   95   3.901   2.572   4.500
    1C        C   96   4.090   2.672   4.621
    1C        C   97   4.032   2.628   4.741
    1C        C   98   4.193   2.764   4.861
    1C        C   99   4.097   2.658   4.864
    1C        C  100   4.218   2.843   4.975
    1C        C  101   2.820   2.731   2.071
    1C        C  102   2.990   2.593   2.189
    1C        C  103   2.873   2.676   2.189
    1C        C  104   3.062   2.577   2.310
    1C        C  105   3.000   2.615   2.431
    1C        C  106   3.199   2.534   2.549
    1C        C  107   3.069   2.588   2.552
    1C        C  108   3.269   2.518   2.671
    1C        C  109   3.206   2.546   2.795
    1C        C  110   3.413   2.493   2.916
    1C        C  111   3.276   2.526   2.916
    1C        C  112   3.485   2.490   3.038
    1C        C  113   3.415   2.499   3.160
    1C        C  114   3.626   2.499   3.279
    1C        C  115   3.485   2.487   3.282
    1C        C  116   3.695   2.508   3.402
    1C        C  117   3.628   2.498   3.526
    1C        C  118   3.836   2.540   3.647
    1C        C  119   3.698   2.509   3.649
    1C        C  120   3.896   2.575   3.770
    1C        C  121   3.831   2.548   3.892
    1C        C  122   4.027   2.639   4.013
    1C        C  123   3.901   2.575   4.012
    1C        C  124   4.088   2.675   4.135
    1C        C  125   4.027   2.638   4.257
    1C        C  126   4.195   2.767   4.377
    1C        C  127   4.090   2.674   4.379
    1C        C  128   4.243   2.821   4.498
    1C        C  129   4.199   2.762   4.619
    1C        C  130   4.328   2.932   4.737
    1C        C  131   4.247   2.815   4.740
    1C        C  132   4.358   3.001   4.857
    1C        C  133   4.291   2.962   4.973
    1C        C  134   3.169   2.465   2.080
    1C        C  135   3.036   2.509   2.083
    1C        C  136   3.257   2.481   2.188
    1C        C  137   3.192   2.520   2.307
    1C        C  138   3.405   2.484   2.427
    1C        C  139   3.265   2.505   2.428
    1C        C  140   3.478   2.482   2.548
    1C        C  141   3.408   2.492   2.670
    1C        C  142   3.621   2.493   2.791
    1C        C  143   3.480   2.489   2.791
    1C        C  144   3.694   2.501   2.911
    1C        C  145   3.626   2.494   3.035
    1C        C  146   3.834   2.534   3.153
    1C        C  147   3.697   2.502   3.157
    1C        C  148   3.897   2.563   3.276
    1C        C  149   3.832   2.542   3.400
    1C        C  150   4.023   2.629   3.520
    1C        C  151   3.899   2.561   3.523
    1C        C  152   4.078   2.674   3.642
    1C        C  153   4.021   2.642   3.766
    1C        C  154   4.191   2.766   3.888
    1C        C  155   4.083   2.675   3.888
    1C        C  156   4.247   2.812   4.010
    1C        C  157   4.200   2.760   4.133
    1C        C  158   4.339   2.921   4.252
    1C        C  159   4.251   2.811   4.255
    1C        C  160   4.375   2.987   4.372
    1C        C  161   4.330   2.933   4.495
    1C        C  162   4.445   3.112   4.612
    1C        C  163   4.372   2.991   4.616
    1C        C  164   4.472   3.180   4.733
    1C        C  165   4.435   3.119   4.854
    1C        C  166   4.518   3.316   4.972
    1C        C  167   4.484   3.181   4.970
    1C        C  168   3.475   2.441   2.073
    1C        C  169   3.396   2.456   2.188
    1C        C  170   3.616   2.459   2.307
    1C        C  171   3.473   2.463   2.305
    1C        C  172   3.691   2.478   2.425
    1C        C  173   3.619   2.486   2.546
    1C        C  174   3.825   2.542   2.662
    1C        C  175   3.691   2.498   2.668
    1C        C  176   3.893   2.563   2.784
    1C        C  177   3.830   2.539   2.909
    1C        C  178   4.023   2.630   3.030
    1C        C  179   3.898   2.564   3.030
    1C        C  180   4.081   2.667   3.153
    1C        C  181   4.023   2.628   3.276
    1C        C  182   4.194   2.753   3.397
    1C        C  183   4.086   2.662   3.398
    1C        C  184   4.242   2.807   3.519
    1C        C  185   4.190   2.761   3.641
    1C        C  186   4.336   2.915   3.762
    1C        C  187   4.241   2.810   3.763
    1C        C  188   4.378   2.975   3.883
    1C        C  189   4.341   2.917   4.006
    1C        C  190   4.443   3.101   4.126
    1C        C  191   4.383   2.974   4.128
    1C        C  192   4.471   3.172   4.245
    1C        C  193   4.444   3.110   4.369
    1C        C  194   4.512   3.313   4.490
    1C        C  195   4.476   3.176   4.490
    1C        C  196   4.518   3.386   4.611
    1C        C  197   4.515   3.316   4.733
    1C        C  198   4.553   3.531   4.851
    1C        C  199   4.536   3.389   4.853
    1C        C  200   4.583   3.618   4.961
    1C        C  201   3.614   2.424   2.072
    1C        C  202   3.827   2.505   2.183
    1C        C  203   3.691   2.462   2.186
    1C        C  204   3.897   2.538   2.302
    1C        C  205   3.827   2.517   2.423
    1C        C  206   4.020   2.621   2.541
    1C        C  207   3.893   2.559   2.540
    1C        C  208   4.081   2.655   2.664
    1C        C  209   4.021   2.622   2.787
    1C        C  210   4.197   2.748   2.905
    1C        C  211   4.083   2.664   2.907
    1C        C  212   4.251   2.794   3.028
    1C        C  213   4.197   2.749   3.150
    1C        C  214   4.329   2.912   3.272
    1C        C  215   4.243   2.801   3.273
    1C        C  216   4.368   2.974   3.393
    1C        C  217   4.331   2.917   3.517
    1C        C  218   4.435   3.100   3.638
    1C        C  219   4.373   2.973   3.639
    1C        C  220   4.465   3.168   3.758
    1C        C  221   4.438   3.103   3.881
    1C        C  222   4.498   3.305   4.003
    1C        C  223   4.464   3.168   4.004
    1C        C  224   4.513   3.378   4.123
    1C        C  225   4.505   3.309   4.246
    1C        C  226   4.515   3.523   4.365
    1C        C  227   4.516   3.382   4.367
    1C        C  228   4.516   3.597   4.486
    1C        C  229   4.526   3.527   4.608
    1C        C  230   4.507   3.739   4.728
    1C        C  231   4.537   3.600   4.728
    1C        C  232   4.497   3.818   4.845
    1C        C  233   4.554   3.755   4.956
    1C        C  234   4.018   2.601   2.062
    1C        C  235   3.892   2.543   2.065
    1C        C  236   4.084   2.644   2.178
    1C        C  237   4.022   2.607   2.299
    1C        C  238   4.197   2.737   2.421
    1C        C  239   4.082   2.654   2.418
    1C        C  240   4.249   2.788   2.542
    1C        C  241   4.192   2.742   2.663
    1C        C  242   4.335   2.905   2.782
    1C        C  243   4.250   2.792   2.782
    1C        C  244   4.375   2.963   2.904
    1C        C  245   4.334   2.908   3.028
    1C        C  246   4.439   3.093   3.147
    1C        C  247   4.372   2.968   3.149
    1C        C  248   4.456   3.162   3.268
    1C        C  249   4.432   3.100   3.393
    1C        C  250   4.501   3.300   3.513
    1C        C  251   4.461   3.165   3.515
    1C        C  252   4.513   3.371   3.635
    1C        C  253   4.501   3.305   3.759
    1C        C  254   4.524   3.515   3.880
    1C        C  255   4.517   3.374   3.881
    1C        C  256   4.517   3.590   4.000
    1C        C  257   4.519   3.519   4.122
    1C        C  258   4.484   3.731   4.241
    1C        C  259   4.514   3.593   4.243
    1C        C  260   4.468   3.801   4.362
    1C        C  261   4.486   3.735   4.486
    1C        C  262   4.425   3.938   4.605
    1C        C  263   4.475   3.806   4.608
    1C        C  264   4.395   4.008   4.724
    1C        C  265   4.429   3.942   4.844
    1C        C  266   4.312   4.127   4.957
    1C        C  267   4.389   4.012   4.958
    1C        C  268   4.261   2.775   2.061
    1C        C  269   4.195   2.731   2.177
    1C        C  270   4.341   2.890   2.296
    1C        C  271   4.248   2.782   2.297
    1C        C  272   4.384   2.951   2.416
    1C        C  273   4.344   2.893   2.538
    1C        C  274   4.445   3.083   2.659
    1C        C  275   4.376   2.960   2.658
    1C        C  276   4.475   3.149   2.781
    1C        C  277   4.443   3.087   2.904
    1C        C  278   4.508   3.292   3.024
    1C        C  279   4.470   3.156   3.024
    1C        C  280   4.512   3.365   3.145
    1C        C  281   4.494   3.298   3.268
    1C        C  282   4.517   3.510   3.390
    1C        C  283   4.511   3.369   3.390
    1C        C  284   4.513   3.581   3.512
    1C        C  285   4.516   3.512   3.635
    1C        C  286   4.487   3.722   3.753
    1C        C  287   4.517   3.584   3.757
    1C        C  288   4.470   3.794   3.873
    1C        C  289   4.491   3.728   3.996
    1C        C  290   4.423   3.932   4.116
    1C        C  291   4.470   3.799   4.117
    1C        C  292   4.391   3.999   4.237
    1C        C  293   4.417   3.933   4.359
    1C        C  294   4.325   4.123   4.478
    1C        C  295   4.394   4.000   4.481
    1C        C  296   4.283   4.186   4.598
    1C        C  297   4.330   4.134   4.721
    1C        C  298   4.204   4.317   4.839
    1C        C  299   4.286   4.199   4.839
    1C        C  300   4.172   4.402   4.950
    1C        C  301   4.351   2.881   2.060
    1C        C  302   4.462   3.072   2.177
    1C        C  303   4.389   2.949   2.176
    1C        C  304   4.482   3.143   2.299
    1C        C  305   4.454   3.073   2.418
    1C        C  306   4.508   3.284   2.538
    1C        C  307   4.477   3.146   2.537
    1C        C  308   4.513   3.356   2.659
    1C        C  309   4.502   3.287   2.782
    1C        C  310   4.522   3.502   2.897
    1C        C  311   4.518   3.361   2.902
    1C        C  312   4.515   3.573   3.019
    1C        C  313   4.519   3.506   3.144
    1C        C  314   4.486   3.716   3.263
    1C        C  315   4.513   3.577   3.265
    1C        C  316   4.472   3.786   3.385
    1C        C  317   4.493   3.721   3.508
    1C        C  318   4.418   3.921   3.629
    1C        C  319   4.468   3.789   3.630
    1C        C  320   4.390   3.989   3.749
    1C        C  321   4.421   3.927   3.872
    1C        C  322   4.313   4.111   3.990
    1C        C  323   4.391   3.993   3.993
    1C        C  324   4.274   4.173   4.111
    1C        C  325   4.319   4.120   4.234
    1C        C  326   4.183   4.281   4.355
    1C        C  327   4.284   4.181   4.356
    1C        C  328   4.133   4.333   4.476
    1C        C  329   4.187   4.289   4.599
    1C        C  330   4.026   4.436   4.716
    1C        C  331   4.140   4.350   4.717
    1C        C  332   3.972   4.491   4.835
    1C        C  333   4.052   4.474   4.948
    1C        C  334   4.553   3.268   2.061
    1C        C  335   4.530   3.130   2.065
    1C        C  336   4.539   3.350   2.174
    1C        C  337   4.520   3.280   2.295
    1C        C  338   4.523   3.495   2.409
    1C        C  339   4.524   3.353   2.416
    1C        C  340   4.526   3.568   2.529
    1C        C  341   4.522   3.497   2.651
    1C        C  342   4.492   3.708   2.772
    1C        C  343   4.516   3.569   2.772
    1C        C  344   4.475   3.780   2.892
    1C        C  345   4.485   3.711   3.015
    1C        C  346   4.416   3.910   3.137
    1C        C  347   4.468   3.779   3.138
    1C        C  348   4.388   3.977   3.258
    1C        C  349   4.424   3.919   3.382
    1C        C  350   4.313   4.099   3.501
    1C        C  351   4.391   3.981   3.504
    1C        C  352   4.273   4.163   3.620
    1C        C  353   4.318   4.110   3.743
    1C        C  354   4.175   4.266   3.864
    1C        C  355   4.271   4.164   3.866
    1C        C  356   4.121   4.314   3.986
    1C        C  357   4.176   4.275   4.109
    1C        C  358   4.018   4.414   4.231
    1C        C  359   4.129   4.325   4.233
    1C        C  360   3.957   4.454   4.352
    1C        C  361   4.018   4.415   4.473
    1C        C  362   3.833   4.521   4.593
    1C        C  363   3.962   4.464   4.593
    1C        C  364   3.767   4.559   4.713
    1C        C  365   3.842   4.546   4.832
    1C        C  366   3.631   4.591   4.950
    1C        C  367   3.769   4.569   4.949
    1C        C  368   4.516   3.565   2.052
    1C        C  369   4.529   3.490   2.170
    1C        C  370   4.498   3.707   2.288
    1C        C  371   4.517   3.567   2.288
    1C        C  372   4.485   3.779   2.409
    1C        C  373   4.505   3.708   2.530
    1C        C  374   4.425   3.908   2.647
    1C        C  375   4.480   3.778   2.650
    1C        C  376   4.393   3.974   2.768
    1C        C  377   4.427   3.913   2.891
    1C        C  378   4.314   4.092   3.014
    1C        C  379   4.391   3.974   3.013
    1C        C  380   4.270   4.154   3.134
    1C        C  381   4.309   4.094   3.256
    1C        C  382   4.172   4.256   3.375
    1C        C  383   4.268   4.153   3.378
    1C        C  384   4.118   4.305   3.497
    1C        C  385   4.174   4.264   3.620
    1C        C  386   4.009   4.398   3.741
    1C        C  387   4.125   4.316   3.741
    1C        C  388   3.953   4.436   3.865
    1C        C  389   4.011   4.402   3.989
    1C        C  390   3.819   4.494   4.109
    1C        C  391   3.952   4.445   4.110
    1C        C  392   3.754   4.524   4.231
    1C        C  393   3.827   4.509   4.351
    1C        C  394   3.621   4.559   4.474
    1C        C  395   3.760   4.532   4.473
    1C        C  396   3.549   4.568   4.595
    1C        C  397   3.626   4.568   4.713
    1C        C  398   3.414   4.559   4.839
    1C        C  399   3.554   4.576   4.834
    1C        C  400   3.342   4.527   4.955
    1C        C  401   4.493   3.703   2.050
    1C        C  402   4.453   3.916   2.167
    1C        C  403   4.487   3.779   2.167
    1C        C  404   4.412   3.978   2.287
    1C        C  405   4.438   3.912   2.408
    1C        C  406   4.322   4.097   2.527
    1C        C  407   4.397   3.977   2.527
    1C        C  408   4.273   4.149   2.648
    1C        C  409   4.317   4.092   2.770
    1C        C  410   4.173   4.249   2.889
    1C        C  411   4.273   4.149   2.892
    1C        C  412   4.119   4.298   3.010
    1C        C  413   4.169   4.252   3.134
    1C        C  414   4.001   4.385   3.250
    1C        C  415   4.116   4.303   3.254
    1C        C  416   3.941   4.417   3.374
    1C        C  417   4.003   4.386   3.497
    1C        C  418   3.813   4.479   3.619
    1C        C  419   3.944   4.426   3.619
    1C        C  420   3.752   4.510   3.743
    1C        C  421   3.822   4.490   3.864
    1C        C  422   3.614   4.538   3.985
    1C        C  423   3.752   4.507   3.985
    1C        C  424   3.544   4.549   4.107
    1C        C  425   3.615   4.547   4.230
    1C        C  426   3.407   4.544   4.356
    1C        C  427   3.547   4.558   4.353
    1C        C  428   3.336   4.541   4.479
    1C        C  429   3.409   4.555   4.600
    1C        C  430   3.198   4.515   4.722
    1C        C  431   3.338   4.542   4.721
    1C        C  432   3.127   4.492   4.843
    1C        C  433   3.207   4.491   4.958
    1C        C  434   4.380   4.124   2.050
    1C        C  435   4.445   4.000   2.055
    1C        C  436   4.298   4.160   2.162
    1C        C  437   4.330   4.095   2.284
    1C        C  438   4.179   4.250   2.401
    1C        C  439   4.282   4.153   2.404
    1C        C  440   4.124   4.298   2.522
    1C        C  441   4.174   4.250   2.645
    1C        C  442   4.003   4.377   2.762
    1C        C  443   4.118   4.295   2.767
    1C        C  444   3.942   4.411   2.884
    1C        C  445   4.003   4.379   3.007
    1C        C  446   3.814   4.481   3.129
    1C        C  447   3.941   4.420   3.127
    1C        C  448   3.747   4.506   3.251
    1C        C  449   3.813   4.478   3.373
    1C        C  450   3.611   4.533   3.496
    1C        C  451   3.749   4.504   3.496
    1C        C  452   3.544   4.544   3.620
    1C        C  453   3.613   4.538   3.743
    1C        C  454   3.400   4.545   3.864
    1C        C  455   3.541   4.548   3.865
    1C        C  456   3.334   4.532   3.988
    1C        C  457   3.403   4.539   4.111
    1C        C  458   3.198   4.497   4.239
    1C        C  459   3.335   4.531   4.235
    1C        C  460   3.129   4.481   4.361
    1C        C  461   3.198   4.513   4.481
    1C        C  462   2.999   4.434   4.605
    1C        C  463   3.129   4.490   4.602
    1C        C  464   2.931   4.402   4.725
    1C        C  465   2.994   4.440   4.847
    1C        C  466   2.800   4.343   4.961
    1C        C  467   2.910   4.429   4.962
    1C        C  468   4.121   4.288   2.040
    1C        C  469   4.189   4.252   2.157
    1C        C  470   4.010   4.374   2.280
    1C        C  471   4.127   4.294   2.278
    1C        C  472   3.942   4.405   2.400
    1C        C  473   4.006   4.375   2.522
    1C        C  474   3.810   4.469   2.643
    1C        C  475   3.939   4.410   2.641
    1C        C  476   3.743   4.497   2.765
    1C        C  477   3.813   4.471   2.885
    1C        C  478   3.608   4.527   3.009
    1C        C  479   3.746   4.499   3.006
    1C        C  480   3.538   4.543   3.131
    1C        C  481   3.609   4.535   3.252
    1C        C  482   3.398   4.541   3.377
    1C        C  483   3.539   4.543   3.375
    1C        C  484   3.329   4.532   3.500
    1C        C  485   3.403   4.544   3.620
    1C        C  486   3.194   4.501   3.745
    1C        C  487   3.331   4.537   3.741
    1C        C  488   3.131   4.478   3.869
    1C        C  489   3.197   4.499   3.992
    1C        C  490   3.006   4.414   4.115
    1C        C  491   3.131   4.480   4.116
    1C        C  492   2.947   4.379   4.239
    1C        C  493   3.001   4.421   4.362
    1C        C  494   2.835   4.294   4.485
    1C        C  495   2.939   4.390   4.485
    1C        C  496   2.780   4.251   4.608
    1C        C  497   2.821   4.313   4.728
    1C        C  498   2.669   4.164   4.846
    1C        C  499   2.752   4.278   4.846
    1C        C  500   2.598   4.119   4.958
    1C        C  501   4.003   4.362   2.041
    1C        C  502   3.813   4.463   2.154
    1C        C  503   3.942   4.406   2.160
    1C        C  504   3.746   4.484   2.276
    1C        C  505   3.812   4.461   2.398
    1C        C  506   3.606   4.515   2.521
    1C        C  507   3.744   4.486   2.520
    1C        C  508   3.533   4.520   2.642
    1C        C  509   3.604   4.522   2.764
    1C        C  510   3.395   4.524   2.887
    1C        C  511   3.536   4.531   2.887
    1C        C  512   3.325   4.516   3.010
    1C        C  513   3.396   4.537   3.130
    1C        C  514   3.194   4.490   3.255
    1C        C  515   3.330   4.528   3.254
    1C        C  516   3.128   4.462   3.377
    1C        C  517   3.194   4.489   3.499
    1C        C  518   3.006   4.401   3.627
    1C        C  519   3.129   4.470   3.623
    1C        C  520   2.950   4.362   3.751
    1C        C  521   3.009   4.406   3.872
    1C        C  522   2.838   4.282   3.997
    1C        C  523   2.949   4.369   3.994
    1C        C  524   2.787   4.237   4.121
    1C        C  525   2.841   4.286   4.242
    1C        C  526   2.700   4.129   4.366
    1C        C  527   2.786   4.241   4.364
    1C        C  528   2.650   4.078   4.488
    1C        C  529   2.688   4.144   4.607
    1C        C  530   2.581   3.961   4.731
    1C        C  531   2.647   4.087   4.729
    1C        C  532   2.542   3.903   4.855
    1C        C  533   2.527   3.999   4.960
    1C        C  534   3.617   4.559   2.041
    1C        C  535   3.750   4.516   2.040
    1C        C  536   3.535   4.530   2.154
    1C        C  537   3.606   4.510   2.276
    1C        C  538   3.396   4.512   2.399
    1C        C  539   3.536   4.523   2.398
    1C        C  540   3.324   4.510   2.521
    1C        C  541   3.392   4.518   2.644
    1C        C  542   3.184   4.481   2.765
    1C        C  543   3.322   4.510   2.767
    1C        C  544   3.120   4.460   2.889
    1C        C  545   3.188   4.482   3.011
    1C        C  546   2.999   4.399   3.136
    1C        C  547   3.123   4.465   3.135
    1C        C  548   2.941   4.359   3.259
    1C        C  549   3.002   4.399   3.380
    1C        C  550   2.836   4.274   3.505
    1C        C  551   2.945   4.363   3.505
    1C        C  552   2.783   4.230   3.629
    1C        C  553   2.838   4.277   3.751
    1C        C  554   2.703   4.118   3.878
    1C        C  555   2.790   4.230   3.875
    1C        C  556   2.664   4.062   4.001
    1C        C  557   2.698   4.127   4.122
    1C        C  558   2.600   3.941   4.248
    1C        C  559   2.663   4.067   4.245
    1C        C  560   2.568   3.880   4.371
    1C        C  561   2.586   3.952   4.491
    1C        C  562   2.528   3.749   4.616
    1C        C  563   2.556   3.887   4.614
    1C        C  564   2.514   3.681   4.740
    1C        C  565   2.517   3.762   4.857
    1C        C  566   2.534   3.550   4.980
    1C        C  567   2.526   3.689   4.976
    1C        C  568   3.327   4.460   2.043
    1C        C  569   3.395   4.507   2.156
    1C        C  570   3.183   4.475   2.279
    1C        C  571   3.322   4.507   2.279
    1C        C  572   3.114   4.460   2.401
    1C        C  573   3.187   4.478   2.521
    1C        C  574   2.990   4.397   2.649
    1C        C  575   3.118   4.458   2.643
    1C        C  576   2.928   4.360   2.770
    1C        C  577   2.993   4.398   2.890
    1C        C  578   2.831   4.267   3.016
    1C        C  579   2.938   4.359   3.015
    1C        C  580   2.786   4.214   3.139
    1C        C  581   2.835   4.266   3.261
    1C        C  582   2.693   4.113   3.387
    1C        C  583   2.782   4.224   3.385
    1C        C  584   2.657   4.057   3.512
    1C        C  585   2.695   4.120   3.632
    1C        C  586   2.589   3.939   3.757
    1C        C  587   2.659   4.062   3.756
    1C        C  588   2.567   3.875   3.881
    1C        C  589   2.601   3.935   4.004
    1C        C  590   2.534   3.737   4.129
    1C        C  591   2.575   3.872   4.127
    1C        C  592   2.523   3.672   4.254
    1C        C  593   2.527   3.745   4.375
    1C        C  594   2.511   3.534   4.500
    1C        C  595   2.513   3.675   4.497
    1C        C  596   2.515   3.465   4.623
    1C        C  597   2.517   3.539   4.743
    1C        C  598   2.537   3.329   4.867
    1C        C  599   2.524   3.470   4.866
    1C        C  600   2.531   3.249   4.982
    1C        C  601   3.193   4.431   2.041
    1C        C  602   2.982   4.391   2.159
    1C        C  603   3.117   4.441   2.158
    1C        C  604   2.928   4.354   2.285
    1C        C  605   2.989   4.395   2.406
    1C        C  606   2.824   4.263   2.530
    1C        C  607   2.928   4.358   2.528
    1C        C  608   2.774   4.215   2.653
    1C        C  609   2.822   4.267   2.776
    1C        C  610   2.683   4.107   2.896
    1C        C  611   2.773   4.216   2.898
    1C        C  612   2.646   4.053   3.021
    1C        C  613   2.690   4.111   3.142
    1C        C  614   2.586   3.929   3.267
    1C        C  615   2.652   4.053   3.266
    1C        C  616   2.562   3.866   3.392
    1C        C  617   2.595   3.930   3.513
    1C        C  618   2.528   3.733   3.638
    1C        C  619   2.562   3.870   3.637
    1C        C  620   2.517   3.667   3.762
    1C        C  621   2.524   3.740   3.883
    1C        C  622   2.509   3.530   4.010
    1C        C  623   2.511   3.671   4.006
    1C        C  624   2.511   3.459   4.132
    1C        C  625   2.512   3.531   4.254
    1C        C  626   2.539   3.324   4.381
    1C        C  627   2.514   3.462   4.378
    1C        C  628   2.556   3.255   4.503
    1C        C  629   2.532   3.325   4.624
    1C        C  630   2.593   3.121   4.747
    1C        C  631   2.553   3.257   4.746
    1C        C  632   2.612   3.049   4.868
    1C        C  633   2.557   3.112   4.985
    1C        C  634   2.779   4.310   2.055
    1C        C  635   2.889   4.396   2.051
    1C        C  636   2.749   4.232   2.168
    1C        C  637   2.809   4.276   2.288
    1C        C  638   2.678   4.109   2.408
    1C        C  639   2.762   4.223   2.410
    1C        C  640   2.644   4.047   2.530
    1C        C  641   2.687   4.104   2.652
    1C        C  642   2.585   3.919   2.777
    1C        C  643   2.648   4.045   2.774
    1C        C  644   2.559   3.856   2.902
    1C        C  645   2.585   3.925   3.023
    1C        C  646   2.520   3.726   3.149
    1C        C  647   2.557   3.862   3.146
    1C        C  648   2.502   3.659   3.272
    1C        C  649   2.522   3.731   3.392
    1C        C  650   2.507   3.522   3.519
    1C        C  651   2.510   3.663   3.516
    1C        C  652   2.513   3.455   3.643
    1C        C  653   2.510   3.525   3.765
    1C        C  654   2.531   3.317   3.893
    1C        C  655   2.513   3.457   3.889
    1C        C  656   2.549   3.249   4.015
    1C        C  657   2.531   3.319   4.137
    1C        C  658   2.600   3.119   4.260
    1C        C  659   2.551   3.252   4.260
    1C        C  660   2.636   3.058   4.382
    1C        C  661   2.602   3.122   4.503
    1C        C  662   2.716   2.945   4.628
    1C        C  663   2.631   3.058   4.626
    1C        C  664   2.743   2.875   4.747
    1C        C  665   2.690   2.930   4.867
    1C        C  666   2.742   2.874   4.985
    1C        C  667   2.679   4.021   2.054
    1C        C  668   2.686   4.105   2.166
    1C        C  669   2.586   3.916   2.291
    1C        C  670   2.645   4.045   2.287
    1C        C  671   2.555   3.851   2.413
    1C        C  672   2.579   3.922   2.532
    1C        C  673   2.515   3.720   2.658
    1C        C  674   2.555   3.855   2.655
    1C        C  675   2.501   3.651   2.781
    1C        C  676   2.519   3.721   2.902
    1C        C  677   2.503   3.514   3.029
    1C        C  678   2.514   3.655   3.027
    1C        C  679   2.500   3.446   3.153
    1C        C  680   2.494   3.518   3.274
    1C        C  681   2.530   3.311   3.401
    1C        C  682   2.508   3.450   3.398
    1C        C  683   2.551   3.248   3.526
    1C        C  684   2.533   3.315   3.649
    1C        C  685   2.603   3.117   3.772
    1C        C  686   2.545   3.246   3.772
    1C        C  687   2.638   3.057   3.895
    1C        C  688   2.607   3.121   4.017
    1C        C  689   2.713   2.937   4.141
    1C        C  690   2.635   3.055   4.139
    1C        C  691   2.763   2.887   4.263
    1C        C  692   2.715   2.941   4.385
    1C        C  693   2.756   2.883   4.507
    1C        C  694   2.623   3.892   2.053
    1C        C  695   2.523   3.707   2.174
    1C        C  696   2.576   3.838   2.173
    1C        C  697   2.503   3.639   2.296
    1C        C  698   2.519   3.714   2.415
    1C        C  699   2.489   3.506   2.541
    1C        C  700   2.507   3.646   2.538
    1C        C  701   2.495   3.437   2.664
    1C        C  702   2.496   3.510   2.785
    1C        C  703   2.527   3.302   2.913
    1C        C  704   2.503   3.441   2.909
    1C        C  705   2.547   3.236   3.036
    1C        C  706   2.529   3.308   3.156
    1C        C  707   2.598   3.110   3.280
    1C        C  708   2.545   3.241   3.279
    1C        C  709   2.638   3.053   3.404
    1C        C  710   2.608   3.118   3.525
    1C        C  711   2.713   2.937   3.650
    1C        C  712   2.637   3.057   3.649
    1C        C  713   2.757   2.883   3.773
    1C        C  714   2.719   2.941   3.896
    1C        C  715   2.757   2.882   4.018
    1C        C  716   2.450   3.500   2.060
    1C        C  717   2.493   3.633   2.059
    1C        C  718   2.466   3.425   2.180
    1C        C  719   2.480   3.499   2.300
    1C        C  720   2.514   3.290   2.425
    1C        C  721   2.486   3.429   2.423
    1C        C  722   2.538   3.227   2.549
    1C        C  723   2.520   3.299   2.670
    1C        C  724   2.594   3.099   2.792
    1C        C  725   2.541   3.230   2.791
    1C        C  726   2.622   3.036   2.915
    1C        C  727   2.594   3.103   3.037
    1C        C  728   2.712   2.928   3.158
    1C        C  729   2.627   3.042   3.160
    1C        C  730   2.757   2.877   3.282
    1C        C  731   2.716   2.935   3.404
    1C        C  732   2.761   2.885   3.528
    1C        C  733   2.492   3.198   2.073
    1C        C  734   2.488   3.283   2.184
    1C        C  735   2.573   3.084   2.309
    1C        C  736   2.526   3.218   2.305
    1C        C  737   2.615   3.023   2.430
    1C        C  738   2.589   3.095   2.549
    1C        C  739   2.695   2.911   2.669
    1C        C  740   2.621   3.031   2.671
    1C        C  741   2.741   2.859   2.792
    1C        C  742   2.701   2.919   2.913
    1C        C  743   2.755   2.874   3.036
    1C        C  744   2.546   3.069   2.074
    1C        C  745   2.677   2.895   2.189
    1C        C  746   2.596   3.010   2.191
    1C        C  747   2.728   2.839   2.309
    1C        C  748   2.690   2.903   2.429
    1C        C  749   2.738   2.849   2.550
    1C        C  750   2.731   2.838   2.073
    1C        C  751   3.672   2.325   1.979
    1C        O  752   3.669   2.201   2.004
    1C        O  753   3.683   2.355   1.842
    1C        C  754   4.626   3.050   1.985
    1C        O  755   4.610   3.040   1.861
    1C        O  756   4.756   3.009   2.017
    1C        C  757   4.459   4.230   1.984
    1C        O  758   4.553   4.278   2.053
    1C        O  759   4.482   4.232   1.846
    1C        C  760   3.595   4.675   1.951
    1C        O  761   3.662   4.780   1.969
    1C        O  762   3.597   4.659   1.812
    1C        C  763   2.880   4.513   1.961
    1C        O  764   2.926   4.517   1.844
    1C        O  765   2.809   4.632   1.982
    1C        C  766   2.345   3.464   1.961
    1C        O  767   2.379   3.422   1.847
    1C        O  768   2.230   3.543   1.955
    1C        C  769   4.680   3.583   5.067
    1C        O  770   4.649   3.624   5.182
    1C        O  771   4.818   3.583   5.044
    1C        C  772   4.266   4.435   5.060
    1C        O  773   4.233   4.455   5.180
    1C        O  774   4.347   4.545   5.031
    1C        C  775   4.144   2.521   5.070
    1C        O  776   4.202   2.416   5.032
    1C        O  777   4.112   2.515   5.206
    1C        C  778   2.900   4.537   5.063
    1C        O  779   2.884   4.660   5.039
    1C        O  780   2.959   4.524   5.190
    1C        C  781   2.460   3.041   5.071
    1C        O  782   2.340   3.019   5.041
    1C        O  783   2.476   3.029   5.209
    1C        C  784   2.412   3.987   5.053
    1C        O  785   2.292   3.978   5.018
    1C        O  786   2.416   4.031   5.186
    1C        C  787   2.946   2.421   2.006
    1C        O  788   2.913   2.447   1.887
    1C        O  789   2.860   2.333   2.072
    1C        C  790   3.190   2.388   5.084
    1C        O  791   3.139   2.273   5.083
    1C        O  792   3.223   2.406   5.219
    1C        H  793   4.329   2.993   5.068
    1C        H  794   4.143   2.833   5.050
    1C        H  795   4.493   3.121   5.058
    1C        H  796   4.551   3.361   5.062
    1C        H  797   4.628   3.815   5.004
    1C        H  798   4.393   3.964   5.054
    1C        H  799   4.261   4.153   5.047
    1C        H  800   4.027   4.525   5.039
    1C        H  801   3.823   4.623   5.024
    1C        H  802   3.586   4.623   5.041
    1C        H  803   3.390   4.539   5.050
    1C        H  804   3.178   4.432   5.042
    1C        H  805   3.879   2.520   5.076
    1C        H  806   3.680   2.468   5.071
    1C        H  807   2.997   2.546   5.061
    1C        H  808   3.447   2.424   5.064
    1C        H  809   2.880   2.756   5.081
    1C        H  810   2.705   2.914   5.077
    1C        H  811   2.534   3.300   5.076
    1C        H  812   2.591   3.513   5.062
    1C        H  813   2.483   3.731   5.065
    1C        H  814   2.556   4.193   5.023
    1C        H  815   2.761   4.317   5.057
    1C        H  816   2.718   2.886   1.978
    1C        H  817   2.792   2.660   1.996
    1C        H  818   3.200   2.395   2.004
    1C        H  819   3.437   2.500   1.992
    1C        H  820   3.828   2.576   1.986
    1C        H  821   4.075   2.603   1.971
    1C        H  822   4.267   2.713   1.974
    1C        H  823   4.427   2.878   1.984
    1C        H  824   4.542   3.313   1.965
    1C        H  825   4.549   3.518   1.962
    1C        H  826   4.449   3.740   1.960
    1C        H  827   3.812   4.540   1.956
    1C        H  828   3.945   4.369   1.952
    1C        H  829   4.172   4.284   1.946
    1C        H  830   4.504   3.977   1.968
    1C        H  831   2.576   3.865   1.961
    1C        H  832   2.723   4.045   1.959
    1C        H  833   2.698   4.325   1.987
    1C        H  834   3.384   4.435   1.955
    1C        H  835   3.152   4.415   1.943
    1C        H  836   2.540   3.015   1.982
    1C        H  837   2.437   3.233   1.989
    1C        H  838   2.472   3.686   1.968
    2V3OU   H29  839   2.808   3.545   1.714
    2V3OU   C27  840   2.785   3.500   1.814
    2V3OU   H27  841   2.727   3.570   1.878
    2V3OU   H28  842   2.730   3.402   1.805
    2V3OU   O11  843   2.909   3.474   1.880
    2V3OU   C15  844   2.924   3.402   1.997
    2V3OU   C13  845   3.050   3.372   2.054
    2V3OU   C14  846   3.076   3.268   2.144
    2V3OU   C16  847   2.970   3.192   2.193
    2V3OU    H6  848   2.993   3.105   2.257
    2V3OU   C12  849   3.211   3.227   2.189
    2V3OU    O2  850   3.240   3.120   2.247
    2V3OU   C10  851   3.324   3.311   2.145
    2V3OU    C8  852   3.456   3.274   2.167
    2V3OU   O10  853   3.489   3.153   2.220
    2V3OU   H26  854   3.402   3.114   2.233
    2V3OU    C6  855   3.567   3.356   2.129
    2V3OU    C5  856   3.537   3.474   2.063
    2V3OU    C4  857   3.703   3.296   2.125
    2V3OU    H4  858   3.726   3.229   2.214
    2V3OU    H5  859   3.711   3.231   2.033
    2V3OU    C2  860   3.816   3.399   2.122
    2V3OU    O6  861   3.807   3.476   2.242
    2V3OU   H21  862   3.754   3.552   2.215
    2V3OU    C3  863   3.781   3.499   2.012
    2V3OU    H2  864   3.858   3.579   2.001
    2V3OU    H3  865   3.778   3.437   1.918
    2V3OU   C25  866   3.948   3.322   2.110
    2V3OU    O7  867   4.000   3.295   2.002
    2V3OU   C26  868   4.032   3.290   2.232
    2V3OU   H22  869   4.069   3.390   2.268
    2V3OU   H23  870   4.121   3.229   2.202
    2V3OU    O8  871   3.962   3.209   2.323
    2V3OU   H24  872   3.924   3.268   2.390
    2V3OU    C1  873   3.647   3.569   2.026
    2V3OU    H1  874   3.622   3.620   1.928
    2V3OU    O3  875   3.649   3.658   2.138
    2V3OU   C19  876   3.611   3.794   2.116
    2V3OU    H9  877   3.516   3.809   2.058
    2V3OU    O4  878   3.716   3.846   2.037
    2V3OU   C20  879   3.844   3.871   2.095
    2V3OU   H10  880   3.897   3.772   2.113
    2V3OU   C24  881   3.611   3.855   2.256
    2V3OU   H16  882   3.540   3.796   2.321
    2V3OU   H17  883   3.567   3.956   2.234
    2V3OU   C23  884   3.747   3.873   2.324
    2V3OU   H15  885   3.794   3.771   2.344
    2V3OU    N1  886   3.735   3.955   2.443
    2V3OU   H19  887   3.803   3.925   2.510
    2V3OU   H20  888   3.648   3.929   2.486
    2V3OU   C21  889   3.849   3.944   2.230
    2V3OU   H11  890   3.953   3.919   2.266
    2V3OU    O5  891   3.829   4.084   2.237
    2V3OU   H18  892   3.777   4.103   2.317
    2V3OU   C22  893   3.916   3.947   1.985
    2V3OU   H12  894   3.865   4.045   1.971
    2V3OU   H13  895   3.907   3.892   1.888
    2V3OU   H14  896   4.025   3.959   2.011
    2V3OU   C11  897   3.158   3.470   2.033
    2V3OU    O1  898   3.136   3.584   1.987
    2V3OU    C9  899   3.295   3.425   2.066
    2V3OU    C7  900   3.403   3.502   2.022
    2V3OU    O9  901   3.388   3.620   1.953
    2V3OU   H25  902   3.292   3.635   1.941
    2V3OU   C17  903   2.821   3.320   2.045
    2V3OU    H7  904   2.720   3.340   2.008
    2V3OU   C18  905   2.846   3.219   2.138
    2V3OU    H8  906   2.763   3.159   2.179
    3SOL     OW  907   2.663   4.429   0.773
    3SOL    HW1  908   2.684   4.358   0.706
    3SOL    HW2  909   2.669   4.391   0.865
    4SOL     OW  910   6.453   5.600   1.999
    4SOL    HW1  911   6.383   5.540   1.961
    4SOL    HW2  912   6.497   5.555   2.077
    5SOL     OW  913   3.562   0.929   2.872
    5SOL    HW1  914   3.512   0.921   2.958
    5SOL    HW2  915   3.631   1.000   2.879
    6SOL     OW  916   4.423   1.481   1.915
    6SOL    HW1  917   4.367   1.463   1.996
    6SOL    HW2  918   4.374   1.544   1.854
    7SOL     OW  919   6.319   3.406   2.167
    7SOL    HW1  920   6.363   3.347   2.235
    7SOL    HW2  921   6.236   3.446   2.206
    8SOL     OW  922   2.554   0.005   5.018
    8SOL    HW1  923   2.517   0.098   5.015
    8SOL    HW2  924   2.578   7.006   5.112
    9SOL     OW  925   1.002   5.401   5.895
    9SOL    HW1  926   0.963   5.485   5.931
    9SOL    HW2  927   1.070   5.365   5.959
   10SOL     OW  928   1.297   4.713   5.714
   10SOL    HW1  929   1.277   4.674   5.624
   10SOL    HW2  930   1.273   4.810   5.715
   11SOL     OW  931   2.642   0.176   0.240
   11SOL    HW1  932   2.662   0.244   0.311
   11SOL    HW2  933   2.563   0.121   0.268
   12SOL     OW  934   3.994   6.097   4.539
   12SOL    HW1  935   3.987   6.160   4.617
   12SOL    HW2  936   3.956   6.008   4.566
   13SOL     OW  937   3.398   5.963   4.093
   13SOL    HW1  938   3.453   6.033   4.138
   13SOL    HW2  939   3.348   5.911   4.163
   14SOL     OW  940   4.887   5.550   6.519
   14SOL    HW1  941   4.815   5.522   6.583
   14SOL    HW2  942   4.847   5.563   6.429
   15SOL     OW  943   1.386   5.184   0.906
   15SOL    HW1  944   1.313   5.237   0.948
   15SOL    HW2  945   1.474   5.226   0.928
   16SOL     OW  946   5.826   2.615   5.565
   16SOL    HW1  947   5.873   2.606   5.653
   16SOL    HW2  948   5.893   2.625   5.492
   17SOL     OW  949   5.941   6.436   4.889
   17SOL    HW1  950   6.005   6.441   4.966
   17SOL    HW2  951   5.850   6.464   4.920
   18SOL     OW  952   2.932   1.026   6.799
   18SOL    HW1  953   3.021   1.031   6.754
   18SOL    HW2  954   2.932   0.953   6.867
   19SOL     OW  955   0.529   0.280   3.253
   19SOL    HW1  956   0.488   0.189   3.251
   19SOL    HW2  957   0.583   0.294   3.170
   20SOL     OW  958   3.992   1.816   3.753
   20SOL    HW1  959   4.084   1.855   3.761
   20SOL    HW2  960   3.983   1.740   3.817
   21SOL     OW  961   3.087   2.125   2.078
   21SOL    HW1  962   2.995   2.165   2.068
   21SOL    HW2  963   3.080   2.040   2.130
   22SOL     OW  964   2.198   0.396   0.496
   22SOL    HW1  965   2.238   0.488   0.491
   22SOL    HW2  966   2.266   0.328   0.468
   23SOL     OW  967   4.417   6.706   3.285
   23SOL    HW1  968   4.378   6.639   3.348
   23SOL    HW2  969   4.497   6.749   3.327
   24SOL     OW  970   4.934   1.522   3.649
   24SOL    HW1  971   4.894   1.549   3.736
   24SOL    HW2  972   4.963   1.604   3.599
   25SOL     OW  973   3.202   6.249   5.688
   25SOL    HW1  974   3.103   6.242   5.694
   25SOL    HW2  975   3.242   6.157   5.690
   26SOL     OW  976   6.329   1.382   0.839
   26SOL    HW1  977   6.277   1.465   0.820
   26SOL    HW2  978   6.351   1.377   0.936
   27SOL     OW  979   0.347   1.518   1.728
   27SOL    HW1  980   0.326   1.555   1.637
   27SOL    HW2  981   0.391   1.588   1.783
   28SOL     OW  982   3.723   0.939   6.784
   28SOL    HW1  983   3.659   0.977   6.717
   28SOL    HW2  984   3.683   0.945   6.875
   29SOL     OW  985   5.682   2.595   2.031
   29SOL    HW1  986   5.716   2.524   2.092
   29SOL    HW2  987   5.724   2.683   2.055
   30SOL     OW  988   4.291   0.100   5.476
   30SOL    HW1  989   4.252   0.025   5.529
   30SOL    HW2  990   4.363   0.064   5.416
   31SOL     OW  991   0.700   2.163   5.863
   31SOL    HW1  992   0.738   2.250   5.897
   31SOL    HW2  993   0.771   2.113   5.814
   32SOL     OW  994   0.313   1.191   3.018
   32SOL    HW1  995   0.225   1.202   3.065
   32SOL    HW2  996   0.345   1.280   2.987
   33SOL     OW  997   2.469   3.528   0.166
   33SOL    HW1  998   2.372   3.546   0.151
   33SOL    HW2  999   2.498   3.451   0.109
   34SOL     OW 1000   2.164   1.169   3.652
   34SOL    HW1 1001   2.260   1.146   3.668
   34SOL    HW2 1002   2.106   1.100   3.695
   35SOL     OW 1003   3.792   1.761   6.835
   35SOL    HW1 1004   3.816   1.667   6.809
   35SOL    HW2 1005   3.762   1.811   6.754
   36SOL     OW 1006   0.428   0.869   6.437
   36SOL    HW1 1007   0.465   0.938   6.375
   36SOL    HW2 1008   0.378   0.800   6.384
   37SOL     OW 1009   1.696   1.101   7.013
   37SOL    HW1 1010   1.741   1.012   7.013
   37SOL    HW2 1011   1.634   1.107   0.067
   38SOL     OW 1012   0.449   5.144   2.630
   38SOL    HW1 1013   0.435   5.212   2.558
   38SOL    HW2 1014   0.456   5.053   2.588
   39SOL     OW 1015   6.176   4.583   6.749
   39SOL    HW1 1016   6.216   4.541   6.668
   39SOL    HW2 1017   6.250   4.610   6.812
   40SOL     OW 1018   5.905   2.504   1.223
   40SOL    HW1 1019   5.820   2.456   1.243
   40SOL    HW2 1020   5.885   2.590   1.175
   41SOL     OW 1021   0.559   6.609   4.223
   41SOL    HW1 1022   0.642   6.589   4.275
   41SOL    HW2 1023   0.537   6.532   4.165
   42SOL     OW 1024   2.850   6.189   6.265
   42SOL    HW1 1025   2.764   6.209   6.218
   42SOL    HW2 1026   2.830   6.149   6.355
   43SOL     OW 1027   5.941   6.443   5.701
   43SOL    HW1 1028   5.947   6.350   5.664
   43SOL    HW2 1029   6.026   6.492   5.682
   44SOL     OW 1030   6.071   2.515   6.148
   44SOL    HW1 1031   6.026   2.596   6.109
   44SOL    HW2 1032   6.153   2.543   6.197
   45SOL     OW 1033   3.157   0.184   3.268
   45SOL    HW1 1034   3.203   0.099   3.242
   45SOL    HW2 1035   3.158   0.193   3.368
   46SOL     OW 1036   1.270   3.305   4.456
   46SOL    HW1 1037   1.300   3.401   4.458
   46SOL    HW2 1038   1.187   3.295   4.511
   47SOL     OW 1039   5.312   4.176   2.930
   47SOL    HW1 1040   5.253   4.256   2.923
   47SOL    HW2 1041   5.296   4.115   2.852
   48SOL     OW 1042   0.213   2.957   5.375
   48SOL    HW1 1043   0.144   2.919   5.314
   48SOL    HW2 1044   0.275   2.884   5.405
   49SOL     OW 1045   4.442   4.068   1.652
   49SOL    HW1 1046   4.466   4.123   1.731
   49SOL    HW2 1047   4.505   4.087   1.577
   50SOL     OW 1048   6.546   2.961   5.765
   50SOL    HW1 1049   6.505   2.999   5.847
   50SOL    HW2 1050   6.474   2.931   5.702
   51SOL     OW 1051   3.231   6.149   3.281
   51SOL    HW1 1052   3.141   6.123   3.245
   51SOL    HW2 1053   3.242   6.248   3.276
   52SOL     OW 1054   5.299   2.863   3.501
   52SOL    HW1 1055   5.365   2.807   3.450
   52SOL    HW2 1056   5.208   2.822   3.491
   53SOL     OW 1057   4.457   0.381   4.685
   53SOL    HW1 1058   4.455   0.455   4.617
   53SOL    HW2 1059   4.376   0.324   4.673
   54SOL     OW 1060   4.112   4.963   0.691
   54SOL    HW1 1061   4.076   4.875   0.663
   54SOL    HW2 1062   4.053   5.003   0.761
   55SOL     OW 1063   3.493   1.240   6.164
   55SOL    HW1 1064   3.551   1.316   6.192
   55SOL    HW2 1065   3.526   1.203   6.077
   56SOL     OW 1066   1.130   0.597   1.579
   56SOL    HW1 1067   1.115   0.515   1.635
   56SOL    HW2 1068   1.068   0.669   1.609
   57SOL     OW 1069   5.404   0.754   1.047
   57SOL    HW1 1070   5.471   0.821   1.014
   57SOL    HW2 1071   5.430   0.663   1.016
   58SOL     OW 1072   6.739   6.516   5.281
   58SOL    HW1 1073   6.710   6.421   5.271
   58SOL    HW2 1074   6.733   6.542   5.377
   59SOL     OW 1075   1.918   1.367   5.690
   59SOL    HW1 1076   1.996   1.367   5.752
   59SOL    HW2 1077   1.834   1.381   5.742
   60SOL     OW 1078   6.038   1.083   6.020
   60SOL    HW1 1079   5.995   1.001   6.058
   60SOL    HW2 1080   6.024   1.085   5.921
   61SOL     OW 1081   5.041   1.588   4.372
   61SOL    HW1 1082   4.947   1.615   4.352
   61SOL    HW2 1083   5.094   1.669   4.398
   62SOL     OW 1084   0.534   0.533   3.502
   62SOL    HW1 1085   0.574   0.611   3.550
   62SOL    HW2 1086   0.542   0.547   3.403
   63SOL     OW 1087   6.617   1.249   3.773
   63SOL    HW1 1088   6.537   1.278   3.825
   63SOL    HW2 1089   6.613   1.289   3.682
   64SOL     OW 1090   0.250   3.801   6.490
   64SOL    HW1 1091   0.302   3.885   6.501
   64SOL    HW2 1092   0.310   3.728   6.458
   65SOL     OW 1093   6.728   4.649   5.344
   65SOL    HW1 1094   6.808   4.608   5.300
   65SOL    HW2 1095   6.678   4.579   5.395
   66SOL     OW 1096   3.604   0.406   6.468
   66SOL    HW1 1097   3.567   0.464   6.540
   66SOL    HW2 1098   3.693   0.371   6.496
   67SOL     OW 1099   5.478   4.814   5.355
   67SOL    HW1 1100   5.490   4.834   5.257
   67SOL    HW2 1101   5.568   4.811   5.399
   68SOL     OW 1102   5.652   0.645   6.558
   68SOL    HW1 1103   5.737   0.591   6.568
   68SOL    HW2 1104   5.675   0.741   6.544
   69SOL     OW 1105   1.560   3.718   6.844
   69SOL    HW1 1106   1.527   3.812   6.841
   69SOL    HW2 1107   1.619   3.706   6.925
   70SOL     OW 1108   6.625   4.649   3.669
   70SOL    HW1 1109   6.564   4.719   3.706
   70SOL    HW2 1110   6.719   4.683   3.669
   71SOL     OW 1111   3.998   1.905   2.782
   71SOL    HW1 1112   3.917   1.962   2.765
   71SOL    HW2 1113   4.052   1.900   2.698
   72SOL     OW 1114   2.897   5.892   4.584
   72SOL    HW1 1115   2.945   5.805   4.585
   72SOL    HW2 1116   2.954   5.962   4.627
   73SOL     OW 1117   3.499   1.853   0.691
   73SOL    HW1 1118   3.523   1.885   0.783
   73SOL    HW2 1119   3.447   1.768   0.697
   74SOL     OW 1120   5.349   6.281   6.197
   74SOL    HW1 1121   5.426   6.231   6.158
   74SOL    HW2 1122   5.304   6.333   6.124
   75SOL     OW 1123   3.572   6.901   6.396
   75SOL    HW1 1124   3.513   6.864   6.325
   75SOL    HW2 1125   3.667   6.877   6.376
   76SOL     OW 1126   2.035   2.707   1.420
   76SOL    HW1 1127   2.028   2.797   1.463
   76SOL    HW2 1128   1.945   2.663   1.419
   77SOL     OW 1129   5.138   6.432   4.336
   77SOL    HW1 1130   5.075   6.413   4.261
   77SOL    HW2 1131   5.088   6.476   4.411
   78SOL     OW 1132   5.838   0.519   5.535
   78SOL    HW1 1133   5.888   0.591   5.583
   78SOL    HW2 1134   5.875   0.508   5.443
   79SOL     OW 1135   3.410   0.397   0.511
   79SOL    HW1 1136   3.508   0.395   0.491
   79SOL    HW2 1137   3.393   0.464   0.584
   80SOL     OW 1138   5.376   1.576   4.687
   80SOL    HW1 1139   5.287   1.620   4.689
   80SOL    HW2 1140   5.365   1.478   4.671
   81SOL     OW 1141   2.143   0.091   2.877
   81SOL    HW1 1142   2.123   0.126   2.968
   81SOL    HW2 1143   2.241   0.070   2.871
   82SOL     OW 1144   6.576   5.628   0.504
   82SOL    HW1 1145   6.528   5.690   0.567
   82SOL    HW2 1146   6.646   5.577   0.554
   83SOL     OW 1147   6.297   0.734   0.593
   83SOL    HW1 1148   6.382   0.776   0.625
   83SOL    HW2 1149   6.232   0.806   0.569
   84SOL     OW 1150   4.947   3.223   3.569
   84SOL    HW1 1151   4.945   3.215   3.469
   84SOL    HW2 1152   5.000   3.147   3.607
   85SOL     OW 1153   1.605   2.107   5.293
   85SOL    HW1 1154   1.545   2.054   5.233
   85SOL    HW2 1155   1.653   2.177   5.241
   86SOL     OW 1156   0.652   0.563   5.770
   86SOL    HW1 1157   0.715   0.640   5.762
   86SOL    HW2 1158   0.646   0.534   5.866
   87SOL     OW 1159   5.004   3.504   0.431
   87SOL    HW1 1160   5.087   3.552   0.461
   87SOL    HW2 1161   4.995   3.419   0.483
   88SOL     OW 1162   4.081   1.965   6.423
   88SOL    HW1 1163   4.089   1.981   6.521
   88SOL    HW2 1164   4.171   1.977   6.380
   89SOL     OW 1165   1.147   3.032   6.424
   89SOL    HW1 1166   1.094   3.060   6.343
   89SOL    HW2 1167   1.241   3.011   6.397
   90SOL     OW 1168   4.247   6.101   3.939
   90SOL    HW1 1169   4.162   6.053   3.916
   90SOL    HW2 1170   4.289   6.138   3.857
   91SOL     OW 1171   4.758   4.128   4.229
   91SOL    HW1 1172   4.849   4.141   4.268
   91SOL    HW2 1173   4.699   4.085   4.297
   92SOL     OW 1174   3.061   4.152   0.725
   92SOL    HW1 1175   3.147   4.165   0.675
   92SOL    HW2 1176   3.011   4.075   0.686
   93SOL     OW 1177   2.258   4.297   6.963
   93SOL    HW1 1178   2.161   4.287   6.983
   93SOL    HW2 1179   2.275   4.271   6.868
   94SOL     OW 1180   2.605   6.251   6.134
   94SOL    HW1 1181   2.561   6.260   6.223
   94SOL    HW2 1182   2.535   6.242   6.063
   95SOL     OW 1183   0.644   1.230   2.858
   95SOL    HW1 1184   0.554   1.190   2.876
   95SOL    HW2 1185   0.675   1.280   2.939
   96SOL     OW 1186   3.119   7.000   5.361
   96SOL    HW1 1187   3.143   0.017   5.449
   96SOL    HW2 1188   3.025   6.967   5.365
   97SOL     OW 1189   0.953   3.587   5.588
   97SOL    HW1 1190   0.945   3.595   5.687
   97SOL    HW2 1191   1.008   3.506   5.565
   98SOL     OW 1192   6.524   3.900   0.229
   98SOL    HW1 1193   6.502   3.998   0.229
   98SOL    HW2 1194   6.450   3.849   0.186
   99SOL     OW 1195   4.349   3.977   0.871
   99SOL    HW1 1196   4.326   3.881   0.887
   99SOL    HW2 1197   4.419   4.006   0.936
  100SOL     OW 1198   0.302   0.199   5.815
  100SOL    HW1 1199   0.308   0.274   5.749
  100SOL    HW2 1200   0.340   0.228   5.902
  101SOL     OW 1201   1.481   5.730   2.824
  101SOL    HW1 1202   1.503   5.809   2.767
  101SOL    HW2 1203   1.549   5.659   2.811
  102SOL     OW 1204   4.364   0.688   2.434
  102SOL    HW1 1205   4.327   0.771   2.392
  102SOL    HW2 1206   4.296   0.647   2.494
  103SOL     OW 1207   3.419   0.915   2.424
  103SOL    HW1 1208   3.358   0.836   2.419
  103SOL    HW2 1209   3.486   0.910   2.350
  104SOL     OW 1210   6.981   5.224   2.429
  104SOL    HW1 1211   6.941   5.313   2.449
  104SOL    HW2 1212   6.908   5.156   2.418
  105SOL     OW 1213   6.433   2.200   6.397
  105SOL    HW1 1214   6.333   2.202   6.401
  105SOL    HW2 1215   6.471   2.275   6.451
  106SOL     OW 1216   3.477   6.394   4.642
  106SOL    HW1 1217   3.557   6.335   4.636
  106SOL    HW2 1218   3.407   6.362   4.579
  107SOL     OW 1219   1.453   2.221   1.848
  107SOL    HW1 1220   1.553   2.220   1.853
  107SOL    HW2 1221   1.424   2.290   1.781
  108SOL     OW 1222   3.642   5.367   6.027
  108SOL    HW1 1223   3.736   5.349   5.997
  108SOL    HW2 1224   3.591   5.411   5.953
  109SOL     OW 1225   0.852   1.220   1.604
  109SOL    HW1 1226   0.888   1.282   1.534
  109SOL    HW2 1227   0.752   1.218   1.598
  110SOL     OW 1228   3.889   6.498   5.320
  110SOL    HW1 1229   3.880   6.473   5.224
  110SOL    HW2 1230   3.912   6.416   5.373
  111SOL     OW 1231   3.130   0.481   5.094
  111SOL    HW1 1232   3.220   0.508   5.060
  111SOL    HW2 1233   3.129   0.483   5.194
  112SOL     OW 1234   6.082   6.363   6.193
  112SOL    HW1 1235   6.027   6.280   6.185
  112SOL    HW2 1236   6.176   6.344   6.166
  113SOL     OW 1237   6.609   4.883   3.402
  113SOL    HW1 1238   6.647   4.792   3.387
  113SOL    HW2 1239   6.606   4.933   3.315
  114SOL     OW 1240   1.084   0.361   1.701
  114SOL    HW1 1241   1.062   0.264   1.694
  114SOL    HW2 1242   1.049   0.397   1.787
  115SOL     OW 1243   3.469   1.583   3.531
  115SOL    HW1 1244   3.502   1.607   3.623
  115SOL    HW2 1245   3.374   1.552   3.537
  116SOL     OW 1246   6.015   5.211   2.105
  116SOL    HW1 1247   6.020   5.298   2.155
  116SOL    HW2 1248   6.083   5.148   2.141
  117SOL     OW 1249   1.300   1.446   6.490
  117SOL    HW1 1250   1.393   1.436   6.454
  117SOL    HW2 1251   1.261   1.356   6.506
  118SOL     OW 1252   1.592   1.757   2.802
  118SOL    HW1 1253   1.493   1.766   2.790
  118SOL    HW2 1254   1.611   1.718   2.892
  119SOL     OW 1255   1.210   1.836   6.219
  119SOL    HW1 1256   1.238   1.822   6.314
  119SOL    HW2 1257   1.241   1.759   6.164
  120SOL     OW 1258   6.021   6.860   0.535
  120SOL    HW1 1259   5.951   6.904   0.591
  120SOL    HW2 1260   6.023   6.903   0.444
  121SOL     OW 1261   2.251   3.930   6.894
  121SOL    HW1 1262   2.327   3.931   6.828
  121SOL    HW2 1263   2.280   3.882   6.977
  122SOL     OW 1264   1.637   4.740   0.050
  122SOL    HW1 1265   1.718   4.712   7.022
  122SOL    HW2 1266   1.557   4.738   7.015
  123SOL     OW 1267   0.392   2.123   1.467
  123SOL    HW1 1268   0.369   2.211   1.510
  123SOL    HW2 1269   0.473   2.085   1.511
  124SOL     OW 1270   5.274   3.270   0.340
  124SOL    HW1 1271   5.364   3.313   0.345
  124SOL    HW2 1272   5.232   3.270   0.431
  125SOL     OW 1273   2.728   1.640   2.131
  125SOL    HW1 1274   2.634   1.605   2.139
  125SOL    HW2 1275   2.726   1.733   2.096
  126SOL     OW 1276   2.765   4.016   1.069
  126SOL    HW1 1277   2.818   4.098   1.090
  126SOL    HW2 1278   2.669   4.030   1.095
  127SOL     OW 1279   0.124   5.666   6.024
  127SOL    HW1 1280   0.189   5.591   6.016
  127SOL    HW2 1281   0.051   5.642   6.087
  128SOL     OW 1282   4.664   2.447   1.545
  128SOL    HW1 1283   4.661   2.421   1.448
  128SOL    HW2 1284   4.619   2.377   1.600
  129SOL     OW 1285   3.593   3.096   5.973
  129SOL    HW1 1286   3.529   3.162   6.012
  129SOL    HW2 1287   3.545   3.039   5.906
  130SOL     OW 1288   0.444   1.249   4.457
  130SOL    HW1 1289   0.439   1.335   4.509
  130SOL    HW2 1290   0.397   1.177   4.508
  131SOL     OW 1291   5.264   1.597   2.567
  131SOL    HW1 1292   5.202   1.546   2.627
  131SOL    HW2 1293   5.268   1.692   2.597
  132SOL     OW 1294   2.449   2.888   0.613
  132SOL    HW1 1295   2.501   2.935   0.542
  132SOL    HW2 1296   2.512   2.848   0.680
  133SOL     OW 1297   4.496   6.778   3.812
  133SOL    HW1 1298   4.532   6.860   3.856
  133SOL    HW2 1299   4.398   6.769   3.834
  134SOL     OW 1300   5.966   1.411   2.430
  134SOL    HW1 1301   6.028   1.415   2.509
  134SOL    HW2 1302   5.872   1.402   2.462
  135SOL     OW 1303   5.562   3.144   2.300
  135SOL    HW1 1304   5.612   3.181   2.222
  135SOL    HW2 1305   5.541   3.217   2.364
  136SOL     OW 1306   3.359   3.707   6.362
  136SOL    HW1 1307   3.359   3.608   6.379
  136SOL    HW2 1308   3.448   3.734   6.325
  137SOL     OW 1309   5.346   0.886   4.849
  137SOL    HW1 1310   5.303   0.976   4.856
  137SOL    HW2 1311   5.423   0.890   4.786
  138SOL     OW 1312   0.624   4.431   3.381
  138SOL    HW1 1313   0.556   4.487   3.333
  138SOL    HW2 1314   0.593   4.336   3.384
  139SOL     OW 1315   2.864   6.567   4.873
  139SOL    HW1 1316   2.958   6.535   4.876
  139SOL    HW2 1317   2.857   6.655   4.921
  140SOL     OW 1318   0.402   5.656   3.363
  140SOL    HW1 1319   0.478   5.620   3.417
  140SOL    HW2 1320   0.354   5.726   3.414
  141SOL     OW 1321   5.845   3.402   5.109
  141SOL    HW1 1322   5.916   3.378   5.043
  141SOL    HW2 1323   5.886   3.446   5.189
  142SOL     OW 1324   1.855   4.648   0.646
  142SOL    HW1 1325   1.882   4.745   0.641
  142SOL    HW2 1326   1.913   4.595   0.584
  143SOL     OW 1327   5.673   4.276   1.580
  143SOL    HW1 1328   5.710   4.211   1.646
  143SOL    HW2 1329   5.708   4.254   1.489
  144SOL     OW 1330   1.503   6.363   6.685
  144SOL    HW1 1331   1.585   6.328   6.639
  144SOL    HW2 1332   1.526   6.446   6.736
  145SOL     OW 1333   0.406   4.928   0.390
  145SOL    HW1 1334   0.401   5.027   0.402
  145SOL    HW2 1335   0.444   4.908   0.300
  146SOL     OW 1336   4.836   0.139   6.331
  146SOL    HW1 1337   4.863   0.207   6.399
  146SOL    HW2 1338   4.918   0.099   6.291
  147SOL     OW 1339   5.740   3.250   6.997
  147SOL    HW1 1340   5.831   3.247   6.954
  147SOL    HW2 1341   5.689   3.328   6.961
  148SOL     OW 1342   0.300   4.955   6.626
  148SOL    HW1 1343   0.313   4.909   6.538
  148SOL    HW2 1344   0.384   4.950   6.680
  149SOL     OW 1345   3.130   1.963   4.742
  149SOL    HW1 1346   3.164   1.873   4.771
  149SOL    HW2 1347   3.062   1.996   4.807
  150SOL     OW 1348   5.636   5.709   6.081
  150SOL    HW1 1349   5.647   5.745   6.174
  150SOL    HW2 1350   5.563   5.760   6.035
  151SOL     OW 1351   3.191   2.343   1.008
  151SOL    HW1 1352   3.106   2.385   1.039
  151SOL    HW2 1353   3.256   2.340   1.084
  152SOL     OW 1354   1.660   1.690   3.392
  152SOL    HW1 1355   1.674   1.591   3.394
  152SOL    HW2 1356   1.726   1.732   3.330
  153SOL     OW 1357   2.820   0.438   1.327
  153SOL    HW1 1358   2.779   0.381   1.255
  153SOL    HW2 1359   2.832   0.383   1.410
  154SOL     OW 1360   0.742   2.078   3.287
  154SOL    HW1 1361   0.775   2.142   3.357
  154SOL    HW2 1362   0.664   2.118   3.240
  155SOL     OW 1363   0.078   1.162   3.250
  155SOL    HW1 1364   0.015   1.213   3.193
  155SOL    HW2 1365   0.027   1.111   3.319
  156SOL     OW 1366   0.153   2.067   0.745
  156SOL    HW1 1367   0.220   1.993   0.757
  156SOL    HW2 1368   0.097   2.075   0.827
  157SOL     OW 1369   6.192   3.203   2.047
  157SOL    HW1 1370   6.241   3.282   2.084
  157SOL    HW2 1371   6.206   3.199   1.948
  158SOL     OW 1372   2.808   6.292   2.185
  158SOL    HW1 1373   2.815   6.194   2.167
  158SOL    HW2 1374   2.712   6.316   2.199
  159SOL     OW 1375   4.633   4.306   1.659
  159SOL    HW1 1376   4.587   4.277   1.743
  159SOL    HW2 1377   4.616   4.403   1.644
  160SOL     OW 1378   6.475   5.398   0.313
  160SOL    HW1 1379   6.428   5.417   0.399
  160SOL    HW2 1380   6.574   5.407   0.326
  161SOL     OW 1381   2.052   5.420   5.024
  161SOL    HW1 1382   2.126   5.355   5.040
  161SOL    HW2 1383   2.091   5.507   4.994
  162SOL     OW 1384   3.930   6.589   0.181
  162SOL    HW1 1385   3.973   6.501   0.203
  162SOL    HW2 1386   3.862   6.576   0.109
  163SOL     OW 1387   5.290   5.629   1.107
  163SOL    HW1 1388   5.262   5.719   1.139
  163SOL    HW2 1389   5.367   5.597   1.163
  164SOL     OW 1390   6.509   5.027   0.856
  164SOL    HW1 1391   6.444   5.075   0.797
  164SOL    HW2 1392   6.463   4.952   0.903
  165SOL     OW 1393   5.525   3.101   1.410
  165SOL    HW1 1394   5.453   3.065   1.351
  165SOL    HW2 1395   5.499   3.089   1.506
  166SOL     OW 1396   6.959   5.106   3.377
  166SOL    HW1 1397   6.919   5.119   3.286
  166SOL    HW2 1398   7.001   5.192   3.406
  167SOL     OW 1399   5.837   2.357   7.017
  167SOL    HW1 1400   5.881   2.408   6.943
  167SOL    HW2 1401   5.776   2.419   0.043
  168SOL     OW 1402   2.426   3.489   1.362
  168SOL    HW1 1403   2.479   3.566   1.325
  168SOL    HW2 1404   2.403   3.508   1.458
  169SOL     OW 1405   4.011   0.405   1.996
  169SOL    HW1 1406   3.991   0.476   2.063
  169SOL    HW2 1407   3.945   0.330   2.006
  170SOL     OW 1408   0.494   0.924   3.440
  170SOL    HW1 1409   0.574   0.865   3.431
  170SOL    HW2 1410   0.521   1.019   3.424
  171SOL     OW 1411   4.058   4.435   0.486
  171SOL    HW1 1412   4.059   4.366   0.558
  171SOL    HW2 1413   4.004   4.402   0.408
  172SOL     OW 1414   6.531   2.120   4.158
  172SOL    HW1 1415   6.605   2.091   4.098
  172SOL    HW2 1416   6.553   2.097   4.252
  173SOL     OW 1417   6.670   1.828   4.015
  173SOL    HW1 1418   6.623   1.786   3.937
  173SOL    HW2 1419   6.630   1.795   4.100
  174SOL     OW 1420   3.422   5.604   4.039
  174SOL    HW1 1421   3.357   5.655   3.983
  174SOL    HW2 1422   3.435   5.512   4.000
  175SOL     OW 1423   2.382   0.092   2.187
  175SOL    HW1 1424   2.286   0.103   2.211
  175SOL    HW2 1425   2.393   0.099   2.088
  176SOL     OW 1426   0.865   4.294   1.556
  176SOL    HW1 1427   0.951   4.263   1.516
  176SOL    HW2 1428   0.820   4.218   1.603
  177SOL     OW 1429   5.693   2.915   2.751
  177SOL    HW1 1430   5.703   3.000   2.699
  177SOL    HW2 1431   5.716   2.837   2.693
  178SOL     OW 1432   3.598   2.660   6.351
  178SOL    HW1 1433   3.682   2.668   6.298
  178SOL    HW2 1434   3.619   2.626   6.443
  179SOL     OW 1435   2.337   1.641   6.143
  179SOL    HW1 1436   2.256   1.657   6.086
  179SOL    HW2 1437   2.311   1.592   6.226
  180SOL     OW 1438   1.504   0.143   6.288
  180SOL    HW1 1439   1.419   0.098   6.318
  180SOL    HW2 1440   1.576   0.125   6.354
  181SOL     OW 1441   3.432   1.741   6.395
  181SOL    HW1 1442   3.479   1.750   6.307
  181SOL    HW2 1443   3.340   1.780   6.387
  182SOL     OW 1444   3.844   2.057   4.072
  182SOL    HW1 1445   3.808   1.968   4.099
  182SOL    HW2 1446   3.844   2.118   4.151
  183SOL     OW 1447   3.418   2.132   3.446
  183SOL    HW1 1448   3.462   2.091   3.366
  183SOL    HW2 1449   3.467   2.103   3.528
  184SOL     OW 1450   1.749   6.428   4.198
  184SOL    HW1 1451   1.841   6.468   4.194
  184SOL    HW2 1452   1.728   6.401   4.292
  185SOL     OW 1453   0.932   1.912   6.295
  185SOL    HW1 1454   0.847   1.862   6.283
  185SOL    HW2 1455   0.979   1.919   6.207
  186SOL     OW 1456   6.048   1.165   3.778
  186SOL    HW1 1457   6.129   1.110   3.801
  186SOL    HW2 1458   5.966   1.110   3.793
  187SOL     OW 1459   4.814   0.735   2.989
  187SOL    HW1 1460   4.765   0.774   3.067
  187SOL    HW2 1461   4.904   0.703   3.018
  188SOL     OW 1462   6.409   1.838   1.887
  188SOL    HW1 1463   6.450   1.801   1.971
  188SOL    HW2 1464   6.447   1.928   1.868
  189SOL     OW 1465   2.022   5.169   2.060
  189SOL    HW1 1466   1.988   5.220   1.981
  189SOL    HW2 1467   1.964   5.187   2.139
  190SOL     OW 1468   4.390   1.397   4.424
  190SOL    HW1 1469   4.350   1.456   4.355
  190SOL    HW2 1470   4.487   1.420   4.435
  191SOL     OW 1471   5.451   5.862   5.945
  191SOL    HW1 1472   5.471   5.856   5.847
  191SOL    HW2 1473   5.359   5.827   5.962
  192SOL     OW 1474   7.008   6.109   1.951
  192SOL    HW1 1475   6.971   6.018   1.936
  192SOL    HW2 1476   0.078   6.113   1.916
  193SOL     OW 1477   4.593   2.177   5.414
  193SOL    HW1 1478   4.538   2.258   5.397
  193SOL    HW2 1479   4.649   2.191   5.496
  194SOL     OW 1480   3.556   0.270   2.874
  194SOL    HW1 1481   3.473   0.271   2.929
  194SOL    HW2 1482   3.586   0.364   2.858
  195SOL     OW 1483   1.963   6.680   4.285
  195SOL    HW1 1484   1.896   6.720   4.348
  195SOL    HW2 1485   1.949   6.719   4.194
  196SOL     OW 1486   2.563   1.649   6.692
  196SOL    HW1 1487   2.474   1.640   6.737
  196SOL    HW2 1488   2.605   1.736   6.718
  197SOL     OW 1489   2.135   0.990   0.593
  197SOL    HW1 1490   2.209   0.941   0.639
  197SOL    HW2 1491   2.049   0.941   0.606
  198SOL     OW 1492   4.877   1.408   3.222
  198SOL    HW1 1493   4.792   1.408   3.169
  198SOL    HW2 1494   4.882   1.491   3.277
  199SOL     OW 1495   1.057   2.010   4.253
  199SOL    HW1 1496   1.120   1.994   4.329
  199SOL    HW2 1497   1.102   1.985   4.167
  200SOL     OW 1498   1.152   3.579   0.693
  200SOL    HW1 1499   1.098   3.660   0.715
  200SOL    HW2 1500   1.122   3.502   0.749
  201SOL     OW 1501   0.592   6.206   5.488
  201SOL    HW1 1502   0.657   6.178   5.558
  201SOL    HW2 1503   0.579   6.305   5.492
  202SOL     OW 1504   3.631   1.884   6.625
  202SOL    HW1 1505   3.706   1.857   6.564
  202SOL    HW2 1506   3.553   1.823   6.610
  203SOL     OW 1507   6.350   2.175   4.982
  203SOL    HW1 1508   6.368   2.095   5.039
  203SOL    HW2 1509   6.255   2.174   4.952
  204SOL     OW 1510   0.981   7.023   4.209
  204SOL    HW1 1511   1.007   0.059   4.134
  204SOL    HW2 1512   1.009   6.929   4.188
  205SOL     OW 1513   1.434   2.696   2.814
  205SOL    HW1 1514   1.348   2.729   2.851
  205SOL    HW2 1515   1.421   2.666   2.719
  206SOL     OW 1516   0.704   3.752   1.149
  206SOL    HW1 1517   0.717   3.813   1.227
  206SOL    HW2 1518   0.677   3.661   1.182
  207SOL     OW 1519   5.847   0.985   3.782
  207SOL    HW1 1520   5.850   0.978   3.683
  207SOL    HW2 1521   5.755   0.963   3.814
  208SOL     OW 1522   0.390   3.617   5.855
  208SOL    HW1 1523   0.458   3.660   5.913
  208SOL    HW2 1524   0.393   3.658   5.764
  209SOL     OW 1525   6.708   4.671   3.270
  209SOL    HW1 1526   6.706   4.701   3.175
  209SOL    HW2 1527   6.700   4.572   3.274
  210SOL     OW 1528   4.564   2.088   0.420
  210SOL    HW1 1529   4.549   2.096   0.321
  210SOL    HW2 1530   4.602   2.173   0.455
  211SOL     OW 1531   1.055   6.716   2.466
  211SOL    HW1 1532   1.053   6.684   2.561
  211SOL    HW2 1533   1.098   6.806   2.463
  212SOL     OW 1534   1.223   3.555   2.469
  212SOL    HW1 1535   1.281   3.610   2.529
  212SOL    HW2 1536   1.203   3.468   2.513
  213SOL     OW 1537   1.939   6.217   1.308
  213SOL    HW1 1538   1.871   6.171   1.365
  213SOL    HW2 1539   2.017   6.156   1.293
  214SOL     OW 1540   3.506   5.340   2.836
  214SOL    HW1 1541   3.473   5.430   2.867
  214SOL    HW2 1542   3.606   5.339   2.838
  215SOL     OW 1543   2.942   3.788   1.042
  215SOL    HW1 1544   2.869   3.856   1.027
  215SOL    HW2 1545   2.926   3.709   0.982
  216SOL     OW 1546   0.763   6.069   2.966
  216SOL    HW1 1547   0.759   6.031   2.874
  216SOL    HW2 1548   0.692   6.139   2.976
  217SOL     OW 1549   1.429   2.389   4.821
  217SOL    HW1 1550   1.409   2.370   4.724
  217SOL    HW2 1551   1.458   2.304   4.865
  218SOL     OW 1552   0.686   2.552   4.313
  218SOL    HW1 1553   0.771   2.568   4.363
  218SOL    HW2 1554   0.688   2.601   4.226
  219SOL     OW 1555   4.112   0.039   0.419
  219SOL    HW1 1556   4.165   6.996   0.471
  219SOL    HW2 1557   4.172   0.082   0.351
  220SOL     OW 1558   2.561   0.206   1.058
  220SOL    HW1 1559   2.482   0.145   1.048
  220SOL    HW2 1560   2.529   0.297   1.084
  221SOL     OW 1561   5.793   4.261   1.298
  221SOL    HW1 1562   5.877   4.275   1.245
  221SOL    HW2 1563   5.733   4.198   1.248
  222SOL     OW 1564   1.500   4.503   5.472
  222SOL    HW1 1565   1.449   4.434   5.524
  222SOL    HW2 1566   1.593   4.510   5.509
  223SOL     OW 1567   6.782   3.463   5.910
  223SOL    HW1 1568   6.749   3.369   5.922
  223SOL    HW2 1569   6.790   3.483   5.812
  224SOL     OW 1570   3.261   1.304   6.300
  224SOL    HW1 1571   3.342   1.287   6.244
  224SOL    HW2 1572   3.290   1.341   6.389
  225SOL     OW 1573   4.478   4.049   6.323
  225SOL    HW1 1574   4.485   4.003   6.412
  225SOL    HW2 1575   4.509   4.144   6.332
  226SOL     OW 1576   0.329   1.760   5.928
  226SOL    HW1 1577   0.299   1.741   5.835
  226SOL    HW2 1578   0.398   1.833   5.928
  227SOL     OW 1579   1.681   4.400   1.963
  227SOL    HW1 1580   1.647   4.479   1.912
  227SOL    HW2 1581   1.603   4.349   2.000
  228SOL     OW 1582   2.031   0.219   2.423
  228SOL    HW1 1583   2.045   0.195   2.327
  228SOL    HW2 1584   1.946   0.271   2.432
  229SOL     OW 1585   5.354   5.656   5.690
  229SOL    HW1 1586   5.307   5.639   5.777
  229SOL    HW2 1587   5.319   5.739   5.648
  230SOL     OW 1588   4.529   5.809   4.214
  230SOL    HW1 1589   4.514   5.793   4.312
  230SOL    HW2 1590   4.442   5.832   4.170
  231SOL     OW 1591   6.239   1.379   6.391
  231SOL    HW1 1592   6.261   1.284   6.413
  231SOL    HW2 1593   6.308   1.440   6.430
  232SOL     OW 1594   0.286   3.376   6.586
  232SOL    HW1 1595   0.300   3.366   6.488
  232SOL    HW2 1596   0.234   3.460   6.604
  233SOL     OW 1597   4.359   1.190   3.004
  233SOL    HW1 1598   4.276   1.210   3.055
  233SOL    HW2 1599   4.341   1.201   2.906
  234SOL     OW 1600   5.440   0.955   6.991
  234SOL    HW1 1601   5.505   1.028   6.972
  234SOL    HW2 1602   5.461   0.876   6.934
  235SOL     OW 1603   4.754   2.791   2.187
  235SOL    HW1 1604   4.735   2.718   2.122
  235SOL    HW2 1605   4.756   2.879   2.138
  236SOL     OW 1606   5.273   3.001   6.902
  236SOL    HW1 1607   5.251   2.978   6.996
  236SOL    HW2 1608   5.364   2.966   6.879
  237SOL     OW 1609   0.248   4.235   2.178
  237SOL    HW1 1610   0.162   4.229   2.126
  237SOL    HW2 1611   0.253   4.325   2.223
  238SOL     OW 1612   6.099   1.654   0.294
  238SOL    HW1 1613   6.140   1.691   0.377
  238SOL    HW2 1614   6.090   1.726   0.226
  239SOL     OW 1615   0.827   4.551   0.327
  239SOL    HW1 1616   0.728   4.557   0.338
  239SOL    HW2 1617   0.862   4.638   0.292
  240SOL     OW 1618   1.023   3.128   3.528
  240SOL    HW1 1619   1.081   3.210   3.531
  240SOL    HW2 1620   0.927   3.155   3.518
  241SOL     OW 1621   2.986   2.116   4.906
  241SOL    HW1 1622   2.897   2.160   4.902
  241SOL    HW2 1623   3.056   2.184   4.927
  242SOL     OW 1624   3.306   3.610   3.919
  242SOL    HW1 1625   3.291   3.533   3.981
  242SOL    HW2 1626   3.247   3.599   3.838
  243SOL     OW 1627   5.211   1.396   0.409
  243SOL    HW1 1628   5.134   1.336   0.432
  243SOL    HW2 1629   5.200   1.430   0.316
  244SOL     OW 1630   6.086   4.007   5.366
  244SOL    HW1 1631   6.044   3.948   5.435
  244SOL    HW2 1632   6.025   4.083   5.346
  245SOL     OW 1633   4.410   1.951   4.189
  245SOL    HW1 1634   4.448   2.040   4.216
  245SOL    HW2 1635   4.379   1.956   4.094
  246SOL     OW 1636   4.682   1.923   3.340
  246SOL    HW1 1637   4.659   1.881   3.427
  246SOL    HW2 1638   4.707   2.019   3.354
  247SOL     OW 1639   2.649   1.716   0.833
  247SOL    HW1 1640   2.733   1.668   0.810
  247SOL    HW2 1641   2.574   1.682   0.776
  248SOL     OW 1642   3.139   1.311   3.115
  248SOL    HW1 1643   3.048   1.313   3.075
  248SOL    HW2 1644   3.204   1.277   3.046
  249SOL     OW 1645   5.465   6.826   5.223
  249SOL    HW1 1646   5.530   6.791   5.290
  249SOL    HW2 1647   5.377   6.844   5.268
  250SOL     OW 1648   4.406   2.944   0.488
  250SOL    HW1 1649   4.465   3.000   0.430
  250SOL    HW2 1650   4.310   2.966   0.467
  251SOL     OW 1651   4.414   3.558   5.295
  251SOL    HW1 1652   4.349   3.604   5.234
  251SOL    HW2 1653   4.507   3.581   5.267
  252SOL     OW 1654   0.041   6.321   4.671
  252SOL    HW1 1655   0.035   6.415   4.704
  252SOL    HW2 1656   6.979   6.294   4.628
  253SOL     OW 1657   3.471   5.504   6.637
  253SOL    HW1 1658   3.460   5.456   6.550
  253SOL    HW2 1659   3.499   5.598   6.620
  254SOL     OW 1660   6.368   2.105   3.634
  254SOL    HW1 1661   6.390   2.170   3.562
  254SOL    HW2 1662   6.340   2.018   3.593
  255SOL     OW 1663   2.309   4.734   5.423
  255SOL    HW1 1664   2.261   4.792   5.357
  255SOL    HW2 1665   2.345   4.653   5.377
  256SOL     OW 1666   5.730   3.724   5.883
  256SOL    HW1 1667   5.820   3.686   5.862
  256SOL    HW2 1668   5.740   3.810   5.932
  257SOL     OW 1669   5.056   0.264   3.298
  257SOL    HW1 1670   5.043   0.167   3.316
  257SOL    HW2 1671   5.054   0.280   3.199
  258SOL     OW 1672   2.295   4.277   5.629
  258SOL    HW1 1673   2.290   4.342   5.553
  258SOL    HW2 1674   2.343   4.194   5.599
  259SOL     OW 1675   6.228   0.774   2.629
  259SOL    HW1 1676   6.317   0.808   2.599
  259SOL    HW2 1677   6.221   0.676   2.612
  260SOL     OW 1678   4.204   5.768   3.130
  260SOL    HW1 1679   4.204   5.679   3.175
  260SOL    HW2 1680   4.277   5.824   3.168
  261SOL     OW 1681   6.032   3.158   0.890
  261SOL    HW1 1682   5.952   3.191   0.840
  261SOL    HW2 1683   6.107   3.141   0.826
  262SOL     OW 1684   1.265   3.949   0.506
  262SOL    HW1 1685   1.240   4.033   0.458
  262SOL    HW2 1686   1.183   3.897   0.529
  263SOL     OW 1687   1.890   0.220   5.068
  263SOL    HW1 1688   1.897   0.127   5.105
  263SOL    HW2 1689   1.819   0.270   5.117
  264SOL     OW 1690   5.985   2.875   6.839
  264SOL    HW1 1691   5.921   2.806   6.872
  264SOL    HW2 1692   5.985   2.876   6.739
  265SOL     OW 1693   5.031   6.704   2.800
  265SOL    HW1 1694   4.981   6.762   2.736
  265SOL    HW2 1695   5.014   6.734   2.893
  266SOL     OW 1696   4.487   2.868   5.876
  266SOL    HW1 1697   4.551   2.791   5.872
  266SOL    HW2 1698   4.517   2.938   5.811
  267SOL     OW 1699   0.859   1.790   5.986
  267SOL    HW1 1700   0.824   1.735   5.910
  267SOL    HW2 1701   0.809   1.767   6.069
  268SOL     OW 1702   3.052   0.912   6.096
  268SOL    HW1 1703   2.971   0.969   6.080
  268SOL    HW2 1704   3.029   0.816   6.077
  269SOL     OW 1705   1.789   3.834   1.348
  269SOL    HW1 1706   1.840   3.749   1.331
  269SOL    HW2 1707   1.813   3.902   1.279
  270SOL     OW 1708   1.367   6.109   0.644
  270SOL    HW1 1709   1.304   6.111   0.567
  270SOL    HW2 1710   1.394   6.014   0.662
  271SOL     OW 1711   6.838   0.961   6.162
  271SOL    HW1 1712   6.866   1.056   6.145
  271SOL    HW2 1713   6.763   0.937   6.100
  272SOL     OW 1714   3.859   6.325   4.153
  272SOL    HW1 1715   3.926   6.277   4.210
  272SOL    HW2 1716   3.897   6.339   4.062
  273SOL     OW 1717   2.151   4.828   4.350
  273SOL    HW1 1718   2.230   4.833   4.289
  273SOL    HW2 1719   2.116   4.734   4.351
  274SOL     OW 1720   4.110   1.254   3.104
  274SOL    HW1 1721   4.026   1.307   3.091
  274SOL    HW2 1722   4.095   1.185   3.174
  275SOL     OW 1723   6.666   5.941   3.697
  275SOL    HW1 1724   6.683   5.887   3.614
  275SOL    HW2 1725   6.647   5.879   3.773
  276SOL     OW 1726   0.226   6.514   2.940
  276SOL    HW1 1727   0.170   6.489   2.862
  276SOL    HW2 1728   0.193   6.600   2.979
  277SOL     OW 1729   1.702   4.001   0.651
  277SOL    HW1 1730   1.708   3.914   0.602
  277SOL    HW2 1731   1.614   4.008   0.697
  278SOL     OW 1732   0.035   3.855   1.230
  278SOL    HW1 1733   6.971   3.810   1.246
  278SOL    HW2 1734   0.052   3.921   1.304
  279SOL     OW 1735   5.777   3.073   4.293
  279SOL    HW1 1736   5.713   3.087   4.368
  279SOL    HW2 1737   5.728   3.075   4.206
  280SOL     OW 1738   2.459   5.767   2.776
  280SOL    HW1 1739   2.488   5.800   2.686
  280SOL    HW2 1740   2.376   5.814   2.804
  281SOL     OW 1741   2.844   4.720   1.708
  281SOL    HW1 1742   2.873   4.813   1.731
  281SOL    HW2 1743   2.849   4.663   1.790
  282SOL     OW 1744   3.586   1.433   5.584
  282SOL    HW1 1745   3.542   1.521   5.573
  282SOL    HW2 1746   3.541   1.381   5.656
  283SOL     OW 1747   5.904   2.568   6.390
  283SOL    HW1 1748   5.945   2.652   6.355
  283SOL    HW2 1749   5.851   2.524   6.317
  284SOL     OW 1750   1.592   3.633   3.778
  284SOL    HW1 1751   1.568   3.723   3.744
  284SOL    HW2 1752   1.521   3.602   3.843
  285SOL     OW 1753   5.718   5.397   4.186
  285SOL    HW1 1754   5.631   5.352   4.208
  285SOL    HW2 1755   5.745   5.373   4.093
  286SOL     OW 1756   3.595   5.114   6.640
  286SOL    HW1 1757   3.641   5.039   6.592
  286SOL    HW2 1758   3.505   5.130   6.599
  287SOL     OW 1759   1.191   3.565   1.210
  287SOL    HW1 1760   1.105   3.539   1.168
  287SOL    HW2 1761   1.207   3.509   1.291
  288SOL     OW 1762   3.571   1.716   6.995
  288SOL    HW1 1763   3.597   1.676   0.059
  288SOL    HW2 1764   3.653   1.745   6.947
  289SOL     OW 1765   2.215   4.253   5.886
  289SOL    HW1 1766   2.135   4.194   5.878
  289SOL    HW2 1767   2.253   4.270   5.795
  290SOL     OW 1768   6.573   2.085   4.812
  290SOL    HW1 1769   6.567   2.073   4.713
  290SOL    HW2 1770   6.505   2.152   4.842
  291SOL     OW 1771   0.544   1.877   4.631
  291SOL    HW1 1772   0.558   1.962   4.683
  291SOL    HW2 1773   0.450   1.845   4.644
  292SOL     OW 1774   2.029   1.825   2.861
  292SOL    HW1 1775   1.990   1.733   2.852
  292SOL    HW2 1776   1.959   1.893   2.841
  293SOL     OW 1777   4.317   5.949   3.544
  293SOL    HW1 1778   4.374   5.981   3.469
  293SOL    HW2 1779   4.225   5.929   3.511
  294SOL     OW 1780   0.030   6.220   7.010
  294SOL    HW1 1781   0.086   6.186   0.061
  294SOL    HW2 1782   0.058   6.175   6.925
  295SOL     OW 1783   3.818   1.151   3.169
  295SOL    HW1 1784   3.867   1.131   3.254
  295SOL    HW2 1785   3.818   1.250   3.153
  296SOL     OW 1786   3.235   1.453   2.799
  296SOL    HW1 1787   3.295   1.529   2.822
  296SOL    HW2 1788   3.243   1.433   2.701
  297SOL     OW 1789   2.281   4.568   4.191
  297SOL    HW1 1790   2.206   4.597   4.250
  297SOL    HW2 1791   2.294   4.469   4.200
  298SOL     OW 1792   4.337   5.759   2.161
  298SOL    HW1 1793   4.427   5.717   2.170
  298SOL    HW2 1794   4.336   5.846   2.210
  299SOL     OW 1795   5.041   3.583   5.738
  299SOL    HW1 1796   5.084   3.493   5.734
  299SOL    HW2 1797   4.947   3.574   5.770
  300SOL     OW 1798   6.384   0.372   2.271
  300SOL    HW1 1799   6.285   0.384   2.257
  300SOL    HW2 1800   6.400   0.344   2.366
  301SOL     OW 1801   5.158   3.597   0.700
  301SOL    HW1 1802   5.170   3.692   0.670
  301SOL    HW2 1803   5.247   3.552   0.705
  302SOL     OW 1804   1.254   0.312   2.884
  302SOL    HW1 1805   1.245   0.372   2.805
  302SOL    HW2 1806   1.229   0.219   2.859
  303SOL     OW 1807   5.826   0.393   2.407
  303SOL    HW1 1808   5.911   0.430   2.369
  303SOL    HW2 1809   5.751   0.411   2.344
  304SOL     OW 1810   1.864   0.371   3.347
  304SOL    HW1 1811   1.810   0.418   3.278
  304SOL    HW2 1812   1.943   0.427   3.372
  305SOL     OW 1813   0.565   3.373   6.508
  305SOL    HW1 1814   0.475   3.351   6.547
  305SOL    HW2 1815   0.567   3.345   6.412
  306SOL     OW 1816   1.260   1.206   3.340
  306SOL    HW1 1817   1.312   1.137   3.391
  306SOL    HW2 1818   1.306   1.225   3.253
  307SOL     OW 1819   4.826   6.819   1.041
  307SOL    HW1 1820   4.904   6.762   1.016
  307SOL    HW2 1821   4.750   6.761   1.069
  308SOL     OW 1822   6.965   4.438   4.917
  308SOL    HW1 1823   7.014   4.403   4.838
  308SOL    HW2 1824   6.918   4.363   4.964
  309SOL     OW 1825   3.820   4.675   5.449
  309SOL    HW1 1826   3.834   4.657   5.546
  309SOL    HW2 1827   3.851   4.596   5.396
  310SOL     OW 1828   6.444   6.693   6.049
  310SOL    HW1 1829   6.417   6.703   5.954
  310SOL    HW2 1830   6.544   6.685   6.054
  311SOL     OW 1831   6.561   4.868   1.639
  311SOL    HW1 1832   6.582   4.962   1.613
  311SOL    HW2 1833   6.625   4.838   1.710
  312SOL     OW 1834   4.580   1.706   6.111
  312SOL    HW1 1835   4.628   1.785   6.072
  312SOL    HW2 1836   4.608   1.623   6.063
  313SOL     OW 1837   2.670   4.421   1.668
  313SOL    HW1 1838   2.742   4.388   1.728
  313SOL    HW2 1839   2.592   4.358   1.671
  314SOL     OW 1840   3.421   5.826   0.526
  314SOL    HW1 1841   3.327   5.857   0.537
  314SOL    HW2 1842   3.440   5.812   0.428
  315SOL     OW 1843   0.698   1.912   3.853
  315SOL    HW1 1844   0.746   1.845   3.797
  315SOL    HW2 1845   0.706   1.888   3.949
  316SOL     OW 1846   2.131   2.834   4.505
  316SOL    HW1 1847   2.066   2.840   4.429
  316SOL    HW2 1848   2.176   2.744   4.502
  317SOL     OW 1849   0.653   1.503   6.922
  317SOL    HW1 1850   0.597   1.421   6.935
  317SOL    HW2 1851   0.685   1.507   6.827
  318SOL     OW 1852   1.004   4.836   1.167
  318SOL    HW1 1853   1.047   4.925   1.176
  318SOL    HW2 1854   0.962   4.828   1.076
  319SOL     OW 1855   0.561   0.530   2.150
  319SOL    HW1 1856   0.474   0.560   2.110
  319SOL    HW2 1857   0.593   0.598   2.215
  320SOL     OW 1858   5.403   2.686   0.117
  320SOL    HW1 1859   5.309   2.697   0.149
  320SOL    HW2 1860   5.441   2.601   0.153
  321SOL     OW 1861   2.176   1.713   2.490
  321SOL    HW1 1862   2.185   1.807   2.456
  321SOL    HW2 1863   2.204   1.649   2.418
  322SOL     OW 1864   3.218   3.087   4.609
  322SOL    HW1 1865   3.153   3.015   4.587
  322SOL    HW2 1866   3.261   3.120   4.525
  323SOL     OW 1867   0.986   4.119   6.900
  323SOL    HW1 1868   1.028   4.048   6.957
  323SOL    HW2 1869   1.037   4.128   6.815
  324SOL     OW 1870   1.190   2.875   4.134
  324SOL    HW1 1871   1.254   2.943   4.099
  324SOL    HW2 1872   1.127   2.848   4.062
  325SOL     OW 1873   1.895   2.873   1.176
  325SOL    HW1 1874   1.874   2.934   1.252
  325SOL    HW2 1875   1.960   2.802   1.207
  326SOL     OW 1876   1.720   5.970   0.234
  326SOL    HW1 1877   1.787   5.998   0.166
  326SOL    HW2 1878   1.639   6.028   0.227
  327SOL     OW 1879   0.988   4.751   4.175
  327SOL    HW1 1880   1.036   4.820   4.120
  327SOL    HW2 1881   1.032   4.743   4.264
  328SOL     OW 1882   3.001   5.472   2.549
  328SOL    HW1 1883   3.072   5.404   2.531
  328SOL    HW2 1884   2.921   5.427   2.589
  329SOL     OW 1885   3.173   3.951   3.661
  329SOL    HW1 1886   3.203   4.042   3.631
  329SOL    HW2 1887   3.252   3.897   3.688
  330SOL     OW 1888   3.515   6.340   1.849
  330SOL    HW1 1889   3.613   6.353   1.835
  330SOL    HW2 1890   3.467   6.350   1.762
  331SOL     OW 1891   4.688   5.013   6.490
  331SOL    HW1 1892   4.761   4.950   6.463
  331SOL    HW2 1893   4.728   5.101   6.517
  332SOL     OW 1894   3.656   2.135   3.893
  332SOL    HW1 1895   3.561   2.105   3.902
  332SOL    HW2 1896   3.707   2.113   3.976
  333SOL     OW 1897   3.825   0.119   6.925
  333SOL    HW1 1898   3.918   0.108   6.892
  333SOL    HW2 1899   3.814   0.209   6.967
  334SOL     OW 1900   3.032   6.604   1.868
  334SOL    HW1 1901   3.122   6.586   1.909
  334SOL    HW2 1902   3.043   6.667   1.791
  335SOL     OW 1903   2.931   5.972   3.652
  335SOL    HW1 1904   3.025   6.007   3.659
  335SOL    HW2 1905   2.883   6.021   3.580
  336SOL     OW 1906   2.516   0.976   3.437
  336SOL    HW1 1907   2.484   1.042   3.505
  336SOL    HW2 1908   2.593   1.015   3.387
  337SOL     OW 1909   0.120   3.584   1.077
  337SOL    HW1 1910   0.032   3.553   1.113
  337SOL    HW2 1911   0.119   3.684   1.068
  338SOL     OW 1912   2.978   3.346   1.518
  338SOL    HW1 1913   3.040   3.295   1.577
  338SOL    HW2 1914   2.994   3.444   1.528
  339SOL     OW 1915   3.823   0.004   3.483
  339SOL    HW1 1916   3.844   6.952   3.544
  339SOL    HW2 1917   3.895   0.014   3.415
  340SOL     OW 1918   5.286   4.097   5.072
  340SOL    HW1 1919   5.274   4.077   4.974
  340SOL    HW2 1920   5.332   4.020   5.115
  341SOL     OW 1921   6.355   6.233   4.132
  341SOL    HW1 1922   6.258   6.225   4.110
  341SOL    HW2 1923   6.392   6.316   4.091
  342SOL     OW 1924   5.662   4.156   0.249
  342SOL    HW1 1925   5.667   4.216   0.329
  342SOL    HW2 1926   5.751   4.113   0.235
  343SOL     OW 1927   3.166   6.381   1.717
  343SOL    HW1 1928   3.153   6.282   1.704
  343SOL    HW2 1929   3.110   6.412   1.793
  344SOL     OW 1930   2.320   5.081   0.861
  344SOL    HW1 1931   2.301   5.171   0.821
  344SOL    HW2 1932   2.294   5.010   0.796
  345SOL     OW 1933   0.129   0.654   5.819
  345SOL    HW1 1934   0.229   0.657   5.830
  345SOL    HW2 1935   0.107   0.619   5.728
  346SOL     OW 1936   1.751   0.051   2.254
  346SOL    HW1 1937   1.763   0.095   2.343
  346SOL    HW2 1938   1.809   6.994   2.248
  347SOL     OW 1939   5.375   0.052   6.732
  347SOL    HW1 1940   5.402   0.147   6.747
  347SOL    HW2 1941   5.327   0.044   6.644
  348SOL     OW 1942   4.063   5.080   1.731
  348SOL    HW1 1943   4.073   4.990   1.688
  348SOL    HW2 1944   3.985   5.128   1.691
  349SOL     OW 1945   6.960   4.595   2.365
  349SOL    HW1 1946   6.885   4.565   2.305
  349SOL    HW2 1947   0.008   4.638   2.310
  350SOL     OW 1948   3.658   3.832   1.602
  350SOL    HW1 1949   3.697   3.747   1.636
  350SOL    HW2 1950   3.572   3.813   1.554
  351SOL     OW 1951   2.631   2.256   0.567
  351SOL    HW1 1952   2.690   2.333   0.592
  351SOL    HW2 1953   2.649   2.179   0.627
  352SOL     OW 1954   3.809   0.920   4.829
  352SOL    HW1 1955   3.781   0.828   4.859
  352SOL    HW2 1956   3.729   0.972   4.801
  353SOL     OW 1957   2.023   0.446   0.311
  353SOL    HW1 1958   2.083   0.415   0.385
  353SOL    HW2 1959   2.025   0.380   0.236
  354SOL     OW 1960   4.098   2.392   0.772
  354SOL    HW1 1961   4.037   2.366   0.696
  354SOL    HW2 1962   4.083   2.488   0.795
  355SOL     OW 1963   6.733   3.204   2.601
  355SOL    HW1 1964   6.661   3.178   2.666
  355SOL    HW2 1965   6.769   3.293   2.626
  356SOL     OW 1966   4.438   5.572   4.947
  356SOL    HW1 1967   4.513   5.587   4.882
  356SOL    HW2 1968   4.368   5.643   4.934
  357SOL     OW 1969   0.132   6.243   5.431
  357SOL    HW1 1970   0.161   6.330   5.471
  357SOL    HW2 1971   0.099   6.259   5.338
  358SOL     OW 1972   6.305   0.067   1.213
  358SOL    HW1 1973   6.257   7.004   1.218
  358SOL    HW2 1974   6.297   0.115   1.301
  359SOL     OW 1975   1.535   2.561   2.280
  359SOL    HW1 1976   1.562   2.594   2.190
  359SOL    HW2 1977   1.578   2.617   2.351
  360SOL     OW 1978   2.948   6.411   6.120
  360SOL    HW1 1979   3.043   6.392   6.095
  360SOL    HW2 1980   2.920   6.349   6.193
  361SOL     OW 1981   5.871   5.992   3.337
  361SOL    HW1 1982   5.783   5.977   3.382
  361SOL    HW2 1983   5.918   5.905   3.326
  362SOL     OW 1984   3.099   4.448   0.163
  362SOL    HW1 1985   3.046   4.432   0.246
  362SOL    HW2 1986   3.148   4.535   0.170
  363SOL     OW 1987   3.492   4.920   4.082
  363SOL    HW1 1988   3.408   4.925   4.027
  363SOL    HW2 1989   3.496   4.831   4.129
  364SOL     OW 1990   0.727   5.945   5.574
  364SOL    HW1 1991   0.630   5.965   5.591
  364SOL    HW2 1992   0.744   5.949   5.475
  365SOL     OW 1993   4.621   6.469   3.174
  365SOL    HW1 1994   4.649   6.456   3.269
  365SOL    HW2 1995   4.659   6.395   3.118
  366SOL     OW 1996   5.641   1.140   6.914
  366SOL    HW1 1997   5.637   1.215   6.980
  366SOL    HW2 1998   5.735   1.107   6.906
  367SOL     OW 1999   5.001   2.946   0.911
  367SOL    HW1 2000   4.947   2.871   0.872
  367SOL    HW2 2001   4.940   3.022   0.933
  368SOL     OW 2002   1.560   4.738   4.857
  368SOL    HW1 2003   1.567   4.722   4.759
  368SOL    HW2 2004   1.501   4.668   4.898
  369SOL     OW 2005   6.231   4.328   1.898
  369SOL    HW1 2006   6.161   4.289   1.838
  369SOL    HW2 2007   6.224   4.428   1.896
  370SOL     OW 2008   2.664   0.712   4.977
  370SOL    HW1 2009   2.584   0.658   4.949
  370SOL    HW2 2010   2.739   0.696   4.912
  371SOL     OW 2011   2.264   3.837   0.122
  371SOL    HW1 2012   2.173   3.858   0.085
  371SOL    HW2 2013   2.258   3.759   0.184
  372SOL     OW 2014   0.228   0.400   5.084
  372SOL    HW1 2015   0.154   0.424   5.021
  372SOL    HW2 2016   0.189   0.369   5.171
  373SOL     OW 2017   0.307   6.332   6.137
  373SOL    HW1 2018   0.286   6.298   6.228
  373SOL    HW2 2019   0.370   6.410   6.144
  374SOL     OW 2020   4.214   6.841   2.317
  374SOL    HW1 2021   4.194   6.909   2.246
  374SOL    HW2 2022   4.240   6.888   2.401
  375SOL     OW 2023   6.939   4.799   4.228
  375SOL    HW1 2024   6.965   4.866   4.298
  375SOL    HW2 2025   7.004   4.723   4.229
  376SOL     OW 2026   1.443   2.969   3.968
  376SOL    HW1 2027   1.456   3.013   4.057
  376SOL    HW2 2028   1.496   2.885   3.963
  377SOL     OW 2029   5.356   2.416   2.726
  377SOL    HW1 2030   5.430   2.373   2.674
  377SOL    HW2 2031   5.286   2.449   2.663
  378SOL     OW 2032   3.993   3.123   5.603
  378SOL    HW1 2033   4.037   3.089   5.686
  378SOL    HW2 2034   4.020   3.218   5.588
  379SOL     OW 2035   5.914   3.247   1.390
  379SOL    HW1 2036   5.961   3.218   1.306
  379SOL    HW2 2037   5.825   3.285   1.368
  380SOL     OW 2038   2.159   1.711   1.484
  380SOL    HW1 2039   2.086   1.778   1.493
  380SOL    HW2 2040   2.123   1.627   1.442
  381SOL     OW 2041   2.238   4.813   1.859
  381SOL    HW1 2042   2.161   4.843   1.915
  381SOL    HW2 2043   2.314   4.787   1.918
  382SOL     OW 2044   3.758   5.939   0.324
  382SOL    HW1 2045   3.825   5.893   0.383
  382SOL    HW2 2046   3.704   6.003   0.378
  383SOL     OW 2047   6.455   2.725   6.677
  383SOL    HW1 2048   6.474   2.799   6.612
  383SOL    HW2 2049   6.367   2.742   6.722
  384SOL     OW 2050   1.134   4.744   5.281
  384SOL    HW1 2051   1.201   4.818   5.290
  384SOL    HW2 2052   1.080   4.759   5.198
  385SOL     OW 2053   5.062   6.473   0.015
  385SOL    HW1 2054   5.102   6.557   7.000
  385SOL    HW2 2055   5.134   6.406   0.030
  386SOL     OW 2056   4.088   6.810   5.233
  386SOL    HW1 2057   4.001   6.795   5.280
  386SOL    HW2 2058   4.140   6.724   5.230
  387SOL     OW 2059   0.351   0.140   3.899
  387SOL    HW1 2060   0.317   0.233   3.904
  387SOL    HW2 2061   0.294   0.080   3.955
  388SOL     OW 2062   6.931   2.447   5.380
  388SOL    HW1 2063   7.013   2.503   5.364
  388SOL    HW2 2064   6.876   2.445   5.296
  389SOL     OW 2065   4.327   4.433   1.743
  389SOL    HW1 2066   4.253   4.390   1.692
  389SOL    HW2 2067   4.387   4.362   1.780
  390SOL     OW 2068   3.601   1.184   0.736
  390SOL    HW1 2069   3.601   1.281   0.712
  390SOL    HW2 2070   3.541   1.134   0.674
  391SOL     OW 2071   2.822   4.102   5.638
  391SOL    HW1 2072   2.732   4.138   5.613
  391SOL    HW2 2073   2.868   4.068   5.555
  392SOL     OW 2074   1.607   3.647   2.300
  392SOL    HW1 2075   1.668   3.675   2.226
  392SOL    HW2 2076   1.640   3.562   2.340
  393SOL     OW 2077   0.547   4.727   1.066
  393SOL    HW1 2078   0.613   4.782   1.016
  393SOL    HW2 2079   0.550   4.751   1.163
  394SOL     OW 2080   6.836   3.226   0.252
  394SOL    HW1 2081   6.793   3.142   0.284
  394SOL    HW2 2082   6.934   3.224   0.272
  395SOL     OW 2083   4.797   4.350   1.954
  395SOL    HW1 2084   4.709   4.306   1.971
  395SOL    HW2 2085   4.785   4.448   1.943
  396SOL     OW 2086   2.755   2.122   1.921
  396SOL    HW1 2087   2.758   2.205   1.976
  396SOL    HW2 2088   2.714   2.143   1.832
  397SOL     OW 2089   4.520   1.302   5.415
  397SOL    HW1 2090   4.453   1.227   5.418
  397SOL    HW2 2091   4.561   1.313   5.506
  398SOL     OW 2092   1.000   0.376   4.548
  398SOL    HW1 2093   1.010   0.413   4.641
  398SOL    HW2 2094   1.036   0.283   4.545
  399SOL     OW 2095   5.392   5.927   4.008
  399SOL    HW1 2096   5.331   6.007   4.004
  399SOL    HW2 2097   5.410   5.894   3.916
  400SOL     OW 2098   6.478   0.328   4.694
  400SOL    HW1 2099   6.484   0.399   4.624
  400SOL    HW2 2100   6.560   0.271   4.691
  401SOL     OW 2101   6.714   0.379   5.620
  401SOL    HW1 2102   6.702   0.365   5.718
  401SOL    HW2 2103   6.657   0.456   5.590
  402SOL     OW 2104   6.443   0.321   2.518
  402SOL    HW1 2105   6.538   0.330   2.549
  402SOL    HW2 2106   6.392   0.267   2.585
  403SOL     OW 2107   2.765   0.605   5.814
  403SOL    HW1 2108   2.700   0.566   5.880
  403SOL    HW2 2109   2.791   0.535   5.748
  404SOL     OW 2110   3.544   6.582   5.889
  404SOL    HW1 2111   3.476   6.539   5.830
  404SOL    HW2 2112   3.523   6.560   5.985
  405SOL     OW 2113   1.810   3.777   3.497
  405SOL    HW1 2114   1.788   3.872   3.478
  405SOL    HW2 2115   1.904   3.769   3.530
  406SOL     OW 2116   1.096   5.397   5.388
  406SOL    HW1 2117   1.005   5.378   5.424
  406SOL    HW2 2118   1.162   5.335   5.430
  407SOL     OW 2119   1.666   3.268   3.508
  407SOL    HW1 2120   1.683   3.214   3.591
  407SOL    HW2 2121   1.687   3.364   3.525
  408SOL     OW 2122   3.430   1.771   2.465
  408SOL    HW1 2123   3.337   1.749   2.495
  408SOL    HW2 2124   3.489   1.782   2.545
  409SOL     OW 2125   0.994   3.680   2.383
  409SOL    HW1 2126   1.074   3.629   2.416
  409SOL    HW2 2127   0.979   3.759   2.442
  410SOL     OW 2128   1.422   2.685   1.099
  410SOL    HW1 2129   1.472   2.728   1.174
  410SOL    HW2 2130   1.473   2.605   1.068
  411SOL     OW 2131   0.394   1.695   1.925
  411SOL    HW1 2132   0.322   1.667   1.988
  411SOL    HW2 2133   0.461   1.752   1.973
  412SOL     OW 2134   2.365   4.975   2.811
  412SOL    HW1 2135   2.395   4.931   2.726
  412SOL    HW2 2136   2.439   4.973   2.878
  413SOL     OW 2137   3.818   5.064   2.363
  413SOL    HW1 2138   3.785   5.020   2.279
  413SOL    HW2 2139   3.918   5.064   2.363
  414SOL     OW 2140   2.698   6.890   3.488
  414SOL    HW1 2141   2.602   6.891   3.459
  414SOL    HW2 2142   2.703   6.906   3.586
  415SOL     OW 2143   6.642   1.377   0.616
  415SOL    HW1 2144   6.717   1.332   0.665
  415SOL    HW2 2145   6.604   1.449   0.673
  416SOL     OW 2146   4.963   3.827   5.110
  416SOL    HW1 2147   4.941   3.730   5.112
  416SOL    HW2 2148   4.986   3.858   5.203
  417SOL     OW 2149   2.702   2.292   6.735
  417SOL    HW1 2150   2.689   2.245   6.822
  417SOL    HW2 2151   2.715   2.224   6.662
  418SOL     OW 2152   3.544   0.007   4.285
  418SOL    HW1 2153   3.484   0.038   4.359
  418SOL    HW2 2154   3.488   7.005   4.206
  419SOL     OW 2155   0.754   0.063   1.419
  419SOL    HW1 2156   0.746   0.026   1.512
  419SOL    HW2 2157   0.814   0.142   1.419
  420SOL     OW 2158   5.466   0.306   6.728
  420SOL    HW1 2159   5.557   0.268   6.742
  420SOL    HW2 2160   5.468   0.374   6.655
  421SOL     OW 2161   4.939   4.118   4.497
  421SOL    HW1 2162   4.915   4.209   4.463
  421SOL    HW2 2163   4.886   4.098   4.579
  422SOL     OW 2164   4.973   1.974   1.289
  422SOL    HW1 2165   4.979   1.927   1.377
  422SOL    HW2 2166   4.918   2.057   1.299
  423SOL     OW 2167   2.894   1.468   6.014
  423SOL    HW1 2168   2.934   1.409   6.083
  423SOL    HW2 2169   2.951   1.465   5.931
  424SOL     OW 2170   1.489   4.397   3.147
  424SOL    HW1 2171   1.558   4.340   3.102
  424SOL    HW2 2172   1.465   4.357   3.236
  425SOL     OW 2173   4.235   0.312   5.218
  425SOL    HW1 2174   4.232   0.246   5.293
  425SOL    HW2 2175   4.233   0.262   5.131
  426SOL     OW 2176   2.636   2.021   4.874
  426SOL    HW1 2177   2.711   1.976   4.924
  426SOL    HW2 2178   2.667   2.109   4.840
  427SOL     OW 2179   4.269   1.804   3.389
  427SOL    HW1 2180   4.241   1.709   3.378
  427SOL    HW2 2181   4.368   1.807   3.407
  428SOL     OW 2182   3.185   1.029   5.267
  428SOL    HW1 2183   3.169   1.082   5.184
  428SOL    HW2 2184   3.134   1.069   5.343
  429SOL     OW 2185   1.549   5.933   3.307
  429SOL    HW1 2186   1.514   5.856   3.361
  429SOL    HW2 2187   1.498   6.016   3.331
  430SOL     OW 2188   1.802   0.008   3.914
  430SOL    HW1 2189   1.795   0.103   3.945
  430SOL    HW2 2190   1.833   6.974   3.990
  431SOL     OW 2191   2.556   2.209   1.168
  431SOL    HW1 2192   2.474   2.216   1.111
  431SOL    HW2 2193   2.580   2.299   1.203
  432SOL     OW 2194   4.303   2.071   1.550
  432SOL    HW1 2195   4.340   2.028   1.468
  432SOL    HW2 2196   4.208   2.097   1.534
  433SOL     OW 2197   2.467   6.664   6.837
  433SOL    HW1 2198   2.456   6.745   6.779
  433SOL    HW2 2199   2.539   6.682   6.905
  434SOL     OW 2200   4.235   6.768   3.876
  434SOL    HW1 2201   4.191   6.678   3.876
  434SOL    HW2 2202   4.192   6.825   3.947
  435SOL     OW 2203   3.587   1.767   6.182
  435SOL    HW1 2204   3.631   1.856   6.179
  435SOL    HW2 2205   3.581   1.730   6.090
  436SOL     OW 2206   3.914   6.378   3.886
  436SOL    HW1 2207   3.979   6.340   3.820
  436SOL    HW2 2208   3.833   6.410   3.837
  437SOL     OW 2209   0.547   0.483   4.107
  437SOL    HW1 2210   0.612   0.412   4.134
  437SOL    HW2 2211   0.550   0.558   4.174
  438SOL     OW 2212   0.999   4.691   2.916
  438SOL    HW1 2213   1.067   4.642   2.970
  438SOL    HW2 2214   0.931   4.627   2.881
  439SOL     OW 2215   5.756   0.405   2.893
  439SOL    HW1 2216   5.694   0.456   2.952
  439SOL    HW2 2217   5.821   0.468   2.850
  440SOL     OW 2218   4.670   0.865   6.964
  440SOL    HW1 2219   4.653   0.828   0.032
  440SOL    HW2 2220   4.660   0.964   6.966
  441SOL     OW 2221   7.012   4.572   2.931
  441SOL    HW1 2222   0.013   4.542   2.839
  441SOL    HW2 2223   0.059   4.542   2.996
  442SOL     OW 2224   5.671   3.635   5.441
  442SOL    HW1 2225   5.591   3.632   5.500
  442SOL    HW2 2226   5.642   3.626   5.345
  443SOL     OW 2227   5.291   4.457   3.354
  443SOL    HW1 2228   5.297   4.554   3.328
  443SOL    HW2 2229   5.200   4.437   3.390
  444SOL     OW 2230   3.845   1.184   1.192
  444SOL    HW1 2231   3.785   1.245   1.140
  444SOL    HW2 2232   3.939   1.216   1.185
  445SOL     OW 2233   1.994   5.280   2.478
  445SOL    HW1 2234   2.064   5.306   2.411
  445SOL    HW2 2235   1.997   5.343   2.556
  446SOL     OW 2236   5.903   6.170   2.711
  446SOL    HW1 2237   5.987   6.211   2.675
  446SOL    HW2 2238   5.909   6.071   2.705
  447SOL     OW 2239   6.057   3.590   0.103
  447SOL    HW1 2240   6.082   3.504   0.058
  447SOL    HW2 2241   6.022   3.655   0.036
  448SOL     OW 2242   3.089   0.945   2.237
  448SOL    HW1 2243   3.043   1.034   2.232
  448SOL    HW2 2244   3.097   0.917   2.333
  449SOL     OW 2245   1.821   2.581   4.182
  449SOL    HW1 2246   1.811   2.503   4.120
  449SOL    HW2 2247   1.747   2.647   4.164
  450SOL     OW 2248   1.354   4.369   2.903
  450SOL    HW1 2249   1.405   4.409   2.827
  450SOL    HW2 2250   1.365   4.426   2.985
  451SOL     OW 2251   0.880   2.130   3.538
  451SOL    HW1 2252   0.925   2.219   3.535
  451SOL    HW2 2253   0.927   2.067   3.476
  452SOL     OW 2254   4.012   6.171   3.639
  452SOL    HW1 2255   4.106   6.205   3.633
  452SOL    HW2 2256   3.995   6.103   3.568
  453SOL     OW 2257   4.282   6.738   0.110
  453SOL    HW1 2258   4.262   6.833   0.090
  453SOL    HW2 2259   4.252   6.680   0.033
  454SOL     OW 2260   6.783   4.665   6.596
  454SOL    HW1 2261   6.847   4.625   6.662
  454SOL    HW2 2262   6.788   4.764   6.602
  455SOL     OW 2263   6.410   4.627   5.744
  455SOL    HW1 2264   6.424   4.726   5.752
  455SOL    HW2 2265   6.371   4.592   5.830
  456SOL     OW 2266   2.818   1.161   2.449
  456SOL    HW1 2267   2.718   1.158   2.445
  456SOL    HW2 2268   2.846   1.229   2.517
  457SOL     OW 2269   2.573   6.540   5.990
  457SOL    HW1 2270   2.521   6.459   6.016
  457SOL    HW2 2271   2.668   6.530   6.020
  458SOL     OW 2272   2.011   1.623   3.300
  458SOL    HW1 2273   2.092   1.613   3.242
  458SOL    HW2 2274   1.948   1.546   3.284
  459SOL     OW 2275   2.014   6.933   4.882
  459SOL    HW1 2276   2.104   6.968   4.856
  459SOL    HW2 2277   1.948   6.955   4.811
  460SOL     OW 2278   1.675   1.674   4.754
  460SOL    HW1 2279   1.679   1.736   4.832
  460SOL    HW2 2280   1.586   1.629   4.752
  461SOL     OW 2281   0.888   4.995   5.872
  461SOL    HW1 2282   0.965   5.033   5.923
  461SOL    HW2 2283   0.914   4.906   5.834
  462SOL     OW 2284   3.440   3.678   4.475
  462SOL    HW1 2285   3.532   3.701   4.443
  462SOL    HW2 2286   3.375   3.748   4.445
  463SOL     OW 2287   6.183   6.542   2.324
  463SOL    HW1 2288   6.262   6.600   2.342
  463SOL    HW2 2289   6.132   6.579   2.246
  464SOL     OW 2290   3.469   6.390   6.354
  464SOL    HW1 2291   3.378   6.379   6.394
  464SOL    HW2 2292   3.524   6.308   6.371
  465SOL     OW 2293   1.411   2.588   0.446
  465SOL    HW1 2294   1.362   2.651   0.387
  465SOL    HW2 2295   1.405   2.495   0.410
  466SOL     OW 2296   3.456   5.999   4.838
  466SOL    HW1 2297   3.439   6.017   4.935
  466SOL    HW2 2298   3.372   5.970   4.793
  467SOL     OW 2299   6.500   1.211   2.737
  467SOL    HW1 2300   6.582   1.180   2.785
  467SOL    HW2 2301   6.443   1.131   2.714
  468SOL     OW 2302   3.819   0.290   6.578
  468SOL    HW1 2303   3.917   0.308   6.590
  468SOL    HW2 2304   3.800   0.195   6.599
  469SOL     OW 2305   2.612   4.815   6.054
  469SOL    HW1 2306   2.636   4.893   6.112
  469SOL    HW2 2307   2.604   4.733   6.110
  470SOL     OW 2308   2.536   4.951   3.035
  470SOL    HW1 2309   2.597   4.872   3.035
  470SOL    HW2 2310   2.584   5.031   3.069
  471SOL     OW 2311   3.010   2.194   4.034
  471SOL    HW1 2312   3.092   2.158   3.988
  471SOL    HW2 2313   2.961   2.255   3.972
  472SOL     OW 2314   6.375   4.106   5.791
  472SOL    HW1 2315   6.280   4.085   5.770
  472SOL    HW2 2316   6.433   4.082   5.713
  473SOL     OW 2317   0.114   2.232   2.616
  473SOL    HW1 2318   0.105   2.267   2.523
  473SOL    HW2 2319   0.059   2.149   2.626
  474SOL     OW 2320   6.125   6.443   4.618
  474SOL    HW1 2321   6.093   6.533   4.589
  474SOL    HW2 2322   6.124   6.380   4.540
  475SOL     OW 2323   6.037   1.383   1.000
  475SOL    HW1 2324   6.076   1.426   1.082
  475SOL    HW2 2325   5.938   1.385   1.005
  476SOL     OW 2326   0.726   4.075   1.649
  476SOL    HW1 2327   0.667   4.082   1.729
  476SOL    HW2 2328   0.730   3.979   1.619
  477SOL     OW 2329   1.611   4.620   3.896
  477SOL    HW1 2330   1.565   4.605   3.809
  477SOL    HW2 2331   1.564   4.693   3.946
  478SOL     OW 2332   4.486   5.747   2.437
  478SOL    HW1 2333   4.413   5.811   2.416
  478SOL    HW2 2334   4.536   5.778   2.518
  479SOL     OW 2335   3.962   3.748   3.766
  479SOL    HW1 2336   3.874   3.714   3.798
  479SOL    HW2 2337   4.035   3.713   3.825
  480SOL     OW 2338   1.545   6.997   2.840
  480SOL    HW1 2339   1.618   6.997   2.772
  480SOL    HW2 2340   1.561   6.923   2.906
  481SOL     OW 2341   0.475   6.517   0.676
  481SOL    HW1 2342   0.489   6.578   0.754
  481SOL    HW2 2343   0.383   6.479   0.679
  482SOL     OW 2344   5.323   4.433   2.224
  482SOL    HW1 2345   5.244   4.426   2.284
  482SOL    HW2 2346   5.324   4.523   2.181
  483SOL     OW 2347   6.445   2.098   3.371
  483SOL    HW1 2348   6.400   2.020   3.327
  483SOL    HW2 2349   6.382   2.176   3.373
  484SOL     OW 2350   2.265   4.110   4.294
  484SOL    HW1 2351   2.259   4.174   4.218
  484SOL    HW2 2352   2.220   4.025   4.270
  485SOL     OW 2353   5.202   2.952   2.705
  485SOL    HW1 2354   5.181   2.865   2.749
  485SOL    HW2 2355   5.203   2.939   2.605
  486SOL     OW 2356   6.593   6.239   5.758
  486SOL    HW1 2357   6.590   6.139   5.771
  486SOL    HW2 2358   6.500   6.275   5.761
  487SOL     OW 2359   0.497   6.339   4.448
  487SOL    HW1 2360   0.487   6.240   4.459
  487SOL    HW2 2361   0.479   6.364   4.352
  488SOL     OW 2362   1.579   6.351   3.437
  488SOL    HW1 2363   1.566   6.410   3.516
  488SOL    HW2 2364   1.509   6.370   3.368
  489SOL     OW 2365   0.160   5.731   5.769
  489SOL    HW1 2366   0.167   5.737   5.869
  489SOL    HW2 2367   0.113   5.647   5.744
  490SOL     OW 2368   1.634   4.714   5.786
  490SOL    HW1 2369   1.554   4.773   5.774
  490SOL    HW2 2370   1.650   4.663   5.703
  491SOL     OW 2371   0.341   2.527   0.839
  491SOL    HW1 2372   0.257   2.475   0.823
  491SOL    HW2 2373   0.419   2.465   0.836
  492SOL     OW 2374   1.876   1.688   5.463
  492SOL    HW1 2375   1.837   1.597   5.455
  492SOL    HW2 2376   1.950   1.686   5.531
  493SOL     OW 2377   2.378   6.396   4.777
  493SOL    HW1 2378   2.364   6.300   4.751
  493SOL    HW2 2379   2.470   6.407   4.814
  494SOL     OW 2380   2.232   0.231   4.985
  494SOL    HW1 2381   2.149   0.269   4.944
  494SOL    HW2 2382   2.228   0.242   5.084
  495SOL     OW 2383   4.197   6.172   5.601
  495SOL    HW1 2384   4.171   6.116   5.522
  495SOL    HW2 2385   4.282   6.135   5.641
  496SOL     OW 2386   5.144   1.774   2.751
  496SOL    HW1 2387   5.069   1.819   2.799
  496SOL    HW2 2388   5.230   1.820   2.774
  497SOL     OW 2389   3.043   1.046   6.409
  497SOL    HW1 2390   3.004   1.135   6.432
  497SOL    HW2 2391   2.970   0.981   6.390
  498SOL     OW 2392   0.595   6.052   1.925
  498SOL    HW1 2393   0.585   6.117   1.850
  498SOL    HW2 2394   0.527   5.979   1.915
  499SOL     OW 2395   3.673   5.722   6.894
  499SOL    HW1 2396   3.720   5.654   6.951
  499SOL    HW2 2397   3.657   5.684   6.803
  500SOL     OW 2398   5.761   1.961   0.123
  500SOL    HW1 2399   5.727   2.032   0.061
  500SOL    HW2 2400   5.761   1.873   0.076
  501SOL     OW 2401   0.798   0.118   2.966
  501SOL    HW1 2402   0.822   0.143   3.060
  501SOL    HW2 2403   0.807   0.198   2.907
  502SOL     OW 2404   1.874   5.092   0.027
  502SOL    HW1 2405   1.859   5.099   0.126
  502SOL    HW2 2406   1.889   4.996   0.003
  503SOL     OW 2407   3.677   5.454   0.004
  503SOL    HW1 2408   3.621   5.389   6.976
  503SOL    HW2 2409   3.621   5.494   0.078
  504SOL     OW 2410   6.018   5.991   2.176
  504SOL    HW1 2411   6.076   5.927   2.126
  504SOL    HW2 2412   5.922   5.963   2.167
  505SOL     OW 2413   5.078   6.674   5.283
  505SOL    HW1 2414   5.041   6.673   5.376
  505SOL    HW2 2415   5.094   6.580   5.252
  506SOL     OW 2416   3.462   5.640   2.839
  506SOL    HW1 2417   3.497   5.658   2.931
  506SOL    HW2 2418   3.458   5.725   2.787
  507SOL     OW 2419   3.498   0.967   1.118
  507SOL    HW1 2420   3.522   0.876   1.153
  507SOL    HW2 2421   3.556   0.989   1.040
  508SOL     OW 2422   0.484   4.639   4.530
  508SOL    HW1 2423   0.575   4.658   4.567
  508SOL    HW2 2424   0.457   4.715   4.470
  509SOL     OW 2425   4.645   0.362   6.213
  509SOL    HW1 2426   4.551   0.391   6.195
  509SOL    HW2 2427   4.679   0.308   6.136
  510SOL     OW 2428   6.500   4.440   6.744
  510SOL    HW1 2429   6.408   4.412   6.717
  510SOL    HW2 2430   6.564   4.421   6.669
  511SOL     OW 2431   1.045   1.697   0.266
  511SOL    HW1 2432   1.028   1.678   0.170
  511SOL    HW2 2433   0.993   1.778   0.294
  512SOL     OW 2434   6.416   2.064   6.908
  512SOL    HW1 2435   6.443   2.115   6.826
  512SOL    HW2 2436   6.385   2.128   6.978
  513SOL     OW 2437   5.459   0.131   3.027
  513SOL    HW1 2438   5.524   0.191   3.075
  513SOL    HW2 2439   5.498   0.040   3.018
  514SOL     OW 2440   6.641   6.830   4.161
  514SOL    HW1 2441   6.671   6.765   4.230
  514SOL    HW2 2442   6.543   6.845   4.169
  515SOL     OW 2443   3.451   6.769   6.916
  515SOL    HW1 2444   3.523   6.700   6.924
  515SOL    HW2 2445   3.370   6.728   6.875
  516SOL     OW 2446   2.417   5.350   1.564
  516SOL    HW1 2447   2.457   5.349   1.472
  516SOL    HW2 2448   2.488   5.328   1.631
  517SOL     OW 2449   2.916   5.157   2.376
  517SOL    HW1 2450   2.888   5.233   2.318
  517SOL    HW2 2451   2.995   5.111   2.336
  518SOL     OW 2452   2.170   2.802   3.498
  518SOL    HW1 2453   2.120   2.734   3.551
  518SOL    HW2 2454   2.152   2.893   3.535
  519SOL     OW 2455   0.361   6.511   3.430
  519SOL    HW1 2456   0.281   6.478   3.379
  519SOL    HW2 2457   0.429   6.546   3.366
  520SOL     OW 2458   1.366   2.842   0.086
  520SOL    HW1 2459   1.402   2.873   0.174
  520SOL    HW2 2460   1.268   2.862   0.081
  521SOL     OW 2461   4.695   4.836   4.859
  521SOL    HW1 2462   4.767   4.885   4.809
  521SOL    HW2 2463   4.729   4.810   4.950
  522SOL     OW 2464   4.317   3.706   1.192
  522SOL    HW1 2465   4.321   3.711   1.092
  522SOL    HW2 2466   4.292   3.796   1.228
  523SOL     OW 2467   6.961   6.713   1.513
  523SOL    HW1 2468   6.958   6.677   1.606
  523SOL    HW2 2469   6.987   6.810   1.515
  524SOL     OW 2470   6.965   2.734   2.261
  524SOL    HW1 2471   6.889   2.758   2.201
  524SOL    HW2 2472   0.026   2.732   2.208
  525SOL     OW 2473   1.333   3.573   6.717
  525SOL    HW1 2474   1.369   3.517   6.642
  525SOL    HW2 2475   1.407   3.624   6.760
  526SOL     OW 2476   2.988   0.333   4.548
  526SOL    HW1 2477   3.070   0.288   4.583
  526SOL    HW2 2478   2.911   0.312   4.608
  527SOL     OW 2479   1.287   2.077   6.648
  527SOL    HW1 2480   1.351   2.007   6.616
  527SOL    HW2 2481   1.200   2.068   6.599
  528SOL     OW 2482   6.957   2.986   4.213
  528SOL    HW1 2483   6.962   3.065   4.152
  528SOL    HW2 2484   6.971   3.015   4.307
  529SOL     OW 2485   2.518   0.224   5.632
  529SOL    HW1 2486   2.437   0.218   5.572
  529SOL    HW2 2487   2.488   0.236   5.727
  530SOL     OW 2488   3.594   3.463   1.697
  530SOL    HW1 2489   3.494   3.458   1.700
  530SOL    HW2 2490   3.631   3.372   1.681
  531SOL     OW 2491   2.485   0.829   2.150
  531SOL    HW1 2492   2.513   0.922   2.175
  531SOL    HW2 2493   2.388   0.817   2.171
  532SOL     OW 2494   3.001   2.888   0.230
  532SOL    HW1 2495   2.954   2.814   0.278
  532SOL    HW2 2496   3.085   2.854   0.188
  533SOL     OW 2497   3.844   0.441   3.803
  533SOL    HW1 2498   3.852   0.341   3.803
  533SOL    HW2 2499   3.891   0.479   3.882
  534SOL     OW 2500   0.660   5.754   1.196
  534SOL    HW1 2501   0.643   5.798   1.108
  534SOL    HW2 2502   0.608   5.669   1.202
  535SOL     OW 2503   5.492   3.997   3.406
  535SOL    HW1 2504   5.503   3.943   3.322
  535SOL    HW2 2505   5.488   4.094   3.383
  536SOL     OW 2506   6.643   6.267   3.068
  536SOL    HW1 2507   6.635   6.363   3.041
  536SOL    HW2 2508   6.606   6.255   3.160
  537SOL     OW 2509   3.120   0.392   3.940
  537SOL    HW1 2510   3.189   0.463   3.949
  537SOL    HW2 2511   3.156   0.317   3.884
  538SOL     OW 2512   2.464   5.121   5.677
  538SOL    HW1 2513   2.507   5.154   5.593
  538SOL    HW2 2514   2.366   5.110   5.662
  539SOL     OW 2515   1.110   5.988   0.524
  539SOL    HW1 2516   1.045   5.928   0.570
  539SOL    HW2 2517   1.061   6.066   0.484
  540SOL     OW 2518   1.435   0.540   3.402
  540SOL    HW1 2519   1.532   0.563   3.408
  540SOL    HW2 2520   1.395   0.540   3.494
  541SOL     OW 2521   3.913   6.559   4.455
  541SOL    HW1 2522   3.829   6.504   4.453
  541SOL    HW2 2523   3.953   6.562   4.363
  542SOL     OW 2524   3.112   6.421   6.710
  542SOL    HW1 2525   3.038   6.480   6.680
  542SOL    HW2 2526   3.121   6.428   6.809
  543SOL     OW 2527   6.198   2.457   3.904
  543SOL    HW1 2528   6.212   2.541   3.958
  543SOL    HW2 2529   6.256   2.384   3.942
  544SOL     OW 2530   0.264   4.843   0.033
  544SOL    HW1 2531   0.290   4.934   0.002
  544SOL    HW2 2532   0.185   4.850   0.095
  545SOL     OW 2533   5.313   1.478   1.397
  545SOL    HW1 2534   5.221   1.490   1.435
  545SOL    HW2 2535   5.359   1.403   1.445
  546SOL     OW 2536   0.442   4.275   2.405
  546SOL    HW1 2537   0.511   4.246   2.340
  546SOL    HW2 2538   0.377   4.201   2.420
  547SOL     OW 2539   3.748   1.060   0.094
  547SOL    HW1 2540   3.704   1.146   0.069
  547SOL    HW2 2541   3.687   0.984   0.072
  548SOL     OW 2542   4.045   2.935   6.981
  548SOL    HW1 2543   4.118   3.004   6.981
  548SOL    HW2 2544   4.038   2.895   6.890
  549SOL     OW 2545   6.235   2.101   0.611
  549SOL    HW1 2546   6.289   2.077   0.692
  549SOL    HW2 2547   6.150   2.047   0.611
  550SOL     OW 2548   6.854   4.785   2.996
  550SOL    HW1 2549   6.881   4.692   2.971
  550SOL    HW2 2550   6.881   4.849   2.924
  551SOL     OW 2551   6.806   1.104   0.140
  551SOL    HW1 2552   6.808   1.035   0.068
  551SOL    HW2 2553   6.740   1.077   0.210
  552SOL     OW 2554   5.610   5.628   5.510
  552SOL    HW1 2555   5.579   5.571   5.586
  552SOL    HW2 2556   5.534   5.646   5.448
  553SOL     OW 2557   3.454   1.249   5.780
  553SOL    HW1 2558   3.403   1.258   5.866
  553SOL    HW2 2559   3.444   1.156   5.746
  554SOL     OW 2560   5.618   5.792   1.056
  554SOL    HW1 2561   5.555   5.836   1.120
  554SOL    HW2 2562   5.586   5.807   0.962
  555SOL     OW 2563   2.585   5.331   5.520
  555SOL    HW1 2564   2.511   5.369   5.576
  555SOL    HW2 2565   2.670   5.382   5.538
  556SOL     OW 2566   4.905   2.193   3.718
  556SOL    HW1 2567   4.925   2.139   3.636
  556SOL    HW2 2568   4.981   2.184   3.783
  557SOL     OW 2569   6.859   5.167   5.742
  557SOL    HW1 2570   6.835   5.259   5.773
  557SOL    HW2 2571   6.910   5.172   5.656
  558SOL     OW 2572   3.787   3.662   2.903
  558SOL    HW1 2573   3.736   3.592   2.952
  558SOL    HW2 2574   3.771   3.752   2.945
  559SOL     OW 2575   6.349   6.379   5.750
  559SOL    HW1 2576   6.283   6.307   5.728
  559SOL    HW2 2577   6.346   6.399   5.848
  560SOL     OW 2578   6.793   2.711   3.117
  560SOL    HW1 2579   6.890   2.711   3.092
  560SOL    HW2 2580   6.741   2.660   3.048
  561SOL     OW 2581   0.326   3.336   6.312
  561SOL    HW1 2582   0.383   3.314   6.232
  561SOL    HW2 2583   0.269   3.416   6.291
  562SOL     OW 2584   4.729   6.575   5.740
  562SOL    HW1 2585   4.703   6.654   5.684
  562SOL    HW2 2586   4.796   6.605   5.809
  563SOL     OW 2587   1.729   1.898   4.426
  563SOL    HW1 2588   1.705   1.947   4.510
  563SOL    HW2 2589   1.818   1.854   4.438
  564SOL     OW 2590   0.252   1.185   5.684
  564SOL    HW1 2591   0.251   1.085   5.695
  564SOL    HW2 2592   0.338   1.213   5.643
  565SOL     OW 2593   3.296   2.930   3.944
  565SOL    HW1 2594   3.261   2.840   3.919
  565SOL    HW2 2595   3.376   2.919   4.003
  566SOL     OW 2596   3.353   5.154   2.983
  566SOL    HW1 2597   3.331   5.174   3.079
  566SOL    HW2 2598   3.393   5.235   2.941
  567SOL     OW 2599   2.501   2.857   6.669
  567SOL    HW1 2600   2.542   2.938   6.711
  567SOL    HW2 2601   2.416   2.835   6.716
  568SOL     OW 2602   5.705   6.925   0.544
  568SOL    HW1 2603   5.649   6.899   0.465
  568SOL    HW2 2604   5.744   7.016   0.528
  569SOL     OW 2605   0.272   2.013   6.693
  569SOL    HW1 2606   0.310   2.104   6.709
  569SOL    HW2 2607   0.228   1.981   6.777
  570SOL     OW 2608   2.990   0.564   6.374
  570SOL    HW1 2609   3.046   0.539   6.453
  570SOL    HW2 2610   3.048   0.571   6.293
  571SOL     OW 2611   2.785   4.709   3.116
  571SOL    HW1 2612   2.862   4.763   3.150
  571SOL    HW2 2613   2.793   4.700   3.016
  572SOL     OW 2614   1.764   6.186   4.596
  572SOL    HW1 2615   1.707   6.235   4.530
  572SOL    HW2 2616   1.710   6.166   4.678
  573SOL     OW 2617   6.245   2.163   5.926
  573SOL    HW1 2618   6.164   2.220   5.918
  573SOL    HW2 2619   6.259   2.114   5.840
  574SOL     OW 2620   3.253   1.824   5.321
  574SOL    HW1 2621   3.233   1.873   5.406
  574SOL    HW2 2622   3.256   1.889   5.245
  575SOL     OW 2623   3.478   3.311   0.437
  575SOL    HW1 2624   3.472   3.378   0.363
  575SOL    HW2 2625   3.479   3.358   0.525
  576SOL     OW 2626   2.117   3.261   2.916
  576SOL    HW1 2627   2.171   3.294   2.993
  576SOL    HW2 2628   2.027   3.230   2.949
  577SOL     OW 2629   0.898   1.084   2.278
  577SOL    HW1 2630   0.894   0.987   2.299
  577SOL    HW2 2631   0.988   1.106   2.240
  578SOL     OW 2632   1.744   5.378   0.438
  578SOL    HW1 2633   1.841   5.374   0.410
  578SOL    HW2 2634   1.695   5.302   0.395
  579SOL     OW 2635   2.893   4.885   2.653
  579SOL    HW1 2636   2.830   4.961   2.639
  579SOL    HW2 2637   2.975   4.918   2.699
  580SOL     OW 2638   4.274   5.185   5.122
  580SOL    HW1 2639   4.290   5.177   5.220
  580SOL    HW2 2640   4.241   5.097   5.087
  581SOL     OW 2641   0.931   2.753   3.466
  581SOL    HW1 2642   0.866   2.806   3.412
  581SOL    HW2 2643   0.956   2.804   3.548
  582SOL     OW 2644   5.730   5.131   3.437
  582SOL    HW1 2645   5.714   5.224   3.472
  582SOL    HW2 2646   5.654   5.105   3.378
  583SOL     OW 2647   3.144   4.960   5.538
  583SOL    HW1 2648   3.189   4.965   5.448
  583SOL    HW2 2649   3.055   4.917   5.528
  584SOL     OW 2650   3.363   0.172   6.142
  584SOL    HW1 2651   3.308   0.098   6.181
  584SOL    HW2 2652   3.439   0.133   6.090
  585SOL     OW 2653   2.837   7.002   1.778
  585SOL    HW1 2654   2.810   7.000   1.682
  585SOL    HW2 2655   2.762   6.965   1.834
  586SOL     OW 2656   4.278   0.364   1.581
  586SOL    HW1 2657   4.367   0.319   1.578
  586SOL    HW2 2658   4.272   0.421   1.663
  587SOL     OW 2659   5.438   2.109   1.957
  587SOL    HW1 2660   5.537   2.122   1.947
  587SOL    HW2 2661   5.398   2.093   1.867
  588SOL     OW 2662   1.236   5.565   1.042
  588SOL    HW1 2663   1.184   5.491   1.000
  588SOL    HW2 2664   1.175   5.642   1.062
  589SOL     OW 2665   3.273   6.217   1.175
  589SOL    HW1 2666   3.292   6.119   1.182
  589SOL    HW2 2667   3.178   6.231   1.149
  590SOL     OW 2668   5.928   1.894   1.010
  590SOL    HW1 2669   5.938   1.823   0.940
  590SOL    HW2 2670   5.977   1.976   0.981
  591SOL     OW 2671   4.214   5.594   4.366
  591SOL    HW1 2672   4.308   5.559   4.369
  591SOL    HW2 2673   4.163   5.545   4.295
  592SOL     OW 2674   4.962   1.727   4.016
  592SOL    HW1 2675   4.883   1.683   3.975
  592SOL    HW2 2676   5.033   1.740   3.947
  593SOL     OW 2677   3.933   2.206   5.050
  593SOL    HW1 2678   3.878   2.279   5.088
  593SOL    HW2 2679   4.025   2.240   5.028
  594SOL     OW 2680   5.815   1.902   1.471
  594SOL    HW1 2681   5.780   1.816   1.509
  594SOL    HW2 2682   5.858   1.884   1.383
  595SOL     OW 2683   5.036   6.296   2.973
  595SOL    HW1 2684   5.029   6.198   2.990
  595SOL    HW2 2685   5.056   6.344   3.058
  596SOL     OW 2686   0.027   4.494   4.159
  596SOL    HW1 2687   7.020   4.399   4.162
  596SOL    HW2 2688   0.078   4.515   4.243
  597SOL     OW 2689   2.962   6.792   5.631
  597SOL    HW1 2690   2.897   6.718   5.651
  597SOL    HW2 2691   3.047   6.776   5.682
  598SOL     OW 2692   2.985   3.720   4.627
  598SOL    HW1 2693   2.972   3.638   4.571
  598SOL    HW2 2694   3.029   3.792   4.572
  599SOL     OW 2695   1.911   6.202   2.073
  599SOL    HW1 2696   1.828   6.249   2.043
  599SOL    HW2 2697   1.896   6.103   2.071
  600SOL     OW 2698   6.990   4.045   5.173
  600SOL    HW1 2699   0.032   3.972   5.156
  600SOL    HW2 2700   6.922   4.014   5.240
  601SOL     OW 2701   1.057   0.759   4.849
  601SOL    HW1 2702   0.981   0.824   4.855
  601SOL    HW2 2703   1.126   0.782   4.918
  602SOL     OW 2704   2.671   6.768   4.989
  602SOL    HW1 2705   2.638   6.722   5.071
  602SOL    HW2 2706   2.650   6.865   4.994
  603SOL     OW 2707   1.523   1.460   5.016
  603SOL    HW1 2708   1.601   1.486   5.072
  603SOL    HW2 2709   1.458   1.407   5.071
  604SOL     OW 2710   0.179   2.321   1.561
  604SOL    HW1 2711   0.089   2.277   1.558
  604SOL    HW2 2712   0.188   2.375   1.645
  605SOL     OW 2713   0.230   4.475   2.314
  605SOL    HW1 2714   0.199   4.525   2.394
  605SOL    HW2 2715   0.264   4.539   2.245
  606SOL     OW 2716   4.047   6.703   4.957
  606SOL    HW1 2717   4.002   6.741   5.037
  606SOL    HW2 2718   3.986   6.636   4.914
  607SOL     OW 2719   1.557   4.970   6.074
  607SOL    HW1 2720   1.607   5.042   6.026
  607SOL    HW2 2721   1.511   5.008   6.154
  608SOL     OW 2722   3.709   6.812   6.777
  608SOL    HW1 2723   3.730   6.893   6.723
  608SOL    HW2 2724   3.621   6.823   6.823
  609SOL     OW 2725   3.761   2.504   1.617
  609SOL    HW1 2726   3.840   2.483   1.559
  609SOL    HW2 2727   3.760   2.442   1.696
  610SOL     OW 2728   4.718   2.621   0.279
  610SOL    HW1 2729   4.653   2.598   0.206
  610SOL    HW2 2730   4.703   2.559   0.356
  611SOL     OW 2731   3.894   6.708   2.416
  611SOL    HW1 2732   3.847   6.629   2.454
  611SOL    HW2 2733   3.887   6.785   2.480
  612SOL     OW 2734   3.479   5.215   5.636
  612SOL    HW1 2735   3.484   5.131   5.689
  612SOL    HW2 2736   3.467   5.194   5.539
  613SOL     OW 2737   5.572   5.722   4.715
  613SOL    HW1 2738   5.504   5.650   4.733
  613SOL    HW2 2739   5.647   5.684   4.662
  614SOL     OW 2740   4.969   5.200   5.124
  614SOL    HW1 2741   4.938   5.124   5.181
  614SOL    HW2 2742   5.068   5.213   5.137
  615SOL     OW 2743   0.169   4.624   0.813
  615SOL    HW1 2744   0.254   4.572   0.806
  615SOL    HW2 2745   0.160   4.686   0.735
  616SOL     OW 2746   6.639   2.840   3.293
  616SOL    HW1 2747   6.654   2.937   3.275
  616SOL    HW2 2748   6.681   2.786   3.220
  617SOL     OW 2749   2.499   5.606   6.065
  617SOL    HW1 2750   2.580   5.584   6.011
  617SOL    HW2 2751   2.515   5.689   6.118
  618SOL     OW 2752   2.188   1.562   1.716
  618SOL    HW1 2753   2.232   1.630   1.657
  618SOL    HW2 2754   2.140   1.495   1.660
  619SOL     OW 2755   1.675   2.159   6.749
  619SOL    HW1 2756   1.638   2.075   6.787
  619SOL    HW2 2757   1.644   2.237   6.805
  620SOL     OW 2758   4.863   2.545   0.833
  620SOL    HW1 2759   4.839   2.642   0.834
  620SOL    HW2 2760   4.782   2.491   0.813
  621SOL     OW 2761   5.906   5.316   0.159
  621SOL    HW1 2762   5.812   5.333   0.188
  621SOL    HW2 2763   5.919   5.218   0.141
  622SOL     OW 2764   1.799   1.340   6.866
  622SOL    HW1 2765   1.791   1.269   6.936
  622SOL    HW2 2766   1.716   1.396   6.867
  623SOL     OW 2767   0.773   5.370   6.080
  623SOL    HW1 2768   0.837   5.342   6.008
  623SOL    HW2 2769   0.694   5.308   6.081
  624SOL     OW 2770   0.520   2.715   2.779
  624SOL    HW1 2771   0.539   2.811   2.798
  624SOL    HW2 2772   0.433   2.707   2.730
  625SOL     OW 2773   2.730   1.843   2.332
  625SOL    HW1 2774   2.697   1.754   2.300
  625SOL    HW2 2775   2.744   1.904   2.254
  626SOL     OW 2776   2.019   6.139   3.381
  626SOL    HW1 2777   1.926   6.113   3.355
  626SOL    HW2 2778   2.071   6.161   3.298
  627SOL     OW 2779   5.460   0.748   0.592
  627SOL    HW1 2780   5.368   0.774   0.621
  627SOL    HW2 2781   5.480   0.789   0.503
  628SOL     OW 2782   5.083   5.193   4.646
  628SOL    HW1 2783   5.132   5.262   4.699
  628SOL    HW2 2784   4.998   5.232   4.610
  629SOL     OW 2785   0.447   0.221   1.476
  629SOL    HW1 2786   0.527   0.266   1.515
  629SOL    HW2 2787   0.473   0.172   1.393
  630SOL     OW 2788   4.641   1.834   1.757
  630SOL    HW1 2789   4.625   1.759   1.821
  630SOL    HW2 2790   4.635   1.799   1.663
  631SOL     OW 2791   2.845   0.191   5.217
  631SOL    HW1 2792   2.860   0.212   5.121
  631SOL    HW2 2793   2.791   0.264   5.259
  632SOL     OW 2794   2.091   1.257   0.513
  632SOL    HW1 2795   2.177   1.283   0.469
  632SOL    HW2 2796   2.100   1.165   0.552
  633SOL     OW 2797   3.225   5.487   0.651
  633SOL    HW1 2798   3.307   5.458   0.699
  633SOL    HW2 2799   3.250   5.527   0.563
  634SOL     OW 2800   4.375   5.234   1.604
  634SOL    HW1 2801   4.455   5.218   1.546
  634SOL    HW2 2802   4.293   5.198   1.559
  635SOL     OW 2803   3.545   0.187   3.296
  635SOL    HW1 2804   3.645   0.186   3.295
  635SOL    HW2 2805   3.512   0.267   3.246
  636SOL     OW 2806   5.094   5.199   6.597
  636SOL    HW1 2807   4.997   5.188   6.622
  636SOL    HW2 2808   5.108   5.164   6.505
  637SOL     OW 2809   5.016   4.944   1.951
  637SOL    HW1 2810   4.926   4.962   1.913
  637SOL    HW2 2811   5.006   4.900   2.041
  638SOL     OW 2812   5.088   1.125   1.825
  638SOL    HW1 2813   5.098   1.200   1.759
  638SOL    HW2 2814   5.108   1.159   1.917
  639SOL     OW 2815   4.501   4.643   1.718
  639SOL    HW1 2816   4.552   4.644   1.804
  639SOL    HW2 2817   4.422   4.581   1.727
  640SOL     OW 2818   2.361   4.205   6.138
  640SOL    HW1 2819   2.289   4.233   6.201
  640SOL    HW2 2820   2.335   4.228   6.045
  641SOL     OW 2821   0.898   5.476   4.478
  641SOL    HW1 2822   0.975   5.493   4.416
  641SOL    HW2 2823   0.918   5.517   4.567
  642SOL     OW 2824   0.345   4.794   5.169
  642SOL    HW1 2825   0.391   4.793   5.258
  642SOL    HW2 2826   0.408   4.764   5.098
  643SOL     OW 2827   6.766   6.069   4.919
  643SOL    HW1 2828   6.669   6.061   4.896
  643SOL    HW2 2829   6.791   5.995   4.982
  644SOL     OW 2830   1.112   6.448   3.208
  644SOL    HW1 2831   1.027   6.421   3.162
  644SOL    HW2 2832   1.121   6.396   3.293
  645SOL     OW 2833   4.482   2.514   4.615
  645SOL    HW1 2834   4.537   2.595   4.629
  645SOL    HW2 2835   4.446   2.482   4.703
  646SOL     OW 2836   1.803   1.564   3.699
  646SOL    HW1 2837   1.815   1.657   3.735
  646SOL    HW2 2838   1.893   1.522   3.684
  647SOL     OW 2839   6.176   2.933   0.026
  647SOL    HW1 2840   6.257   2.888   7.013
  647SOL    HW2 2841   6.096   2.910   6.994
  648SOL     OW 2842   5.806   3.709   2.362
  648SOL    HW1 2843   5.761   3.658   2.435
  648SOL    HW2 2844   5.842   3.646   2.294
  649SOL     OW 2845   3.703   4.265   0.822
  649SOL    HW1 2846   3.739   4.207   0.749
  649SOL    HW2 2847   3.674   4.208   0.899
  650SOL     OW 2848   4.484   4.824   0.769
  650SOL    HW1 2849   4.405   4.813   0.709
  650SOL    HW2 2850   4.564   4.851   0.715
  651SOL     OW 2851   0.424   6.342   1.028
  651SOL    HW1 2852   0.499   6.321   0.966
  651SOL    HW2 2853   0.461   6.382   1.112
  652SOL     OW 2854   4.418   6.951   2.933
  652SOL    HW1 2855   4.449   7.009   2.858
  652SOL    HW2 2856   4.325   6.918   2.913
  653SOL     OW 2857   3.473   5.187   4.213
  653SOL    HW1 2858   3.375   5.200   4.197
  653SOL    HW2 2859   3.502   5.102   4.168
  654SOL     OW 2860   7.007   5.559   6.532
  654SOL    HW1 2861   6.920   5.511   6.536
  654SOL    HW2 2862   6.992   5.657   6.541
  655SOL     OW 2863   0.667   0.336   1.581
  655SOL    HW1 2864   0.654   0.401   1.656
  655SOL    HW2 2865   0.765   0.327   1.562
  656SOL     OW 2866   2.430   6.035   2.160
  656SOL    HW1 2867   2.390   5.994   2.242
  656SOL    HW2 2868   2.391   5.993   2.079
  657SOL     OW 2869   2.574   1.725   1.108
  657SOL    HW1 2870   2.592   1.715   1.010
  657SOL    HW2 2871   2.630   1.799   1.145
  658SOL     OW 2872   3.432   3.865   0.093
  658SOL    HW1 2873   3.481   3.909   0.018
  658SOL    HW2 2874   3.350   3.820   0.058
  659SOL     OW 2875   2.628   6.747   6.387
  659SOL    HW1 2876   2.628   6.667   6.446
  659SOL    HW2 2877   2.537   6.790   6.389
  660SOL     OW 2878   4.087   5.904   2.037
  660SOL    HW1 2879   3.997   5.924   2.075
  660SOL    HW2 2880   4.082   5.823   1.978
  661SOL     OW 2881   4.762   5.564   3.499
  661SOL    HW1 2882   4.829   5.638   3.490
  661SOL    HW2 2883   4.807   5.476   3.479
  662SOL     OW 2884   3.802   0.894   5.653
  662SOL    HW1 2885   3.900   0.916   5.660
  662SOL    HW2 2886   3.757   0.916   5.740
  663SOL     OW 2887   1.936   4.517   4.750
  663SOL    HW1 2888   1.929   4.614   4.727
  663SOL    HW2 2889   1.845   4.475   4.745
  664SOL     OW 2890   0.575   6.153   6.348
  664SOL    HW1 2891   0.639   6.225   6.375
  664SOL    HW2 2892   0.578   6.142   6.249
  665SOL     OW 2893   4.028   5.190   3.558
  665SOL    HW1 2894   3.930   5.171   3.565
  665SOL    HW2 2895   4.070   5.184   3.648
  666SOL     OW 2896   4.022   0.825   2.433
  666SOL    HW1 2897   3.930   0.851   2.403
  666SOL    HW2 2898   4.089   0.857   2.366
  667SOL     OW 2899   0.687   5.176   1.778
  667SOL    HW1 2900   0.781   5.156   1.803
  667SOL    HW2 2901   0.668   5.142   1.686
  668SOL     OW 2902   5.583   4.745   6.055
  668SOL    HW1 2903   5.538   4.804   6.122
  668SOL    HW2 2904   5.651   4.688   6.102
  669SOL     OW 2905   5.634   1.244   3.198
  669SOL    HW1 2906   5.549   1.294   3.180
  669SOL    HW2 2907   5.619   1.180   3.273
  670SOL     OW 2908   2.148   1.867   3.101
  670SOL    HW1 2909   2.078   1.865   3.030
  670SOL    HW2 2910   2.170   1.773   3.129
  671SOL     OW 2911   3.051   6.620   1.536
  671SOL    HW1 2912   3.131   6.676   1.558
  671SOL    HW2 2913   3.075   6.523   1.544
  672SOL     OW 2914   0.432   5.855   1.844
  672SOL    HW1 2915   0.484   5.774   1.870
  672SOL    HW2 2916   0.367   5.831   1.772
  673SOL     OW 2917   5.091   6.681   0.948
  673SOL    HW1 2918   5.091   6.589   0.988
  673SOL    HW2 2919   5.183   6.705   0.917
  674SOL     OW 2920   6.962   1.987   4.866
  674SOL    HW1 2921   6.930   2.064   4.811
  674SOL    HW2 2922   6.887   1.924   4.883
  675SOL     OW 2923   6.303   2.309   2.003
  675SOL    HW1 2924   6.207   2.305   2.031
  675SOL    HW2 2925   6.356   2.242   2.056
  676SOL     OW 2926   2.635   4.657   4.606
  676SOL    HW1 2927   2.608   4.569   4.643
  676SOL    HW2 2928   2.678   4.712   4.678
  677SOL     OW 2929   4.866   1.063   1.434
  677SOL    HW1 2930   4.915   0.992   1.484
  677SOL    HW2 2931   4.875   1.151   1.482
  678SOL     OW 2932   2.811   4.590   5.409
  678SOL    HW1 2933   2.772   4.671   5.365
  678SOL    HW2 2934   2.867   4.540   5.343
  679SOL     OW 2935   5.418   1.969   4.890
  679SOL    HW1 2936   5.424   1.954   4.989
  679SOL    HW2 2937   5.471   1.899   4.843
  680SOL     OW 2938   5.006   6.376   4.090
  680SOL    HW1 2939   4.967   6.464   4.064
  680SOL    HW2 2940   4.932   6.311   4.107
  681SOL     OW 2941   4.888   5.786   2.640
  681SOL    HW1 2942   4.845   5.798   2.730
  681SOL    HW2 2943   4.858   5.858   2.579
  682SOL     OW 2944   0.149   1.353   2.042
  682SOL    HW1 2945   0.120   1.286   2.110
  682SOL    HW2 2946   0.232   1.319   1.996
  683SOL     OW 2947   4.101   3.049   1.277
  683SOL    HW1 2948   4.027   3.115   1.267
  683SOL    HW2 2949   4.186   3.098   1.298
  684SOL     OW 2950   6.068   0.283   6.916
  684SOL    HW1 2951   6.115   0.260   7.002
  684SOL    HW2 2952   6.133   0.281   6.841
  685SOL     OW 2953   3.496   1.208   3.405
  685SOL    HW1 2954   3.430   1.265   3.454
  685SOL    HW2 2955   3.578   1.195   3.460
  686SOL     OW 2956   4.499   1.270   3.728
  686SOL    HW1 2957   4.523   1.260   3.824
  686SOL    HW2 2958   4.434   1.345   3.718
  687SOL     OW 2959   0.999   1.917   4.564
  687SOL    HW1 2960   0.955   2.004   4.542
  687SOL    HW2 2961   0.965   1.846   4.502
  688SOL     OW 2962   0.241   0.973   6.156
  688SOL    HW1 2963   0.219   1.069   6.139
  688SOL    HW2 2964   0.161   0.928   6.197
  689SOL     OW 2965   0.953   4.733   5.756
  689SOL    HW1 2966   0.914   4.655   5.807
  689SOL    HW2 2967   1.034   4.703   5.707
  690SOL     OW 2968   6.380   3.512   3.146
  690SOL    HW1 2969   6.303   3.574   3.133
  690SOL    HW2 2970   6.353   3.436   3.206
  691SOL     OW 2971   4.474   1.542   0.774
  691SOL    HW1 2972   4.543   1.585   0.717
  691SOL    HW2 2973   4.393   1.521   0.719
  692SOL     OW 2974   3.474   1.674   5.483
  692SOL    HW1 2975   3.468   1.666   5.384
  692SOL    HW2 2976   3.408   1.742   5.515
  693SOL     OW 2977   4.316   6.182   3.685
  693SOL    HW1 2978   4.338   6.098   3.635
  693SOL    HW2 2979   4.364   6.259   3.644
  694SOL     OW 2980   3.701   6.406   4.381
  694SOL    HW1 2981   3.611   6.443   4.359
  694SOL    HW2 2982   3.746   6.375   4.298
  695SOL     OW 2983   3.164   5.818   4.419
  695SOL    HW1 2984   3.238   5.780   4.364
  695SOL    HW2 2985   3.151   5.762   4.501
  696SOL     OW 2986   5.097   4.315   3.529
  696SOL    HW1 2987   5.124   4.248   3.598
  696SOL    HW2 2988   4.997   4.325   3.529
  697SOL     OW 2989   0.911   3.749   1.688
  697SOL    HW1 2990   0.853   3.796   1.621
  697SOL    HW2 2991   0.966   3.680   1.641
  698SOL     OW 2992   4.744   6.489   1.227
  698SOL    HW1 2993   4.694   6.503   1.142
  698SOL    HW2 2994   4.726   6.397   1.262
  699SOL     OW 2995   1.988   3.246   6.228
  699SOL    HW1 2996   1.985   3.325   6.290
  699SOL    HW2 2997   2.068   3.254   6.168
  700SOL     OW 2998   3.488   6.929   2.479
  700SOL    HW1 2999   3.402   6.946   2.430
  700SOL    HW2 3000   3.554   7.001   2.456
  701SOL     OW 3001   5.970   4.703   0.852
  701SOL    HW1 3002   5.893   4.653   0.892
  701SOL    HW2 3003   6.016   4.756   0.922
  702SOL     OW 3004   2.511   0.418   4.243
  702SOL    HW1 3005   2.604   0.436   4.276
  702SOL    HW2 3006   2.459   0.503   4.245
  703SOL     OW 3007   2.995   3.433   5.648
  703SOL    HW1 3008   2.942   3.352   5.623
  703SOL    HW2 3009   3.092   3.412   5.643
  704SOL     OW 3010   1.516   2.826   6.085
  704SOL    HW1 3011   1.422   2.804   6.110
  704SOL    HW2 3012   1.516   2.908   6.027
  705SOL     OW 3013   0.051   6.513   4.215
  705SOL    HW1 3014   0.050   6.414   4.197
  705SOL    HW2 3015   0.145   6.542   4.235
  706SOL     OW 3016   4.317   1.090   5.419
  706SOL    HW1 3017   4.226   1.109   5.385
  706SOL    HW2 3018   4.362   1.022   5.361
  707SOL     OW 3019   4.138   5.491   3.232
  707SOL    HW1 3020   4.055   5.438   3.217
  707SOL    HW2 3021   4.174   5.472   3.323
  708SOL     OW 3022   2.773   1.057   3.590
  708SOL    HW1 3023   2.692   1.107   3.621
  708SOL    HW2 3024   2.844   1.122   3.564
  709SOL     OW 3025   1.831   6.573   1.700
  709SOL    HW1 3026   1.886   6.653   1.679
  709SOL    HW2 3027   1.890   6.494   1.716
  710SOL     OW 3028   4.953   2.461   1.460
  710SOL    HW1 3029   4.876   2.454   1.524
  710SOL    HW2 3030   4.947   2.547   1.410
  711SOL     OW 3031   6.949   2.890   6.118
  711SOL    HW1 3032   6.934   2.973   6.064
  711SOL    HW2 3033   6.993   2.913   6.205
  712SOL     OW 3034   4.721   2.641   1.216
  712SOL    HW1 3035   4.802   2.693   1.244
  712SOL    HW2 3036   4.638   2.692   1.241
  713SOL     OW 3037   4.235   2.624   5.407
  713SOL    HW1 3038   4.163   2.674   5.455
  713SOL    HW2 3039   4.197   2.577   5.328
  714SOL     OW 3040   6.322   5.442   3.876
  714SOL    HW1 3041   6.225   5.457   3.895
  714SOL    HW2 3042   6.339   5.345   3.858
  715SOL     OW 3043   6.247   4.986   5.650
  715SOL    HW1 3044   6.253   5.008   5.747
  715SOL    HW2 3045   6.310   4.911   5.629
  716SOL     OW 3046   2.086   0.857   2.790
  716SOL    HW1 3047   2.011   0.894   2.736
  716SOL    HW2 3048   2.114   0.769   2.752
  717SOL     OW 3049   5.867   4.686   4.634
  717SOL    HW1 3050   5.909   4.619   4.694
  717SOL    HW2 3051   5.842   4.643   4.547
  718SOL     OW 3052   4.708   2.621   4.421
  718SOL    HW1 3053   4.778   2.691   4.410
  718SOL    HW2 3054   4.739   2.553   4.487
  719SOL     OW 3055   6.836   0.214   2.309
  719SOL    HW1 3056   6.908   0.144   2.305
  719SOL    HW2 3057   6.752   0.176   2.271
  720SOL     OW 3058   2.369   0.819   5.937
  720SOL    HW1 3059   2.468   0.816   5.924
  720SOL    HW2 3060   2.329   0.731   5.910
  721SOL     OW 3061   0.482   1.878   2.107
  721SOL    HW1 3062   0.566   1.846   2.149
  721SOL    HW2 3063   0.441   1.949   2.164
  722SOL     OW 3064   4.275   0.552   6.384
  722SOL    HW1 3065   4.271   0.505   6.472
  722SOL    HW2 3066   4.187   0.595   6.365
  723SOL     OW 3067   2.438   5.668   3.817
  723SOL    HW1 3068   2.466   5.708   3.730
  723SOL    HW2 3069   2.376   5.591   3.800
  724SOL     OW 3070   0.275   0.410   3.286
  724SOL    HW1 3071   0.307   0.503   3.269
  724SOL    HW2 3072   0.353   0.350   3.303
  725SOL     OW 3073   2.546   4.558   2.037
  725SOL    HW1 3074   2.512   4.524   1.950
  725SOL    HW2 3075   2.646   4.564   2.034
  726SOL     OW 3076   2.652   5.120   0.782
  726SOL    HW1 3077   2.661   5.188   0.854
  726SOL    HW2 3078   2.718   5.046   0.798
  727SOL     OW 3079   4.540   5.397   6.274
  727SOL    HW1 3080   4.595   5.474   6.241
  727SOL    HW2 3081   4.493   5.423   6.359
  728SOL     OW 3082   0.084   3.108   4.429
  728SOL    HW1 3083   0.113   3.192   4.383
  728SOL    HW2 3084   0.066   3.127   4.525
  729SOL     OW 3085   6.917   3.199   0.699
  729SOL    HW1 3086   6.989   3.137   0.731
  729SOL    HW2 3087   6.868   3.236   0.777
  730SOL     OW 3088   5.372   0.435   2.524
  730SOL    HW1 3089   5.338   0.467   2.612
  730SOL    HW2 3090   5.471   0.418   2.531
  731SOL     OW 3091   4.741   4.431   6.473
  731SOL    HW1 3092   4.825   4.401   6.429
  731SOL    HW2 3093   4.707   4.359   6.533
  732SOL     OW 3094   5.134   2.110   2.395
  732SOL    HW1 3095   5.094   2.023   2.423
  732SOL    HW2 3096   5.233   2.103   2.394
  733SOL     OW 3097   5.782   6.903   4.013
  733SOL    HW1 3098   5.774   6.829   4.080
  733SOL    HW2 3099   5.867   6.953   4.028
  734SOL     OW 3100   6.526   4.354   2.658
  734SOL    HW1 3101   6.457   4.322   2.593
  734SOL    HW2 3102   6.486   4.360   2.749
  735SOL     OW 3103   5.400   0.573   1.551
  735SOL    HW1 3104   5.426   0.480   1.528
  735SOL    HW2 3105   5.314   0.596   1.505
  736SOL     OW 3106   1.474   1.558   4.211
  736SOL    HW1 3107   1.465   1.459   4.200
  736SOL    HW2 3108   1.554   1.577   4.268
  737SOL     OW 3109   5.858   1.951   5.423
  737SOL    HW1 3110   5.914   1.870   5.410
  737SOL    HW2 3111   5.808   1.943   5.509
  738SOL     OW 3112   3.092   4.400   0.871
  738SOL    HW1 3113   3.067   4.310   0.837
  738SOL    HW2 3114   3.011   4.459   0.874
  739SOL     OW 3115   3.387   0.007   4.985
  739SOL    HW1 3116   3.472   0.036   5.029
  739SOL    HW2 3117   3.310   0.058   5.024
  740SOL     OW 3118   5.772   2.350   2.448
  740SOL    HW1 3119   5.865   2.380   2.427
  740SOL    HW2 3120   5.756   2.357   2.546
  741SOL     OW 3121   1.752   0.895   5.038
  741SOL    HW1 3122   1.831   0.941   4.999
  741SOL    HW2 3123   1.668   0.934   5.001
  742SOL     OW 3124   1.346   6.151   1.251
  742SOL    HW1 3125   1.395   6.231   1.284
  742SOL    HW2 3126   1.411   6.085   1.213
  743SOL     OW 3127   0.499   6.282   3.459
  743SOL    HW1 3128   0.432   6.356   3.449
  743SOL    HW2 3129   0.583   6.317   3.499
  744SOL     OW 3130   6.857   1.256   0.738
  744SOL    HW1 3131   6.895   1.288   0.825
  744SOL    HW2 3132   6.874   1.158   0.728
  745SOL     OW 3133   1.946   5.726   5.082
  745SOL    HW1 3134   1.968   5.708   4.986
  745SOL    HW2 3135   1.989   5.811   5.111
  746SOL     OW 3136   5.510   4.211   5.186
  746SOL    HW1 3137   5.426   4.233   5.137
  746SOL    HW2 3138   5.522   4.112   5.189
  747SOL     OW 3139   5.146   5.266   3.651
  747SOL    HW1 3140   5.072   5.228   3.707
  747SOL    HW2 3141   5.207   5.192   3.622
  748SOL     OW 3142   5.370   4.927   2.892
  748SOL    HW1 3143   5.271   4.916   2.893
  748SOL    HW2 3144   5.404   4.916   2.799
  749SOL     OW 3145   4.951   3.489   3.467
  749SOL    HW1 3146   4.945   3.404   3.521
  749SOL    HW2 3147   4.881   3.488   3.396
  750SOL     OW 3148   2.775   0.977   1.365
  750SOL    HW1 3149   2.841   1.014   1.300
  750SOL    HW2 3150   2.737   1.052   1.419
  751SOL     OW 3151   5.147   2.577   0.800
  751SOL    HW1 3152   5.087   2.588   0.880
  751SOL    HW2 3153   5.120   2.643   0.729
  752SOL     OW 3154   3.609   2.096   5.976
  752SOL    HW1 3155   3.660   2.093   6.062
  752SOL    HW2 3156   3.610   2.189   5.940
  753SOL     OW 3157   2.883   3.724   4.908
  753SOL    HW1 3158   2.898   3.714   4.810
  753SOL    HW2 3159   2.805   3.667   4.935
  754SOL     OW 3160   5.795   0.921   6.733
  754SOL    HW1 3161   5.704   0.947   6.763
  754SOL    HW2 3162   5.799   0.919   6.633
  755SOL     OW 3163   3.057   4.295   5.275
  755SOL    HW1 3164   3.139   4.313   5.330
  755SOL    HW2 3165   3.024   4.380   5.234
  756SOL     OW 3166   3.546   5.015   6.898
  756SOL    HW1 3167   3.554   5.055   6.806
  756SOL    HW2 3168   3.610   4.938   6.907
  757SOL     OW 3169   2.108   6.869   2.427
  757SOL    HW1 3170   2.102   6.940   2.497
  757SOL    HW2 3171   2.179   6.803   2.453
  758SOL     OW 3172   3.993   1.298   4.053
  758SOL    HW1 3173   3.921   1.279   3.986
  758SOL    HW2 3174   4.071   1.341   4.008
  759SOL     OW 3175   0.138   2.192   3.063
  759SOL    HW1 3176   0.199   2.244   3.123
  759SOL    HW2 3177   0.180   2.183   2.973
  760SOL     OW 3178   6.761   6.500   3.733
  760SOL    HW1 3179   6.801   6.591   3.727
  760SOL    HW2 3180   6.805   6.449   3.807
  761SOL     OW 3181   5.408   4.229   5.654
  761SOL    HW1 3182   5.341   4.194   5.589
  761SOL    HW2 3183   5.373   4.219   5.747
  762SOL     OW 3184   2.796   6.440   5.535
  762SOL    HW1 3185   2.801   6.485   5.624
  762SOL    HW2 3186   2.835   6.348   5.541
  763SOL     OW 3187   5.218   0.339   6.462
  763SOL    HW1 3188   5.179   0.319   6.551
  763SOL    HW2 3189   5.174   0.419   6.423
  764SOL     OW 3190   5.995   1.129   5.753
  764SOL    HW1 3191   6.081   1.101   5.710
  764SOL    HW2 3192   5.921   1.069   5.722
  765SOL     OW 3193   0.851   6.615   0.877
  765SOL    HW1 3194   0.869   6.520   0.901
  765SOL    HW2 3195   0.919   6.674   0.920
  766SOL     OW 3196   2.365   2.398   5.553
  766SOL    HW1 3197   2.371   2.454   5.470
  766SOL    HW2 3198   2.338   2.304   5.527
  767SOL     OW 3199   6.881   6.639   3.410
  767SOL    HW1 3200   6.869   6.703   3.334
  767SOL    HW2 3201   6.941   6.680   3.479
  768SOL     OW 3202   2.305   5.985   2.882
  768SOL    HW1 3203   2.229   6.045   2.856
  768SOL    HW2 3204   2.388   6.039   2.894
  769SOL     OW 3205   3.451   1.609   5.196
  769SOL    HW1 3206   3.379   1.546   5.167
  769SOL    HW2 3207   3.464   1.679   5.125
  770SOL     OW 3208   1.682   5.070   3.991
  770SOL    HW1 3209   1.725   4.998   3.936
  770SOL    HW2 3210   1.742   5.094   4.067
  771SOL     OW 3211   1.326   5.416   3.248
  771SOL    HW1 3212   1.410   5.424   3.195
  771SOL    HW2 3213   1.262   5.355   3.202
  772SOL     OW 3214   5.510   5.001   6.767
  772SOL    HW1 3215   5.424   5.008   6.716
  772SOL    HW2 3216   5.514   4.912   6.813
  773SOL     OW 3217   1.280   3.395   3.218
  773SOL    HW1 3218   1.334   3.331   3.273
  773SOL    HW2 3219   1.332   3.479   3.205
  774SOL     OW 3220   2.348   1.906   3.865
  774SOL    HW1 3221   2.419   1.976   3.877
  774SOL    HW2 3222   2.312   1.912   3.772
  775SOL     OW 3223   2.169   3.571   4.150
  775SOL    HW1 3224   2.107   3.640   4.115
  775SOL    HW2 3225   2.156   3.485   4.100
  776SOL     OW 3226   0.941   6.985   6.383
  776SOL    HW1 3227   0.949   6.951   6.289
  776SOL    HW2 3228   0.861   0.021   6.391
  777SOL     OW 3229   1.579   3.448   0.447
  777SOL    HW1 3230   1.530   3.382   0.390
  777SOL    HW2 3231   1.514   3.497   0.505
  778SOL     OW 3232   3.111   0.063   1.696
  778SOL    HW1 3233   3.022   0.020   1.715
  778SOL    HW2 3234   3.141   0.036   1.605
  779SOL     OW 3235   0.617   2.407   1.606
  779SOL    HW1 3236   0.609   2.411   1.705
  779SOL    HW2 3237   0.553   2.472   1.564
  780SOL     OW 3238   1.419   2.273   4.570
  780SOL    HW1 3239   1.510   2.293   4.534
  780SOL    HW2 3240   1.376   2.202   4.514
  781SOL     OW 3241   6.882   4.376   0.243
  781SOL    HW1 3242   6.832   4.418   0.319
  781SOL    HW2 3243   6.821   4.362   0.166
  782SOL     OW 3244   2.018   4.084   5.789
  782SOL    HW1 3245   2.073   4.028   5.851
  782SOL    HW2 3246   2.031   4.051   5.695
  783SOL     OW 3247   5.454   4.895   6.263
  783SOL    HW1 3248   5.527   4.958   6.290
  783SOL    HW2 3249   5.379   4.901   6.328
  784SOL     OW 3250   2.817   6.236   1.884
  784SOL    HW1 3251   2.726   6.276   1.899
  784SOL    HW2 3252   2.826   6.153   1.940
  785SOL     OW 3253   0.878   0.319   3.861
  785SOL    HW1 3254   0.919   0.409   3.849
  785SOL    HW2 3255   0.785   0.320   3.825
  786SOL     OW 3256   5.963   0.511   3.461
  786SOL    HW1 3257   5.925   0.594   3.419
  786SOL    HW2 3258   5.992   0.532   3.555
  787SOL     OW 3259   2.219   0.892   0.351
  787SOL    HW1 3260   2.174   0.930   0.431
  787SOL    HW2 3261   2.164   0.911   0.270
  788SOL     OW 3262   3.777   3.103   1.468
  788SOL    HW1 3263   3.780   3.010   1.431
  788SOL    HW2 3264   3.859   3.153   1.439
  789SOL     OW 3265   4.480   5.349   2.058
  789SOL    HW1 3266   4.565   5.296   2.049
  789SOL    HW2 3267   4.487   5.408   2.138
  790SOL     OW 3268   0.815   2.697   1.274
  790SOL    HW1 3269   0.909   2.687   1.241
  790SOL    HW2 3270   0.810   2.668   1.369
  791SOL     OW 3271   2.963   5.821   5.373
  791SOL    HW1 3272   2.983   5.919   5.362
  791SOL    HW2 3273   3.030   5.767   5.323
  792SOL     OW 3274   0.521   1.600   0.310
  792SOL    HW1 3275   0.525   1.656   0.227
  792SOL    HW2 3276   0.430   1.608   0.351
  793SOL     OW 3277   4.545   5.534   4.239
  793SOL    HW1 3278   4.561   5.627   4.208
  793SOL    HW2 3279   4.467   5.495   4.190
  794SOL     OW 3280   3.356   3.326   4.056
  794SOL    HW1 3281   3.333   3.292   3.965
  794SOL    HW2 3282   3.276   3.373   4.095
  795SOL     OW 3283   3.975   0.538   5.871
  795SOL    HW1 3284   3.903   0.596   5.832
  795SOL    HW2 3285   3.964   0.445   5.837
  796SOL     OW 3286   1.679   2.726   6.265
  796SOL    HW1 3287   1.635   2.759   6.182
  796SOL    HW2 3288   1.777   2.741   6.258
  797SOL     OW 3289   4.348   0.460   1.114
  797SOL    HW1 3290   4.290   0.452   1.033
  797SOL    HW2 3291   4.443   0.440   1.088
  798SOL     OW 3292   2.554   6.285   1.603
  798SOL    HW1 3293   2.562   6.346   1.682
  798SOL    HW2 3294   2.511   6.199   1.631
  799SOL     OW 3295   0.439   2.244   6.327
  799SOL    HW1 3296   0.505   2.274   6.259
  799SOL    HW2 3297   0.392   2.324   6.365
  800SOL     OW 3298   6.044   1.255   2.007
  800SOL    HW1 3299   5.969   1.273   1.944
  800SOL    HW2 3300   6.008   1.215   2.091
  801SOL     OW 3301   1.910   5.500   5.661
  801SOL    HW1 3302   1.862   5.558   5.727
  801SOL    HW2 3303   2.008   5.512   5.672
  802SOL     OW 3304   5.503   2.237   6.700
  802SOL    HW1 3305   5.418   2.232   6.753
  802SOL    HW2 3306   5.521   2.148   6.658
  803SOL     OW 3307   2.786   0.361   5.691
  803SOL    HW1 3308   2.844   0.293   5.647
  803SOL    HW2 3309   2.692   0.328   5.694
  804SOL     OW 3310   6.107   0.315   1.641
  804SOL    HW1 3311   6.014   0.353   1.646
  804SOL    HW2 3312   6.127   0.265   1.724
  805SOL     OW 3313   2.481   0.732   3.527
  805SOL    HW1 3314   2.501   0.747   3.624
  805SOL    HW2 3315   2.490   0.818   3.477
  806SOL     OW 3316   0.672   0.092   5.714
  806SOL    HW1 3317   0.726   0.024   5.664
  806SOL    HW2 3318   0.593   0.048   5.756
  807SOL     OW 3319   0.755   6.551   4.422
  807SOL    HW1 3320   0.700   6.551   4.505
  807SOL    HW2 3321   0.824   6.624   4.427
  808SOL     OW 3322   5.891   2.854   0.410
  808SOL    HW1 3323   5.817   2.812   0.357
  808SOL    HW2 3324   5.888   2.822   0.504
  809SOL     OW 3325   0.298   5.111   6.957
  809SOL    HW1 3326   0.385   5.129   6.910
  809SOL    HW2 3327   0.279   5.185   7.021
  810SOL     OW 3328   2.462   3.044   0.352
  810SOL    HW1 3329   2.389   3.081   0.410
  810SOL    HW2 3330   2.550   3.078   0.385
  811SOL     OW 3331   5.278   4.980   4.688
  811SOL    HW1 3332   5.375   4.992   4.669
  811SOL    HW2 3333   5.239   5.069   4.714
  812SOL     OW 3334   0.696   2.182   2.072
  812SOL    HW1 3335   0.612   2.129   2.056
  812SOL    HW2 3336   0.767   2.121   2.107
  813SOL     OW 3337   2.042   0.827   4.688
  813SOL    HW1 3338   2.054   0.886   4.609
  813SOL    HW2 3339   2.117   0.761   4.693
  814SOL     OW 3340   6.919   5.653   2.881
  814SOL    HW1 3341   6.887   5.732   2.933
  814SOL    HW2 3342   7.019   5.651   2.881
  815SOL     OW 3343   4.948   2.439   3.507
  815SOL    HW1 3344   4.913   2.480   3.592
  815SOL    HW2 3345   4.890   2.362   3.482
  816SOL     OW 3346   4.836   4.111   0.354
  816SOL    HW1 3347   4.926   4.134   0.391
  816SOL    HW2 3348   4.846   4.078   0.260
  817SOL     OW 3349   0.804   5.501   1.186
  817SOL    HW1 3350   0.897   5.539   1.186
  817SOL    HW2 3351   0.773   5.488   1.091
  818SOL     OW 3352   5.808   2.807   3.383
  818SOL    HW1 3353   5.845   2.838   3.470
  818SOL    HW2 3354   5.741   2.735   3.399
  819SOL     OW 3355   6.017   2.648   1.514
  819SOL    HW1 3356   5.957   2.716   1.555
  819SOL    HW2 3357   5.976   2.612   1.430
  820SOL     OW 3358   2.853   1.988   4.528
  820SOL    HW1 3359   2.911   1.989   4.447
  820SOL    HW2 3360   2.771   2.043   4.512
  821SOL     OW 3361   5.664   4.447   4.727
  821SOL    HW1 3362   5.634   4.368   4.674
  821SOL    HW2 3363   5.762   4.440   4.745
  822SOL     OW 3364   0.900   4.257   3.407
  822SOL    HW1 3365   0.896   4.180   3.470
  822SOL    HW2 3366   0.820   4.254   3.347
  823SOL     OW 3367   0.802   3.392   5.936
  823SOL    HW1 3368   0.811   3.293   5.946
  823SOL    HW2 3369   0.707   3.416   5.919
  824SOL     OW 3370   5.424   1.267   5.029
  824SOL    HW1 3371   5.419   1.335   5.102
  824SOL    HW2 3372   5.467   1.307   4.949
  825SOL     OW 3373   6.186   6.140   1.034
  825SOL    HW1 3374   6.225   6.232   1.029
  825SOL    HW2 3375   6.137   6.129   1.121
  826SOL     OW 3376   3.948   1.713   5.810
  826SOL    HW1 3377   3.990   1.631   5.848
  826SOL    HW2 3378   3.869   1.740   5.866
  827SOL     OW 3379   3.397   4.204   4.750
  827SOL    HW1 3380   3.361   4.297   4.760
  827SOL    HW2 3381   3.322   4.140   4.739
  828SOL     OW 3382   6.393   5.535   4.338
  828SOL    HW1 3383   6.352   5.557   4.249
  828SOL    HW2 3384   6.356   5.448   4.370
  829SOL     OW 3385   3.376   2.853   2.237
  829SOL    HW1 3386   3.430   2.839   2.154
  829SOL    HW2 3387   3.280   2.833   2.219
  830SOL     OW 3388   5.920   4.719   6.772
  830SOL    HW1 3389   5.940   4.809   6.734
  830SOL    HW2 3390   6.006   4.670   6.787
  831SOL     OW 3391   5.176   6.502   1.607
  831SOL    HW1 3392   5.129   6.423   1.568
  831SOL    HW2 3393   5.110   6.561   1.654
  832SOL     OW 3394   3.948   1.449   4.625
  832SOL    HW1 3395   3.951   1.452   4.725
  832SOL    HW2 3396   4.031   1.404   4.590
  833SOL     OW 3397   1.379   3.876   6.190
  833SOL    HW1 3398   1.301   3.846   6.135
  833SOL    HW2 3399   1.390   3.814   6.268
  834SOL     OW 3400   4.540   3.557   6.737
  834SOL    HW1 3401   4.627   3.594   6.770
  834SOL    HW2 3402   4.557   3.495   6.660
  835SOL     OW 3403   1.594   0.279   4.908
  835SOL    HW1 3404   1.612   0.181   4.903
  835SOL    HW2 3405   1.595   0.309   5.004
  836SOL     OW 3406   3.522   2.191   5.691
  836SOL    HW1 3407   3.547   2.262   5.625
  836SOL    HW2 3408   3.600   2.171   5.749
  837SOL     OW 3409   1.335   0.276   1.575
  837SOL    HW1 3410   1.265   0.322   1.629
  837SOL    HW2 3411   1.370   0.198   1.625
  838SOL     OW 3412   2.349   5.559   4.282
  838SOL    HW1 3413   2.389   5.642   4.321
  838SOL    HW2 3414   2.264   5.538   4.331
  839SOL     OW 3415   1.973   0.875   1.097
  839SOL    HW1 3416   1.911   0.925   1.036
  839SOL    HW2 3417   2.036   0.939   1.141
  840SOL     OW 3418   5.735   5.773   0.250
  840SOL    HW1 3419   5.758   5.707   0.178
  840SOL    HW2 3420   5.779   5.747   0.335
  841SOL     OW 3421   4.640   5.449   5.756
  841SOL    HW1 3422   4.707   5.377   5.777
  841SOL    HW2 3423   4.627   5.455   5.657
  842SOL     OW 3424   3.103   0.054   6.969
  842SOL    HW1 3425   3.156   0.092   6.894
  842SOL    HW2 3426   3.074   0.127   0.007
  843SOL     OW 3427   2.343   2.121   1.735
  843SOL    HW1 3428   2.312   2.042   1.787
  843SOL    HW2 3429   2.396   2.089   1.656
  844SOL     OW 3430   0.320   6.683   1.112
  844SOL    HW1 3431   0.320   6.633   1.026
  844SOL    HW2 3432   0.277   6.628   1.183
  845SOL     OW 3433   3.973   1.902   3.049
  845SOL    HW1 3434   4.005   1.919   2.955
  845SOL    HW2 3435   4.049   1.914   3.113
  846SOL     OW 3436   3.155   1.584   6.279
  846SOL    HW1 3437   3.191   1.498   6.316
  846SOL    HW2 3438   3.083   1.619   6.339
  847SOL     OW 3439   2.548   3.318   1.659
  847SOL    HW1 3440   2.512   3.374   1.734
  847SOL    HW2 3441   2.493   3.235   1.650
  848SOL     OW 3442   5.879   6.658   6.124
  848SOL    HW1 3443   5.902   6.703   6.211
  848SOL    HW2 3444   5.780   6.664   6.109
  849SOL     OW 3445   5.641   3.907   0.462
  849SOL    HW1 3446   5.562   3.968   0.464
  849SOL    HW2 3447   5.623   3.831   0.399
  850SOL     OW 3448   6.629   0.650   4.727
  850SOL    HW1 3449   6.584   0.736   4.704
  850SOL    HW2 3450   6.704   0.668   4.791
  851SOL     OW 3451   6.609   3.468   0.360
  851SOL    HW1 3452   6.683   3.436   0.419
  851SOL    HW2 3453   6.567   3.549   0.402
  852SOL     OW 3454   6.733   4.725   1.019
  852SOL    HW1 3455   6.643   4.721   1.061
  852SOL    HW2 3456   6.789   4.792   1.067
  853SOL     OW 3457   2.038   4.482   0.497
  853SOL    HW1 3458   2.113   4.474   0.563
  853SOL    HW2 3459   2.062   4.549   0.427
  854SOL     OW 3460   6.185   6.428   6.988
  854SOL    HW1 3461   6.107   6.366   6.997
  854SOL    HW2 3462   6.210   6.434   6.891
  855SOL     OW 3463   6.977   0.676   0.525
  855SOL    HW1 3464   6.920   0.622   0.464
  855SOL    HW2 3465   6.977   0.635   0.616
  856SOL     OW 3466   2.049   6.653   6.722
  856SOL    HW1 3467   2.111   6.591   6.674
  856SOL    HW2 3468   2.096   6.695   6.799
  857SOL     OW 3469   0.123   4.453   3.118
  857SOL    HW1 3470   0.103   4.355   3.128
  857SOL    HW2 3471   0.218   4.470   3.146
  858SOL     OW 3472   3.380   4.055   0.907
  858SOL    HW1 3473   3.395   4.109   0.824
  858SOL    HW2 3474   3.284   4.026   0.910
  859SOL     OW 3475   4.825   6.447   5.353
  859SOL    HW1 3476   4.897   6.432   5.286
  859SOL    HW2 3477   4.863   6.440   5.445
  860SOL     OW 3478   5.379   3.197   6.083
  860SOL    HW1 3479   5.296   3.252   6.075
  860SOL    HW2 3480   5.452   3.253   6.123
  861SOL     OW 3481   1.898   5.227   2.979
  861SOL    HW1 3482   1.886   5.326   2.989
  861SOL    HW2 3483   1.812   5.185   2.948
  862SOL     OW 3484   1.755   4.853   3.850
  862SOL    HW1 3485   1.829   4.881   3.790
  862SOL    HW2 3486   1.736   4.755   3.836
  863SOL     OW 3487   6.623   0.471   5.919
  863SOL    HW1 3488   6.546   0.469   5.982
  863SOL    HW2 3489   6.698   0.524   5.960
  864SOL     OW 3490   4.247   6.924   5.708
  864SOL    HW1 3491   4.207   6.991   5.770
  864SOL    HW2 3492   4.175   6.878   5.657
  865SOL     OW 3493   2.321   6.171   5.018
  865SOL    HW1 3494   2.319   6.142   4.922
  865SOL    HW2 3495   2.310   6.270   5.023
  866SOL     OW 3496   2.980   6.846   0.825
  866SOL    HW1 3497   3.037   6.768   0.798
  866SOL    HW2 3498   2.919   6.870   0.750
  867SOL     OW 3499   6.053   2.365   0.706
  867SOL    HW1 3500   6.015   2.304   0.636
  867SOL    HW2 3501   6.142   2.400   0.675
  868SOL     OW 3502   0.584   2.372   2.481
  868SOL    HW1 3503   0.631   2.408   2.401
  868SOL    HW2 3504   0.596   2.273   2.485
  869SOL     OW 3505   6.798   3.691   3.707
  869SOL    HW1 3506   6.702   3.676   3.730
  869SOL    HW2 3507   6.838   3.756   3.771
  870SOL     OW 3508   3.674   5.035   1.194
  870SOL    HW1 3509   3.754   4.992   1.236
  870SOL    HW2 3510   3.592   4.983   1.218
  871SOL     OW 3511   4.787   2.324   4.261
  871SOL    HW1 3512   4.850   2.351   4.334
  871SOL    HW2 3513   4.745   2.406   4.222
  872SOL     OW 3514   0.190   2.071   4.630
  872SOL    HW1 3515   0.113   2.128   4.599
  872SOL    HW2 3516   0.234   2.115   4.708
  873SOL     OW 3517   4.684   6.311   5.629
  873SOL    HW1 3518   4.585   6.314   5.640
  873SOL    HW2 3519   4.726   6.375   5.693
  874SOL     OW 3520   6.255   4.223   6.728
  874SOL    HW1 3521   6.183   4.260   6.669
  874SOL    HW2 3522   6.316   4.166   6.673
  875SOL     OW 3523   5.336   5.076   1.428
  875SOL    HW1 3524   5.334   5.174   1.443
  875SOL    HW2 3525   5.357   5.029   1.514
  876SOL     OW 3526   0.564   5.637   1.874
  876SOL    HW1 3527   0.645   5.627   1.931
  876SOL    HW2 3528   0.539   5.548   1.835
  877SOL     OW 3529   2.895   4.605   6.527
  877SOL    HW1 3530   2.809   4.558   6.542
  877SOL    HW2 3531   2.928   4.643   6.614
  878SOL     OW 3532   4.187   6.921   4.131
  878SOL    HW1 3533   4.123   6.998   4.142
  878SOL    HW2 3534   4.183   6.863   4.212
  879SOL     OW 3535   3.875   0.506   1.626
  879SOL    HW1 3536   3.831   0.441   1.688
  879SOL    HW2 3537   3.811   0.579   1.604
  880SOL     OW 3538   3.313   4.167   3.865
  880SOL    HW1 3539   3.409   4.172   3.893
  880SOL    HW2 3540   3.307   4.175   3.766
  881SOL     OW 3541   4.908   3.181   4.648
  881SOL    HW1 3542   4.954   3.244   4.711
  881SOL    HW2 3543   4.877   3.232   4.568
  882SOL     OW 3544   0.762   3.379   4.260
  882SOL    HW1 3545   0.737   3.349   4.168
  882SOL    HW2 3546   0.693   3.444   4.293
  883SOL     OW 3547   3.141   0.624   2.160
  883SOL    HW1 3548   3.204   0.647   2.086
  883SOL    HW2 3549   3.184   0.644   2.248
  884SOL     OW 3550   4.869   3.154   5.656
  884SOL    HW1 3551   4.802   3.118   5.591
  884SOL    HW2 3552   4.904   3.242   5.622
  885SOL     OW 3553   3.585   1.059   5.407
  885SOL    HW1 3554   3.579   1.141   5.350
  885SOL    HW2 3555   3.620   0.983   5.352
  886SOL     OW 3556   3.702   0.536   0.250
  886SOL    HW1 3557   3.737   0.447   0.277
  886SOL    HW2 3558   3.702   0.543   0.150
  887SOL     OW 3559   3.809   0.008   3.912
  887SOL    HW1 3560   3.838   0.072   3.840
  887SOL    HW2 3561   3.778   0.060   3.992
  888SOL     OW 3562   0.680   5.927   2.750
  888SOL    HW1 3563   0.696   5.829   2.764
  888SOL    HW2 3564   0.668   5.945   2.653
  889SOL     OW 3565   0.643   3.917   0.861
  889SOL    HW1 3566   0.722   3.895   0.918
  889SOL    HW2 3567   0.559   3.896   0.911
  890SOL     OW 3568   1.461   5.172   3.365
  890SOL    HW1 3569   1.509   5.085   3.370
  890SOL    HW2 3570   1.451   5.200   3.269
  891SOL     OW 3571   5.316   5.663   0.345
  891SOL    HW1 3572   5.293   5.602   0.421
  891SOL    HW2 3573   5.299   5.616   0.259
  892SOL     OW 3574   2.399   3.614   5.342
  892SOL    HW1 3575   2.472   3.670   5.304
  892SOL    HW2 3576   2.423   3.517   5.333
  893SOL     OW 3577   2.278   6.856   2.950
  893SOL    HW1 3578   2.351   6.835   2.886
  893SOL    HW2 3579   2.197   6.803   2.928
  894SOL     OW 3580   0.985   3.222   1.423
  894SOL    HW1 3581   0.997   3.186   1.515
  894SOL    HW2 3582   0.898   3.271   1.416
  895SOL     OW 3583   0.573   4.504   3.647
  895SOL    HW1 3584   0.605   4.481   3.555
  895SOL    HW2 3585   0.597   4.431   3.711
  896SOL     OW 3586   5.674   4.670   0.403
  896SOL    HW1 3587   5.639   4.763   0.394
  896SOL    HW2 3588   5.721   4.661   0.491
  897SOL     OW 3589   4.955   1.402   0.027
  897SOL    HW1 3590   4.857   1.388   0.045
  897SOL    HW2 3591   5.008   1.333   0.076
  898SOL     OW 3592   3.132   6.112   2.817
  898SOL    HW1 3593   3.094   6.204   2.807
  898SOL    HW2 3594   3.232   6.117   2.813
  899SOL     OW 3595   0.039   6.161   6.710
  899SOL    HW1 3596   6.983   6.196   6.662
  899SOL    HW2 3597   0.015   6.078   6.759
  900SOL     OW 3598   5.900   6.340   0.430
  900SOL    HW1 3599   5.908   6.433   0.393
  900SOL    HW2 3600   5.805   6.321   0.453
  901SOL     OW 3601   2.228   1.003   2.974
  901SOL    HW1 3602   2.168   0.966   2.902
  901SOL    HW2 3603   2.238   1.102   2.962
  902SOL     OW 3604   6.900   2.393   0.576
  902SOL    HW1 3605   6.948   2.468   0.532
  902SOL    HW2 3606   6.802   2.404   0.562
  903SOL     OW 3607   6.482   2.233   6.718
  903SOL    HW1 3608   6.550   2.188   6.660
  903SOL    HW2 3609   6.510   2.327   6.735
  904SOL     OW 3610   2.762   2.231   3.077
  904SOL    HW1 3611   2.795   2.290   3.004
  904SOL    HW2 3612   2.726   2.288   3.152
  905SOL     OW 3613   5.182   2.046   7.003
  905SOL    HW1 3614   5.199   2.117   6.935
  905SOL    HW2 3615   5.229   2.068   0.064
  906SOL     OW 3616   0.282   2.169   5.789
  906SOL    HW1 3617   0.350   2.151   5.719
  906SOL    HW2 3618   0.314   2.134   5.877
  907SOL     OW 3619   5.145   3.942   0.339
  907SOL    HW1 3620   5.077   3.875   0.369
  907SOL    HW2 3621   5.184   3.913   0.251
  908SOL     OW 3622   2.784   4.691   2.848
  908SOL    HW1 3623   2.710   4.635   2.810
  908SOL    HW2 3624   2.828   4.743   2.775
  909SOL     OW 3625   4.469   5.690   0.802
  909SOL    HW1 3626   4.412   5.745   0.863
  909SOL    HW2 3627   4.555   5.667   0.847
  910SOL     OW 3628   2.998   2.747   1.435
  910SOL    HW1 3629   3.031   2.840   1.420
  910SOL    HW2 3630   2.910   2.750   1.483
  911SOL     OW 3631   1.160   5.827   6.607
  911SOL    HW1 3632   1.173   5.777   6.693
  911SOL    HW2 3633   1.062   5.828   6.584
  912SOL     OW 3634   5.756   2.320   2.732
  912SOL    HW1 3635   5.835   2.267   2.762
  912SOL    HW2 3636   5.688   2.325   2.805
  913SOL     OW 3637   4.388   6.334   3.163
  913SOL    HW1 3638   4.468   6.393   3.171
  913SOL    HW2 3639   4.321   6.376   3.102
  914SOL     OW 3640   2.074   0.171   6.334
  914SOL    HW1 3641   2.141   0.199   6.265
  914SOL    HW2 3642   1.987   0.216   6.316
  915SOL     OW 3643   5.993   4.047   6.433
  915SOL    HW1 3644   5.986   4.054   6.334
  915SOL    HW2 3645   5.901   4.042   6.473
  916SOL     OW 3646   1.800   2.532   2.116
  916SOL    HW1 3647   1.733   2.606   2.110
  916SOL    HW2 3648   1.756   2.450   2.150
  917SOL     OW 3649   0.245   6.124   0.671
  917SOL    HW1 3650   0.328   6.178   0.661
  917SOL    HW2 3651   0.168   6.174   0.632
  918SOL     OW 3652   2.734   0.357   0.453
  918SOL    HW1 3653   2.830   0.344   0.478
  918SOL    HW2 3654   2.676   0.310   0.519
  919SOL     OW 3655   5.775   1.465   3.313
  919SOL    HW1 3656   5.718   1.412   3.251
  919SOL    HW2 3657   5.790   1.413   3.397
  920SOL     OW 3658   2.407   4.538   1.460
  920SOL    HW1 3659   2.309   4.524   1.479
  920SOL    HW2 3660   2.454   4.449   1.462
  921SOL     OW 3661   5.401   5.488   4.749
  921SOL    HW1 3662   5.406   5.453   4.655
  921SOL    HW2 3663   5.473   5.445   4.804
  922SOL     OW 3664   3.924   3.909   4.586
  922SOL    HW1 3665   3.914   3.993   4.639
  922SOL    HW2 3666   3.866   3.838   4.626
  923SOL     OW 3667   2.340   2.527   6.161
  923SOL    HW1 3668   2.251   2.566   6.134
  923SOL    HW2 3669   2.394   2.510   6.079
  924SOL     OW 3670   6.344   3.828   2.281
  924SOL    HW1 3671   6.330   3.734   2.312
  924SOL    HW2 3672   6.406   3.875   2.344
  925SOL     OW 3673   6.840   2.473   6.897
  925SOL    HW1 3674   6.841   2.499   6.993
  925SOL    HW2 3675   6.903   2.532   6.846
  926SOL     OW 3676   6.860   1.886   1.078
  926SOL    HW1 3677   6.839   1.796   1.040
  926SOL    HW2 3678   6.959   1.897   1.086
  927SOL     OW 3679   5.993   3.704   3.575
  927SOL    HW1 3680   6.074   3.659   3.539
  927SOL    HW2 3681   5.939   3.638   3.628
  928SOL     OW 3682   2.638   6.467   0.753
  928SOL    HW1 3683   2.661   6.564   0.745
  928SOL    HW2 3684   2.576   6.454   0.830
  929SOL     OW 3685   6.682   0.422   7.012
  929SOL    HW1 3686   6.662   0.416   0.086
  929SOL    HW2 3687   6.629   0.497   6.972
  930SOL     OW 3688   4.183   5.645   6.528
  930SOL    HW1 3689   4.108   5.595   6.486
  930SOL    HW2 3690   4.168   5.650   6.627
  931SOL     OW 3691   6.577   2.058   3.812
  931SOL    HW1 3692   6.567   1.969   3.857
  931SOL    HW2 3693   6.512   2.065   3.736
  932SOL     OW 3694   2.945   1.710   3.624
  932SOL    HW1 3695   2.869   1.649   3.647
  932SOL    HW2 3696   2.946   1.787   3.687
  933SOL     OW 3697   1.148   4.629   2.650
  933SOL    HW1 3698   1.220   4.637   2.581
  933SOL    HW2 3699   1.190   4.620   2.740
  934SOL     OW 3700   2.696   6.012   5.616
  934SOL    HW1 3701   2.700   5.957   5.533
  934SOL    HW2 3702   2.658   5.956   5.690
  935SOL     OW 3703   5.166   4.113   3.716
  935SOL    HW1 3704   5.145   4.075   3.807
  935SOL    HW2 3705   5.259   4.087   3.691
  936SOL     OW 3706   1.516   0.062   6.038
  936SOL    HW1 3707   1.531   0.094   6.132
  936SOL    HW2 3708   1.512   6.986   6.037
  937SOL     OW 3709   5.073   1.324   5.593
  937SOL    HW1 3710   5.015   1.363   5.665
  937SOL    HW2 3711   5.059   1.373   5.508
  938SOL     OW 3712   0.010   5.460   3.793
  938SOL    HW1 3713   6.995   5.371   3.770
  938SOL    HW2 3714   0.095   5.448   3.844
  939SOL     OW 3715   6.967   6.866   4.688
  939SOL    HW1 3716   0.042   6.877   4.678
  939SOL    HW2 3717   6.945   6.769   4.701
  940SOL     OW 3718   1.114   4.616   0.815
  940SOL    HW1 3719   1.156   4.547   0.757
  940SOL    HW2 3720   1.019   4.592   0.832
  941SOL     OW 3721   4.550   0.403   6.674
  941SOL    HW1 3722   4.549   0.358   6.584
  941SOL    HW2 3723   4.524   0.337   6.745
  942SOL     OW 3724   6.499   6.349   1.316
  942SOL    HW1 3725   6.577   6.309   1.269
  942SOL    HW2 3726   6.522   6.441   1.348
  943SOL     OW 3727   2.574   4.938   2.549
  943SOL    HW1 3728   2.622   5.007   2.604
  943SOL    HW2 3729   2.606   4.943   2.455
  944SOL     OW 3730   0.658   5.522   4.261
  944SOL    HW1 3731   0.724   5.529   4.337
  944SOL    HW2 3732   0.666   5.603   4.203
  945SOL     OW 3733   0.969   5.073   5.268
  945SOL    HW1 3734   1.055   5.101   5.311
  945SOL    HW2 3735   0.988   5.022   5.184
  946SOL     OW 3736   5.005   4.463   4.424
  946SOL    HW1 3737   4.991   4.492   4.519
  946SOL    HW2 3738   5.039   4.540   4.371
  947SOL     OW 3739   3.773   3.543   3.580
  947SOL    HW1 3740   3.873   3.544   3.579
  947SOL    HW2 3741   3.740   3.574   3.669
  948SOL     OW 3742   5.167   1.368   2.766
  948SOL    HW1 3743   5.125   1.413   2.844
  948SOL    HW2 3744   5.105   1.298   2.730
  949SOL     OW 3745   3.093   6.375   7.014
  949SOL    HW1 3746   3.043   6.321   0.058
  949SOL    HW2 3747   3.040   6.456   6.990
  950SOL     OW 3748   6.248   5.822   2.153
  950SOL    HW1 3749   6.339   5.782   2.139
  950SOL    HW2 3750   6.194   5.762   2.211
  951SOL     OW 3751   1.403   0.128   3.490
  951SOL    HW1 3752   1.317   0.119   3.439
  951SOL    HW2 3753   1.419   0.225   3.509
  952SOL     OW 3754   3.818   2.110   2.724
  952SOL    HW1 3755   3.798   2.136   2.819
  952SOL    HW2 3756   3.904   2.151   2.696
  953SOL     OW 3757   6.481   6.007   4.919
  953SOL    HW1 3758   6.448   5.959   5.001
  953SOL    HW2 3759   6.410   6.069   4.885
  954SOL     OW 3760   4.524   5.797   2.922
  954SOL    HW1 3761   4.431   5.759   2.921
  954SOL    HW2 3762   4.545   5.828   3.015
  955SOL     OW 3763   1.864   4.224   0.528
  955SOL    HW1 3764   1.929   4.300   0.523
  955SOL    HW2 3765   1.823   4.209   0.438
  956SOL     OW 3766   0.206   0.946   1.202
  956SOL    HW1 3767   0.183   0.977   1.294
  956SOL    HW2 3768   0.277   1.004   1.164
  957SOL     OW 3769   6.310   1.237   2.135
  957SOL    HW1 3770   6.360   1.283   2.061
  957SOL    HW2 3771   6.242   1.175   2.096
  958SOL     OW 3772   5.167   6.259   2.220
  958SOL    HW1 3773   5.088   6.297   2.173
  958SOL    HW2 3774   5.171   6.295   2.313
  959SOL     OW 3775   3.362   6.932   4.635
  959SOL    HW1 3776   3.384   6.835   4.645
  959SOL    HW2 3777   3.446   6.984   4.619
  960SOL     OW 3778   1.129   0.565   0.778
  960SOL    HW1 3779   1.153   0.627   0.852
  960SOL    HW2 3780   1.205   0.502   0.762
  961SOL     OW 3781   3.687   6.881   3.290
  961SOL    HW1 3782   3.663   6.930   3.374
  961SOL    HW2 3783   3.700   6.946   3.216
  962SOL     OW 3784   5.972   0.326   5.043
  962SOL    HW1 3785   5.964   0.260   4.969
  962SOL    HW2 3786   6.067   0.334   5.071
  963SOL     OW 3787   4.150   1.670   1.458
  963SOL    HW1 3788   4.209   1.696   1.382
  963SOL    HW2 3789   4.201   1.678   1.544
  964SOL     OW 3790   4.797   4.604   5.373
  964SOL    HW1 3791   4.874   4.558   5.417
  964SOL    HW2 3792   4.827   4.647   5.288
  965SOL     OW 3793   6.034   2.386   2.352
  965SOL    HW1 3794   6.032   2.351   2.258
  965SOL    HW2 3795   6.122   2.364   2.394
  966SOL     OW 3796   4.951   2.047   3.474
  966SOL    HW1 3797   4.884   2.101   3.424
  966SOL    HW2 3798   5.042   2.087   3.463
  967SOL     OW 3799   3.933   4.504   6.252
  967SOL    HW1 3800   3.992   4.568   6.203
  967SOL    HW2 3801   3.947   4.412   6.216
  968SOL     OW 3802   3.332   0.188   1.425
  968SOL    HW1 3803   3.337   0.276   1.377
  968SOL    HW2 3804   3.403   0.127   1.390
  969SOL     OW 3805   3.232   4.922   5.807
  969SOL    HW1 3806   3.332   4.918   5.806
  969SOL    HW2 3807   3.198   4.939   5.715
  970SOL     OW 3808   6.546   1.098   5.673
  970SOL    HW1 3809   6.560   1.112   5.575
  970SOL    HW2 3810   6.569   1.182   5.722
  971SOL     OW 3811   6.976   4.093   2.803
  971SOL    HW1 3812   6.903   4.134   2.858
  971SOL    HW2 3813   6.974   3.993   2.813
  972SOL     OW 3814   6.483   2.425   1.168
  972SOL    HW1 3815   6.519   2.510   1.207
  972SOL    HW2 3816   6.387   2.437   1.144
  973SOL     OW 3817   0.375   4.004   6.207
  973SOL    HW1 3818   0.408   3.947   6.283
  973SOL    HW2 3819   0.423   4.091   6.207
  974SOL     OW 3820   0.471   5.080   3.149
  974SOL    HW1 3821   0.492   5.019   3.226
  974SOL    HW2 3822   0.410   5.153   3.181
  975SOL     OW 3823   2.433   7.009   1.324
  975SOL    HW1 3824   2.522   0.030   1.314
  975SOL    HW2 3825   2.430   6.960   1.411
  976SOL     OW 3826   6.368   4.263   1.608
  976SOL    HW1 3827   6.323   4.336   1.660
  976SOL    HW2 3828   6.300   4.197   1.578
  977SOL     OW 3829   0.791   1.499   2.059
  977SOL    HW1 3830   0.841   1.464   1.980
  977SOL    HW2 3831   0.765   1.423   2.118
  978SOL     OW 3832   5.585   2.098   1.413
  978SOL    HW1 3833   5.656   2.027   1.404
  978SOL    HW2 3834   5.497   2.061   1.383
  979SOL     OW 3835   6.727   3.019   6.499
  979SOL    HW1 3836   6.661   3.080   6.543
  979SOL    HW2 3837   6.819   3.058   6.509
  980SOL     OW 3838   4.082   1.194   4.851
  980SOL    HW1 3839   4.074   1.115   4.912
  980SOL    HW2 3840   4.157   1.253   4.882
  981SOL     OW 3841   6.805   6.975   4.929
  981SOL    HW1 3842   6.819   6.892   4.983
  981SOL    HW2 3843   6.858   6.969   4.845
  982SOL     OW 3844   0.292   1.923   5.605
  982SOL    HW1 3845   0.345   1.838   5.604
  982SOL    HW2 3846   0.195   1.902   5.605
  983SOL     OW 3847   6.704   3.102   3.175
  983SOL    HW1 3848   6.642   3.144   3.109
  983SOL    HW2 3849   6.715   3.163   3.254
  984SOL     OW 3850   1.804   2.086   3.073
  984SOL    HW1 3851   1.756   2.128   3.150
  984SOL    HW2 3852   1.881   2.144   3.045
  985SOL     OW 3853   6.132   3.717   4.317
  985SOL    HW1 3854   6.231   3.705   4.326
  985SOL    HW2 3855   6.089   3.630   4.293
  986SOL     OW 3856   4.986   4.272   1.344
  986SOL    HW1 3857   4.954   4.216   1.421
  986SOL    HW2 3858   5.043   4.346   1.378
  987SOL     OW 3859   5.517   6.107   3.495
  987SOL    HW1 3860   5.431   6.056   3.489
  987SOL    HW2 3861   5.521   6.174   3.421
  988SOL     OW 3862   3.354   4.076   2.155
  988SOL    HW1 3863   3.445   4.116   2.150
  988SOL    HW2 3864   3.304   4.097   2.071
  989SOL     OW 3865   0.010   2.138   0.515
  989SOL    HW1 3866   0.088   2.126   0.576
  989SOL    HW2 3867   6.982   2.219   0.543
  990SOL     OW 3868   3.280   0.255   2.990
  990SOL    HW1 3869   3.226   0.245   2.907
  990SOL    HW2 3870   3.222   0.239   3.070
  991SOL     OW 3871   6.960   4.322   3.693
  991SOL    HW1 3872   6.941   4.251   3.761
  991SOL    HW2 3873   6.981   4.408   3.739
  992SOL     OW 3874   0.769   3.021   1.213
  992SOL    HW1 3875   0.823   2.946   1.252
  992SOL    HW2 3876   0.683   3.029   1.262
  993SOL     OW 3877   1.083   4.174   1.441
  993SOL    HW1 3878   1.138   4.205   1.363
  993SOL    HW2 3879   1.060   4.078   1.429
  994SOL     OW 3880   3.623   6.418   0.849
  994SOL    HW1 3881   3.596   6.407   0.753
  994SOL    HW2 3882   3.566   6.487   0.892
  995SOL     OW 3883   4.405   3.407   5.581
  995SOL    HW1 3884   4.504   3.413   5.567
  995SOL    HW2 3885   4.357   3.446   5.503
  996SOL     OW 3886   4.490   5.621   5.280
  996SOL    HW1 3887   4.540   5.705   5.258
  996SOL    HW2 3888   4.422   5.603   5.209
  997SOL     OW 3889   1.611   6.872   3.168
  997SOL    HW1 3890   1.685   6.846   3.230
  997SOL    HW2 3891   1.593   6.970   3.177
  998SOL     OW 3892   6.062   0.062   6.242
  998SOL    HW1 3893   5.966   0.088   6.233
  998SOL    HW2 3894   6.097   0.093   6.330
  999SOL     OW 3895   4.661   3.557   1.443
  999SOL    HW1 3896   4.616   3.594   1.524
  999SOL    HW2 3897   4.759   3.581   1.446
 1000SOL     OW 3898   3.981   1.438   1.350
 1000SOL    HW1 3899   3.975   1.528   1.305
 1000SOL    HW2 3900   4.026   1.448   1.439
 1001SOL     OW 3901   2.527   6.305   2.195
 1001SOL    HW1 3902   2.475   6.373   2.142
 1001SOL    HW2 3903   2.480   6.217   2.192
 1002SOL     OW 3904   5.207   1.888   1.601
 1002SOL    HW1 3905   5.110   1.907   1.615
 1002SOL    HW2 3906   5.261   1.965   1.635
 1003SOL     OW 3907   1.367   6.361   2.765
 1003SOL    HW1 3908   1.350   6.387   2.670
 1003SOL    HW2 3909   1.293   6.396   2.822
 1004SOL     OW 3910   6.651   1.364   2.450
 1004SOL    HW1 3911   6.636   1.424   2.528
 1004SOL    HW2 3912   6.568   1.313   2.430
 1005SOL     OW 3913   1.577   4.166   4.067
 1005SOL    HW1 3914   1.521   4.235   4.023
 1005SOL    HW2 3915   1.665   4.158   4.019
 1006SOL     OW 3916   2.383   3.933   0.422
 1006SOL    HW1 3917   2.421   3.981   0.343
 1006SOL    HW2 3918   2.357   3.840   0.395
 1007SOL     OW 3919   4.560   1.558   6.795
 1007SOL    HW1 3920   4.497   1.546   6.718
 1007SOL    HW2 3921   4.642   1.607   6.763
 1008SOL     OW 3922   0.797   3.741   5.440
 1008SOL    HW1 3923   0.746   3.686   5.373
 1008SOL    HW2 3924   0.852   3.680   5.498
 1009SOL     OW 3925   6.023   5.002   5.108
 1009SOL    HW1 3926   6.039   5.088   5.156
 1009SOL    HW2 3927   5.937   4.962   5.140
 1010SOL     OW 3928   2.382   2.349   1.932
 1010SOL    HW1 3929   2.476   2.380   1.945
 1010SOL    HW2 3930   2.372   2.313   1.839
 1011SOL     OW 3931   1.101   5.339   3.043
 1011SOL    HW1 3932   1.011   5.366   3.078
 1011SOL    HW2 3933   1.140   5.415   2.991
 1012SOL     OW 3934   6.760   6.864   2.448
 1012SOL    HW1 3935   6.696   6.940   2.462
 1012SOL    HW2 3936   6.824   6.860   2.524
 1013SOL     OW 3937   6.576   0.794   6.133
 1013SOL    HW1 3938   6.517   0.847   6.194
 1013SOL    HW2 3939   6.538   0.794   6.041
 1014SOL     OW 3940   1.224   4.359   4.504
 1014SOL    HW1 3941   1.227   4.451   4.543
 1014SOL    HW2 3942   1.233   4.291   4.576
 1015SOL     OW 3943   3.238   0.390   6.229
 1015SOL    HW1 3944   3.202   0.373   6.321
 1015SOL    HW2 3945   3.283   0.308   6.195
 1016SOL     OW 3946   4.874   4.161   1.109
 1016SOL    HW1 3947   4.820   4.216   1.045
 1016SOL    HW2 3948   4.897   4.216   1.189
 1017SOL     OW 3949   2.451   1.628   2.159
 1017SOL    HW1 3950   2.407   1.718   2.159
 1017SOL    HW2 3951   2.432   1.581   2.073
 1018SOL     OW 3952   6.693   4.457   3.869
 1018SOL    HW1 3953   6.633   4.535   3.851
 1018SOL    HW2 3954   6.777   4.489   3.914
 1019SOL     OW 3955   6.745   5.366   0.359
 1019SOL    HW1 3956   6.733   5.394   0.454
 1019SOL    HW2 3957   6.826   5.410   0.320
 1020SOL     OW 3958   6.680   0.414   1.156
 1020SOL    HW1 3959   6.621   0.380   1.083
 1020SOL    HW2 3960   6.755   0.467   1.116
 1021SOL     OW 3961   6.484   5.741   2.323
 1021SOL    HW1 3962   6.416   5.814   2.331
 1021SOL    HW2 3963   6.565   5.765   2.378
 1022SOL     OW 3964   2.915   6.205   5.669
 1022SOL    HW1 3965   2.867   6.119   5.653
 1022SOL    HW2 3966   2.893   6.239   5.760
 1023SOL     OW 3967   6.707   0.953   2.445
 1023SOL    HW1 3968   6.734   1.047   2.465
 1023SOL    HW2 3969   6.781   0.906   2.397
 1024SOL     OW 3970   0.739   1.185   4.440
 1024SOL    HW1 3971   0.745   1.164   4.537
 1024SOL    HW2 3972   0.648   1.220   4.419
 1025SOL     OW 3973   4.808   3.204   0.451
 1025SOL    HW1 3974   4.729   3.236   0.504
 1025SOL    HW2 3975   4.798   3.232   0.355
 1026SOL     OW 3976   3.062   2.585   1.684
 1026SOL    HW1 3977   2.989   2.545   1.740
 1026SOL    HW2 3978   3.020   2.640   1.611
 1027SOL     OW 3979   1.396   6.246   2.093
 1027SOL    HW1 3980   1.329   6.271   2.023
 1027SOL    HW2 3981   1.354   6.182   2.157
 1028SOL     OW 3982   1.403   6.426   3.216
 1028SOL    HW1 3983   1.393   6.524   3.232
 1028SOL    HW2 3984   1.466   6.411   3.140
 1029SOL     OW 3985   1.045   1.999   6.050
 1029SOL    HW1 3986   1.128   1.953   6.081
 1029SOL    HW2 3987   0.976   1.930   6.025
 1030SOL     OW 3988   3.294   3.480   1.648
 1030SOL    HW1 3989   3.224   3.539   1.608
 1030SOL    HW2 3990   3.251   3.396   1.681
 1031SOL     OW 3991   3.740   3.247   1.691
 1031SOL    HW1 3992   3.671   3.196   1.743
 1031SOL    HW2 3993   3.742   3.212   1.597
 1032SOL     OW 3994   2.526   1.124   5.207
 1032SOL    HW1 3995   2.486   1.178   5.133
 1032SOL    HW2 3996   2.572   1.044   5.169
 1033SOL     OW 3997   1.580   5.986   2.143
 1033SOL    HW1 3998   1.502   5.927   2.162
 1033SOL    HW2 3999   1.598   6.044   2.223
 1034SOL     OW 4000   2.551   6.285   4.334
 1034SOL    HW1 4001   2.570   6.195   4.375
 1034SOL    HW2 4002   2.539   6.353   4.407
 1035SOL     OW 4003   0.749   2.647   5.908
 1035SOL    HW1 4004   0.774   2.571   5.968
 1035SOL    HW2 4005   0.658   2.631   5.870
 1036SOL     OW 4006   4.687   1.396   1.390
 1036SOL    HW1 4007   4.597   1.422   1.357
 1036SOL    HW2 4008   4.755   1.414   1.319
 1037SOL     OW 4009   1.712   2.325   2.255
 1037SOL    HW1 4010   1.790   2.331   2.318
 1037SOL    HW2 4011   1.630   2.358   2.300
 1038SOL     OW 4012   1.887   1.171   6.658
 1038SOL    HW1 4013   1.987   1.172   6.656
 1038SOL    HW2 4014   1.853   1.250   6.708
 1039SOL     OW 4015   3.082   3.129   3.960
 1039SOL    HW1 4016   3.110   3.177   3.877
 1039SOL    HW2 4017   3.117   3.036   3.959
 1040SOL     OW 4018   5.214   0.729   3.338
 1040SOL    HW1 4019   5.214   0.632   3.363
 1040SOL    HW2 4020   5.163   0.781   3.407
 1041SOL     OW 4021   6.918   6.896   4.083
 1041SOL    HW1 4022   6.826   6.871   4.111
 1041SOL    HW2 4023   6.981   6.884   4.160
 1042SOL     OW 4024   4.942   4.814   2.881
 1042SOL    HW1 4025   4.874   4.878   2.844
 1042SOL    HW2 4026   4.989   4.856   2.958
 1043SOL     OW 4027   3.608   1.747   3.131
 1043SOL    HW1 4028   3.660   1.772   3.050
 1043SOL    HW2 4029   3.633   1.654   3.159
 1044SOL     OW 4030   6.135   5.856   1.284
 1044SOL    HW1 4031   6.187   5.841   1.200
 1044SOL    HW2 4032   6.106   5.952   1.289
 1045SOL     OW 4033   2.777   0.153   3.031
 1045SOL    HW1 4034   2.834   0.231   3.058
 1045SOL    HW2 4035   2.702   0.185   2.974
 1046SOL     OW 4036   2.843   1.274   1.282
 1046SOL    HW1 4037   2.750   1.310   1.291
 1046SOL    HW2 4038   2.860   1.250   1.187
 1047SOL     OW 4039   3.041   6.937   3.983
 1047SOL    HW1 4040   3.028   6.881   3.901
 1047SOL    HW2 4041   2.972   6.913   4.051
 1048SOL     OW 4042   2.687   5.860   2.311
 1048SOL    HW1 4043   2.732   5.949   2.312
 1048SOL    HW2 4044   2.639   5.845   2.397
 1049SOL     OW 4045   4.436   0.021   4.063
 1049SOL    HW1 4046   4.349   0.003   4.108
 1049SOL    HW2 4047   4.420   0.036   3.965
 1050SOL     OW 4048   3.909   5.343   3.159
 1050SOL    HW1 4049   3.897   5.246   3.178
 1050SOL    HW2 4050   3.820   5.387   3.152
 1051SOL     OW 4051   0.055   6.145   0.297
 1051SOL    HW1 4052   6.984   6.145   0.267
 1051SOL    HW2 4053   0.058   6.137   0.397
 1052SOL     OW 4054   4.286   0.350   5.730
 1052SOL    HW1 4055   4.337   0.428   5.695
 1052SOL    HW2 4056   4.226   0.315   5.659
 1053SOL     OW 4057   5.852   3.461   2.150
 1053SOL    HW1 4058   5.807   3.382   2.108
 1053SOL    HW2 4059   5.866   3.532   2.081
 1054SOL     OW 4060   2.959   3.490   0.947
 1054SOL    HW1 4061   2.968   3.486   0.847
 1054SOL    HW2 4062   3.032   3.438   0.989
 1055SOL     OW 4063   5.468   5.654   6.347
 1055SOL    HW1 4064   5.427   5.735   6.388
 1055SOL    HW2 4065   5.507   5.595   6.418
 1056SOL     OW 4066   1.750   3.738   0.627
 1056SOL    HW1 4067   1.831   3.709   0.677
 1056SOL    HW2 4068   1.668   3.719   0.682
 1057SOL     OW 4069   3.356   1.930   1.768
 1057SOL    HW1 4070   3.371   1.844   1.816
 1057SOL    HW2 4071   3.410   2.002   1.811
 1058SOL     OW 4072   4.012   2.150   3.423
 1058SOL    HW1 4073   3.913   2.162   3.436
 1058SOL    HW2 4074   4.061   2.195   3.498
 1059SOL     OW 4075   2.616   6.599   2.173
 1059SOL    HW1 4076   2.561   6.668   2.125
 1059SOL    HW2 4077   2.672   6.549   2.107
 1060SOL     OW 4078   0.442   5.132   4.383
 1060SOL    HW1 4079   0.391   5.158   4.301
 1060SOL    HW2 4080   0.486   5.213   4.422
 1061SOL     OW 4081   6.341   4.083   6.979
 1061SOL    HW1 4082   6.321   4.123   6.889
 1061SOL    HW2 4083   6.257   4.045   7.018
 1062SOL     OW 4084   4.514   6.653   5.077
 1062SOL    HW1 4085   4.507   6.688   5.170
 1062SOL    HW2 4086   4.475   6.561   5.073
 1063SOL     OW 4087   0.610   6.998   5.995
 1063SOL    HW1 4088   0.561   0.042   6.050
 1063SOL    HW2 4089   0.614   6.911   6.045
 1064SOL     OW 4090   0.464   4.571   1.556
 1064SOL    HW1 4091   0.496   4.661   1.524
 1064SOL    HW2 4092   0.367   4.561   1.536
 1065SOL     OW 4093   3.726   1.174   3.554
 1065SOL    HW1 4094   3.757   1.079   3.553
 1065SOL    HW2 4095   3.795   1.232   3.512
 1066SOL     OW 4096   5.007   6.715   2.186
 1066SOL    HW1 4097   4.935   6.665   2.235
 1066SOL    HW2 4098   5.087   6.656   2.177
 1067SOL     OW 4099   2.790   1.099   0.174
 1067SOL    HW1 4100   2.768   1.195   0.156
 1067SOL    HW2 4101   2.713   1.042   0.145
 1068SOL     OW 4102   6.289   4.059   1.295
 1068SOL    HW1 4103   6.230   4.027   1.220
 1068SOL    HW2 4104   6.294   4.159   1.293
 1069SOL     OW 4105   5.781   4.889   0.752
 1069SOL    HW1 4106   5.843   4.812   0.769
 1069SOL    HW2 4107   5.791   4.919   0.657
 1070SOL     OW 4108   2.499   0.140   2.419
 1070SOL    HW1 4109   2.417   0.152   2.475
 1070SOL    HW2 4110   2.473   0.105   2.329
 1071SOL     OW 4111   0.332   2.266   4.796
 1071SOL    HW1 4112   0.315   2.340   4.730
 1071SOL    HW2 4113   0.380   2.303   4.875
 1072SOL     OW 4114   1.988   0.487   1.673
 1072SOL    HW1 4115   2.057   0.435   1.724
 1072SOL    HW2 4116   2.033   0.559   1.620
 1073SOL     OW 4117   6.041   2.086   3.065
 1073SOL    HW1 4118   6.129   2.046   3.040
 1073SOL    HW2 4119   5.968   2.019   3.049
 1074SOL     OW 4120   2.551   5.460   2.249
 1074SOL    HW1 4121   2.463   5.430   2.212
 1074SOL    HW2 4122   2.567   5.414   2.337
 1075SOL     OW 4123   5.848   1.375   4.749
 1075SOL    HW1 4124   5.868   1.283   4.714
 1075SOL    HW2 4125   5.902   1.443   4.699
 1076SOL     OW 4126   1.954   3.836   5.609
 1076SOL    HW1 4127   1.965   3.777   5.529
 1076SOL    HW2 4128   1.926   3.928   5.580
 1077SOL     OW 4129   6.892   0.125   0.196
 1077SOL    HW1 4130   6.837   0.209   0.199
 1077SOL    HW2 4131   6.868   0.073   0.114
 1078SOL     OW 4132   6.604   6.939   3.314
 1078SOL    HW1 4133   6.629   6.901   3.403
 1078SOL    HW2 4134   6.643   0.007   3.305
 1079SOL     OW 4135   1.292   5.490   2.630
 1079SOL    HW1 4136   1.243   5.513   2.715
 1079SOL    HW2 4137   1.287   5.391   2.616
 1080SOL     OW 4138   2.090   5.725   5.431
 1080SOL    HW1 4139   2.171   5.769   5.470
 1080SOL    HW2 4140   2.117   5.643   5.381
 1081SOL     OW 4141   6.970   5.706   4.385
 1081SOL    HW1 4142   6.918   5.784   4.350
 1081SOL    HW2 4143   6.963   5.704   4.485
 1082SOL     OW 4144   6.156   1.467   6.116
 1082SOL    HW1 4145   6.212   1.404   6.171
 1082SOL    HW2 4146   6.065   1.427   6.103
 1083SOL     OW 4147   4.695   4.474   0.512
 1083SOL    HW1 4148   4.603   4.466   0.551
 1083SOL    HW2 4149   4.705   4.408   0.437
 1084SOL     OW 4150   6.236   6.870   6.659
 1084SOL    HW1 4151   6.163   6.905   6.600
 1084SOL    HW2 4152   6.232   6.770   6.662
 1085SOL     OW 4153   1.928   3.672   4.060
 1085SOL    HW1 4154   1.905   3.576   4.078
 1085SOL    HW2 4155   1.864   3.731   4.109
 1086SOL     OW 4156   6.703   4.423   6.242
 1086SOL    HW1 4157   6.707   4.330   6.206
 1086SOL    HW2 4158   6.760   4.483   6.186
 1087SOL     OW 4159   1.426   1.746   5.428
 1087SOL    HW1 4160   1.463   1.695   5.506
 1087SOL    HW2 4161   1.327   1.732   5.423
 1088SOL     OW 4162   0.367   5.306   3.282
 1088SOL    HW1 4163   0.366   5.316   3.382
 1088SOL    HW2 4164   0.277   5.331   3.245
 1089SOL     OW 4165   0.636   5.538   4.706
 1089SOL    HW1 4166   0.710   5.470   4.698
 1089SOL    HW2 4167   0.676   5.629   4.712
 1090SOL     OW 4168   5.775   2.089   3.497
 1090SOL    HW1 4169   5.837   2.153   3.542
 1090SOL    HW2 4170   5.696   2.139   3.460
 1091SOL     OW 4171   1.957   3.181   3.339
 1091SOL    HW1 4172   1.952   3.277   3.368
 1091SOL    HW2 4173   1.929   3.174   3.243
 1092SOL     OW 4174   0.592   4.796   1.324
 1092SOL    HW1 4175   0.682   4.840   1.322
 1092SOL    HW2 4176   0.531   4.848   1.384
 1093SOL     OW 4177   2.917   0.154   1.449
 1093SOL    HW1 4178   2.979   0.227   1.479
 1093SOL    HW2 4179   2.925   0.143   1.350
 1094SOL     OW 4180   0.730   6.927   2.750
 1094SOL    HW1 4181   0.730   6.996   2.821
 1094SOL    HW2 4182   0.714   6.837   2.790
 1095SOL     OW 4183   0.045   2.465   6.332
 1095SOL    HW1 4184   0.029   2.555   6.292
 1095SOL    HW2 4185   6.990   2.438   6.388
 1096SOL     OW 4186   2.931   5.476   0.630
 1096SOL    HW1 4187   2.933   5.415   0.709
 1096SOL    HW2 4188   3.022   5.481   0.589
 1097SOL     OW 4189   2.222   5.673   3.380
 1097SOL    HW1 4190   2.230   5.610   3.303
 1097SOL    HW2 4191   2.207   5.766   3.347
 1098SOL     OW 4192   6.033   3.995   6.905
 1098SOL    HW1 4193   6.054   3.902   6.935
 1098SOL    HW2 4194   6.042   4.001   6.805
 1099SOL     OW 4195   4.440   1.271   6.112
 1099SOL    HW1 4196   4.523   1.268   6.056
 1099SOL    HW2 4197   4.390   1.186   6.101
 1100SOL     OW 4198   3.529   1.379   3.804
 1100SOL    HW1 4199   3.483   1.456   3.759
 1100SOL    HW2 4200   3.547   1.402   3.900
 1101SOL     OW 4201   5.279   3.672   5.359
 1101SOL    HW1 4202   5.266   3.735   5.436
 1101SOL    HW2 4203   5.374   3.676   5.329
 1102SOL     OW 4204   2.464   0.819   4.639
 1102SOL    HW1 4205   2.408   0.876   4.698
 1102SOL    HW2 4206   2.422   0.728   4.631
 1103SOL     OW 4207   2.656   1.711   6.994
 1103SOL    HW1 4208   2.604   1.634   6.957
 1103SOL    HW2 4209   2.631   1.726   0.066
 1104SOL     OW 4210   1.261   4.006   3.240
 1104SOL    HW1 4211   1.162   4.004   3.257
 1104SOL    HW2 4212   1.279   4.045   3.150
 1105SOL     OW 4213   5.369   2.409   4.900
 1105SOL    HW1 4214   5.331   2.319   4.879
 1105SOL    HW2 4215   5.449   2.426   4.842
 1106SOL     OW 4216   0.439   1.270   0.290
 1106SOL    HW1 4217   0.513   1.266   0.357
 1106SOL    HW2 4218   0.449   1.353   0.235
 1107SOL     OW 4219   1.076   0.298   6.348
 1107SOL    HW1 4220   1.122   0.383   6.371
 1107SOL    HW2 4221   0.978   0.313   6.344
 1108SOL     OW 4222   3.656   6.631   4.143
 1108SOL    HW1 4223   3.738   6.687   4.131
 1108SOL    HW2 4224   3.664   6.548   4.088
 1109SOL     OW 4225   6.003   1.632   3.872
 1109SOL    HW1 4226   5.961   1.546   3.843
 1109SOL    HW2 4227   6.020   1.690   3.792
 1110SOL     OW 4228   3.515   1.278   3.116
 1110SOL    HW1 4229   3.445   1.253   3.049
 1110SOL    HW2 4230   3.503   1.223   3.199
 1111SOL     OW 4231   4.929   4.294   6.183
 1111SOL    HW1 4232   5.011   4.310   6.128
 1111SOL    HW2 4233   4.907   4.196   6.183
 1112SOL     OW 4234   6.179   6.802   3.581
 1112SOL    HW1 4235   6.175   6.744   3.500
 1112SOL    HW2 4236   6.087   6.811   3.620
 1113SOL     OW 4237   6.819   3.741   2.555
 1113SOL    HW1 4238   6.815   3.833   2.515
 1113SOL    HW2 4239   6.756   3.736   2.632
 1114SOL     OW 4240   4.046   2.078   5.968
 1114SOL    HW1 4241   4.058   2.051   5.873
 1114SOL    HW2 4242   4.004   2.169   5.971
 1115SOL     OW 4243   4.218   4.575   5.748
 1115SOL    HW1 4244   4.246   4.501   5.688
 1115SOL    HW2 4245   4.296   4.602   5.805
 1116SOL     OW 4246   5.056   0.813   0.249
 1116SOL    HW1 4247   5.007   0.799   0.162
 1116SOL    HW2 4248   5.005   0.770   0.323
 1117SOL     OW 4249   1.198   2.329   1.139
 1117SOL    HW1 4250   1.235   2.252   1.087
 1117SOL    HW2 4251   1.172   2.402   1.075
 1118SOL     OW 4252   2.427   5.863   6.533
 1118SOL    HW1 4253   2.517   5.840   6.495
 1118SOL    HW2 4254   2.387   5.782   6.575
 1119SOL     OW 4255   4.536   4.449   2.531
 1119SOL    HW1 4256   4.445   4.491   2.528
 1119SOL    HW2 4257   4.574   4.444   2.438
 1120SOL     OW 4258   6.450   5.855   1.309
 1120SOL    HW1 4259   6.398   5.906   1.378
 1120SOL    HW2 4260   6.548   5.867   1.327
 1121SOL     OW 4261   0.797   5.223   4.477
 1121SOL    HW1 4262   0.856   5.297   4.445
 1121SOL    HW2 4263   0.750   5.181   4.399
 1122SOL     OW 4264   6.092   2.937   2.116
 1122SOL    HW1 4265   6.142   3.020   2.092
 1122SOL    HW2 4266   6.117   2.864   2.052
 1123SOL     OW 4267   4.509   2.354   3.396
 1123SOL    HW1 4268   4.501   2.319   3.489
 1123SOL    HW2 4269   4.527   2.452   3.399
 1124SOL     OW 4270   1.329   3.326   5.074
 1124SOL    HW1 4271   1.362   3.409   5.120
 1124SOL    HW2 4272   1.237   3.343   5.037
 1125SOL     OW 4273   1.587   3.411   4.905
 1125SOL    HW1 4274   1.515   3.342   4.916
 1125SOL    HW2 4275   1.549   3.502   4.920
 1126SOL     OW 4276   4.030   5.777   5.542
 1126SOL    HW1 4277   4.020   5.843   5.617
 1126SOL    HW2 4278   4.114   5.796   5.492
 1127SOL     OW 4279   6.035   6.657   3.965
 1127SOL    HW1 4280   6.133   6.653   3.984
 1127SOL    HW2 4281   5.985   6.607   4.035
 1128SOL     OW 4282   6.055   1.304   4.422
 1128SOL    HW1 4283   5.988   1.334   4.354
 1128SOL    HW2 4284   6.054   1.368   4.499
 1129SOL     OW 4285   1.880   6.620   0.439
 1129SOL    HW1 4286   1.895   6.521   0.438
 1129SOL    HW2 4287   1.968   6.667   0.432
 1130SOL     OW 4288   1.448   5.366   1.772
 1130SOL    HW1 4289   1.390   5.295   1.732
 1130SOL    HW2 4290   1.471   5.341   1.866
 1131SOL     OW 4291   1.649   0.026   4.804
 1131SOL    HW1 4292   1.632   6.958   4.839
 1131SOL    HW2 4293   1.584   0.047   4.731
 1132SOL     OW 4294   4.593   0.538   2.575
 1132SOL    HW1 4295   4.628   0.603   2.642
 1132SOL    HW2 4296   4.526   0.584   2.516
 1133SOL     OW 4297   1.345   0.235   5.941
 1133SOL    HW1 4298   1.416   0.166   5.960
 1133SOL    HW2 4299   1.256   0.191   5.937
 1134SOL     OW 4300   5.228   6.705   1.929
 1134SOL    HW1 4301   5.133   6.713   1.898
 1134SOL    HW2 4302   5.231   6.652   2.013
 1135SOL     OW 4303   2.293   6.081   4.020
 1135SOL    HW1 4304   2.344   6.136   3.954
 1135SOL    HW2 4305   2.278   6.134   4.103
 1136SOL     OW 4306   3.222   5.810   3.447
 1136SOL    HW1 4307   3.177   5.882   3.394
 1136SOL    HW2 4308   3.276   5.851   3.520
 1137SOL     OW 4309   0.778   5.828   7.012
 1137SOL    HW1 4310   0.781   5.735   6.977
 1137SOL    HW2 4311   0.783   5.893   6.936
 1138SOL     OW 4312   1.641   2.853   5.301
 1138SOL    HW1 4313   1.568   2.895   5.248
 1138SOL    HW2 4314   1.662   2.910   5.381
 1139SOL     OW 4315   2.364   4.886   4.170
 1139SOL    HW1 4316   2.366   4.790   4.142
 1139SOL    HW2 4317   2.307   4.938   4.106
 1140SOL     OW 4318   1.928   0.971   1.988
 1140SOL    HW1 4319   1.842   1.003   1.949
 1140SOL    HW2 4320   1.998   1.041   1.977
 1141SOL     OW 4321   6.035   5.250   6.206
 1141SOL    HW1 4322   6.075   5.223   6.294
 1141SOL    HW2 4323   5.941   5.283   6.220
 1142SOL     OW 4324   2.418   6.929   3.462
 1142SOL    HW1 4325   2.438   0.001   3.443
 1142SOL    HW2 4326   2.400   6.881   3.376
 1143SOL     OW 4327   1.402   3.148   2.480
 1143SOL    HW1 4328   1.437   3.204   2.405
 1143SOL    HW2 4329   1.456   3.064   2.485
 1144SOL     OW 4330   5.582   4.228   3.047
 1144SOL    HW1 4331   5.489   4.192   3.058
 1144SOL    HW2 4332   5.607   4.225   2.950
 1145SOL     OW 4333   1.159   3.023   0.367
 1145SOL    HW1 4334   1.144   2.952   0.299
 1145SOL    HW2 4335   1.123   2.993   0.456
 1146SOL     OW 4336   0.834   1.667   0.965
 1146SOL    HW1 4337   0.745   1.689   0.926
 1146SOL    HW2 4338   0.897   1.638   0.893
 1147SOL     OW 4339   2.784   5.777   0.948
 1147SOL    HW1 4340   2.749   5.813   1.035
 1147SOL    HW2 4341   2.877   5.744   0.962
 1148SOL     OW 4342   4.264   6.364   2.069
 1148SOL    HW1 4343   4.297   6.343   1.976
 1148SOL    HW2 4344   4.234   6.459   2.072
 1149SOL     OW 4345   6.265   3.157   1.757
 1149SOL    HW1 4346   6.302   3.249   1.742
 1149SOL    HW2 4347   6.311   3.092   1.697
 1150SOL     OW 4348   1.009   4.355   0.005
 1150SOL    HW1 4349   1.004   4.283   6.959
 1150SOL    HW2 4350   1.085   4.335   0.067
 1151SOL     OW 4351   5.921   5.061   4.260
 1151SOL    HW1 4352   5.917   5.149   4.212
 1151SOL    HW2 4353   5.970   5.072   4.346
 1152SOL     OW 4354   4.521   6.899   0.373
 1152SOL    HW1 4355   4.491   6.971   0.310
 1152SOL    HW2 4356   4.620   6.902   0.382
 1153SOL     OW 4357   6.845   0.029   1.268
 1153SOL    HW1 4358   6.875   0.041   1.173
 1153SOL    HW2 4359   6.835   0.119   1.311
 1154SOL     OW 4360   0.848   3.662   2.143
 1154SOL    HW1 4361   0.931   3.694   2.096
 1154SOL    HW2 4362   0.863   3.663   2.241
 1155SOL     OW 4363   2.202   6.474   4.967
 1155SOL    HW1 4364   2.275   6.461   4.899
 1155SOL    HW2 4365   2.171   6.569   4.964
 1156SOL     OW 4366   4.422   1.831   5.057
 1156SOL    HW1 4367   4.462   1.838   5.149
 1156SOL    HW2 4368   4.489   1.792   4.994
 1157SOL     OW 4369   4.719   1.001   5.496
 1157SOL    HW1 4370   4.690   1.094   5.521
 1157SOL    HW2 4371   4.749   1.000   5.401
 1158SOL     OW 4372   5.355   6.442   4.170
 1158SOL    HW1 4373   5.314   6.517   4.117
 1158SOL    HW2 4374   5.291   6.411   4.239
 1159SOL     OW 4375   6.072   6.455   3.347
 1159SOL    HW1 4376   6.161   6.472   3.305
 1159SOL    HW2 4377   6.031   6.372   3.308
 1160SOL     OW 4378   4.439   6.269   1.186
 1160SOL    HW1 4379   4.441   6.331   1.109
 1160SOL    HW2 4380   4.477   6.181   1.160
 1161SOL     OW 4381   6.946   5.102   6.150
 1161SOL    HW1 4382   6.930   5.022   6.208
 1161SOL    HW2 4383   6.858   5.143   6.125
 1162SOL     OW 4384   2.164   2.789   5.902
 1162SOL    HW1 4385   2.262   2.800   5.916
 1162SOL    HW2 4386   2.147   2.706   5.849
 1163SOL     OW 4387   6.012   4.333   1.740
 1163SOL    HW1 4388   5.948   4.257   1.737
 1163SOL    HW2 4389   5.981   4.406   1.679
 1164SOL     OW 4390   5.559   2.150   4.734
 1164SOL    HW1 4391   5.509   2.096   4.801
 1164SOL    HW2 4392   5.495   2.187   4.666
 1165SOL     OW 4393   4.457   6.373   3.562
 1165SOL    HW1 4394   4.547   6.404   3.593
 1165SOL    HW2 4395   4.401   6.452   3.538
 1166SOL     OW 4396   1.714   6.444   0.045
 1166SOL    HW1 4397   1.790   6.493   0.002
 1166SOL    HW2 4398   1.628   6.490   0.023
 1167SOL     OW 4399   5.040   3.904   1.584
 1167SOL    HW1 4400   5.002   3.994   1.563
 1167SOL    HW2 4401   5.037   3.888   1.683
 1168SOL     OW 4402   6.229   1.905   2.126
 1168SOL    HW1 4403   6.244   1.938   2.032
 1168SOL    HW2 4404   6.306   1.848   2.153
 1169SOL     OW 4405   6.008   1.841   5.883
 1169SOL    HW1 4406   6.106   1.837   5.901
 1169SOL    HW2 4407   5.992   1.825   5.785
 1170SOL     OW 4408   4.564   0.066   2.714
 1170SOL    HW1 4409   4.557   0.161   2.745
 1170SOL    HW2 4410   4.587   0.065   2.616
 1171SOL     OW 4411   2.280   0.134   0.459
 1171SOL    HW1 4412   2.236   0.071   0.523
 1171SOL    HW2 4413   2.309   0.084   0.378
 1172SOL     OW 4414   5.204   3.382   1.044
 1172SOL    HW1 4415   5.150   3.340   1.117
 1172SOL    HW2 4416   5.237   3.471   1.074
 1173SOL     OW 4417   2.046   1.065   1.269
 1173SOL    HW1 4418   2.123   1.117   1.233
 1173SOL    HW2 4419   1.961   1.111   1.242
 1174SOL     OW 4420   3.570   4.109   1.836
 1174SOL    HW1 4421   3.631   4.038   1.800
 1174SOL    HW2 4422   3.579   4.113   1.935
 1175SOL     OW 4423   4.558   3.195   5.940
 1175SOL    HW1 4424   4.625   3.235   6.003
 1175SOL    HW2 4425   4.602   3.124   5.885
 1176SOL     OW 4426   4.821   3.364   6.113
 1176SOL    HW1 4427   4.790   3.458   6.121
 1176SOL    HW2 4428   4.772   3.307   6.180
 1177SOL     OW 4429   6.395   3.341   5.154
 1177SOL    HW1 4430   6.412   3.418   5.215
 1177SOL    HW2 4431   6.442   3.260   5.188
 1178SOL     OW 4432   2.734   3.325   0.744
 1178SOL    HW1 4433   2.682   3.410   0.740
 1178SOL    HW2 4434   2.696   3.259   0.679
 1179SOL     OW 4435   2.227   5.767   0.304
 1179SOL    HW1 4436   2.140   5.717   0.305
 1179SOL    HW2 4437   2.218   5.848   0.245
 1180SOL     OW 4438   2.574   6.113   2.940
 1180SOL    HW1 4439   2.593   6.210   2.954
 1180SOL    HW2 4440   2.659   6.061   2.943
 1181SOL     OW 4441   0.288   5.435   6.021
 1181SOL    HW1 4442   0.239   5.383   6.092
 1181SOL    HW2 4443   0.267   5.397   5.931
 1182SOL     OW 4444   4.176   5.411   3.486
 1182SOL    HW1 4445   4.131   5.338   3.537
 1182SOL    HW2 4446   4.237   5.461   3.548
 1183SOL     OW 4447   1.986   4.562   0.887
 1183SOL    HW1 4448   1.938   4.617   0.956
 1183SOL    HW2 4449   1.942   4.574   0.798
 1184SOL     OW 4450   0.724   0.430   4.698
 1184SOL    HW1 4451   0.686   0.433   4.791
 1184SOL    HW2 4452   0.816   0.391   4.702
 1185SOL     OW 4453   0.517   1.146   6.755
 1185SOL    HW1 4454   0.562   1.187   6.676
 1185SOL    HW2 4455   0.441   1.088   6.724
 1186SOL     OW 4456   5.132   5.817   5.166
 1186SOL    HW1 4457   5.094   5.816   5.073
 1186SOL    HW2 4458   5.091   5.892   5.218
 1187SOL     OW 4459   6.467   6.619   0.001
 1187SOL    HW1 4460   6.545   6.656   0.052
 1187SOL    HW2 4461   6.390   6.607   0.063
 1188SOL     OW 4462   3.592   6.482   4.909
 1188SOL    HW1 4463   3.659   6.547   4.874
 1188SOL    HW2 4464   3.535   6.448   4.834
 1189SOL     OW 4465   6.702   2.583   2.886
 1189SOL    HW1 4466   6.632   2.631   2.834
 1189SOL    HW2 4467   6.785   2.574   2.831
 1190SOL     OW 4468   2.142   5.924   3.676
 1190SOL    HW1 4469   2.102   5.924   3.767
 1190SOL    HW2 4470   2.136   5.832   3.637
 1191SOL     OW 4471   4.700   4.896   3.602
 1191SOL    HW1 4472   4.605   4.914   3.627
 1191SOL    HW2 4473   4.705   4.866   3.507
 1192SOL     OW 4474   3.657   5.425   3.143
 1192SOL    HW1 4475   3.584   5.400   3.207
 1192SOL    HW2 4476   3.655   5.523   3.127
 1193SOL     OW 4477   6.179   4.000   4.709
 1193SOL    HW1 4478   6.106   3.958   4.655
 1193SOL    HW2 4479   6.166   3.978   4.805
 1194SOL     OW 4480   5.305   6.954   1.503
 1194SOL    HW1 4481   5.307   6.939   1.404
 1194SOL    HW2 4482   5.291   6.867   1.550
 1195SOL     OW 4483   6.138   4.626   1.681
 1195SOL    HW1 4484   6.201   4.580   1.619
 1195SOL    HW2 4485   6.074   4.682   1.628
 1196SOL     OW 4486   0.156   5.704   2.932
 1196SOL    HW1 4487   0.157   5.672   3.027
 1196SOL    HW2 4488   0.249   5.703   2.895
 1197SOL     OW 4489   4.186   0.606   6.067
 1197SOL    HW1 4490   4.157   0.584   5.974
 1197SOL    HW2 4491   4.267   0.664   6.063
 1198SOL     OW 4492   1.376   3.365   1.620
 1198SOL    HW1 4493   1.404   3.441   1.678
 1198SOL    HW2 4494   1.457   3.311   1.595
 1199SOL     OW 4495   4.630   4.706   1.969
 1199SOL    HW1 4496   4.614   4.714   2.068
 1199SOL    HW2 4497   4.729   4.704   1.952
 1200SOL     OW 4498   3.348   3.358   3.497
 1200SOL    HW1 4499   3.441   3.345   3.462
 1200SOL    HW2 4500   3.282   3.324   3.431
 1201SOL     OW 4501   1.097   1.165   4.643
 1201SOL    HW1 4502   1.117   1.200   4.551
 1201SOL    HW2 4503   1.157   1.088   4.663
 1202SOL     OW 4504   1.052   5.424   6.240
 1202SOL    HW1 4505   0.959   5.401   6.212
 1202SOL    HW2 4506   1.074   5.517   6.212
 1203SOL     OW 4507   5.928   6.260   7.001
 1203SOL    HW1 4508   5.858   6.315   6.957
 1203SOL    HW2 4509   5.889   6.174   0.008
 1204SOL     OW 4510   3.048   6.923   1.176
 1204SOL    HW1 4511   3.012   6.990   1.110
 1204SOL    HW2 4512   2.985   6.845   1.182
 1205SOL     OW 4513   5.576   4.004   1.454
 1205SOL    HW1 4514   5.487   4.047   1.463
 1205SOL    HW2 4515   5.593   3.944   1.533
 1206SOL     OW 4516   3.256   2.751   5.355
 1206SOL    HW1 4517   3.202   2.760   5.272
 1206SOL    HW2 4518   3.195   2.741   5.434
 1207SOL     OW 4519   1.949   6.690   1.225
 1207SOL    HW1 4520   1.977   6.603   1.265
 1207SOL    HW2 4521   1.851   6.688   1.206
 1208SOL     OW 4522   3.385   3.734   0.686
 1208SOL    HW1 4523   3.447   3.773   0.618
 1208SOL    HW2 4524   3.405   3.774   0.776
 1209SOL     OW 4525   4.269   0.765   5.432
 1209SOL    HW1 4526   4.222   0.703   5.369
 1209SOL    HW2 4527   4.341   0.814   5.383
 1210SOL     OW 4528   2.629   0.274   2.779
 1210SOL    HW1 4529   2.618   0.362   2.824
 1210SOL    HW2 4530   2.625   0.286   2.680
 1211SOL     OW 4531   1.235   3.791   1.527
 1211SOL    HW1 4532   1.272   3.838   1.608
 1211SOL    HW2 4533   1.308   3.740   1.482
 1212SOL     OW 4534   6.420   0.286   6.584
 1212SOL    HW1 4535   6.460   0.267   6.674
 1212SOL    HW2 4536   6.479   0.246   6.513
 1213SOL     OW 4537   6.593   2.228   0.354
 1213SOL    HW1 4538   6.588   2.260   0.448
 1213SOL    HW2 4539   6.577   2.305   0.292
 1214SOL     OW 4540   7.000   2.960   0.382
 1214SOL    HW1 4541   0.044   3.010   0.437
 1214SOL    HW2 4542   6.908   2.988   0.411
 1215SOL     OW 4543   1.328   3.977   3.808
 1215SOL    HW1 4544   1.284   4.035   3.740
 1215SOL    HW2 4545   1.409   3.934   3.769
 1216SOL     OW 4546   5.162   0.896   1.269
 1216SOL    HW1 4547   5.148   0.994   1.257
 1216SOL    HW2 4548   5.208   0.858   1.188
 1217SOL     OW 4549   1.438   4.927   0.981
 1217SOL    HW1 4550   1.533   4.923   1.012
 1217SOL    HW2 4551   1.417   5.019   0.948
 1218SOL     OW 4552   1.792   4.785   4.438
 1218SOL    HW1 4553   1.831   4.865   4.484
 1218SOL    HW2 4554   1.814   4.790   4.340
 1219SOL     OW 4555   5.487   5.045   2.319
 1219SOL    HW1 4556   5.397   5.004   2.305
 1219SOL    HW2 4557   5.505   5.114   2.249
 1220SOL     OW 4558   0.808   5.260   3.345
 1220SOL    HW1 4559   0.761   5.209   3.417
 1220SOL    HW2 4560   0.763   5.349   3.334
 1221SOL     OW 4561   4.686   3.486   5.567
 1221SOL    HW1 4562   4.749   3.486   5.490
 1221SOL    HW2 4563   4.730   3.529   5.646
 1222SOL     OW 4564   6.509   6.607   6.749
 1222SOL    HW1 4565   6.501   6.625   6.847
 1222SOL    HW2 4566   6.420   6.619   6.705
 1223SOL     OW 4567   3.625   0.717   0.881
 1223SOL    HW1 4568   3.710   0.768   0.897
 1223SOL    HW2 4569   3.562   0.773   0.828
 1224SOL     OW 4570   2.345   6.201   0.754
 1224SOL    HW1 4571   2.353   6.257   0.671
 1224SOL    HW2 4572   2.437   6.181   0.789
 1225SOL     OW 4573   3.537   3.877   6.186
 1225SOL    HW1 4574   3.610   3.877   6.118
 1225SOL    HW2 4575   3.455   3.837   6.146
 1226SOL     OW 4576   2.712   5.330   0.959
 1226SOL    HW1 4577   2.716   5.272   1.040
 1226SOL    HW2 4578   2.802   5.332   0.915
 1227SOL     OW 4579   0.157   3.987   6.884
 1227SOL    HW1 4580   0.218   3.928   6.937
 1227SOL    HW2 4581   0.207   4.025   6.806
 1228SOL     OW 4582   3.987   2.507   6.864
 1228SOL    HW1 4583   3.914   2.480   6.801
 1228SOL    HW2 4584   3.969   2.467   6.954
 1229SOL     OW 4585   3.997   4.685   6.048
 1229SOL    HW1 4586   4.006   4.781   6.023
 1229SOL    HW2 4587   3.965   4.632   5.969
 1230SOL     OW 4588   4.462   0.650   3.892
 1230SOL    HW1 4589   4.420   0.616   3.808
 1230SOL    HW2 4590   4.407   0.725   3.929
 1231SOL     OW 4591   1.222   3.611   4.884
 1231SOL    HW1 4592   1.316   3.607   4.851
 1231SOL    HW2 4593   1.177   3.692   4.847
 1232SOL     OW 4594   1.132   1.726   5.615
 1232SOL    HW1 4595   1.109   1.806   5.561
 1232SOL    HW2 4596   1.130   1.644   5.558
 1233SOL     OW 4597   1.804   3.176   4.591
 1233SOL    HW1 4598   1.841   3.094   4.636
 1233SOL    HW2 4599   1.799   3.250   4.657
 1234SOL     OW 4600   6.704   3.818   5.054
 1234SOL    HW1 4601   6.675   3.901   5.101
 1234SOL    HW2 4602   6.692   3.739   5.114
 1235SOL     OW 4603   0.340   6.073   2.463
 1235SOL    HW1 4604   0.342   5.983   2.506
 1235SOL    HW2 4605   0.305   6.140   2.527
 1236SOL     OW 4606   5.516   0.986   6.597
 1236SOL    HW1 4607   5.502   1.085   6.607
 1236SOL    HW2 4608   5.477   0.955   6.510
 1237SOL     OW 4609   3.045   5.122   6.718
 1237SOL    HW1 4610   3.056   5.204   6.662
 1237SOL    HW2 4611   3.131   5.102   6.765
 1238SOL     OW 4612   1.855   0.972   0.848
 1238SOL    HW1 4613   1.800   1.009   0.773
 1238SOL    HW2 4614   1.867   0.874   0.835
 1239SOL     OW 4615   6.901   6.340   6.568
 1239SOL    HW1 4616   6.835   6.407   6.601
 1239SOL    HW2 4617   6.871   6.304   6.479
 1240SOL     OW 4618   5.735   5.953   2.233
 1240SOL    HW1 4619   5.769   5.888   2.301
 1240SOL    HW2 4620   5.659   5.911   2.183
 1241SOL     OW 4621   6.871   3.397   4.202
 1241SOL    HW1 4622   6.833   3.447   4.125
 1241SOL    HW2 4623   6.947   3.340   4.170
 1242SOL     OW 4624   1.730   3.411   1.204
 1242SOL    HW1 4625   1.755   3.319   1.175
 1242SOL    HW2 4626   1.661   3.448   1.141
 1243SOL     OW 4627   1.250   6.085   5.451
 1243SOL    HW1 4628   1.195   6.066   5.369
 1243SOL    HW2 4629   1.189   6.094   5.530
 1244SOL     OW 4630   0.367   6.216   3.231
 1244SOL    HW1 4631   0.319   6.128   3.221
 1244SOL    HW2 4632   0.418   6.217   3.317
 1245SOL     OW 4633   4.347   3.671   6.117
 1245SOL    HW1 4634   4.345   3.591   6.058
 1245SOL    HW2 4635   4.306   3.749   6.069
 1246SOL     OW 4636   2.353   6.473   2.046
 1246SOL    HW1 4637   2.256   6.450   2.049
 1246SOL    HW2 4638   2.366   6.563   2.087
 1247SOL     OW 4639   2.900   0.148   6.708
 1247SOL    HW1 4640   2.836   0.072   6.699
 1247SOL    HW2 4641   2.987   0.124   6.665
 1248SOL     OW 4642   2.161   6.980   4.052
 1248SOL    HW1 4643   2.101   6.944   4.124
 1248SOL    HW2 4644   2.255   6.951   4.069
 1249SOL     OW 4645   5.414   2.666   2.433
 1249SOL    HW1 4646   5.412   2.766   2.441
 1249SOL    HW2 4647   5.424   2.640   2.337
 1250SOL     OW 4648   0.377   4.771   4.878
 1250SOL    HW1 4649   0.348   4.855   4.833
 1250SOL    HW2 4650   0.313   4.697   4.855
 1251SOL     OW 4651   3.380   0.158   4.443
 1251SOL    HW1 4652   3.361   0.189   4.537
 1251SOL    HW2 4653   3.342   0.224   4.378
 1252SOL     OW 4654   3.343   3.717   6.076
 1252SOL    HW1 4655   3.307   3.696   6.167
 1252SOL    HW2 4656   3.364   3.632   6.028
 1253SOL     OW 4657   4.037   5.699   1.859
 1253SOL    HW1 4658   3.939   5.685   1.866
 1253SOL    HW2 4659   4.085   5.612   1.873
 1254SOL     OW 4660   6.240   2.944   2.531
 1254SOL    HW1 4661   6.236   3.027   2.586
 1254SOL    HW2 4662   6.235   2.863   2.590
 1255SOL     OW 4663   6.769   1.183   4.681
 1255SOL    HW1 4664   6.847   1.221   4.632
 1255SOL    HW2 4665   6.800   1.145   4.768
 1256SOL     OW 4666   6.724   0.154   3.290
 1256SOL    HW1 4667   6.662   0.231   3.275
 1256SOL    HW2 4668   6.772   0.133   3.205
 1257SOL     OW 4669   0.358   6.989   3.688
 1257SOL    HW1 4670   0.396   6.907   3.733
 1257SOL    HW2 4671   0.378   0.046   3.743
 1258SOL     OW 4672   0.649   5.184   3.551
 1258SOL    HW1 4673   0.599   5.266   3.577
 1258SOL    HW2 4674   0.689   5.142   3.633
 1259SOL     OW 4675   3.963   1.933   4.407
 1259SOL    HW1 4676   3.923   1.903   4.493
 1259SOL    HW2 4677   3.958   1.859   4.340
 1260SOL     OW 4678   0.996   1.617   7.017
 1260SOL    HW1 4679   0.965   1.536   0.044
 1260SOL    HW2 4680   1.056   1.587   6.942
 1261SOL     OW 4681   0.244   5.542   6.793
 1261SOL    HW1 4682   0.230   5.640   6.782
 1261SOL    HW2 4683   0.256   5.520   6.890
 1262SOL     OW 4684   5.216   5.439   2.436
 1262SOL    HW1 4685   5.205   5.492   2.352
 1262SOL    HW2 4686   5.158   5.478   2.508
 1263SOL     OW 4687   0.831   1.575   2.674
 1263SOL    HW1 4688   0.881   1.559   2.759
 1263SOL    HW2 4689   0.818   1.674   2.662
 1264SOL     OW 4690   1.084   3.888   5.771
 1264SOL    HW1 4691   1.183   3.889   5.754
 1264SOL    HW2 4692   1.036   3.874   5.684
 1265SOL     OW 4693   6.761   5.469   4.593
 1265SOL    HW1 4694   6.693   5.424   4.650
 1265SOL    HW2 4695   6.727   5.477   4.500
 1266SOL     OW 4696   0.562   0.793   4.272
 1266SOL    HW1 4697   0.480   0.846   4.252
 1266SOL    HW2 4698   0.550   0.744   4.358
 1267SOL     OW 4699   5.282   0.624   2.050
 1267SOL    HW1 4700   5.282   0.640   1.951
 1267SOL    HW2 4701   5.318   0.704   2.097
 1268SOL     OW 4702   3.803   2.523   5.652
 1268SOL    HW1 4703   3.893   2.486   5.630
 1268SOL    HW2 4704   3.810   2.622   5.665
 1269SOL     OW 4705   5.110   2.521   4.245
 1269SOL    HW1 4706   5.150   2.504   4.156
 1269SOL    HW2 4707   5.115   2.619   4.266
 1270SOL     OW 4708   1.681   4.905   2.242
 1270SOL    HW1 4709   1.609   4.927   2.176
 1270SOL    HW2 4710   1.770   4.914   2.198
 1271SOL     OW 4711   1.843   0.727   1.313
 1271SOL    HW1 4712   1.856   0.813   1.264
 1271SOL    HW2 4713   1.802   0.659   1.252
 1272SOL     OW 4714   6.506   3.617   6.438
 1272SOL    HW1 4715   6.432   3.669   6.483
 1272SOL    HW2 4716   6.555   3.677   6.376
 1273SOL     OW 4717   1.492   3.943   4.800
 1273SOL    HW1 4718   1.541   3.956   4.714
 1273SOL    HW2 4719   1.511   4.021   4.861
 1274SOL     OW 4720   0.199   4.495   1.504
 1274SOL    HW1 4721   0.135   4.521   1.577
 1274SOL    HW2 4722   0.149   4.453   1.428
 1275SOL     OW 4723   2.384   0.406   3.709
 1275SOL    HW1 4724   2.306   0.464   3.687
 1275SOL    HW2 4725   2.353   0.312   3.722
 1276SOL     OW 4726   5.493   4.696   4.545
 1276SOL    HW1 4727   5.550   4.631   4.596
 1276SOL    HW2 4728   5.528   4.705   4.452
 1277SOL     OW 4729   0.780   5.398   6.942
 1277SOL    HW1 4730   0.746   5.447   6.862
 1277SOL    HW2 4731   0.855   5.337   6.914
 1278SOL     OW 4732   0.922   6.944   3.557
 1278SOL    HW1 4733   0.942   6.864   3.613
 1278SOL    HW2 4734   1.001   6.964   3.499
 1279SOL     OW 4735   2.229   3.967   5.918
 1279SOL    HW1 4736   2.282   4.051   5.905
 1279SOL    HW2 4737   2.277   3.907   5.982
 1280SOL     OW 4738   3.275   0.765   3.692
 1280SOL    HW1 4739   3.286   0.816   3.607
 1280SOL    HW2 4740   3.313   0.819   3.767
 1281SOL     OW 4741   2.749   6.017   3.863
 1281SOL    HW1 4742   2.823   6.000   3.798
 1281SOL    HW2 4743   2.718   5.930   3.902
 1282SOL     OW 4744   6.492   2.633   0.543
 1282SOL    HW1 4745   6.500   2.728   0.573
 1282SOL    HW2 4746   6.497   2.572   0.622
 1283SOL     OW 4747   6.307   3.746   5.224
 1283SOL    HW1 4748   6.331   3.729   5.128
 1283SOL    HW2 4749   6.256   3.831   5.232
 1284SOL     OW 4750   3.726   0.965   1.315
 1284SOL    HW1 4751   3.710   0.892   1.248
 1284SOL    HW2 4752   3.757   1.047   1.267
 1285SOL     OW 4753   3.577   1.453   4.781
 1285SOL    HW1 4754   3.652   1.398   4.818
 1285SOL    HW2 4755   3.613   1.541   4.748
 1286SOL     OW 4756   4.948   2.735   1.386
 1286SOL    HW1 4757   5.023   2.769   1.330
 1286SOL    HW2 4758   4.941   2.788   1.470
 1287SOL     OW 4759   5.923   4.699   5.216
 1287SOL    HW1 4760   6.013   4.713   5.176
 1287SOL    HW2 4761   5.874   4.628   5.164
 1288SOL     OW 4762   4.323   4.584   6.417
 1288SOL    HW1 4763   4.265   4.664   6.403
 1288SOL    HW2 4764   4.417   4.613   6.434
 1289SOL     OW 4765   6.609   0.788   1.563
 1289SOL    HW1 4766   6.536   0.772   1.630
 1289SOL    HW2 4767   6.691   0.739   1.592
 1290SOL     OW 4768   1.520   0.757   0.245
 1290SOL    HW1 4769   1.517   0.816   0.326
 1290SOL    HW2 4770   1.517   0.661   0.273
 1291SOL     OW 4771   6.399   4.956   4.443
 1291SOL    HW1 4772   6.360   4.926   4.530
 1291SOL    HW2 4773   6.498   4.947   4.445
 1292SOL     OW 4774   0.117   5.599   2.599
 1292SOL    HW1 4775   0.122   5.529   2.670
 1292SOL    HW2 4776   0.083   5.559   2.514
 1293SOL     OW 4777   2.205   1.801   0.375
 1293SOL    HW1 4778   2.288   1.754   0.344
 1293SOL    HW2 4779   2.185   1.877   0.313
 1294SOL     OW 4780   1.999   4.629   6.648
 1294SOL    HW1 4781   2.022   4.614   6.552
 1294SOL    HW2 4782   2.081   4.614   6.704
 1295SOL     OW 4783   0.329   3.836   1.216
 1295SOL    HW1 4784   0.359   3.888   1.136
 1295SOL    HW2 4785   0.234   3.859   1.238
 1296SOL     OW 4786   5.292   6.831   5.464
 1296SOL    HW1 4787   5.337   6.917   5.487
 1296SOL    HW2 4788   5.206   6.823   5.514
 1297SOL     OW 4789   0.920   6.730   2.221
 1297SOL    HW1 4790   0.972   6.736   2.306
 1297SOL    HW2 4791   0.849   6.660   2.230
 1298SOL     OW 4792   4.967   5.828   3.253
 1298SOL    HW1 4793   5.048   5.885   3.242
 1298SOL    HW2 4794   4.962   5.763   3.177
 1299SOL     OW 4795   2.126   3.046   4.049
 1299SOL    HW1 4796   2.218   3.008   4.040
 1299SOL    HW2 4797   2.101   3.050   4.146
 1300SOL     OW 4798   2.194   3.502   1.210
 1300SOL    HW1 4799   2.268   3.498   1.277
 1300SOL    HW2 4800   2.216   3.570   1.140
 1301SOL     OW 4801   0.697   0.476   1.321
 1301SOL    HW1 4802   0.796   0.470   1.338
 1301SOL    HW2 4803   0.647   0.462   1.406
 1302SOL     OW 4804   5.472   0.145   5.398
 1302SOL    HW1 4805   5.509   0.119   5.308
 1302SOL    HW2 4806   5.507   0.234   5.424
 1303SOL     OW 4807   4.215   0.086   1.707
 1303SOL    HW1 4808   4.214   0.168   1.649
 1303SOL    HW2 4809   4.302   0.080   1.755
 1304SOL     OW 4810   1.388   1.572   1.392
 1304SOL    HW1 4811   1.379   1.657   1.339
 1304SOL    HW2 4812   1.304   1.554   1.441
 1305SOL     OW 4813   5.147   4.305   6.015
 1305SOL    HW1 4814   5.222   4.331   6.076
 1305SOL    HW2 4815   5.124   4.381   5.956
 1306SOL     OW 4816   0.689   5.838   4.797
 1306SOL    HW1 4817   0.669   5.903   4.870
 1306SOL    HW2 4818   0.766   5.780   4.825
 1307SOL     OW 4819   1.912   2.987   3.871
 1307SOL    HW1 4820   1.863   2.904   3.896
 1307SOL    HW2 4821   1.962   3.022   3.950
 1308SOL     OW 4822   6.588   6.137   6.529
 1308SOL    HW1 4823   6.571   6.194   6.609
 1308SOL    HW2 4824   6.514   6.149   6.463
 1309SOL     OW 4825   5.111   5.004   5.814
 1309SOL    HW1 4826   5.163   5.083   5.779
 1309SOL    HW2 4827   5.117   4.929   5.749
 1310SOL     OW 4828   0.567   3.773   4.121
 1310SOL    HW1 4829   0.661   3.777   4.154
 1310SOL    HW2 4830   0.508   3.823   4.183
 1311SOL     OW 4831   6.380   5.354   6.407
 1311SOL    HW1 4832   6.417   5.429   6.352
 1311SOL    HW2 4833   6.439   5.273   6.396
 1312SOL     OW 4834   1.308   0.922   5.794
 1312SOL    HW1 4835   1.236   0.912   5.863
 1312SOL    HW2 4836   1.396   0.933   5.839
 1313SOL     OW 4837   6.086   5.860   3.224
 1313SOL    HW1 4838   6.142   5.777   3.231
 1313SOL    HW2 4839   6.005   5.841   3.169
 1314SOL     OW 4840   3.245   1.744   4.876
 1314SOL    HW1 4841   3.324   1.728   4.936
 1314SOL    HW2 4842   3.209   1.655   4.845
 1315SOL     OW 4843   6.513   0.416   3.922
 1315SOL    HW1 4844   6.606   0.438   3.953
 1315SOL    HW2 4845   6.505   0.318   3.908
 1316SOL     OW 4846   4.151   0.301   5.516
 1316SOL    HW1 4847   4.207   0.219   5.503
 1316SOL    HW2 4848   4.054   0.277   5.510
 1317SOL     OW 4849   1.999   4.374   5.594
 1317SOL    HW1 4850   2.039   4.283   5.594
 1317SOL    HW2 4851   2.020   4.420   5.507
 1318SOL     OW 4852   2.454   3.558   6.759
 1318SOL    HW1 4853   2.447   3.626   6.833
 1318SOL    HW2 4854   2.407   3.474   6.786
 1319SOL     OW 4855   6.891   5.959   0.033
 1319SOL    HW1 4856   6.798   5.966   0.069
 1319SOL    HW2 4857   6.933   6.050   0.034
 1320SOL     OW 4858   3.161   3.000   6.491
 1320SOL    HW1 4859   3.227   2.927   6.472
 1320SOL    HW2 4860   3.077   2.984   6.440
 1321SOL     OW 4861   4.885   2.296   6.586
 1321SOL    HW1 4862   4.937   2.379   6.607
 1321SOL    HW2 4863   4.946   2.230   6.541
 1322SOL     OW 4864   3.307   1.192   5.031
 1322SOL    HW1 4865   3.397   1.149   5.031
 1322SOL    HW2 4866   3.249   1.148   4.962
 1323SOL     OW 4867   3.568   0.051   0.507
 1323SOL    HW1 4868   3.574   0.117   0.433
 1323SOL    HW2 4869   3.589   6.983   0.473
 1324SOL     OW 4870   1.277   3.643   0.327
 1324SOL    HW1 4871   1.305   3.646   0.423
 1324SOL    HW2 4872   1.178   3.631   0.321
 1325SOL     OW 4873   3.237   6.284   5.427
 1325SOL    HW1 4874   3.218   6.248   5.518
 1325SOL    HW2 4875   3.336   6.296   5.416
 1326SOL     OW 4876   4.680   4.283   4.998
 1326SOL    HW1 4877   4.682   4.243   4.907
 1326SOL    HW2 4878   4.694   4.211   5.066
 1327SOL     OW 4879   0.146   6.913   1.052
 1327SOL    HW1 4880   0.227   6.971   1.047
 1327SOL    HW2 4881   0.169   6.827   1.098
 1328SOL     OW 4882   1.666   3.255   5.754
 1328SOL    HW1 4883   1.672   3.327   5.824
 1328SOL    HW2 4884   1.730   3.182   5.777
 1329SOL     OW 4885   0.238   1.356   2.742
 1329SOL    HW1 4886   0.239   1.282   2.675
 1329SOL    HW2 4887   0.287   1.435   2.705
 1330SOL     OW 4888   0.417   1.980   0.782
 1330SOL    HW1 4889   0.471   1.929   0.715
 1330SOL    HW2 4890   0.413   2.076   0.756
 1331SOL     OW 4891   4.397   2.182   2.657
 1331SOL    HW1 4892   4.414   2.280   2.667
 1331SOL    HW2 4893   4.468   2.142   2.598
 1332SOL     OW 4894   1.786   0.563   0.379
 1332SOL    HW1 4895   1.791   0.617   0.463
 1332SOL    HW2 4896   1.875   0.520   0.362
 1333SOL     OW 4897   3.162   4.016   3.202
 1333SOL    HW1 4898   3.238   3.963   3.163
 1333SOL    HW2 4899   3.120   4.071   3.130
 1334SOL     OW 4900   0.125   1.678   3.452
 1334SOL    HW1 4901   0.146   1.713   3.543
 1334SOL    HW2 4902   0.209   1.668   3.400
 1335SOL     OW 4903   2.001   2.795   1.870
 1335SOL    HW1 4904   2.087   2.829   1.908
 1335SOL    HW2 4905   2.012   2.700   1.841
 1336SOL     OW 4906   4.033   1.117   5.353
 1336SOL    HW1 4907   3.987   1.137   5.439
 1336SOL    HW2 4908   4.041   1.018   5.341
 1337SOL     OW 4909   6.763   1.123   2.825
 1337SOL    HW1 4910   6.812   1.092   2.744
 1337SOL    HW2 4911   6.825   1.177   2.882
 1338SOL     OW 4912   6.359   4.054   4.450
 1338SOL    HW1 4913   6.285   4.108   4.410
 1338SOL    HW2 4914   6.325   4.004   4.529
 1339SOL     OW 4915   0.083   0.451   0.255
 1339SOL    HW1 4916   0.033   0.479   0.173
 1339SOL    HW2 4917   0.022   0.401   0.316
 1340SOL     OW 4918   4.781   1.921   2.487
 1340SOL    HW1 4919   4.874   1.903   2.455
 1340SOL    HW2 4920   4.716   1.907   2.412
 1341SOL     OW 4921   4.490   6.569   0.033
 1341SOL    HW1 4922   4.433   6.650   0.052
 1341SOL    HW2 4923   4.579   6.598   7.022
 1342SOL     OW 4924   3.144   5.544   6.880
 1342SOL    HW1 4925   3.236   5.577   6.897
 1342SOL    HW2 4926   3.136   5.448   6.910
 1343SOL     OW 4927   6.002   5.196   3.087
 1343SOL    HW1 4928   6.032   5.117   3.141
 1343SOL    HW2 4929   6.008   5.278   3.144
 1344SOL     OW 4930   0.896   6.354   4.296
 1344SOL    HW1 4931   0.834   6.306   4.234
 1344SOL    HW2 4932   0.852   6.438   4.329
 1345SOL     OW 4933   0.774   4.836   2.055
 1345SOL    HW1 4934   0.712   4.790   2.118
 1345SOL    HW2 4935   0.727   4.852   1.968
 1346SOL     OW 4936   1.956   5.375   6.207
 1346SOL    HW1 4937   2.014   5.326   6.273
 1346SOL    HW2 4938   2.011   5.404   6.129
 1347SOL     OW 4939   1.986   0.516   6.102
 1347SOL    HW1 4940   1.956   0.445   6.038
 1347SOL    HW2 4941   1.924   0.594   6.098
 1348SOL     OW 4942   0.362   6.082   5.441
 1348SOL    HW1 4943   0.453   6.121   5.458
 1348SOL    HW2 4944   0.296   6.156   5.432
 1349SOL     OW 4945   5.795   2.658   4.081
 1349SOL    HW1 4946   5.873   2.678   4.141
 1349SOL    HW2 4947   5.710   2.665   4.133
 1350SOL     OW 4948   3.873   4.635   0.175
 1350SOL    HW1 4949   3.867   4.545   0.219
 1350SOL    HW2 4950   3.907   4.623   0.081
 1351SOL     OW 4951   6.009   2.048   3.760
 1351SOL    HW1 4952   5.923   2.049   3.813
 1351SOL    HW2 4953   6.041   2.142   3.748
 1352SOL     OW 4954   0.172   7.008   2.414
 1352SOL    HW1 4955   0.127   6.966   2.493
 1352SOL    HW2 4956   0.115   6.995   2.333
 1353SOL     OW 4957   0.802   2.256   0.421
 1353SOL    HW1 4958   0.754   2.178   0.381
 1353SOL    HW2 4959   0.753   2.340   0.399
 1354SOL     OW 4960   6.833   3.902   2.217
 1354SOL    HW1 4961   6.812   3.950   2.303
 1354SOL    HW2 4962   6.898   3.829   2.235
 1355SOL     OW 4963   6.030   3.842   4.556
 1355SOL    HW1 4964   6.077   3.801   4.478
 1355SOL    HW2 4965   5.932   3.826   4.547
 1356SOL     OW 4966   3.783   2.946   2.332
 1356SOL    HW1 4967   3.833   2.865   2.302
 1356SOL    HW2 4968   3.820   3.027   2.287
 1357SOL     OW 4969   6.437   3.639   5.649
 1357SOL    HW1 4970   6.452   3.669   5.744
 1357SOL    HW2 4971   6.409   3.543   5.648
 1358SOL     OW 4972   5.911   0.077   0.236
 1358SOL    HW1 4973   5.955   0.115   0.317
 1358SOL    HW2 4974   5.979   0.026   0.182
 1359SOL     OW 4975   5.978   4.781   1.545
 1359SOL    HW1 4976   5.884   4.751   1.528
 1359SOL    HW2 4977   5.993   4.870   1.502
 1360SOL     OW 4978   3.547   3.274   0.028
 1360SOL    HW1 4979   3.594   3.330   6.984
 1360SOL    HW2 4980   3.502   3.333   0.095
 1361SOL     OW 4981   0.189   5.019   5.058
 1361SOL    HW1 4982   0.267   4.965   5.090
 1361SOL    HW2 4983   0.208   5.116   5.074
 1362SOL     OW 4984   4.118   3.498   2.598
 1362SOL    HW1 4985   4.096   3.408   2.561
 1362SOL    HW2 4986   4.127   3.493   2.698
 1363SOL     OW 4987   0.192   5.525   4.863
 1363SOL    HW1 4988   0.109   5.509   4.809
 1363SOL    HW2 4989   0.168   5.537   4.959
 1364SOL     OW 4990   4.195   4.704   6.726
 1364SOL    HW1 4991   4.292   4.681   6.714
 1364SOL    HW2 4992   4.155   4.725   6.636
 1365SOL     OW 4993   0.514   4.295   6.495
 1365SOL    HW1 4994   0.611   4.295   6.517
 1365SOL    HW2 4995   0.466   4.360   6.554
 1366SOL     OW 4996   1.795   6.798   5.333
 1366SOL    HW1 4997   1.880   6.751   5.311
 1366SOL    HW2 4998   1.766   6.853   5.255
 1367SOL     OW 4999   1.748   1.616   2.252
 1367SOL    HW1 5000   1.689   1.696   2.266
 1367SOL    HW2 5001   1.703   1.535   2.290
 1368SOL     OW 5002   5.696   6.698   4.725
 1368SOL    HW1 5003   5.631   6.719   4.652
 1368SOL    HW2 5004   5.654   6.716   4.814
 1369SOL     OW 5005   0.951   6.290   2.992
 1369SOL    HW1 5006   0.885   6.227   3.032
 1369SOL    HW2 5007   1.037   6.243   2.975
 1370SOL     OW 5008   3.264   0.729   1.138
 1370SOL    HW1 5009   3.232   0.652   1.194
 1370SOL    HW2 5010   3.270   0.811   1.194
 1371SOL     OW 5011   4.280   0.881   5.811
 1371SOL    HW1 5012   4.234   0.821   5.745
 1371SOL    HW2 5013   4.378   0.863   5.809
 1372SOL     OW 5014   2.014   2.483   1.003
 1372SOL    HW1 5015   2.074   2.476   1.083
 1372SOL    HW2 5016   2.027   2.572   0.959
 1373SOL     OW 5017   6.819   5.197   0.777
 1373SOL    HW1 5018   6.844   5.239   0.864
 1373SOL    HW2 5019   6.765   5.261   0.723
 1374SOL     OW 5020   4.037   1.969   1.150
 1374SOL    HW1 5021   4.128   1.983   1.188
 1374SOL    HW2 5022   3.993   2.057   1.136
 1375SOL     OW 5023   7.018   5.007   5.911
 1375SOL    HW1 5024   6.959   5.056   5.848
 1375SOL    HW2 5025   7.014   5.051   6.001
 1376SOL     OW 5026   5.026   2.780   3.635
 1376SOL    HW1 5027   5.029   2.699   3.694
 1376SOL    HW2 5028   4.933   2.789   3.598
 1377SOL     OW 5029   0.495   4.728   5.393
 1377SOL    HW1 5030   0.520   4.756   5.485
 1377SOL    HW2 5031   0.472   4.631   5.393
 1378SOL     OW 5032   0.960   2.621   6.675
 1378SOL    HW1 5033   0.948   2.629   6.774
 1378SOL    HW2 5034   0.871   2.618   6.630
 1379SOL     OW 5035   3.180   5.638   3.227
 1379SOL    HW1 5036   3.190   5.676   3.136
 1379SOL    HW2 5037   3.213   5.704   3.295
 1380SOL     OW 5038   6.535   6.829   2.684
 1380SOL    HW1 5039   6.480   6.835   2.767
 1380SOL    HW2 5040   6.626   6.794   2.706
 1381SOL     OW 5041   5.885   3.152   0.243
 1381SOL    HW1 5042   5.860   3.078   0.306
 1381SOL    HW2 5043   5.816   3.224   0.246
 1382SOL     OW 5044   5.923   4.935   6.185
 1382SOL    HW1 5045   5.900   4.993   6.107
 1382SOL    HW2 5046   6.014   4.959   6.219
 1383SOL     OW 5047   0.416   0.444   6.981
 1383SOL    HW1 5048   0.370   0.365   7.021
 1383SOL    HW2 5049   0.500   0.413   6.936
 1384SOL     OW 5050   4.183   0.966   3.208
 1384SOL    HW1 5051   4.230   0.948   3.294
 1384SOL    HW2 5052   4.084   0.961   3.222
 1385SOL     OW 5053   6.407   2.591   2.984
 1385SOL    HW1 5054   6.352   2.539   2.918
 1385SOL    HW2 5055   6.494   2.546   2.997
 1386SOL     OW 5056   2.162   3.185   4.327
 1386SOL    HW1 5057   2.162   3.153   4.422
 1386SOL    HW2 5058   2.242   3.243   4.312
 1387SOL     OW 5059   3.402   0.496   4.614
 1387SOL    HW1 5060   3.418   0.402   4.645
 1387SOL    HW2 5061   3.314   0.528   4.650
 1388SOL     OW 5062   6.651   0.960   4.213
 1388SOL    HW1 5063   6.691   0.914   4.135
 1388SOL    HW2 5064   6.716   0.960   4.289
 1389SOL     OW 5065   5.679   6.780   4.278
 1389SOL    HW1 5066   5.621   6.810   4.354
 1389SOL    HW2 5067   5.665   6.682   4.262
 1390SOL     OW 5068   3.931   1.772   1.569
 1390SOL    HW1 5069   3.995   1.725   1.508
 1390SOL    HW2 5070   3.864   1.822   1.514
 1391SOL     OW 5071   6.446   0.971   4.913
 1391SOL    HW1 5072   6.459   1.068   4.892
 1391SOL    HW2 5073   6.477   0.915   4.836
 1392SOL     OW 5074   4.679   5.978   6.943
 1392SOL    HW1 5075   4.602   5.917   6.961
 1392SOL    HW2 5076   4.752   5.928   6.896
 1393SOL     OW 5077   6.614   1.352   6.211
 1393SOL    HW1 5078   6.550   1.428   6.198
 1393SOL    HW2 5079   6.651   1.354   6.304
 1394SOL     OW 5080   3.894   6.802   3.641
 1394SOL    HW1 5081   3.909   6.708   3.609
 1394SOL    HW2 5082   3.831   6.801   3.719
 1395SOL     OW 5083   1.339   4.666   2.854
 1395SOL    HW1 5084   1.374   4.759   2.851
 1395SOL    HW2 5085   1.323   4.639   2.949
 1396SOL     OW 5086   2.555   1.102   4.590
 1396SOL    HW1 5087   2.492   1.025   4.577
 1396SOL    HW2 5088   2.564   1.152   4.504
 1397SOL     OW 5089   0.756   5.005   4.294
 1397SOL    HW1 5090   0.820   5.013   4.218
 1397SOL    HW2 5091   0.736   4.909   4.311
 1398SOL     OW 5092   1.104   1.676   0.845
 1398SOL    HW1 5093   1.105   1.733   0.763
 1398SOL    HW2 5094   1.191   1.685   0.893
 1399SOL     OW 5095   3.688   0.457   0.591
 1399SOL    HW1 5096   3.777   0.499   0.575
 1399SOL    HW2 5097   3.677   0.436   0.688
 1400SOL     OW 5098   6.149   0.710   4.336
 1400SOL    HW1 5099   6.119   0.782   4.398
 1400SOL    HW2 5100   6.167   0.626   4.388
 1401SOL     OW 5101   5.696   0.244   3.147
 1401SOL    HW1 5102   5.771   0.249   3.081
 1401SOL    HW2 5103   5.715   0.173   3.215
 1402SOL     OW 5104   6.277   3.895   1.779
 1402SOL    HW1 5105   6.361   3.943   1.804
 1402SOL    HW2 5106   6.267   3.898   1.679
 1403SOL     OW 5107   3.803   2.731   0.077
 1403SOL    HW1 5108   3.891   2.741   0.029
 1403SOL    HW2 5109   3.808   2.780   0.164
 1404SOL     OW 5110   4.517   6.910   0.890
 1404SOL    HW1 5111   4.473   6.999   0.876
 1404SOL    HW2 5112   4.489   6.873   0.979
 1405SOL     OW 5113   2.413   3.129   1.135
 1405SOL    HW1 5114   2.476   3.053   1.146
 1405SOL    HW2 5115   2.444   3.207   1.189
 1406SOL     OW 5116   3.154   3.296   1.106
 1406SOL    HW1 5117   3.163   3.375   1.167
 1406SOL    HW2 5118   3.148   3.213   1.161
 1407SOL     OW 5119   0.567   3.145   1.344
 1407SOL    HW1 5120   0.483   3.200   1.343
 1407SOL    HW2 5121   0.646   3.205   1.352
 1408SOL     OW 5122   6.084   5.910   6.536
 1408SOL    HW1 5123   6.006   5.901   6.474
 1408SOL    HW2 5124   6.133   5.823   6.540
 1409SOL     OW 5125   0.091   0.925   5.900
 1409SOL    HW1 5126   0.176   0.951   5.945
 1409SOL    HW2 5127   0.089   0.826   5.887
 1410SOL     OW 5128   3.372   2.459   6.247
 1410SOL    HW1 5129   3.403   2.364   6.236
 1410SOL    HW2 5130   3.416   2.500   6.326
 1411SOL     OW 5131   4.136   5.921   0.652
 1411SOL    HW1 5132   4.130   5.983   0.574
 1411SOL    HW2 5133   4.189   5.840   0.627
 1412SOL     OW 5134   1.758   2.466   0.792
 1412SOL    HW1 5135   1.749   2.541   0.857
 1412SOL    HW2 5136   1.823   2.398   0.827
 1413SOL     OW 5137   1.922   1.813   4.868
 1413SOL    HW1 5138   1.826   1.823   4.895
 1413SOL    HW2 5139   1.957   1.725   4.899
 1414SOL     OW 5140   1.246   3.652   1.959
 1414SOL    HW1 5141   1.300   3.690   2.033
 1414SOL    HW2 5142   1.226   3.556   1.978
 1415SOL     OW 5143   2.156   1.733   3.979
 1415SOL    HW1 5144   2.201   1.669   3.916
 1415SOL    HW2 5145   2.204   1.821   3.977
 1416SOL     OW 5146   4.207   0.031   6.105
 1416SOL    HW1 5147   4.286   0.035   6.167
 1416SOL    HW2 5148   4.207   6.967   6.058
 1417SOL     OW 5149   3.910   2.947   6.190
 1417SOL    HW1 5150   3.885   2.958   6.094
 1417SOL    HW2 5151   3.946   3.033   6.226
 1418SOL     OW 5152   3.641   4.049   7.024
 1418SOL    HW1 5153   3.643   4.057   6.924
 1418SOL    HW2 5154   3.729   4.016   0.033
 1419SOL     OW 5155   2.027   4.609   3.552
 1419SOL    HW1 5156   1.979   4.583   3.469
 1419SOL    HW2 5157   1.972   4.586   3.632
 1420SOL     OW 5158   3.396   5.410   3.281
 1420SOL    HW1 5159   3.348   5.322   3.280
 1420SOL    HW2 5160   3.349   5.474   3.219
 1421SOL     OW 5161   1.596   5.633   5.768
 1421SOL    HW1 5162   1.656   5.604   5.843
 1421SOL    HW2 5163   1.521   5.568   5.758
 1422SOL     OW 5164   2.752   3.373   5.831
 1422SOL    HW1 5165   2.748   3.357   5.733
 1422SOL    HW2 5166   2.842   3.345   5.866
 1423SOL     OW 5167   4.890   1.265   4.511
 1423SOL    HW1 5168   4.883   1.186   4.573
 1423SOL    HW2 5169   4.981   1.267   4.470
 1424SOL     OW 5170   5.671   2.798   6.520
 1424SOL    HW1 5171   5.746   2.755   6.571
 1424SOL    HW2 5172   5.662   2.893   6.550
 1425SOL     OW 5173   4.133   6.960   3.679
 1425SOL    HW1 5174   4.191   6.910   3.744
 1425SOL    HW2 5175   4.061   6.900   3.646
 1426SOL     OW 5176   2.664   2.128   6.933
 1426SOL    HW1 5177   2.587   2.134   6.996
 1426SOL    HW2 5178   2.655   2.046   6.877
 1427SOL     OW 5179   1.380   1.268   3.104
 1427SOL    HW1 5180   1.325   1.243   3.025
 1427SOL    HW2 5181   1.378   1.367   3.116
 1428SOL     OW 5182   6.636   3.597   3.519
 1428SOL    HW1 5183   6.614   3.649   3.437
 1428SOL    HW2 5184   6.723   3.630   3.557
 1429SOL     OW 5185   5.770   1.215   1.222
 1429SOL    HW1 5186   5.781   1.308   1.258
 1429SOL    HW2 5187   5.859   1.170   1.221
 1430SOL     OW 5188   2.007   3.432   3.449
 1430SOL    HW1 5189   2.047   3.405   3.536
 1430SOL    HW2 5190   1.941   3.505   3.463
 1431SOL     OW 5191   2.283   1.735   5.492
 1431SOL    HW1 5192   2.328   1.809   5.540
 1431SOL    HW2 5193   2.299   1.743   5.394
 1432SOL     OW 5194   2.602   1.581   1.711
 1432SOL    HW1 5195   2.586   1.539   1.622
 1432SOL    HW2 5196   2.667   1.657   1.701
 1433SOL     OW 5197   2.924   0.243   4.065
 1433SOL    HW1 5198   2.987   0.220   4.139
 1433SOL    HW2 5199   2.973   0.292   3.993
 1434SOL     OW 5200   6.917   3.289   6.905
 1434SOL    HW1 5201   6.824   3.295   6.941
 1434SOL    HW2 5202   6.949   3.381   6.882
 1435SOL     OW 5203   1.000   0.107   4.774
 1435SOL    HW1 5204   0.940   0.177   4.814
 1435SOL    HW2 5205   0.945   0.037   4.730
 1436SOL     OW 5206   5.537   1.938   1.004
 1436SOL    HW1 5207   5.565   1.979   1.091
 1436SOL    HW2 5208   5.572   1.993   0.928
 1437SOL     OW 5209   4.574   0.597   5.964
 1437SOL    HW1 5210   4.663   0.625   5.999
 1437SOL    HW2 5211   4.578   0.501   5.935
 1438SOL     OW 5212   2.472   0.654   1.761
 1438SOL    HW1 5213   2.390   0.667   1.817
 1438SOL    HW2 5214   2.449   0.597   1.682
 1439SOL     OW 5215   6.686   5.092   0.055
 1439SOL    HW1 5216   6.650   5.006   0.021
 1439SOL    HW2 5217   6.774   5.077   0.099
 1440SOL     OW 5218   2.997   3.425   3.492
 1440SOL    HW1 5219   3.019   3.510   3.443
 1440SOL    HW2 5220   2.940   3.367   3.433
 1441SOL     OW 5221   6.939   2.531   3.389
 1441SOL    HW1 5222   6.910   2.618   3.429
 1441SOL    HW2 5223   6.879   2.508   3.312
 1442SOL     OW 5224   4.869   4.650   0.629
 1442SOL    HW1 5225   4.806   4.593   0.576
 1442SOL    HW2 5226   4.843   4.746   0.619
 1443SOL     OW 5227   0.825   1.845   3.337
 1443SOL    HW1 5228   0.777   1.931   3.324
 1443SOL    HW2 5229   0.917   1.863   3.373
 1444SOL     OW 5230   4.149   1.146   3.653
 1444SOL    HW1 5231   4.186   1.065   3.698
 1444SOL    HW2 5232   4.214   1.179   3.585
 1445SOL     OW 5233   6.411   2.841   2.112
 1445SOL    HW1 5234   6.346   2.826   2.038
 1445SOL    HW2 5235   6.419   2.757   2.167
 1446SOL     OW 5236   3.524   1.892   1.561
 1446SOL    HW1 5237   3.573   1.979   1.567
 1446SOL    HW2 5238   3.437   1.900   1.610
 1447SOL     OW 5239   6.536   1.302   4.769
 1447SOL    HW1 5240   6.568   1.379   4.823
 1447SOL    HW2 5241   6.614   1.256   4.726
 1448SOL     OW 5242   5.644   1.190   6.018
 1448SOL    HW1 5243   5.731   1.234   6.040
 1448SOL    HW2 5244   5.599   1.240   5.944
 1449SOL     OW 5245   4.918   5.555   1.347
 1449SOL    HW1 5246   4.997   5.503   1.314
 1449SOL    HW2 5247   4.911   5.546   1.446
 1450SOL     OW 5248   5.739   2.549   3.160
 1450SOL    HW1 5249   5.717   2.627   3.101
 1450SOL    HW2 5250   5.657   2.493   3.174
 1451SOL     OW 5251   1.498   6.665   2.526
 1451SOL    HW1 5252   1.442   6.585   2.505
 1451SOL    HW2 5253   1.576   6.638   2.582
 1452SOL     OW 5254   4.933   0.756   5.396
 1452SOL    HW1 5255   4.856   0.712   5.350
 1452SOL    HW2 5256   5.003   0.687   5.418
 1453SOL     OW 5257   5.130   4.634   5.067
 1453SOL    HW1 5258   5.098   4.657   5.160
 1453SOL    HW2 5259   5.195   4.559   5.072
 1454SOL     OW 5260   4.803   3.225   1.780
 1454SOL    HW1 5261   4.882   3.169   1.805
 1454SOL    HW2 5262   4.719   3.180   1.811
 1455SOL     OW 5263   1.150   2.040   1.526
 1455SOL    HW1 5264   1.163   2.057   1.623
 1455SOL    HW2 5265   1.061   2.076   1.497
 1456SOL     OW 5266   6.454   6.187   4.381
 1456SOL    HW1 5267   6.416   6.218   4.293
 1456SOL    HW2 5268   6.389   6.125   4.425
 1457SOL     OW 5269   1.937   0.683   3.595
 1457SOL    HW1 5270   1.951   0.748   3.520
 1457SOL    HW2 5271   2.025   0.656   3.633
 1458SOL     OW 5272   5.764   6.059   6.222
 1458SOL    HW1 5273   5.830   5.986   6.240
 1458SOL    HW2 5274   5.799   6.119   6.150
 1459SOL     OW 5275   2.723   6.344   6.937
 1459SOL    HW1 5276   2.698   6.384   0.001
 1459SOL    HW2 5277   2.773   6.412   6.883
 1460SOL     OW 5278   1.484   0.019   0.148
 1460SOL    HW1 5279   1.564   6.998   0.187
 1460SOL    HW2 5280   1.440   6.981   0.083
 1461SOL     OW 5281   5.580   4.433   2.699
 1461SOL    HW1 5282   5.614   4.356   2.753
 1461SOL    HW2 5283   5.657   4.481   2.658
 1462SOL     OW 5284   5.928   0.546   0.173
 1462SOL    HW1 5285   5.830   0.562   0.184
 1462SOL    HW2 5286   5.944   0.450   0.150
 1463SOL     OW 5287   1.198   1.108   5.219
 1463SOL    HW1 5288   1.248   1.022   5.215
 1463SOL    HW2 5289   1.130   1.111   5.146
 1464SOL     OW 5290   0.034   6.477   1.123
 1464SOL    HW1 5291   0.088   6.511   1.200
 1464SOL    HW2 5292   0.088   6.482   1.039
 1465SOL     OW 5293   0.122   0.155   5.008
 1465SOL    HW1 5294   0.027   0.186   4.998
 1465SOL    HW2 5295   0.182   0.233   5.019
 1466SOL     OW 5296   6.005   5.156   3.393
 1466SOL    HW1 5297   5.938   5.098   3.441
 1466SOL    HW2 5298   6.089   5.162   3.447
 1467SOL     OW 5299   0.974   1.357   3.812
 1467SOL    HW1 5300   1.020   1.309   3.887
 1467SOL    HW2 5301   1.043   1.393   3.749
 1468SOL     OW 5302   5.383   5.862   3.290
 1468SOL    HW1 5303   5.363   5.766   3.309
 1468SOL    HW2 5304   5.328   5.919   3.352
 1469SOL     OW 5305   0.758   1.310   2.244
 1469SOL    HW1 5306   0.801   1.221   2.235
 1469SOL    HW2 5307   0.808   1.365   2.311
 1470SOL     OW 5308   1.187   1.205   2.841
 1470SOL    HW1 5309   1.165   1.232   2.748
 1470SOL    HW2 5310   1.118   1.141   2.875
 1471SOL     OW 5311   0.681   0.154   0.140
 1471SOL    HW1 5312   0.655   0.210   0.218
 1471SOL    HW2 5313   0.601   0.105   0.105
 1472SOL     OW 5314   4.906   0.260   5.869
 1472SOL    HW1 5315   4.983   0.302   5.915
 1472SOL    HW2 5316   4.909   0.161   5.883
 1473SOL     OW 5317   6.102   4.104   3.016
 1473SOL    HW1 5318   6.120   4.183   3.073
 1473SOL    HW2 5319   6.178   4.040   3.022
 1474SOL     OW 5320   5.615   5.697   4.244
 1474SOL    HW1 5321   5.649   5.608   4.212
 1474SOL    HW2 5322   5.650   5.769   4.184
 1475SOL     OW 5323   6.872   0.726   2.301
 1475SOL    HW1 5324   6.951   0.780   2.331
 1475SOL    HW2 5325   6.903   0.635   2.273
 1476SOL     OW 5326   0.421   2.277   2.081
 1476SOL    HW1 5327   0.451   2.372   2.090
 1476SOL    HW2 5328   0.367   2.268   1.997
 1477SOL     OW 5329   2.905   6.227   5.137
 1477SOL    HW1 5330   2.860   6.306   5.178
 1477SOL    HW2 5331   2.841   6.151   5.132
 1478SOL     OW 5332   6.062   4.891   0.287
 1478SOL    HW1 5333   6.106   4.803   0.271
 1478SOL    HW2 5334   6.074   4.950   0.207
 1479SOL     OW 5335   1.680   4.538   0.395
 1479SOL    HW1 5336   1.636   4.595   0.464
 1479SOL    HW2 5337   1.691   4.445   0.430
 1480SOL     OW 5338   2.734   1.251   0.474
 1480SOL    HW1 5339   2.691   1.262   0.564
 1480SOL    HW2 5340   2.708   1.327   0.415
 1481SOL     OW 5341   5.902   2.558   5.832
 1481SOL    HW1 5342   5.829   2.577   5.897
 1481SOL    HW2 5343   5.939   2.466   5.849
 1482SOL     OW 5344   5.944   0.598   6.623
 1482SOL    HW1 5345   6.009   0.527   6.651
 1482SOL    HW2 5346   5.906   0.643   6.704
 1483SOL     OW 5347   5.925   2.241   0.482
 1483SOL    HW1 5348   5.903   2.158   0.431
 1483SOL    HW2 5349   5.925   2.319   0.420
 1484SOL     OW 5350   6.650   5.336   3.013
 1484SOL    HW1 5351   6.574   5.362   2.954
 1484SOL    HW2 5352   6.693   5.253   2.977
 1485SOL     OW 5353   5.191   2.544   3.984
 1485SOL    HW1 5354   5.255   2.615   3.956
 1485SOL    HW2 5355   5.225   2.455   3.957
 1486SOL     OW 5356   4.350   1.723   2.532
 1486SOL    HW1 5357   4.307   1.801   2.577
 1486SOL    HW2 5358   4.448   1.742   2.519
 1487SOL     OW 5359   6.558   1.239   5.430
 1487SOL    HW1 5360   6.576   1.338   5.435
 1487SOL    HW2 5361   6.574   1.208   5.336
 1488SOL     OW 5362   4.839   1.200   2.968
 1488SOL    HW1 5363   4.919   1.256   2.990
 1488SOL    HW2 5364   4.867   1.113   2.930
 1489SOL     OW 5365   3.365   5.234   4.924
 1489SOL    HW1 5366   3.428   5.220   5.001
 1489SOL    HW2 5367   3.317   5.148   4.905
 1490SOL     OW 5368   1.425   2.966   0.399
 1490SOL    HW1 5369   1.327   2.988   0.399
 1490SOL    HW2 5370   1.472   3.025   0.335
 1491SOL     OW 5371   0.167   2.845   3.615
 1491SOL    HW1 5372   0.076   2.886   3.615
 1491SOL    HW2 5373   0.183   2.800   3.703
 1492SOL     OW 5374   4.763   1.680   1.493
 1492SOL    HW1 5375   4.781   1.598   1.438
 1492SOL    HW2 5376   4.787   1.661   1.588
 1493SOL     OW 5377   4.998   0.009   5.466
 1493SOL    HW1 5378   5.053   7.010   5.386
 1493SOL    HW2 5379   4.930   0.078   5.441
 1494SOL     OW 5380   4.047   2.292   5.570
 1494SOL    HW1 5381   4.070   2.375   5.620
 1494SOL    HW2 5382   4.070   2.212   5.625
 1495SOL     OW 5383   1.087   3.338   2.540
 1495SOL    HW1 5384   1.093   3.273   2.616
 1495SOL    HW2 5385   0.992   3.364   2.526
 1496SOL     OW 5386   0.299   0.260   2.603
 1496SOL    HW1 5387   0.297   0.275   2.504
 1496SOL    HW2 5388   0.301   0.347   2.651
 1497SOL     OW 5389   6.315   5.236   4.385
 1497SOL    HW1 5390   6.364   5.228   4.297
 1497SOL    HW2 5391   6.307   5.146   4.427
 1498SOL     OW 5392   1.979   5.328   6.910
 1498SOL    HW1 5393   1.917   5.398   6.874
 1498SOL    HW2 5394   1.926   5.259   6.959
 1499SOL     OW 5395   1.186   3.786   5.161
 1499SOL    HW1 5396   1.125   3.792   5.082
 1499SOL    HW2 5397   1.147   3.724   5.229
 1500SOL     OW 5398   5.208   6.504   0.334
 1500SOL    HW1 5399   5.240   6.594   0.364
 1500SOL    HW2 5400   5.110   6.508   0.316
 1501SOL     OW 5401   3.830   0.096   6.295
 1501SOL    HW1 5402   3.753   0.147   6.333
 1501SOL    HW2 5403   3.915   0.133   6.331
 1502SOL     OW 5404   6.541   6.449   0.551
 1502SOL    HW1 5405   6.543   6.426   0.649
 1502SOL    HW2 5406   6.458   6.412   0.510
 1503SOL     OW 5407   3.222   3.214   6.661
 1503SOL    HW1 5408   3.179   3.137   6.613
 1503SOL    HW2 5409   3.156   3.252   6.726
 1504SOL     OW 5410   3.387   6.656   4.602
 1504SOL    HW1 5411   3.328   6.654   4.521
 1504SOL    HW2 5412   3.403   6.563   4.634
 1505SOL     OW 5413   5.958   6.164   6.037
 1505SOL    HW1 5414   5.925   6.247   5.991
 1505SOL    HW2 5415   6.024   6.117   5.978
 1506SOL     OW 5416   1.168   5.965   4.421
 1506SOL    HW1 5417   1.189   5.986   4.517
 1506SOL    HW2 5418   1.243   5.914   4.381
 1507SOL     OW 5419   2.082   1.578   4.962
 1507SOL    HW1 5420   2.086   1.482   4.935
 1507SOL    HW2 5421   2.169   1.604   5.004
 1508SOL     OW 5422   4.767   6.802   0.758
 1508SOL    HW1 5423   4.682   6.812   0.810
 1508SOL    HW2 5424   4.844   6.830   0.815
 1509SOL     OW 5425   4.265   3.127   6.965
 1509SOL    HW1 5426   4.198   3.170   0.002
 1509SOL    HW2 5427   4.242   3.149   6.870
 1510SOL     OW 5428   0.050   1.757   3.857
 1510SOL    HW1 5429   0.101   1.802   3.784
 1510SOL    HW2 5430   0.035   1.823   3.932
 1511SOL     OW 5431   2.344   2.538   0.516
 1511SOL    HW1 5432   2.359   2.498   0.426
 1511SOL    HW2 5433   2.246   2.544   0.534
 1512SOL     OW 5434   0.150   1.136   1.506
 1512SOL    HW1 5435   0.170   1.045   1.543
 1512SOL    HW2 5436   0.160   1.204   1.579
 1513SOL     OW 5437   3.439   0.098   3.804
 1513SOL    HW1 5438   3.422   0.014   3.855
 1513SOL    HW2 5439   3.472   0.075   3.712
 1514SOL     OW 5440   6.393   1.779   4.612
 1514SOL    HW1 5441   6.356   1.872   4.613
 1514SOL    HW2 5442   6.359   1.730   4.532
 1515SOL     OW 5443   7.019   4.727   4.967
 1515SOL    HW1 5444   0.095   4.725   4.972
 1515SOL    HW2 5445   6.982   4.645   5.010
 1516SOL     OW 5446   0.588   1.414   0.532
 1516SOL    HW1 5447   0.687   1.424   0.544
 1516SOL    HW2 5448   0.556   1.478   0.461
 1517SOL     OW 5449   4.707   6.052   3.345
 1517SOL    HW1 5450   4.746   6.036   3.435
 1517SOL    HW2 5451   4.707   6.151   3.326
 1518SOL     OW 5452   0.019   4.252   0.936
 1518SOL    HW1 5453   6.949   4.247   0.902
 1518SOL    HW2 5454   0.083   4.246   0.859
 1519SOL     OW 5455   6.107   4.607   0.428
 1519SOL    HW1 5456   6.058   4.542   0.486
 1519SOL    HW2 5457   6.042   4.662   0.377
 1520SOL     OW 5458   2.106   3.894   2.630
 1520SOL    HW1 5459   2.145   3.925   2.717
 1520SOL    HW2 5460   2.119   3.796   2.621
 1521SOL     OW 5461   2.015   3.160   6.642
 1521SOL    HW1 5462   2.052   3.086   6.587
 1521SOL    HW2 5463   1.922   3.181   6.613
 1522SOL     OW 5464   5.864   1.819   6.495
 1522SOL    HW1 5465   5.849   1.875   6.577
 1522SOL    HW2 5466   5.960   1.825   6.468
 1523SOL     OW 5467   6.458   2.639   1.672
 1523SOL    HW1 5468   6.524   2.652   1.597
 1523SOL    HW2 5469   6.392   2.568   1.645
 1524SOL     OW 5470   0.039   1.079   1.808
 1524SOL    HW1 5471   0.051   1.090   1.907
 1524SOL    HW2 5472   0.077   1.159   1.761
 1525SOL     OW 5473   4.393   1.924   6.131
 1525SOL    HW1 5474   4.462   1.865   6.088
 1525SOL    HW2 5475   4.388   2.011   6.081
 1526SOL     OW 5476   6.925   2.589   1.466
 1526SOL    HW1 5477   6.977   2.620   1.387
 1526SOL    HW2 5478   6.869   2.510   1.441
 1527SOL     OW 5479   3.573   1.966   5.371
 1527SOL    HW1 5480   3.510   1.953   5.448
 1527SOL    HW2 5481   3.530   1.934   5.287
 1528SOL     OW 5482   4.694   6.473   3.435
 1528SOL    HW1 5483   4.743   6.401   3.482
 1528SOL    HW2 5484   4.736   6.562   3.457
 1529SOL     OW 5485   3.509   7.003   6.003
 1529SOL    HW1 5486   3.481   6.977   5.911
 1529SOL    HW2 5487   3.607   0.000   6.004
 1530SOL     OW 5488   3.308   6.429   2.291
 1530SOL    HW1 5489   3.299   6.524   2.321
 1530SOL    HW2 5490   3.254   6.370   2.351
 1531SOL     OW 5491   5.994   0.250   4.198
 1531SOL    HW1 5492   5.988   0.303   4.283
 1531SOL    HW2 5493   5.918   0.185   4.193
 1532SOL     OW 5494   3.268   2.218   5.405
 1532SOL    HW1 5495   3.367   2.216   5.423
 1532SOL    HW2 5496   3.251   2.260   5.316
 1533SOL     OW 5497   6.254   3.555   6.431
 1533SOL    HW1 5498   6.353   3.538   6.435
 1533SOL    HW2 5499   6.207   3.473   6.398
 1534SOL     OW 5500   0.819   6.083   1.074
 1534SOL    HW1 5501   0.788   6.115   1.163
 1534SOL    HW2 5502   0.899   6.024   1.087
 1535SOL     OW 5503   4.692   4.619   3.689
 1535SOL    HW1 5504   4.678   4.630   3.788
 1535SOL    HW2 5505   4.723   4.706   3.651
 1536SOL     OW 5506   2.840   5.730   5.041
 1536SOL    HW1 5507   2.837   5.641   4.995
 1536SOL    HW2 5508   2.909   5.727   5.113
 1537SOL     OW 5509   1.736   5.518   4.825
 1537SOL    HW1 5510   1.831   5.549   4.829
 1537SOL    HW2 5511   1.734   5.419   4.814
 1538SOL     OW 5512   2.658   4.905   0.007
 1538SOL    HW1 5513   2.687   4.823   6.981
 1538SOL    HW2 5514   2.736   4.967   0.015
 1539SOL     OW 5515   3.701   4.757   1.592
 1539SOL    HW1 5516   3.784   4.806   1.618
 1539SOL    HW2 5517   3.660   4.714   1.672
 1540SOL     OW 5518   0.872   0.165   5.153
 1540SOL    HW1 5519   0.807   0.093   5.129
 1540SOL    HW2 5520   0.875   0.233   5.080
 1541SOL     OW 5521   4.677   2.383   1.259
 1541SOL    HW1 5522   4.692   2.482   1.252
 1541SOL    HW2 5523   4.597   2.358   1.205
 1542SOL     OW 5524   0.231   6.502   1.305
 1542SOL    HW1 5525   0.238   6.406   1.335
 1542SOL    HW2 5526   0.283   6.560   1.368
 1543SOL     OW 5527   3.555   3.905   3.846
 1543SOL    HW1 5528   3.484   3.897   3.916
 1543SOL    HW2 5529   3.585   4.001   3.840
 1544SOL     OW 5530   3.219   4.049   2.764
 1544SOL    HW1 5531   3.158   4.069   2.688
 1544SOL    HW2 5532   3.172   3.992   2.830
 1545SOL     OW 5533   6.182   0.497   4.501
 1545SOL    HW1 5534   6.165   0.529   4.594
 1545SOL    HW2 5535   6.097   0.462   4.462
 1546SOL     OW 5536   6.603   5.807   6.196
 1546SOL    HW1 5537   6.688   5.825   6.147
 1546SOL    HW2 5538   6.615   5.831   6.292
 1547SOL     OW 5539   2.750   5.954   2.783
 1547SOL    HW1 5540   2.787   6.045   2.766
 1547SOL    HW2 5541   2.651   5.954   2.765
 1548SOL     OW 5542   4.751   4.249   4.712
 1548SOL    HW1 5543   4.685   4.310   4.668
 1548SOL    HW2 5544   4.823   4.303   4.755
 1549SOL     OW 5545   6.624   2.708   1.487
 1549SOL    HW1 5546   6.689   2.752   1.549
 1549SOL    HW2 5547   6.674   2.674   1.406
 1550SOL     OW 5548   1.968   6.165   4.380
 1550SOL    HW1 5549   2.023   6.248   4.382
 1550SOL    HW2 5550   1.896   6.171   4.449
 1551SOL     OW 5551   2.018   3.021   0.997
 1551SOL    HW1 5552   1.954   2.969   1.054
 1551SOL    HW2 5553   2.063   3.090   1.053
 1552SOL     OW 5554   1.098   1.116   1.120
 1552SOL    HW1 5555   1.032   1.069   1.062
 1552SOL    HW2 5556   1.102   1.072   1.210
 1553SOL     OW 5557   6.106   1.626   6.532
 1553SOL    HW1 5558   6.056   1.668   6.608
 1553SOL    HW2 5559   6.051   1.551   6.494
 1554SOL     OW 5560   3.789   1.759   1.957
 1554SOL    HW1 5561   3.742   1.830   1.905
 1554SOL    HW2 5562   3.799   1.678   1.899
 1555SOL     OW 5563   3.754   1.222   5.561
 1555SOL    HW1 5564   3.711   1.143   5.517
 1555SOL    HW2 5565   3.682   1.286   5.590
 1556SOL     OW 5566   3.953   0.557   0.597
 1556SOL    HW1 5567   4.031   0.561   0.660
 1556SOL    HW2 5568   3.982   0.586   0.506
 1557SOL     OW 5569   1.729   2.268   1.306
 1557SOL    HW1 5570   1.751   2.248   1.210
 1557SOL    HW2 5571   1.636   2.302   1.312
 1558SOL     OW 5572   6.094   3.330   5.401
 1558SOL    HW1 5573   6.012   3.274   5.399
 1558SOL    HW2 5574   6.090   3.398   5.327
 1559SOL     OW 5575   1.781   4.540   3.150
 1559SOL    HW1 5576   1.747   4.481   3.077
 1559SOL    HW2 5577   1.718   4.616   3.163
 1560SOL     OW 5578   3.547   1.359   1.326
 1560SOL    HW1 5579   3.477   1.322   1.387
 1560SOL    HW2 5580   3.638   1.344   1.366
 1561SOL     OW 5581   5.536   5.870   2.048
 1561SOL    HW1 5582   5.437   5.882   2.060
 1561SOL    HW2 5583   5.564   5.913   1.962
 1562SOL     OW 5584   3.592   6.975   2.059
 1562SOL    HW1 5585   3.576   6.906   1.987
 1562SOL    HW2 5586   3.636   6.931   2.137
 1563SOL     OW 5587   4.165   2.212   4.209
 1563SOL    HW1 5588   4.204   2.293   4.166
 1563SOL    HW2 5589   4.148   2.142   4.139
 1564SOL     OW 5590   0.909   2.066   2.240
 1564SOL    HW1 5591   0.957   2.149   2.267
 1564SOL    HW2 5592   0.925   1.995   2.309
 1565SOL     OW 5593   3.578   0.523   3.709
 1565SOL    HW1 5594   3.589   0.620   3.686
 1565SOL    HW2 5595   3.665   0.486   3.739
 1566SOL     OW 5596   4.603   4.487   2.913
 1566SOL    HW1 5597   4.697   4.495   2.948
 1566SOL    HW2 5598   4.592   4.398   2.870
 1567SOL     OW 5599   5.453   6.035   5.333
 1567SOL    HW1 5600   5.466   6.088   5.249
 1567SOL    HW2 5601   5.433   6.097   5.409
 1568SOL     OW 5602   1.846   6.293   2.871
 1568SOL    HW1 5603   1.906   6.373   2.867
 1568SOL    HW2 5604   1.895   6.215   2.910
 1569SOL     OW 5605   2.324   0.128   3.289
 1569SOL    HW1 5606   2.320   0.222   3.254
 1569SOL    HW2 5607   2.400   0.080   3.245
 1570SOL     OW 5608   3.172   0.037   0.534
 1570SOL    HW1 5609   3.219   0.077   0.456
 1570SOL    HW2 5610   3.239   0.007   0.602
 1571SOL     OW 5611   0.964   2.527   3.842
 1571SOL    HW1 5612   0.987   2.546   3.937
 1571SOL    HW2 5613   1.001   2.438   3.815
 1572SOL     OW 5614   1.226   5.100   1.890
 1572SOL    HW1 5615   1.228   5.115   1.791
 1572SOL    HW2 5616   1.217   5.002   1.909
 1573SOL     OW 5617   4.727   4.641   1.121
 1573SOL    HW1 5618   4.745   4.586   1.039
 1573SOL    HW2 5619   4.719   4.580   1.200
 1574SOL     OW 5620   0.030   3.586   2.545
 1574SOL    HW1 5621   6.986   3.655   2.520
 1574SOL    HW2 5622   0.096   3.575   2.470
 1575SOL     OW 5623   0.498   1.135   0.620
 1575SOL    HW1 5624   0.551   1.214   0.588
 1575SOL    HW2 5625   0.402   1.161   0.627
 1576SOL     OW 5626   0.435   6.584   1.887
 1576SOL    HW1 5627   0.336   6.599   1.891
 1576SOL    HW2 5628   0.460   6.508   1.947
 1577SOL     OW 5629   4.080   0.220   6.238
 1577SOL    HW1 5630   4.108   0.139   6.186
 1577SOL    HW2 5631   4.162   0.267   6.272
 1578SOL     OW 5632   4.706   0.572   0.504
 1578SOL    HW1 5633   4.644   0.651   0.494
 1578SOL    HW2 5634   4.655   0.495   0.541
 1579SOL     OW 5635   2.037   2.523   1.731
 1579SOL    HW1 5636   2.038   2.473   1.818
 1579SOL    HW2 5637   2.101   2.480   1.667
 1580SOL     OW 5638   3.353   3.916   3.051
 1580SOL    HW1 5639   3.419   3.977   3.007
 1580SOL    HW2 5640   3.368   3.822   3.020
 1581SOL     OW 5641   0.100   4.028   6.112
 1581SOL    HW1 5642   0.198   4.039   6.128
 1581SOL    HW2 5643   0.049   4.069   6.188
 1582SOL     OW 5644   4.645   6.308   6.215
 1582SOL    HW1 5645   4.727   6.264   6.180
 1582SOL    HW2 5646   4.598   6.246   6.279
 1583SOL     OW 5647   1.242   5.769   5.595
 1583SOL    HW1 5648   1.159   5.815   5.566
 1583SOL    HW2 5649   1.301   5.833   5.644
 1584SOL     OW 5650   0.797   5.120   6.448
 1584SOL    HW1 5651   0.702   5.148   6.463
 1584SOL    HW2 5652   0.803   5.068   6.363
 1585SOL     OW 5653   4.197   6.967   3.244
 1585SOL    HW1 5654   4.186   6.869   3.230
 1585SOL    HW2 5655   4.117   7.015   3.209
 1586SOL     OW 5656   3.106   5.614   4.021
 1586SOL    HW1 5657   3.148   5.558   4.093
 1586SOL    HW2 5658   3.031   5.667   4.060
 1587SOL     OW 5659   2.111   6.113   6.400
 1587SOL    HW1 5660   2.037   6.162   6.353
 1587SOL    HW2 5661   2.165   6.177   6.454
 1588SOL     OW 5662   6.322   0.214   2.760
 1588SOL    HW1 5663   6.364   0.149   2.824
 1588SOL    HW2 5664   6.313   0.303   2.804
 1589SOL     OW 5665   6.742   4.172   2.921
 1589SOL    HW1 5666   6.763   4.189   3.017
 1589SOL    HW2 5667   6.648   4.140   2.911
 1590SOL     OW 5668   7.012   1.560   3.234
 1590SOL    HW1 5669   0.063   1.581   3.297
 1590SOL    HW2 5670   0.025   1.514   3.153
 1591SOL     OW 5671   0.418   6.029   1.312
 1591SOL    HW1 5672   0.407   6.042   1.411
 1591SOL    HW2 5673   0.509   5.991   1.293
 1592SOL     OW 5674   1.222   4.016   0.001
 1592SOL    HW1 5675   1.277   4.012   6.941
 1592SOL    HW2 5676   1.281   4.043   0.077
 1593SOL     OW 5677   0.652   0.108   6.703
 1593SOL    HW1 5678   0.706   0.061   6.773
 1593SOL    HW2 5679   0.555   0.101   6.726
 1594SOL     OW 5680   6.626   0.388   1.628
 1594SOL    HW1 5681   6.654   0.292   1.633
 1594SOL    HW2 5682   6.592   0.417   1.717
 1595SOL     OW 5683   1.495   4.001   6.858
 1595SOL    HW1 5684   1.496   4.101   6.853
 1595SOL    HW2 5685   1.521   3.972   6.950
 1596SOL     OW 5686   5.765   4.452   2.279
 1596SOL    HW1 5687   5.821   4.372   2.303
 1596SOL    HW2 5688   5.775   4.471   2.181
 1597SOL     OW 5689   3.095   6.137   0.718
 1597SOL    HW1 5690   3.164   6.200   0.683
 1597SOL    HW2 5691   3.133   6.084   0.793
 1598SOL     OW 5692   1.618   5.622   6.911
 1598SOL    HW1 5693   1.701   5.630   6.856
 1598SOL    HW2 5694   1.567   5.542   6.882
 1599SOL     OW 5695   4.211   5.001   4.051
 1599SOL    HW1 5696   4.167   4.942   3.984
 1599SOL    HW2 5697   4.189   4.968   4.143
 1600SOL     OW 5698   3.355   6.959   2.728
 1600SOL    HW1 5699   3.413   6.958   2.647
 1600SOL    HW2 5700   3.403   6.916   2.804
 1601SOL     OW 5701   6.325   6.665   4.019
 1601SOL    HW1 5702   6.385   6.736   4.057
 1601SOL    HW2 5703   6.376   6.579   4.011
 1602SOL     OW 5704   4.352   5.230   4.218
 1602SOL    HW1 5705   4.299   5.147   4.203
 1602SOL    HW2 5706   4.330   5.298   4.148
 1603SOL     OW 5707   2.726   6.446   4.141
 1603SOL    HW1 5708   2.809   6.415   4.187
 1603SOL    HW2 5709   2.646   6.406   4.186
 1604SOL     OW 5710   3.784   4.825   2.194
 1604SOL    HW1 5711   3.732   4.816   2.109
 1604SOL    HW2 5712   3.724   4.802   2.271
 1605SOL     OW 5713   4.485   4.975   1.702
 1605SOL    HW1 5714   4.444   4.960   1.792
 1605SOL    HW2 5715   4.436   5.050   1.657
 1606SOL     OW 5716   4.333   6.273   4.561
 1606SOL    HW1 5717   4.296   6.213   4.491
 1606SOL    HW2 5718   4.334   6.367   4.527
 1607SOL     OW 5719   4.521   6.135   3.017
 1607SOL    HW1 5720   4.480   6.201   3.081
 1607SOL    HW2 5721   4.542   6.051   3.066
 1608SOL     OW 5722   6.696   0.225   2.824
 1608SOL    HW1 5723   6.633   0.150   2.847
 1608SOL    HW2 5724   6.712   0.226   2.725
 1609SOL     OW 5725   2.847   6.594   0.925
 1609SOL    HW1 5726   2.873   6.689   0.911
 1609SOL    HW2 5727   2.882   6.538   0.849
 1610SOL     OW 5728   4.388   7.006   6.970
 1610SOL    HW1 5729   4.407   0.065   6.916
 1610SOL    HW2 5730   4.381   6.928   6.908
 1611SOL     OW 5731   0.690   4.174   1.354
 1611SOL    HW1 5732   0.752   4.220   1.418
 1611SOL    HW2 5733   0.613   4.234   1.334
 1612SOL     OW 5734   3.011   6.275   1.081
 1612SOL    HW1 5735   2.958   6.234   1.006
 1612SOL    HW2 5736   2.995   6.224   1.165
 1613SOL     OW 5737   0.265   5.814   2.590
 1613SOL    HW1 5738   0.201   5.738   2.606
 1613SOL    HW2 5739   0.335   5.814   2.661
 1614SOL     OW 5740   5.673   2.761   6.900
 1614SOL    HW1 5741   5.660   2.701   6.821
 1614SOL    HW2 5742   5.677   2.706   6.983
 1615SOL     OW 5743   0.407   5.071   6.285
 1615SOL    HW1 5744   0.331   5.137   6.289
 1615SOL    HW2 5745   0.371   4.982   6.258
 1616SOL     OW 5746   2.813   1.174   5.282
 1616SOL    HW1 5747   2.835   1.170   5.184
 1616SOL    HW2 5748   2.713   1.178   5.293
 1617SOL     OW 5749   4.829   6.694   3.569
 1617SOL    HW1 5750   4.921   6.694   3.529
 1617SOL    HW2 5751   4.812   6.783   3.612
 1618SOL     OW 5752   2.428   6.069   3.164
 1618SOL    HW1 5753   2.473   6.087   3.077
 1618SOL    HW2 5754   2.484   6.007   3.219
 1619SOL     OW 5755   1.069   5.199   6.799
 1619SOL    HW1 5756   0.978   5.179   6.762
 1619SOL    HW2 5757   1.096   5.127   6.863
 1620SOL     OW 5758   3.277   4.961   0.835
 1620SOL    HW1 5759   3.351   4.971   0.901
 1620SOL    HW2 5760   3.196   5.009   0.868
 1621SOL     OW 5761   5.853   6.272   1.208
 1621SOL    HW1 5762   5.894   6.361   1.225
 1621SOL    HW2 5763   5.765   6.266   1.254
 1622SOL     OW 5764   0.832   3.583   5.043
 1622SOL    HW1 5765   0.919   3.575   5.092
 1622SOL    HW2 5766   0.840   3.654   4.973
 1623SOL     OW 5767   0.551   2.088   4.774
 1623SOL    HW1 5768   0.491   2.169   4.772
 1623SOL    HW2 5769   0.599   2.084   4.862
 1624SOL     OW 5770   4.236   1.258   0.815
 1624SOL    HW1 5771   4.222   1.344   0.766
 1624SOL    HW2 5772   4.295   1.274   0.894
 1625SOL     OW 5773   2.408   5.046   0.525
 1625SOL    HW1 5774   2.318   5.034   0.484
 1625SOL    HW2 5775   2.415   4.992   0.608
 1626SOL     OW 5776   3.014   2.265   1.382
 1626SOL    HW1 5777   3.012   2.190   1.316
 1626SOL    HW2 5778   2.939   2.329   1.364
 1627SOL     OW 5779   4.678   2.684   3.890
 1627SOL    HW1 5780   4.674   2.750   3.815
 1627SOL    HW2 5781   4.645   2.595   3.857
 1628SOL     OW 5782   5.357   5.893   6.452
 1628SOL    HW1 5783   5.379   5.970   6.511
 1628SOL    HW2 5784   5.288   5.836   6.495
 1629SOL     OW 5785   2.830   1.692   2.936
 1629SOL    HW1 5786   2.760   1.760   2.958
 1629SOL    HW2 5787   2.913   1.712   2.987
 1630SOL     OW 5788   0.933   4.089   0.233
 1630SOL    HW1 5789   0.856   4.137   0.191
 1630SOL    HW2 5790   0.970   4.021   0.170
 1631SOL     OW 5791   0.049   3.542   0.745
 1631SOL    HW1 5792   0.098   3.622   0.712
 1631SOL    HW2 5793   0.106   3.461   0.736
 1632SOL     OW 5794   6.015   4.381   2.655
 1632SOL    HW1 5795   6.103   4.417   2.627
 1632SOL    HW2 5796   5.951   4.456   2.672
 1633SOL     OW 5797   4.938   3.630   3.919
 1633SOL    HW1 5798   4.940   3.599   4.014
 1633SOL    HW2 5799   5.024   3.605   3.874
 1634SOL     OW 5800   4.840   0.532   4.447
 1634SOL    HW1 5801   4.908   0.556   4.377
 1634SOL    HW2 5802   4.869   0.570   4.535
 1635SOL     OW 5803   3.832   5.172   5.225
 1635SOL    HW1 5804   3.891   5.110   5.173
 1635SOL    HW2 5805   3.792   5.123   5.302
 1636SOL     OW 5806   5.022   5.750   1.626
 1636SOL    HW1 5807   5.015   5.758   1.725
 1636SOL    HW2 5808   4.970   5.671   1.595
 1637SOL     OW 5809   0.186   6.771   2.052
 1637SOL    HW1 5810   0.227   6.815   2.132
 1637SOL    HW2 5811   0.125   6.836   2.006
 1638SOL     OW 5812   6.707   3.371   1.815
 1638SOL    HW1 5813   6.622   3.377   1.762
 1638SOL    HW2 5814   6.768   3.304   1.772
 1639SOL     OW 5815   5.336   3.643   2.391
 1639SOL    HW1 5816   5.427   3.624   2.354
 1639SOL    HW2 5817   5.268   3.591   2.340
 1640SOL     OW 5818   6.332   0.093   0.619
 1640SOL    HW1 5819   6.316   0.173   0.677
 1640SOL    HW2 5820   6.359   0.015   0.676
 1641SOL     OW 5821   0.191   2.477   2.954
 1641SOL    HW1 5822   0.228   2.553   3.008
 1641SOL    HW2 5823   0.096   2.459   2.982
 1642SOL     OW 5824   5.904   2.938   5.924
 1642SOL    HW1 5825   5.853   2.951   5.838
 1642SOL    HW2 5826   5.888   3.017   5.984
 1643SOL     OW 5827   3.626   5.253   4.421
 1643SOL    HW1 5828   3.577   5.234   4.337
 1643SOL    HW2 5829   3.636   5.169   4.475
 1644SOL     OW 5830   5.924   3.097   0.578
 1644SOL    HW1 5831   5.947   3.008   0.539
 1644SOL    HW2 5832   5.858   3.084   0.652
 1645SOL     OW 5833   2.802   1.044   6.112
 1645SOL    HW1 5834   2.751   1.104   6.175
 1645SOL    HW2 5835   2.762   1.051   6.021
 1646SOL     OW 5836   0.968   5.590   0.149
 1646SOL    HW1 5837   1.047   5.533   0.171
 1646SOL    HW2 5838   0.920   5.552   0.070
 1647SOL     OW 5839   6.237   2.799   4.575
 1647SOL    HW1 5840   6.251   2.711   4.620
 1647SOL    HW2 5841   6.210   2.867   4.643
 1648SOL     OW 5842   5.113   5.755   0.901
 1648SOL    HW1 5843   5.100   5.784   0.996
 1648SOL    HW2 5844   5.035   5.784   0.846
 1649SOL     OW 5845   2.945   0.580   3.355
 1649SOL    HW1 5846   2.982   0.657   3.302
 1649SOL    HW2 5847   2.981   0.584   3.448
 1650SOL     OW 5848   2.437   5.280   6.434
 1650SOL    HW1 5849   2.424   5.336   6.352
 1650SOL    HW2 5850   2.532   5.286   6.464
 1651SOL     OW 5851   0.828   3.024   4.005
 1651SOL    HW1 5852   0.753   3.052   3.946
 1651SOL    HW2 5853   0.794   3.012   4.098
 1652SOL     OW 5854   1.094   2.708   1.246
 1652SOL    HW1 5855   1.071   2.767   1.323
 1652SOL    HW2 5856   1.164   2.642   1.274
 1653SOL     OW 5857   6.707   5.133   2.509
 1653SOL    HW1 5858   6.610   5.114   2.495
 1653SOL    HW2 5859   6.723   5.231   2.495
 1654SOL     OW 5860   0.625   3.012   1.962
 1654SOL    HW1 5861   0.634   3.012   2.062
 1654SOL    HW2 5862   0.710   3.046   1.921
 1655SOL     OW 5863   0.085   0.749   4.547
 1655SOL    HW1 5864   0.001   0.703   4.518
 1655SOL    HW2 5865   0.155   0.681   4.567
 1656SOL     OW 5866   2.303   5.264   4.333
 1656SOL    HW1 5867   2.341   5.353   4.306
 1656SOL    HW2 5868   2.371   5.212   4.384
 1657SOL     OW 5869   0.105   0.557   5.564
 1657SOL    HW1 5870   0.136   0.609   5.484
 1657SOL    HW2 5871   0.040   0.487   5.534
 1658SOL     OW 5872   6.785   6.898   0.524
 1658SOL    HW1 5873   6.720   6.895   0.448
 1658SOL    HW2 5874   6.783   6.989   0.566
 1659SOL     OW 5875   4.102   7.004   6.438
 1659SOL    HW1 5876   4.082   6.934   6.507
 1659SOL    HW2 5877   4.199   0.005   6.443
 1660SOL     OW 5878   1.858   6.606   2.094
 1660SOL    HW1 5879   1.880   6.671   2.166
 1660SOL    HW2 5880   1.797   6.649   2.027
 1661SOL     OW 5881   3.147   5.264   2.493
 1661SOL    HW1 5882   3.086   5.198   2.449
 1661SOL    HW2 5883   3.201   5.218   2.563
 1662SOL     OW 5884   0.057   1.642   5.515
 1662SOL    HW1 5885   6.992   1.669   5.478
 1662SOL    HW2 5886   0.043   1.588   5.598
 1663SOL     OW 5887   4.620   4.988   1.224
 1663SOL    HW1 5888   4.715   4.959   1.212
 1663SOL    HW2 5889   4.582   4.945   1.306
 1664SOL     OW 5890   0.565   6.949   5.352
 1664SOL    HW1 5891   0.570   0.018   5.317
 1664SOL    HW2 5892   0.469   6.922   5.360
 1665SOL     OW 5893   1.980   3.814   1.075
 1665SOL    HW1 5894   1.956   3.907   1.101
 1665SOL    HW2 5895   1.941   3.750   1.141
 1666SOL     OW 5896   5.492   0.287   6.381
 1666SOL    HW1 5897   5.528   0.254   6.293
 1666SOL    HW2 5898   5.405   0.334   6.366
 1667SOL     OW 5899   0.269   6.742   0.767
 1667SOL    HW1 5900   0.190   6.791   0.729
 1667SOL    HW2 5901   0.241   6.651   0.796
 1668SOL     OW 5902   5.126   4.563   3.677
 1668SOL    HW1 5903   5.097   4.581   3.771
 1668SOL    HW2 5904   5.082   4.480   3.643
 1669SOL     OW 5905   0.361   3.711   5.585
 1669SOL    HW1 5906   0.287   3.777   5.586
 1669SOL    HW2 5907   0.367   3.668   5.495
 1670SOL     OW 5908   1.868   4.545   6.149
 1670SOL    HW1 5909   1.807   4.623   6.136
 1670SOL    HW2 5910   1.872   4.491   6.065
 1671SOL     OW 5911   5.024   1.757   2.005
 1671SOL    HW1 5912   5.120   1.728   2.007
 1671SOL    HW2 5913   5.018   1.856   2.017
 1672SOL     OW 5914   0.648   3.045   0.144
 1672SOL    HW1 5915   0.650   3.041   0.044
 1672SOL    HW2 5916   0.678   3.136   0.174
 1673SOL     OW 5917   2.391   1.746   4.331
 1673SOL    HW1 5918   2.390   1.709   4.424
 1673SOL    HW2 5919   2.314   1.808   4.319
 1674SOL     OW 5920   5.006   2.798   2.368
 1674SOL    HW1 5921   4.923   2.807   2.313
 1674SOL    HW2 5922   5.066   2.729   2.326
 1675SOL     OW 5923   5.606   0.810   1.409
 1675SOL    HW1 5924   5.702   0.825   1.433
 1675SOL    HW2 5925   5.600   0.767   1.319
 1676SOL     OW 5926   2.002   2.251   2.972
 1676SOL    HW1 5927   2.090   2.242   3.020
 1676SOL    HW2 5928   2.019   2.255   2.874
 1677SOL     OW 5929   4.009   3.719   3.315
 1677SOL    HW1 5930   4.047   3.648   3.374
 1677SOL    HW2 5931   4.040   3.705   3.221
 1678SOL     OW 5932   0.497   6.237   0.709
 1678SOL    HW1 5933   0.506   6.337   0.702
 1678SOL    HW2 5934   0.585   6.194   0.689
 1679SOL     OW 5935   1.925   1.977   5.215
 1679SOL    HW1 5936   1.986   1.986   5.293
 1679SOL    HW2 5937   1.911   2.066   5.173
 1680SOL     OW 5938   5.044   2.851   4.513
 1680SOL    HW1 5939   5.070   2.947   4.510
 1680SOL    HW2 5940   4.949   2.843   4.543
 1681SOL     OW 5941   1.803   5.822   4.068
 1681SOL    HW1 5942   1.707   5.819   4.096
 1681SOL    HW2 5943   1.834   5.917   4.064
 1682SOL     OW 5944   2.573   6.644   5.214
 1682SOL    HW1 5945   2.601   6.683   5.302
 1682SOL    HW2 5946   2.482   6.679   5.189
 1683SOL     OW 5947   5.768   4.882   2.666
 1683SOL    HW1 5948   5.855   4.899   2.620
 1683SOL    HW2 5949   5.770   4.792   2.709
 1684SOL     OW 5950   1.769   5.017   1.662
 1684SOL    HW1 5951   1.763   4.949   1.589
 1684SOL    HW2 5952   1.734   4.978   1.747
 1685SOL     OW 5953   1.295   1.842   5.812
 1685SOL    HW1 5954   1.221   1.806   5.755
 1685SOL    HW2 5955   1.280   1.814   5.907
 1686SOL     OW 5956   4.702   5.119   3.395
 1686SOL    HW1 5957   4.749   5.036   3.367
 1686SOL    HW2 5958   4.670   5.168   3.314
 1687SOL     OW 5959   0.205   3.551   2.319
 1687SOL    HW1 5960   0.214   3.509   2.229
 1687SOL    HW2 5961   0.285   3.528   2.375
 1688SOL     OW 5962   2.041   2.188   3.650
 1688SOL    HW1 5963   2.092   2.264   3.690
 1688SOL    HW2 5964   1.980   2.149   3.719
 1689SOL     OW 5965   6.205   0.695   2.268
 1689SOL    HW1 5966   6.254   0.734   2.346
 1689SOL    HW2 5967   6.162   0.768   2.215
 1690SOL     OW 5968   0.375   3.876   4.268
 1690SOL    HW1 5969   0.355   3.970   4.243
 1690SOL    HW2 5970   0.292   3.822   4.267
 1691SOL     OW 5971   5.181   3.121   4.388
 1691SOL    HW1 5972   5.239   3.113   4.469
 1691SOL    HW2 5973   5.092   3.159   4.413
 1692SOL     OW 5974   5.769   5.090   2.148
 1692SOL    HW1 5975   5.799   4.998   2.173
 1692SOL    HW2 5976   5.848   5.151   2.143
 1693SOL     OW 5977   6.773   0.963   5.417
 1693SOL    HW1 5978   6.792   1.037   5.482
 1693SOL    HW2 5979   6.677   0.935   5.427
 1694SOL     OW 5980   6.048   1.163   4.959
 1694SOL    HW1 5981   5.974   1.110   4.918
 1694SOL    HW2 5982   6.013   1.252   4.990
 1695SOL     OW 5983   3.813   0.608   6.769
 1695SOL    HW1 5984   3.870   0.638   6.846
 1695SOL    HW2 5985   3.863   0.619   6.684
 1696SOL     OW 5986   4.489   5.805   0.010
 1696SOL    HW1 5987   4.511   5.809   0.107
 1696SOL    HW2 5988   4.507   5.713   6.998
 1697SOL     OW 5989   6.004   2.213   1.274
 1697SOL    HW1 5990   5.960   2.188   1.360
 1697SOL    HW2 5991   5.986   2.310   1.255
 1698SOL     OW 5992   3.306   0.723   1.972
 1698SOL    HW1 5993   3.379   0.677   1.920
 1698SOL    HW2 5994   3.339   0.810   2.007
 1699SOL     OW 5995   2.669   0.881   6.769
 1699SOL    HW1 5996   2.632   0.899   6.861
 1699SOL    HW2 5997   2.737   0.951   6.747
 1700SOL     OW 5998   6.036   3.349   3.303
 1700SOL    HW1 5999   5.996   3.439   3.289
 1700SOL    HW2 6000   5.966   3.279   3.289
 1701SOL     OW 6001   6.512   4.648   4.746
 1701SOL    HW1 6002   6.546   4.741   4.730
 1701SOL    HW2 6003   6.569   4.583   4.697
 1702SOL     OW 6004   1.890   1.750   5.841
 1702SOL    HW1 6005   1.827   1.782   5.770
 1702SOL    HW2 6006   1.856   1.777   5.931
 1703SOL     OW 6007   3.047   1.667   6.533
 1703SOL    HW1 6008   3.083   1.626   6.617
 1703SOL    HW2 6009   3.088   1.758   6.521
 1704SOL     OW 6010   2.670   1.594   0.515
 1704SOL    HW1 6011   2.745   1.612   0.452
 1704SOL    HW2 6012   2.628   1.681   0.543
 1705SOL     OW 6013   3.326   1.437   1.668
 1705SOL    HW1 6014   3.260   1.443   1.743
 1705SOL    HW2 6015   3.400   1.503   1.684
 1706SOL     OW 6016   4.429   2.053   0.642
 1706SOL    HW1 6017   4.481   2.063   0.557
 1706SOL    HW2 6018   4.347   1.998   0.624
 1707SOL     OW 6019   4.773   1.171   2.633
 1707SOL    HW1 6020   4.715   1.220   2.568
 1707SOL    HW2 6021   4.751   1.201   2.726
 1708SOL     OW 6022   3.136   5.061   2.238
 1708SOL    HW1 6023   3.224   5.103   2.261
 1708SOL    HW2 6024   3.128   5.053   2.139
 1709SOL     OW 6025   5.336   5.682   0.773
 1709SOL    HW1 6026   5.258   5.689   0.836
 1709SOL    HW2 6027   5.303   5.664   0.681
 1710SOL     OW 6028   4.593   5.211   3.137
 1710SOL    HW1 6029   4.542   5.136   3.095
 1710SOL    HW2 6030   4.652   5.254   3.068
 1711SOL     OW 6031   3.486   6.046   5.952
 1711SOL    HW1 6032   3.510   5.976   5.884
 1711SOL    HW2 6033   3.566   6.067   6.008
 1712SOL     OW 6034   0.330   2.460   4.582
 1712SOL    HW1 6035   0.423   2.427   4.566
 1712SOL    HW2 6036   0.332   2.560   4.593
 1713SOL     OW 6037   3.597   0.562   2.850
 1713SOL    HW1 6038   3.593   0.586   2.753
 1713SOL    HW2 6039   3.532   0.618   2.901
 1714SOL     OW 6040   3.682   2.500   0.006
 1714SOL    HW1 6041   3.704   2.589   0.045
 1714SOL    HW2 6042   3.758   2.437   0.020
 1715SOL     OW 6043   1.194   6.637   2.189
 1715SOL    HW1 6044   1.120   6.656   2.124
 1715SOL    HW2 6045   1.158   6.642   2.282
 1716SOL     OW 6046   4.783   0.681   3.965
 1716SOL    HW1 6047   4.761   0.583   3.967
 1716SOL    HW2 6048   4.877   0.693   3.934
 1717SOL     OW 6049   3.939   6.288   5.461
 1717SOL    HW1 6050   4.022   6.233   5.451
 1717SOL    HW2 6051   3.880   6.246   5.530
 1718SOL     OW 6052   2.064   2.501   2.086
 1718SOL    HW1 6053   1.965   2.514   2.082
 1718SOL    HW2 6054   2.094   2.498   2.181
 1719SOL     OW 6055   0.804   4.687   1.693
 1719SOL    HW1 6056   0.896   4.689   1.731
 1719SOL    HW2 6057   0.762   4.598   1.713
 1720SOL     OW 6058   6.698   2.769   5.643
 1720SOL    HW1 6059   6.713   2.715   5.726
 1720SOL    HW2 6060   6.678   2.864   5.668
 1721SOL     OW 6061   1.118   1.333   1.898
 1721SOL    HW1 6062   1.132   1.420   1.946
 1721SOL    HW2 6063   1.200   1.310   1.847
 1722SOL     OW 6064   3.197   2.080   2.796
 1722SOL    HW1 6065   3.115   2.136   2.781
 1722SOL    HW2 6066   3.221   2.032   2.711
 1723SOL     OW 6067   4.945   2.238   6.868
 1723SOL    HW1 6068   4.874   2.184   6.823
 1723SOL    HW2 6069   4.936   2.334   6.841
 1724SOL     OW 6070   6.268   2.552   1.486
 1724SOL    HW1 6071   6.174   2.583   1.471
 1724SOL    HW2 6072   6.268   2.459   1.521
 1725SOL     OW 6073   2.387   5.347   6.698
 1725SOL    HW1 6074   2.347   5.269   6.747
 1725SOL    HW2 6075   2.405   5.321   6.603
 1726SOL     OW 6076   5.382   4.675   3.848
 1726SOL    HW1 6077   5.380   4.737   3.769
 1726SOL    HW2 6078   5.462   4.697   3.905
 1727SOL     OW 6079   2.908   3.704   3.689
 1727SOL    HW1 6080   2.868   3.688   3.599
 1727SOL    HW2 6081   2.848   3.765   3.742
 1728SOL     OW 6082   4.700   3.134   5.448
 1728SOL    HW1 6083   4.658   3.044   5.437
 1728SOL    HW2 6084   4.636   3.204   5.415
 1729SOL     OW 6085   1.958   4.013   1.994
 1729SOL    HW1 6086   1.994   4.102   1.966
 1729SOL    HW2 6087   1.874   4.026   2.046
 1730SOL     OW 6088   2.645   4.879   5.501
 1730SOL    HW1 6089   2.670   4.848   5.593
 1730SOL    HW2 6090   2.548   4.864   5.485
 1731SOL     OW 6091   5.720   4.470   4.003
 1731SOL    HW1 6092   5.701   4.421   3.918
 1731SOL    HW2 6093   5.818   4.473   4.019
 1732SOL     OW 6094   1.947   4.836   6.975
 1732SOL    HW1 6095   1.966   4.744   7.009
 1732SOL    HW2 6096   2.024   4.869   6.921
 1733SOL     OW 6097   2.674   3.715   0.096
 1733SOL    HW1 6098   2.718   3.671   0.018
 1733SOL    HW2 6099   2.625   3.646   0.150
 1734SOL     OW 6100   0.030   3.397   1.417
 1734SOL    HW1 6101   0.004   3.412   1.512
 1734SOL    HW2 6102   0.098   3.465   1.390
 1735SOL     OW 6103   4.164   5.572   6.793
 1735SOL    HW1 6104   4.089   5.512   6.767
 1735SOL    HW2 6105   4.162   5.588   6.892
 1736SOL     OW 6106   4.989   3.443   0.856
 1736SOL    HW1 6107   5.053   3.424   0.930
 1736SOL    HW2 6108   5.030   3.507   0.792
 1737SOL     OW 6109   4.707   1.423   4.413
 1737SOL    HW1 6110   4.736   1.518   4.415
 1737SOL    HW2 6111   4.778   1.365   4.454
 1738SOL     OW 6112   1.151   3.729   3.789
 1738SOL    HW1 6113   1.118   3.669   3.861
 1738SOL    HW2 6114   1.244   3.759   3.812
 1739SOL     OW 6115   5.330   0.051   4.279
 1739SOL    HW1 6116   5.291   0.134   4.318
 1739SOL    HW2 6117   5.348   0.065   4.181
 1740SOL     OW 6118   0.023   2.199   4.464
 1740SOL    HW1 6119   7.008   2.211   4.372
 1740SOL    HW2 6120   0.004   2.280   4.519
 1741SOL     OW 6121   1.332   1.884   4.822
 1741SOL    HW1 6122   1.391   1.962   4.846
 1741SOL    HW2 6123   1.239   1.903   4.852
 1742SOL     OW 6124   6.380   6.125   6.227
 1742SOL    HW1 6125   6.314   6.148   6.299
 1742SOL    HW2 6126   6.453   6.192   6.226
 1743SOL     OW 6127   1.473   0.888   3.177
 1743SOL    HW1 6128   1.437   0.976   3.146
 1743SOL    HW2 6129   1.571   0.898   3.195
 1744SOL     OW 6130   5.243   2.422   3.399
 1744SOL    HW1 6131   5.168   2.455   3.457
 1744SOL    HW2 6132   5.227   2.452   3.305
 1745SOL     OW 6133   6.233   6.322   1.455
 1745SOL    HW1 6134   6.212   6.237   1.503
 1745SOL    HW2 6135   6.332   6.332   1.446
 1746SOL     OW 6136   1.580   3.919   3.140
 1746SOL    HW1 6137   1.613   3.996   3.194
 1746SOL    HW2 6138   1.606   3.833   3.185
 1747SOL     OW 6139   3.317   0.993   2.091
 1747SOL    HW1 6140   3.231   0.952   2.122
 1747SOL    HW2 6141   3.298   1.059   2.019
 1748SOL     OW 6142   0.062   1.689   4.172
 1748SOL    HW1 6143   0.075   1.755   4.098
 1748SOL    HW2 6144   6.990   1.661   4.175
 1749SOL     OW 6145   2.733   5.194   1.174
 1749SOL    HW1 6146   2.722   5.095   1.179
 1749SOL    HW2 6147   2.736   5.233   1.266
 1750SOL     OW 6148   4.409   0.764   6.098
 1750SOL    HW1 6149   4.459   0.776   6.184
 1750SOL    HW2 6150   4.461   0.703   6.038
 1751SOL     OW 6151   5.972   2.737   5.057
 1751SOL    HW1 6152   5.895   2.716   5.117
 1751SOL    HW2 6153   5.943   2.801   4.986
 1752SOL     OW 6154   6.547   0.799   1.200
 1752SOL    HW1 6155   6.584   0.708   1.219
 1752SOL    HW2 6156   6.585   0.865   1.266
 1753SOL     OW 6157   6.280   1.356   1.790
 1753SOL    HW1 6158   6.368   1.349   1.836
 1753SOL    HW2 6159   6.263   1.273   1.737
 1754SOL     OW 6160   3.023   5.607   5.593
 1754SOL    HW1 6161   2.956   5.651   5.534
 1754SOL    HW2 6162   3.045   5.516   5.557
 1755SOL     OW 6163   6.376   6.942   5.261
 1755SOL    HW1 6164   6.341   6.963   5.170
 1755SOL    HW2 6165   6.476   6.938   5.258
 1756SOL     OW 6166   5.487   0.268   6.110
 1756SOL    HW1 6167   5.532   0.334   6.050
 1756SOL    HW2 6168   5.449   0.193   6.055
 1757SOL     OW 6169   2.609   5.391   5.069
 1757SOL    HW1 6170   2.684   5.428   5.014
 1757SOL    HW2 6171   2.607   5.436   5.158
 1758SOL     OW 6172   1.946   6.526   4.585
 1758SOL    HW1 6173   2.037   6.506   4.547
 1758SOL    HW2 6174   1.945   6.506   4.683
 1759SOL     OW 6175   1.510   6.383   0.278
 1759SOL    HW1 6176   1.589   6.418   0.228
 1759SOL    HW2 6177   1.427   6.430   0.248
 1760SOL     OW 6178   6.517   0.828   5.439
 1760SOL    HW1 6179   6.526   0.809   5.341
 1760SOL    HW2 6180   6.529   0.742   5.489
 1761SOL     OW 6181   6.669   2.222   1.525
 1761SOL    HW1 6182   6.670   2.151   1.595
 1761SOL    HW2 6183   6.619   2.190   1.444
 1762SOL     OW 6184   0.291   1.382   5.443
 1762SOL    HW1 6185   0.362   1.389   5.513
 1762SOL    HW2 6186   0.221   1.317   5.473
 1763SOL     OW 6187   0.819   3.504   4.765
 1763SOL    HW1 6188   0.822   3.489   4.864
 1763SOL    HW2 6189   0.736   3.555   4.742
 1764SOL     OW 6190   1.334   4.883   2.491
 1764SOL    HW1 6191   1.286   4.896   2.404
 1764SOL    HW2 6192   1.417   4.939   2.492
 1765SOL     OW 6193   5.557   3.124   1.873
 1765SOL    HW1 6194   5.654   3.099   1.862
 1765SOL    HW2 6195   5.544   3.165   1.963
 1766SOL     OW 6196   3.976   5.043   4.465
 1766SOL    HW1 6197   3.902   5.024   4.400
 1766SOL    HW2 6198   3.942   5.097   4.541
 1767SOL     OW 6199   0.066   4.960   2.521
 1767SOL    HW1 6200   0.058   5.014   2.436
 1767SOL    HW2 6201   7.003   4.914   2.539
 1768SOL     OW 6202   4.616   6.459   2.048
 1768SOL    HW1 6203   4.563   6.470   2.132
 1768SOL    HW2 6204   4.561   6.413   1.979
 1769SOL     OW 6205   5.577   0.039   6.528
 1769SOL    HW1 6206   5.531   0.032   6.616
 1769SOL    HW2 6207   5.558   0.128   6.487
 1770SOL     OW 6208   1.696   4.831   6.448
 1770SOL    HW1 6209   1.679   4.744   6.402
 1770SOL    HW2 6210   1.725   4.899   6.381
 1771SOL     OW 6211   0.874   3.932   5.912
 1771SOL    HW1 6212   0.963   3.927   5.868
 1771SOL    HW2 6213   0.862   3.852   5.972
 1772SOL     OW 6214   2.572   4.626   4.138
 1772SOL    HW1 6215   2.639   4.647   4.209
 1772SOL    HW2 6216   2.483   4.609   4.180
 1773SOL     OW 6217   0.262   6.908   5.327
 1773SOL    HW1 6218   0.194   6.838   5.350
 1773SOL    HW2 6219   0.267   6.917   5.227
 1774SOL     OW 6220   5.779   5.576   1.169
 1774SOL    HW1 6221   5.723   5.647   1.127
 1774SOL    HW2 6222   5.838   5.534   1.099
 1775SOL     OW 6223   2.157   5.611   6.885
 1775SOL    HW1 6224   2.179   5.518   6.853
 1775SOL    HW2 6225   2.058   5.625   6.882
 1776SOL     OW 6226   4.122   1.257   6.049
 1776SOL    HW1 6227   4.178   1.177   6.069
 1776SOL    HW2 6228   4.134   1.324   6.123
 1777SOL     OW 6229   4.358   6.997   6.523
 1777SOL    HW1 6230   4.433   6.973   6.461
 1777SOL    HW2 6231   4.362   6.939   6.604
 1778SOL     OW 6232   5.899   0.603   3.813
 1778SOL    HW1 6233   5.941   0.512   3.825
 1778SOL    HW2 6234   5.812   0.606   3.862
 1779SOL     OW 6235   5.530   6.340   3.952
 1779SOL    HW1 6236   5.512   6.421   3.896
 1779SOL    HW2 6237   5.482   6.349   4.039
 1780SOL     OW 6238   1.836   5.384   5.207
 1780SOL    HW1 6239   1.906   5.400   5.138
 1780SOL    HW2 6240   1.831   5.463   5.269
 1781SOL     OW 6241   4.134   0.336   3.924
 1781SOL    HW1 6242   4.107   0.432   3.915
 1781SOL    HW2 6243   4.070   0.288   3.984
 1782SOL     OW 6244   1.793   1.962   2.807
 1782SOL    HW1 6245   1.701   1.924   2.797
 1782SOL    HW2 6246   1.802   2.006   2.896
 1783SOL     OW 6247   1.741   4.133   6.269
 1783SOL    HW1 6248   1.822   4.135   6.211
 1783SOL    HW2 6249   1.698   4.043   6.265
 1784SOL     OW 6250   2.225   0.705   1.006
 1784SOL    HW1 6251   2.137   0.748   1.025
 1784SOL    HW2 6252   2.284   0.715   1.086
 1785SOL     OW 6253   1.447   6.565   4.419
 1785SOL    HW1 6254   1.492   6.608   4.341
 1785SOL    HW2 6255   1.365   6.616   4.443
 1786SOL     OW 6256   1.252   6.189   0.935
 1786SOL    HW1 6257   1.311   6.261   0.969
 1786SOL    HW2 6258   1.223   6.212   0.842
 1787SOL     OW 6259   2.005   3.258   5.732
 1787SOL    HW1 6260   2.027   3.161   5.717
 1787SOL    HW2 6261   1.929   3.284   5.672
 1788SOL     OW 6262   4.481   4.011   0.647
 1788SOL    HW1 6263   4.526   3.926   0.620
 1788SOL    HW2 6264   4.427   3.996   0.730
 1789SOL     OW 6265   6.744   3.797   1.959
 1789SOL    HW1 6266   6.760   3.860   2.035
 1789SOL    HW2 6267   6.650   3.763   1.964
 1790SOL     OW 6268   3.000   2.214   4.312
 1790SOL    HW1 6269   3.002   2.209   4.212
 1790SOL    HW2 6270   2.914   2.256   4.341
 1791SOL     OW 6271   5.630   0.034   3.584
 1791SOL    HW1 6272   5.686   0.010   3.504
 1791SOL    HW2 6273   5.559   0.099   3.557
 1792SOL     OW 6274   6.625   1.520   4.910
 1792SOL    HW1 6275   6.706   1.537   4.967
 1792SOL    HW2 6276   6.632   1.572   4.825
 1793SOL     OW 6277   0.095   1.149   5.413
 1793SOL    HW1 6278   0.141   1.072   5.456
 1793SOL    HW2 6279   0.005   1.162   5.454
 1794SOL     OW 6280   0.222   6.940   6.236
 1794SOL    HW1 6281   0.201   6.982   6.147
 1794SOL    HW2 6282   0.151   6.874   6.259
 1795SOL     OW 6283   5.796   4.785   7.012
 1795SOL    HW1 6284   5.852   4.757   6.934
 1795SOL    HW2 6285   5.702   4.801   6.981
 1796SOL     OW 6286   0.600   6.494   5.793
 1796SOL    HW1 6287   0.518   6.543   5.825
 1796SOL    HW2 6288   0.681   6.538   5.831
 1797SOL     OW 6289   2.314   6.124   4.742
 1797SOL    HW1 6290   2.406   6.086   4.731
 1797SOL    HW2 6291   2.249   6.072   4.686
 1798SOL     OW 6292   3.101   4.095   4.758
 1798SOL    HW1 6293   3.013   4.137   4.736
 1798SOL    HW2 6294   3.093   4.044   4.844
 1799SOL     OW 6295   2.953   0.868   0.214
 1799SOL    HW1 6296   2.907   0.957   0.207
 1799SOL    HW2 6297   2.915   0.816   0.290
 1800SOL     OW 6298   5.240   3.383   4.629
 1800SOL    HW1 6299   5.262   3.439   4.709
 1800SOL    HW2 6300   5.306   3.308   4.621
 1801SOL     OW 6301   0.747   1.735   2.144
 1801SOL    HW1 6302   0.776   1.649   2.101
 1801SOL    HW2 6303   0.807   1.756   2.221
 1802SOL     OW 6304   6.768   4.859   3.888
 1802SOL    HW1 6305   6.864   4.834   3.877
 1802SOL    HW2 6306   6.727   4.804   3.960
 1803SOL     OW 6307   0.784   6.710   3.157
 1803SOL    HW1 6308   0.791   6.653   3.075
 1803SOL    HW2 6309   0.867   6.699   3.212
 1804SOL     OW 6310   2.446   3.365   5.904
 1804SOL    HW1 6311   2.417   3.376   5.809
 1804SOL    HW2 6312   2.542   3.391   5.913
 1805SOL     OW 6313   0.155   5.921   6.392
 1805SOL    HW1 6314   0.157   5.917   6.292
 1805SOL    HW2 6315   0.204   6.003   6.423
 1806SOL     OW 6316   6.838   1.955   2.357
 1806SOL    HW1 6317   6.888   1.869   2.367
 1806SOL    HW2 6318   6.845   1.988   2.263
 1807SOL     OW 6319   6.480   3.785   2.032
 1807SOL    HW1 6320   6.427   3.773   1.949
 1807SOL    HW2 6321   6.418   3.809   2.108
 1808SOL     OW 6322   5.035   1.909   5.753
 1808SOL    HW1 6323   5.089   1.977   5.803
 1808SOL    HW2 6324   5.044   1.820   5.797
 1809SOL     OW 6325   3.757   1.966   5.760
 1809SOL    HW1 6326   3.713   1.992   5.845
 1809SOL    HW2 6327   3.718   1.880   5.727
 1810SOL     OW 6328   0.636   0.103   3.931
 1810SOL    HW1 6329   0.537   0.110   3.925
 1810SOL    HW2 6330   0.675   0.104   3.839
 1811SOL     OW 6331   4.264   5.681   2.881
 1811SOL    HW1 6332   4.230   5.734   2.803
 1811SOL    HW2 6333   4.203   5.694   2.959
 1812SOL     OW 6334   4.658   7.015   5.380
 1812SOL    HW1 6335   4.569   0.000   5.336
 1812SOL    HW2 6336   4.664   6.927   5.426
 1813SOL     OW 6337   4.712   4.160   2.234
 1813SOL    HW1 6338   4.671   4.208   2.156
 1813SOL    HW2 6339   4.640   4.113   2.286
 1814SOL     OW 6340   0.223   6.432   0.617
 1814SOL    HW1 6341   0.153   6.502   0.609
 1814SOL    HW2 6342   0.233   6.383   0.530
 1815SOL     OW 6343   5.636   5.989   1.825
 1815SOL    HW1 6344   5.727   6.031   1.826
 1815SOL    HW2 6345   5.624   5.937   1.740
 1816SOL     OW 6346   4.207   5.846   6.180
 1816SOL    HW1 6347   4.238   5.751   6.185
 1816SOL    HW2 6348   4.258   5.893   6.108
 1817SOL     OW 6349   1.272   1.866   3.792
 1817SOL    HW1 6350   1.200   1.809   3.753
 1817SOL    HW2 6351   1.313   1.819   3.870
 1818SOL     OW 6352   2.343   6.684   0.578
 1818SOL    HW1 6353   2.267   6.748   0.569
 1818SOL    HW2 6354   2.372   6.679   0.673
 1819SOL     OW 6355   2.181   4.585   3.306
 1819SOL    HW1 6356   2.234   4.670   3.310
 1819SOL    HW2 6357   2.124   4.577   3.388
 1820SOL     OW 6358   3.424   0.871   3.919
 1820SOL    HW1 6359   3.470   0.957   3.897
 1820SOL    HW2 6360   3.338   0.890   3.967
 1821SOL     OW 6361   4.100   2.146   2.424
 1821SOL    HW1 6362   4.108   2.216   2.495
 1821SOL    HW2 6363   4.003   2.123   2.411
 1822SOL     OW 6364   0.357   3.235   2.337
 1822SOL    HW1 6365   0.282   3.249   2.273
 1822SOL    HW2 6366   0.321   3.236   2.431
 1823SOL     OW 6367   4.134   6.391   2.538
 1823SOL    HW1 6368   4.037   6.379   2.563
 1823SOL    HW2 6369   4.140   6.437   2.449
 1824SOL     OW 6370   3.958   2.983   0.679
 1824SOL    HW1 6371   3.879   3.028   0.636
 1824SOL    HW2 6372   3.965   3.012   0.774
 1825SOL     OW 6373   2.117   1.932   5.035
 1825SOL    HW1 6374   2.041   1.941   5.100
 1825SOL    HW2 6375   2.081   1.910   4.945
 1826SOL     OW 6376   3.549   2.192   1.688
 1826SOL    HW1 6377   3.603   2.259   1.740
 1826SOL    HW2 6378   3.461   2.232   1.663
 1827SOL     OW 6379   5.428   4.594   0.615
 1827SOL    HW1 6380   5.382   4.529   0.556
 1827SOL    HW2 6381   5.527   4.575   0.615
 1828SOL     OW 6382   1.619   3.650   5.324
 1828SOL    HW1 6383   1.658   3.559   5.310
 1828SOL    HW2 6384   1.687   3.719   5.298
 1829SOL     OW 6385   3.137   0.964   3.505
 1829SOL    HW1 6386   3.121   1.015   3.590
 1829SOL    HW2 6387   3.056   0.971   3.446
 1830SOL     OW 6388   5.514   6.704   4.958
 1830SOL    HW1 6389   5.442   6.683   4.893
 1830SOL    HW2 6390   5.473   6.739   5.043
 1831SOL     OW 6391   4.879   5.579   2.445
 1831SOL    HW1 6392   4.948   5.625   2.388
 1831SOL    HW2 6393   4.831   5.646   2.501
 1832SOL     OW 6394   2.918   2.997   0.562
 1832SOL    HW1 6395   2.877   2.914   0.524
 1832SOL    HW2 6396   2.981   2.972   0.636
 1833SOL     OW 6397   4.916   0.145   0.999
 1833SOL    HW1 6398   5.015   0.141   0.988
 1833SOL    HW2 6399   4.889   0.095   1.081
 1834SOL     OW 6400   2.606   2.743   6.453
 1834SOL    HW1 6401   2.638   2.650   6.472
 1834SOL    HW2 6402   2.575   2.785   6.539
 1835SOL     OW 6403   0.186   5.369   1.276
 1835SOL    HW1 6404   0.154   5.434   1.345
 1835SOL    HW2 6405   0.126   5.374   1.196
 1836SOL     OW 6406   5.286   2.436   1.462
 1836SOL    HW1 6407   5.300   2.533   1.481
 1836SOL    HW2 6408   5.360   2.383   1.504
 1837SOL     OW 6409   2.627   1.631   6.318
 1837SOL    HW1 6410   2.537   1.666   6.292
 1837SOL    HW2 6411   2.616   1.556   6.384
 1838SOL     OW 6412   6.513   0.906   0.624
 1838SOL    HW1 6413   6.587   0.935   0.563
 1838SOL    HW2 6414   6.462   0.986   0.655
 1839SOL     OW 6415   5.935   1.110   6.878
 1839SOL    HW1 6416   6.004   1.104   6.950
 1839SOL    HW2 6417   5.946   1.032   6.815
 1840SOL     OW 6418   4.183   0.186   3.578
 1840SOL    HW1 6419   4.148   0.092   3.584
 1840SOL    HW2 6420   4.212   0.205   3.485
 1841SOL     OW 6421   2.028   1.288   2.271
 1841SOL    HW1 6422   1.998   1.368   2.323
 1841SOL    HW2 6423   1.996   1.295   2.177
 1842SOL     OW 6424   1.370   5.571   0.380
 1842SOL    HW1 6425   1.321   5.655   0.354
 1842SOL    HW2 6426   1.465   5.594   0.402
 1843SOL     OW 6427   3.607   1.209   4.585
 1843SOL    HW1 6428   3.625   1.304   4.557
 1843SOL    HW2 6429   3.549   1.209   4.667
 1844SOL     OW 6430   5.560   1.396   6.551
 1844SOL    HW1 6431   5.502   1.326   6.593
 1844SOL    HW2 6432   5.654   1.386   6.584
 1845SOL     OW 6433   1.654   1.281   3.123
 1845SOL    HW1 6434   1.558   1.260   3.108
 1845SOL    HW2 6435   1.701   1.287   3.035
 1846SOL     OW 6436   4.518   1.255   2.599
 1846SOL    HW1 6437   4.478   1.212   2.518
 1846SOL    HW2 6438   4.461   1.332   2.627
 1847SOL     OW 6439   2.232   0.519   5.415
 1847SOL    HW1 6440   2.234   0.493   5.318
 1847SOL    HW2 6441   2.308   0.581   5.434
 1848SOL     OW 6442   2.502   5.830   4.301
 1848SOL    HW1 6443   2.501   5.832   4.201
 1848SOL    HW2 6444   2.559   5.905   4.335
 1849SOL     OW 6445   4.738   2.822   1.799
 1849SOL    HW1 6446   4.687   2.903   1.829
 1849SOL    HW2 6447   4.762   2.766   1.879
 1850SOL     OW 6448   4.928   1.651   1.721
 1850SOL    HW1 6449   4.946   1.629   1.817
 1850SOL    HW2 6450   4.943   1.749   1.706
 1851SOL     OW 6451   0.051   3.766   5.292
 1851SOL    HW1 6452   6.981   3.781   5.322
 1851SOL    HW2 6453   0.056   3.683   5.237
 1852SOL     OW 6454   1.774   5.237   2.278
 1852SOL    HW1 6455   1.689   5.264   2.323
 1852SOL    HW2 6456   1.852   5.271   2.331
 1853SOL     OW 6457   0.454   2.480   4.147
 1853SOL    HW1 6458   0.509   2.498   4.229
 1853SOL    HW2 6459   0.357   2.495   4.169
 1854SOL     OW 6460   0.510   6.415   3.877
 1854SOL    HW1 6461   0.432   6.475   3.892
 1854SOL    HW2 6462   0.479   6.326   3.844
 1855SOL     OW 6463   4.827   3.311   5.228
 1855SOL    HW1 6464   4.771   3.228   5.226
 1855SOL    HW2 6465   4.807   3.367   5.148
 1856SOL     OW 6466   3.465   2.529   0.188
 1856SOL    HW1 6467   3.534   2.514   0.117
 1856SOL    HW2 6468   3.437   2.441   0.227
 1857SOL     OW 6469   4.909   1.102   0.468
 1857SOL    HW1 6470   4.925   1.189   0.515
 1857SOL    HW2 6471   4.995   1.053   0.458
 1858SOL     OW 6472   4.348   2.343   4.450
 1858SOL    HW1 6473   4.393   2.412   4.508
 1858SOL    HW2 6474   4.318   2.266   4.506
 1859SOL     OW 6475   5.529   2.175   3.664
 1859SOL    HW1 6476   5.557   2.136   3.752
 1859SOL    HW2 6477   5.490   2.103   3.607
 1860SOL     OW 6478   1.380   1.353   4.570
 1860SOL    HW1 6479   1.345   1.354   4.477
 1860SOL    HW2 6480   1.390   1.446   4.604
 1861SOL     OW 6481   6.380   0.114   3.200
 1861SOL    HW1 6482   6.293   0.098   3.248
 1861SOL    HW2 6483   6.447   0.045   3.230
 1862SOL     OW 6484   2.647   6.265   6.671
 1862SOL    HW1 6485   2.566   6.230   6.624
 1862SOL    HW2 6486   2.622   6.296   6.763
 1863SOL     OW 6487   0.494   2.893   1.475
 1863SOL    HW1 6488   0.493   2.969   1.409
 1863SOL    HW2 6489   0.575   2.901   1.533
 1864SOL     OW 6490   3.555   5.897   2.721
 1864SOL    HW1 6491   3.551   5.956   2.802
 1864SOL    HW2 6492   3.495   5.933   2.650
 1865SOL     OW 6493   5.708   1.022   5.807
 1865SOL    HW1 6494   5.700   1.074   5.892
 1865SOL    HW2 6495   5.619   1.013   5.764
 1866SOL     OW 6496   0.083   4.538   3.580
 1866SOL    HW1 6497   0.048   4.445   3.572
 1866SOL    HW2 6498   0.161   4.539   3.642
 1867SOL     OW 6499   2.105   2.386   0.632
 1867SOL    HW1 6500   2.179   2.371   0.699
 1867SOL    HW2 6501   2.076   2.482   0.637
 1868SOL     OW 6502   5.975   4.267   5.733
 1868SOL    HW1 6503   5.917   4.280   5.813
 1868SOL    HW2 6504   5.942   4.325   5.658
 1869SOL     OW 6505   4.803   1.621   4.236
 1869SOL    HW1 6506   4.893   1.652   4.207
 1869SOL    HW2 6507   4.734   1.690   4.214
 1870SOL     OW 6508   0.576   5.068   4.031
 1870SOL    HW1 6509   0.546   4.973   4.039
 1870SOL    HW2 6510   0.517   5.126   4.086
 1871SOL     OW 6511   0.564   6.578   0.390
 1871SOL    HW1 6512   0.615   6.650   0.342
 1871SOL    HW2 6513   0.551   6.604   0.486
 1872SOL     OW 6514   2.483   2.570   0.757
 1872SOL    HW1 6515   2.435   2.560   0.670
 1872SOL    HW2 6516   2.460   2.659   0.797
 1873SOL     OW 6517   6.718   0.811   0.077
 1873SOL    HW1 6518   6.698   0.786   0.172
 1873SOL    HW2 6519   6.814   0.794   0.057
 1874SOL     OW 6520   1.026   6.230   0.098
 1874SOL    HW1 6521   0.944   6.271   0.059
 1874SOL    HW2 6522   1.041   6.140   0.057
 1875SOL     OW 6523   6.313   5.082   0.264
 1875SOL    HW1 6524   6.271   5.092   0.354
 1875SOL    HW2 6525   6.406   5.117   0.266
 1876SOL     OW 6526   6.948   5.855   6.527
 1876SOL    HW1 6527   6.954   5.904   6.614
 1876SOL    HW2 6528   0.014   5.855   6.483
 1877SOL     OW 6529   7.017   0.942   2.108
 1877SOL    HW1 6530   6.982   0.935   2.014
 1877SOL    HW2 6531   0.050   0.863   2.129
 1878SOL     OW 6532   6.893   4.702   3.526
 1878SOL    HW1 6533   6.978   4.650   3.520
 1878SOL    HW2 6534   6.846   4.699   3.437
 1879SOL     OW 6535   4.016   5.708   4.534
 1879SOL    HW1 6536   3.974   5.624   4.568
 1879SOL    HW2 6537   4.090   5.686   4.471
 1880SOL     OW 6538   0.556   1.427   4.054
 1880SOL    HW1 6539   0.463   1.466   4.053
 1880SOL    HW2 6540   0.557   1.347   4.113
 1881SOL     OW 6541   1.374   1.278   4.114
 1881SOL    HW1 6542   1.279   1.255   4.095
 1881SOL    HW2 6543   1.412   1.329   4.037
 1882SOL     OW 6544   1.550   5.717   0.153
 1882SOL    HW1 6545   1.515   5.807   0.182
 1882SOL    HW2 6546   1.562   5.716   0.054
 1883SOL     OW 6547   1.680   3.225   2.823
 1883SOL    HW1 6548   1.661   3.269   2.911
 1883SOL    HW2 6549   1.712   3.132   2.839
 1884SOL     OW 6550   3.144   0.533   0.402
 1884SOL    HW1 6551   3.221   0.514   0.463
 1884SOL    HW2 6552   3.176   0.588   0.325
 1885SOL     OW 6553   6.888   2.442   1.065
 1885SOL    HW1 6554   6.987   2.433   1.077
 1885SOL    HW2 6555   6.853   2.360   1.018
 1886SOL     OW 6556   2.914   3.031   6.894
 1886SOL    HW1 6557   2.899   3.041   6.993
 1886SOL    HW2 6558   3.001   2.984   6.878
 1887SOL     OW 6559   1.291   6.420   5.658
 1887SOL    HW1 6560   1.368   6.433   5.721
 1887SOL    HW2 6561   1.223   6.492   5.673
 1888SOL     OW 6562   2.152   1.959   6.105
 1888SOL    HW1 6563   2.231   1.996   6.154
 1888SOL    HW2 6564   2.133   2.017   6.025
 1889SOL     OW 6565   4.362   2.698   0.361
 1889SOL    HW1 6566   4.424   2.759   0.409
 1889SOL    HW2 6567   4.407   2.664   0.278
 1890SOL     OW 6568   6.750   5.440   6.502
 1890SOL    HW1 6569   6.714   5.522   6.547
 1890SOL    HW2 6570   6.720   5.359   6.552
 1891SOL     OW 6571   6.135   3.219   5.687
 1891SOL    HW1 6572   6.100   3.219   5.593
 1891SOL    HW2 6573   6.114   3.307   5.729
 1892SOL     OW 6574   3.809   5.421   1.870
 1892SOL    HW1 6575   3.765   5.509   1.849
 1892SOL    HW2 6576   3.806   5.406   1.969
 1893SOL     OW 6577   4.047   1.736   4.171
 1893SOL    HW1 6578   3.991   1.707   4.094
 1893SOL    HW2 6579   4.061   1.659   4.233
 1894SOL     OW 6580   4.099   3.634   0.655
 1894SOL    HW1 6581   4.147   3.669   0.574
 1894SOL    HW2 6582   4.055   3.547   0.632
 1895SOL     OW 6583   5.530   0.478   3.213
 1895SOL    HW1 6584   5.575   0.408   3.268
 1895SOL    HW2 6585   5.599   0.533   3.166
 1896SOL     OW 6586   6.878   1.604   5.015
 1896SOL    HW1 6587   6.955   1.579   5.074
 1896SOL    HW2 6588   6.912   1.639   4.928
 1897SOL     OW 6589   6.149   4.872   3.490
 1897SOL    HW1 6590   6.131   4.788   3.438
 1897SOL    HW2 6591   6.064   4.907   3.529
 1898SOL     OW 6592   5.689   4.584   0.675
 1898SOL    HW1 6593   5.774   4.532   0.676
 1898SOL    HW2 6594   5.680   4.635   0.760
 1899SOL     OW 6595   0.824   2.914   2.785
 1899SOL    HW1 6596   0.836   3.011   2.808
 1899SOL    HW2 6597   0.895   2.886   2.721
 1900SOL     OW 6598   2.234   5.890   6.347
 1900SOL    HW1 6599   2.303   5.858   6.412
 1900SOL    HW2 6600   2.207   5.984   6.369
 1901SOL     OW 6601   1.490   0.951   6.525
 1901SOL    HW1 6602   1.588   0.957   6.541
 1901SOL    HW2 6603   1.443   0.941   6.613
 1902SOL     OW 6604   0.714   2.892   4.275
 1902SOL    HW1 6605   0.701   2.854   4.366
 1902SOL    HW2 6606   0.661   2.839   4.209
 1903SOL     OW 6607   6.696   3.116   3.847
 1903SOL    HW1 6608   6.653   3.068   3.771
 1903SOL    HW2 6609   6.625   3.164   3.900
 1904SOL     OW 6610   6.464   6.778   3.683
 1904SOL    HW1 6611   6.478   6.683   3.707
 1904SOL    HW2 6612   6.371   6.791   3.647
 1905SOL     OW 6613   7.018   2.353   3.619
 1905SOL    HW1 6614   6.974   2.429   3.572
 1905SOL    HW2 6615   7.019   2.272   3.560
 1906SOL     OW 6616   2.791   0.424   6.671
 1906SOL    HW1 6617   2.878   0.379   6.691
 1906SOL    HW2 6618   2.729   0.414   6.749
 1907SOL     OW 6619   3.164   6.102   3.578
 1907SOL    HW1 6620   3.262   6.100   3.597
 1907SOL    HW2 6621   3.148   6.091   3.480
 1908SOL     OW 6622   4.309   1.630   6.070
 1908SOL    HW1 6623   4.284   1.541   6.107
 1908SOL    HW2 6624   4.395   1.660   6.111
 1909SOL     OW 6625   2.598   5.269   4.362
 1909SOL    HW1 6626   2.652   5.301   4.284
 1909SOL    HW2 6627   2.631   5.179   4.391
 1910SOL     OW 6628   5.371   1.886   5.871
 1910SOL    HW1 6629   5.377   1.789   5.893
 1910SOL    HW2 6630   5.459   1.930   5.888
 1911SOL     OW 6631   6.319   3.113   4.942
 1911SOL    HW1 6632   6.418   3.128   4.948
 1911SOL    HW2 6633   6.273   3.200   4.924
 1912SOL     OW 6634   3.452   6.715   3.182
 1912SOL    HW1 6635   3.540   6.758   3.203
 1912SOL    HW2 6636   3.450   6.623   3.222
 1913SOL     OW 6637   1.767   5.259   5.642
 1913SOL    HW1 6638   1.735   5.242   5.548
 1913SOL    HW2 6639   1.835   5.332   5.641
 1914SOL     OW 6640   3.606   2.608   6.069
 1914SOL    HW1 6641   3.695   2.631   6.108
 1914SOL    HW2 6642   3.539   2.597   6.142
 1915SOL     OW 6643   3.828   0.174   5.540
 1915SOL    HW1 6644   3.865   0.091   5.581
 1915SOL    HW2 6645   3.769   0.149   5.463
 1916SOL     OW 6646   3.514   6.075   1.995
 1916SOL    HW1 6647   3.425   6.108   2.028
 1916SOL    HW2 6648   3.574   6.153   1.977
 1917SOL     OW 6649   2.936   3.304   4.107
 1917SOL    HW1 6650   2.962   3.228   4.049
 1917SOL    HW2 6651   2.859   3.352   4.066
 1918SOL     OW 6652   5.849   6.299   4.682
 1918SOL    HW1 6653   5.919   6.228   4.692
 1918SOL    HW2 6654   5.873   6.377   4.739
 1919SOL     OW 6655   6.960   6.587   1.764
 1919SOL    HW1 6656   0.019   6.580   1.819
 1919SOL    HW2 6657   6.890   6.527   1.802
 1920SOL     OW 6658   6.982   5.961   4.070
 1920SOL    HW1 6659   6.950   5.950   4.164
 1920SOL    HW2 6660   0.009   5.880   4.042
 1921SOL     OW 6661   0.892   6.358   6.896
 1921SOL    HW1 6662   0.967   6.425   6.894
 1921SOL    HW2 6663   0.928   6.268   6.873
 1922SOL     OW 6664   3.750   3.793   1.081
 1922SOL    HW1 6665   3.721   3.854   1.155
 1922SOL    HW2 6666   3.845   3.812   1.057
 1923SOL     OW 6667   1.684   1.173   0.679
 1923SOL    HW1 6668   1.747   1.247   0.657
 1923SOL    HW2 6669   1.612   1.207   0.739
 1924SOL     OW 6670   0.323   4.474   1.826
 1924SOL    HW1 6671   0.379   4.542   1.874
 1924SOL    HW2 6672   0.345   4.383   1.861
 1925SOL     OW 6673   3.175   4.323   1.374
 1925SOL    HW1 6674   3.189   4.295   1.279
 1925SOL    HW2 6675   3.198   4.247   1.435
 1926SOL     OW 6676   1.375   6.945   4.334
 1926SOL    HW1 6677   1.340   0.013   4.318
 1926SOL    HW2 6678   1.449   6.925   4.269
 1927SOL     OW 6679   3.576   4.030   6.512
 1927SOL    HW1 6680   3.616   4.006   6.424
 1927SOL    HW2 6681   3.503   3.966   6.535
 1928SOL     OW 6682   6.198   3.939   5.639
 1928SOL    HW1 6683   6.267   3.989   5.588
 1928SOL    HW2 6684   6.196   3.843   5.609
 1929SOL     OW 6685   0.501   6.381   1.507
 1929SOL    HW1 6686   0.585   6.393   1.454
 1929SOL    HW2 6687   0.461   6.471   1.526
 1930SOL     OW 6688   5.854   4.330   6.223
 1930SOL    HW1 6689   5.778   4.363   6.279
 1930SOL    HW2 6690   5.912   4.408   6.197
 1931SOL     OW 6691   0.477   3.304   4.306
 1931SOL    HW1 6692   0.395   3.358   4.286
 1931SOL    HW2 6693   0.480   3.224   4.246
 1932SOL     OW 6694   5.370   4.013   1.764
 1932SOL    HW1 6695   5.435   3.942   1.792
 1932SOL    HW2 6696   5.307   4.033   1.839
 1933SOL     OW 6697   2.832   4.666   0.753
 1933SOL    HW1 6698   2.846   4.674   0.654
 1933SOL    HW2 6699   2.776   4.586   0.773
 1934SOL     OW 6700   0.740   6.423   6.045
 1934SOL    HW1 6701   0.663   6.466   6.093
 1934SOL    HW2 6702   0.710   6.336   6.005
 1935SOL     OW 6703   2.544   0.431   3.924
 1935SOL    HW1 6704   2.491   0.398   3.845
 1935SOL    HW2 6705   2.606   0.359   3.955
 1936SOL     OW 6706   6.063   6.042   4.709
 1936SOL    HW1 6707   6.013   5.974   4.656
 1936SOL    HW2 6708   6.158   6.012   4.721
 1937SOL     OW 6709   4.040   6.300   2.193
 1937SOL    HW1 6710   4.049   6.386   2.244
 1937SOL    HW2 6711   4.111   6.295   2.123
 1938SOL     OW 6712   3.914   1.228   3.787
 1938SOL    HW1 6713   3.829   1.195   3.747
 1938SOL    HW2 6714   3.991   1.192   3.736
 1939SOL     OW 6715   1.612   1.368   3.654
 1939SOL    HW1 6716   1.678   1.443   3.653
 1939SOL    HW2 6717   1.526   1.399   3.613
 1940SOL     OW 6718   6.464   5.252   0.059
 1940SOL    HW1 6719   6.435   5.280   0.150
 1940SOL    HW2 6720   6.541   5.189   0.066
 1941SOL     OW 6721   5.509   3.569   2.167
 1941SOL    HW1 6722   5.462   3.587   2.080
 1941SOL    HW2 6723   5.594   3.622   2.170
 1942SOL     OW 6724   6.369   5.067   2.299
 1942SOL    HW1 6725   6.397   5.040   2.391
 1942SOL    HW2 6726   6.450   5.088   2.244
 1943SOL     OW 6727   2.314   4.482   3.707
 1943SOL    HW1 6728   2.361   4.452   3.625
 1943SOL    HW2 6729   2.379   4.489   3.783
 1944SOL     OW 6730   6.144   0.850   6.860
 1944SOL    HW1 6731   6.140   0.832   6.958
 1944SOL    HW2 6732   6.195   0.935   6.844
 1945SOL     OW 6733   4.074   5.378   3.800
 1945SOL    HW1 6734   4.124   5.460   3.827
 1945SOL    HW2 6735   3.979   5.402   3.780
 1946SOL     OW 6736   1.115   0.170   6.856
 1946SOL    HW1 6737   1.140   0.259   6.819
 1946SOL    HW2 6738   1.125   0.171   6.956
 1947SOL     OW 6739   5.243   5.989   3.496
 1947SOL    HW1 6740   5.212   6.084   3.501
 1947SOL    HW2 6741   5.187   5.932   3.557
 1948SOL     OW 6742   6.634   5.887   4.469
 1948SOL    HW1 6743   6.590   5.894   4.559
 1948SOL    HW2 6744   6.568   5.857   4.401
 1949SOL     OW 6745   4.511   4.328   6.324
 1949SOL    HW1 6746   4.598   4.353   6.365
 1949SOL    HW2 6747   4.484   4.399   6.258
 1950SOL     OW 6748   3.223   4.148   6.321
 1950SOL    HW1 6749   3.238   4.156   6.420
 1950SOL    HW2 6750   3.148   4.208   6.294
 1951SOL     OW 6751   5.956   1.564   6.920
 1951SOL    HW1 6752   6.009   1.538   6.839
 1951SOL    HW2 6753   5.980   1.504   6.996
 1952SOL     OW 6754   4.020   2.072   0.528
 1952SOL    HW1 6755   4.069   2.154   0.499
 1952SOL    HW2 6756   3.922   2.086   0.519
 1953SOL     OW 6757   0.083   2.037   6.450
 1953SOL    HW1 6758   0.081   2.041   6.550
 1953SOL    HW2 6759   0.068   1.943   6.420
 1954SOL     OW 6760   4.099   1.993   4.057
 1954SOL    HW1 6761   4.003   2.018   4.046
 1954SOL    HW2 6762   4.107   1.921   4.126
 1955SOL     OW 6763   0.283   6.433   2.191
 1955SOL    HW1 6764   0.191   6.395   2.176
 1955SOL    HW2 6765   0.275   6.532   2.208
 1956SOL     OW 6766   5.572   5.955   2.701
 1956SOL    HW1 6767   5.595   6.034   2.758
 1956SOL    HW2 6768   5.635   5.951   2.623
 1957SOL     OW 6769   0.760   6.165   4.467
 1957SOL    HW1 6770   0.736   6.257   4.498
 1957SOL    HW2 6771   0.686   6.102   4.491
 1958SOL     OW 6772   5.094   3.488   5.292
 1958SOL    HW1 6773   5.169   3.544   5.327
 1958SOL    HW2 6774   5.118   3.455   5.200
 1959SOL     OW 6775   1.501   2.140   6.387
 1959SOL    HW1 6776   1.569   2.205   6.422
 1959SOL    HW2 6777   1.538   2.047   6.391
 1960SOL     OW 6778   5.849   4.980   0.500
 1960SOL    HW1 6779   5.863   5.078   0.516
 1960SOL    HW2 6780   5.885   4.955   0.410
 1961SOL     OW 6781   6.010   4.775   3.954
 1961SOL    HW1 6782   6.054   4.732   4.033
 1961SOL    HW2 6783   6.004   4.710   3.879
 1962SOL     OW 6784   1.355   6.144   3.250
 1962SOL    HW1 6785   1.266   6.107   3.278
 1962SOL    HW2 6786   1.347   6.244   3.239
 1963SOL     OW 6787   0.797   0.542   2.515
 1963SOL    HW1 6788   0.861   0.577   2.584
 1963SOL    HW2 6789   0.734   0.477   2.558
 1964SOL     OW 6790   4.114   2.249   2.070
 1964SOL    HW1 6791   4.089   2.341   2.041
 1964SOL    HW2 6792   4.032   2.198   2.096
 1965SOL     OW 6793   0.806   3.583   2.766
 1965SOL    HW1 6794   0.792   3.514   2.837
 1965SOL    HW2 6795   0.899   3.620   2.773
 1966SOL     OW 6796   0.141   5.530   5.139
 1966SOL    HW1 6797   0.042   5.535   5.152
 1966SOL    HW2 6798   0.186   5.542   5.227
 1967SOL     OW 6799   4.495   2.721   5.526
 1967SOL    HW1 6800   4.506   2.633   5.572
 1967SOL    HW2 6801   4.399   2.731   5.498
 1968SOL     OW 6802   2.678   6.444   0.166
 1968SOL    HW1 6803   2.774   6.427   0.190
 1968SOL    HW2 6804   2.621   6.429   0.247
 1969SOL     OW 6805   7.008   2.571   1.727
 1969SOL    HW1 6806   7.007   2.592   1.630
 1969SOL    HW2 6807   6.930   2.513   1.750
 1970SOL     OW 6808   1.773   0.151   5.330
 1970SOL    HW1 6809   1.725   0.127   5.414
 1970SOL    HW2 6810   1.730   0.230   5.288
 1971SOL     OW 6811   0.309   6.176   6.691
 1971SOL    HW1 6812   0.213   6.182   6.717
 1971SOL    HW2 6813   0.360   6.248   6.739
 1972SOL     OW 6814   0.634   4.466   4.105
 1972SOL    HW1 6815   0.625   4.444   4.202
 1972SOL    HW2 6816   0.691   4.547   4.094
 1973SOL     OW 6817   3.534   2.535   1.469
 1973SOL    HW1 6818   3.609   2.499   1.525
 1973SOL    HW2 6819   3.469   2.583   1.528
 1974SOL     OW 6820   5.313   6.658   4.400
 1974SOL    HW1 6821   5.239   6.723   4.418
 1974SOL    HW2 6822   5.277   6.583   4.345
 1975SOL     OW 6823   2.788   0.577   3.911
 1975SOL    HW1 6824   2.691   0.561   3.929
 1975SOL    HW2 6825   2.822   0.509   3.846
 1976SOL     OW 6826   0.220   5.931   0.295
 1976SOL    HW1 6827   0.239   5.917   0.392
 1976SOL    HW2 6828   0.188   6.025   0.281
 1977SOL     OW 6829   0.929   2.432   4.471
 1977SOL    HW1 6830   0.970   2.399   4.386
 1977SOL    HW2 6831   0.988   2.502   4.510
 1978SOL     OW 6832   0.199   1.149   4.642
 1978SOL    HW1 6833   0.236   1.168   4.733
 1978SOL    HW2 6834   0.253   1.077   4.598
 1979SOL     OW 6835   0.184   4.586   5.137
 1979SOL    HW1 6836   0.226   4.666   5.180
 1979SOL    HW2 6837   0.090   4.576   5.171
 1980SOL     OW 6838   3.516   0.035   1.301
 1980SOL    HW1 6839   3.453   0.041   1.224
 1980SOL    HW2 6840   3.609   0.059   1.270
 1981SOL     OW 6841   5.210   2.800   1.911
 1981SOL    HW1 6842   5.185   2.791   1.814
 1981SOL    HW2 6843   5.307   2.824   1.918
 1982SOL     OW 6844   5.875   5.158   4.874
 1982SOL    HW1 6845   5.864   5.097   4.796
 1982SOL    HW2 6846   5.863   5.107   4.959
 1983SOL     OW 6847   1.432   2.776   3.264
 1983SOL    HW1 6848   1.334   2.771   3.244
 1983SOL    HW2 6849   1.478   2.825   3.190
 1984SOL     OW 6850   4.641   1.552   5.871
 1984SOL    HW1 6851   4.714   1.580   5.809
 1984SOL    HW2 6852   4.561   1.610   5.857
 1985SOL     OW 6853   1.357   1.037   2.088
 1985SOL    HW1 6854   1.402   1.086   2.013
 1985SOL    HW2 6855   1.349   0.940   2.065
 1986SOL     OW 6856   1.324   2.166   6.902
 1986SOL    HW1 6857   1.401   2.123   6.949
 1986SOL    HW2 6858   1.316   2.126   6.810
 1987SOL     OW 6859   2.764   3.193   1.532
 1987SOL    HW1 6860   2.749   3.186   1.631
 1987SOL    HW2 6861   2.845   3.248   1.514
 1988SOL     OW 6862   5.015   3.668   6.716
 1988SOL    HW1 6863   5.040   3.571   6.713
 1988SOL    HW2 6864   5.094   3.721   6.747
 1989SOL     OW 6865   2.138   7.009   4.523
 1989SOL    HW1 6866   2.149   0.077   4.484
 1989SOL    HW2 6867   2.059   7.009   4.585
 1990SOL     OW 6868   2.982   1.151   0.706
 1990SOL    HW1 6869   2.933   1.067   0.682
 1990SOL    HW2 6870   3.058   1.164   0.642
 1991SOL     OW 6871   3.181   5.402   5.045
 1991SOL    HW1 6872   3.207   5.497   5.028
 1991SOL    HW2 6873   3.260   5.343   5.030
 1992SOL     OW 6874   2.354   6.766   5.155
 1992SOL    HW1 6875   2.340   6.852   5.204
 1992SOL    HW2 6876   2.270   6.740   5.109
 1993SOL     OW 6877   3.604   3.996   5.513
 1993SOL    HW1 6878   3.667   4.006   5.591
 1993SOL    HW2 6879   3.647   3.941   5.442
 1994SOL     OW 6880   6.896   2.043   2.120
 1994SOL    HW1 6881   6.958   2.108   2.077
 1994SOL    HW2 6882   6.937   1.953   2.121
 1995SOL     OW 6883   6.251   1.649   1.542
 1995SOL    HW1 6884   6.190   1.583   1.587
 1995SOL    HW2 6885   6.340   1.607   1.528
 1996SOL     OW 6886   3.684   3.705   6.945
 1996SOL    HW1 6887   3.671   3.780   7.010
 1996SOL    HW2 6888   3.605   3.699   6.884
 1997SOL     OW 6889   5.807   1.059   5.351
 1997SOL    HW1 6890   5.778   0.979   5.403
 1997SOL    HW2 6891   5.751   1.068   5.269
 1998SOL     OW 6892   2.861   4.147   6.273
 1998SOL    HW1 6893   2.942   4.151   6.215
 1998SOL    HW2 6894   2.800   4.223   6.250
 1999SOL     OW 6895   2.586   6.946   1.898
 1999SOL    HW1 6896   2.527   0.002   1.885
 1999SOL    HW2 6897   2.621   6.944   1.992
 2000SOL     OW 6898   4.320   1.306   4.949
 2000SOL    HW1 6899   4.402   1.363   4.956
 2000SOL    HW2 6900   4.338   1.216   4.988
 2001SOL     OW 6901   3.007   1.846   1.036
 2001SOL    HW1 6902   2.968   1.770   0.985
 2001SOL    HW2 6903   3.039   1.814   1.126
 2002SOL     OW 6904   2.107   6.181   6.055
 2002SOL    HW1 6905   2.095   6.108   5.989
 2002SOL    HW2 6906   2.019   6.203   6.097
 2003SOL     OW 6907   5.380   0.118   3.321
 2003SOL    HW1 6908   5.468   0.078   3.298
 2003SOL    HW2 6909   5.312   0.091   3.253
 2004SOL     OW 6910   3.629   0.893   5.149
 2004SOL    HW1 6911   3.606   0.985   5.120
 2004SOL    HW2 6912   3.547   0.836   5.149
 2005SOL     OW 6913   2.479   6.291   6.396
 2005SOL    HW1 6914   2.431   6.378   6.385
 2005SOL    HW2 6915   2.428   6.234   6.460
 2006SOL     OW 6916   4.294   4.654   3.934
 2006SOL    HW1 6917   4.379   4.627   3.888
 2006SOL    HW2 6918   4.307   4.651   4.033
 2007SOL     OW 6919   5.012   5.480   0.016
 2007SOL    HW1 6920   5.057   5.463   6.952
 2007SOL    HW2 6921   4.945   5.554   0.005
 2008SOL     OW 6922   6.881   6.382   3.300
 2008SOL    HW1 6923   6.889   6.475   3.336
 2008SOL    HW2 6924   6.810   6.332   3.350
 2009SOL     OW 6925   7.009   0.465   1.763
 2009SOL    HW1 6926   0.071   0.514   1.771
 2009SOL    HW2 6927   6.936   0.530   1.739
 2010SOL     OW 6928   0.974   0.791   0.741
 2010SOL    HW1 6929   1.026   0.706   0.727
 2010SOL    HW2 6930   0.892   0.771   0.794
 2011SOL     OW 6931   6.770   2.466   5.104
 2011SOL    HW1 6932   6.681   2.422   5.098
 2011SOL    HW2 6933   6.842   2.398   5.086
 2012SOL     OW 6934   1.248   4.129   1.900
 2012SOL    HW1 6935   1.242   4.192   1.978
 2012SOL    HW2 6936   1.319   4.160   1.837
 2013SOL     OW 6937   6.024   1.776   2.780
 2013SOL    HW1 6938   5.976   1.847   2.729
 2013SOL    HW2 6939   6.123   1.790   2.773
 2014SOL     OW 6940   1.538   6.068   3.669
 2014SOL    HW1 6941   1.626   6.096   3.631
 2014SOL    HW2 6942   1.546   5.977   3.710
 2015SOL     OW 6943   4.013   0.323   0.113
 2015SOL    HW1 6944   4.030   0.416   0.146
 2015SOL    HW2 6945   3.950   0.277   0.176
 2016SOL     OW 6946   1.002   5.447   3.808
 2016SOL    HW1 6947   1.094   5.478   3.788
 2016SOL    HW2 6948   1.006   5.354   3.846
 2017SOL     OW 6949   2.207   5.936   3.312
 2017SOL    HW1 6950   2.275   5.961   3.243
 2017SOL    HW2 6951   2.181   6.017   3.364
 2018SOL     OW 6952   0.192   5.880   5.376
 2018SOL    HW1 6953   0.098   5.913   5.392
 2018SOL    HW2 6954   0.255   5.958   5.378
 2019SOL     OW 6955   5.644   2.568   0.529
 2019SOL    HW1 6956   5.584   2.636   0.571
 2019SOL    HW2 6957   5.694   2.519   0.601
 2020SOL     OW 6958   2.069   5.225   4.185
 2020SOL    HW1 6959   2.150   5.252   4.236
 2020SOL    HW2 6960   2.076   5.258   4.091
 2021SOL     OW 6961   1.537   1.097   2.533
 2021SOL    HW1 6962   1.487   1.123   2.450
 2021SOL    HW2 6963   1.635   1.116   2.520
 2022SOL     OW 6964   2.431   3.615   1.623
 2022SOL    HW1 6965   2.474   3.533   1.662
 2022SOL    HW2 6966   2.354   3.642   1.681
 2023SOL     OW 6967   6.845   0.821   6.666
 2023SOL    HW1 6968   6.810   0.868   6.585
 2023SOL    HW2 6969   6.793   0.849   6.746
 2024SOL     OW 6970   6.337   0.387   3.702
 2024SOL    HW1 6971   6.246   0.391   3.742
 2024SOL    HW2 6972   6.405   0.412   3.771
 2025SOL     OW 6973   0.852   2.521   1.024
 2025SOL    HW1 6974   0.861   2.429   0.986
 2025SOL    HW2 6975   0.937   2.571   1.011
 2026SOL     OW 6976   2.332   2.568   5.783
 2026SOL    HW1 6977   2.412   2.616   5.821
 2026SOL    HW2 6978   2.360   2.517   5.701
 2027SOL     OW 6979   0.629   1.041   2.128
 2027SOL    HW1 6980   0.632   1.066   2.031
 2027SOL    HW2 6981   0.717   1.001   2.155
 2028SOL     OW 6982   3.769   1.884   0.625
 2028SOL    HW1 6983   3.817   1.942   0.690
 2028SOL    HW2 6984   3.671   1.889   0.641
 2029SOL     OW 6985   1.086   0.980   6.575
 2029SOL    HW1 6986   1.116   0.885   6.584
 2029SOL    HW2 6987   0.995   0.983   6.534
 2030SOL     OW 6988   2.206   1.935   3.612
 2030SOL    HW1 6989   2.153   2.020   3.616
 2030SOL    HW2 6990   2.148   1.862   3.576
 2031SOL     OW 6991   5.417   6.017   2.376
 2031SOL    HW1 6992   5.404   5.945   2.444
 2031SOL    HW2 6993   5.390   6.105   2.415
 2032SOL     OW 6994   4.896   5.958   0.833
 2032SOL    HW1 6995   4.982   6.000   0.802
 2032SOL    HW2 6996   4.828   5.964   0.761
 2033SOL     OW 6997   4.586   4.652   6.476
 2033SOL    HW1 6998   4.631   4.564   6.492
 2033SOL    HW2 6999   4.653   4.717   6.440
 2034SOL     OW 7000   2.057   6.104   2.959
 2034SOL    HW1 7001   2.069   6.010   2.992
 2034SOL    HW2 7002   2.107   6.167   3.019
 2035SOL     OW 7003   0.152   1.377   2.442
 2035SOL    HW1 7004   0.076   1.441   2.429
 2035SOL    HW2 7005   0.238   1.428   2.447
 2036SOL     OW 7006   0.574   5.327   0.788
 2036SOL    HW1 7007   0.593   5.322   0.690
 2036SOL    HW2 7008   0.542   5.238   0.821
 2037SOL     OW 7009   6.965   2.507   5.791
 2037SOL    HW1 7010   6.872   2.540   5.808
 2037SOL    HW2 7011   7.003   2.555   5.712
 2038SOL     OW 7012   0.697   1.765   4.948
 2038SOL    HW1 7013   0.605   1.740   4.977
 2038SOL    HW2 7014   0.699   1.772   4.848
 2039SOL     OW 7015   6.869   6.080   3.857
 2039SOL    HW1 7016   6.900   6.017   3.929
 2039SOL    HW2 7017   6.800   6.034   3.801
 2040SOL     OW 7018   3.765   3.456   4.508
 2040SOL    HW1 7019   3.742   3.475   4.412
 2040SOL    HW2 7020   3.836   3.386   4.512
 2041SOL     OW 7021   5.676   4.387   6.427
 2041SOL    HW1 7022   5.629   4.461   6.378
 2041SOL    HW2 7023   5.745   4.426   6.488
 2042SOL     OW 7024   5.180   4.977   1.209
 2042SOL    HW1 7025   5.176   5.044   1.135
 2042SOL    HW2 7026   5.224   5.018   1.289
 2043SOL     OW 7027   6.307   5.346   2.360
 2043SOL    HW1 7028   6.209   5.368   2.359
 2043SOL    HW2 7029   6.320   5.252   2.331
 2044SOL     OW 7030   5.523   6.936   2.283
 2044SOL    HW1 7031   5.609   6.916   2.331
 2044SOL    HW2 7032   5.498   0.008   2.297
 2045SOL     OW 7033   2.099   4.735   6.162
 2045SOL    HW1 7034   2.007   4.697   6.154
 2045SOL    HW2 7035   2.143   4.736   6.072
 2046SOL     OW 7036   0.084   0.310   4.224
 2046SOL    HW1 7037   0.007   0.355   4.269
 2046SOL    HW2 7038   0.146   0.272   4.292
 2047SOL     OW 7039   4.719   1.895   1.337
 2047SOL    HW1 7040   4.751   1.854   1.422
 2047SOL    HW2 7041   4.797   1.917   1.279
 2048SOL     OW 7042   3.874   0.035   0.260
 2048SOL    HW1 7043   3.960   0.040   0.311
 2048SOL    HW2 7044   3.837   6.966   0.264
 2049SOL     OW 7045   4.818   1.690   6.785
 2049SOL    HW1 7046   4.892   1.625   6.765
 2049SOL    HW2 7047   4.857   1.778   6.809
 2050SOL     OW 7048   5.996   2.603   3.686
 2050SOL    HW1 7049   6.089   2.570   3.670
 2050SOL    HW2 7050   5.957   2.556   3.765
 2051SOL     OW 7051   0.951   4.964   0.098
 2051SOL    HW1 7052   0.856   4.938   0.078
 2051SOL    HW2 7053   0.952   5.040   0.164
 2052SOL     OW 7054   0.540   3.102   6.803
 2052SOL    HW1 7055   0.634   3.126   6.777
 2052SOL    HW2 7056   0.492   3.186   6.831
 2053SOL     OW 7057   6.058   0.201   0.446
 2053SOL    HW1 7058   5.990   0.182   0.517
 2053SOL    HW2 7059   6.145   0.227   0.488
 2054SOL     OW 7060   6.104   2.720   0.879
 2054SOL    HW1 7061   6.163   2.640   0.869
 2054SOL    HW2 7062   6.152   2.790   0.932
 2055SOL     OW 7063   5.498   2.102   3.288
 2055SOL    HW1 7064   5.549   2.041   3.227
 2055SOL    HW2 7065   5.481   2.056   3.375
 2056SOL     OW 7066   2.464   1.499   3.145
 2056SOL    HW1 7067   2.463   1.420   3.207
 2056SOL    HW2 7068   2.519   1.572   3.185
 2057SOL     OW 7069   5.521   2.006   3.880
 2057SOL    HW1 7070   5.598   2.020   3.942
 2057SOL    HW2 7071   5.533   1.920   3.831
 2058SOL     OW 7072   0.421   1.964   3.535
 2058SOL    HW1 7073   0.342   2.010   3.496
 2058SOL    HW2 7074   0.491   2.031   3.559
 2059SOL     OW 7075   2.036   0.478   6.749
 2059SOL    HW1 7076   2.051   0.461   6.651
 2059SOL    HW2 7077   2.040   0.392   6.799
 2060SOL     OW 7078   7.003   4.714   1.675
 2060SOL    HW1 7079   7.014   4.632   1.731
 2060SOL    HW2 7080   0.070   4.752   1.654
 2061SOL     OW 7081   6.571   1.181   2.238
 2061SOL    HW1 7082   6.482   1.207   2.199
 2061SOL    HW2 7083   6.589   1.085   2.218
 2062SOL     OW 7084   4.508   0.069   2.446
 2062SOL    HW1 7085   4.539   0.157   2.411
 2062SOL    HW2 7086   4.408   0.072   2.459
 2063SOL     OW 7087   1.570   1.817   5.899
 2063SOL    HW1 7088   1.484   1.868   5.906
 2063SOL    HW2 7089   1.620   1.847   5.817
 2064SOL     OW 7090   0.954   2.317   5.674
 2064SOL    HW1 7091   0.951   2.224   5.711
 2064SOL    HW2 7092   1.019   2.372   5.727
 2065SOL     OW 7093   5.771   3.157   2.103
 2065SOL    HW1 7094   5.763   3.060   2.079
 2065SOL    HW2 7095   5.863   3.176   2.136
 2066SOL     OW 7096   0.697   5.732   4.091
 2066SOL    HW1 7097   0.768   5.743   4.021
 2066SOL    HW2 7098   0.657   5.821   4.111
 2067SOL     OW 7099   6.736   6.658   0.630
 2067SOL    HW1 7100   6.754   6.744   0.582
 2067SOL    HW2 7101   6.661   6.610   0.585
 2068SOL     OW 7102   2.427   1.291   5.464
 2068SOL    HW1 7103   2.458   1.250   5.378
 2068SOL    HW2 7104   2.434   1.224   5.537
 2069SOL     OW 7105   0.814   2.738   2.463
 2069SOL    HW1 7106   0.820   2.696   2.372
 2069SOL    HW2 7107   0.775   2.672   2.527
 2070SOL     OW 7108   1.070   0.192   2.352
 2070SOL    HW1 7109   1.150   0.209   2.295
 2070SOL    HW2 7110   0.987   0.217   2.301
 2071SOL     OW 7111   0.934   6.117   3.486
 2071SOL    HW1 7112   0.938   6.066   3.572
 2071SOL    HW2 7113   1.024   6.115   3.442
 2072SOL     OW 7114   4.709   5.823   2.290
 2072SOL    HW1 7115   4.629   5.775   2.326
 2072SOL    HW2 7116   4.758   5.763   2.226
 2073SOL     OW 7117   4.001   0.177   4.653
 2073SOL    HW1 7118   3.946   0.137   4.580
 2073SOL    HW2 7119   3.941   0.215   4.723
 2074SOL     OW 7120   0.116   2.097   0.031
 2074SOL    HW1 7121   0.152   2.008   0.001
 2074SOL    HW2 7122   0.023   2.109   7.020
 2075SOL     OW 7123   4.617   3.123   1.185
 2075SOL    HW1 7124   4.662   3.102   1.272
 2075SOL    HW2 7125   4.626   3.045   1.123
 2076SOL     OW 7126   5.829   6.004   0.053
 2076SOL    HW1 7127   5.899   5.952   0.003
 2076SOL    HW2 7128   5.806   5.956   0.137
 2077SOL     OW 7129   5.203   2.175   2.089
 2077SOL    HW1 7130   5.203   2.170   2.189
 2077SOL    HW2 7131   5.291   2.143   2.054
 2078SOL     OW 7132   2.986   5.809   6.189
 2078SOL    HW1 7133   3.029   5.809   6.279
 2078SOL    HW2 7134   2.959   5.902   6.165
 2079SOL     OW 7135   5.438   0.821   3.694
 2079SOL    HW1 7136   5.458   0.734   3.650
 2079SOL    HW2 7137   5.340   0.840   3.688
 2080SOL     OW 7138   2.486   2.053   5.099
 2080SOL    HW1 7139   2.560   2.041   5.032
 2080SOL    HW2 7140   2.419   2.118   5.064
 2081SOL     OW 7141   1.126   6.308   5.902
 2081SOL    HW1 7142   1.192   6.349   5.839
 2081SOL    HW2 7143   1.061   6.378   5.932
 2082SOL     OW 7144   5.623   0.671   1.686
 2082SOL    HW1 7145   5.717   0.656   1.655
 2082SOL    HW2 7146   5.559   0.649   1.612
 2083SOL     OW 7147   4.153   5.586   0.027
 2083SOL    HW1 7148   4.075   5.531   0.057
 2083SOL    HW2 7149   4.232   5.567   0.085
 2084SOL     OW 7150   6.830   2.135   2.950
 2084SOL    HW1 7151   6.842   2.221   2.900
 2084SOL    HW2 7152   6.897   2.068   2.918
 2085SOL     OW 7153   5.079   0.989   6.507
 2085SOL    HW1 7154   5.151   1.004   6.440
 2085SOL    HW2 7155   5.056   0.892   6.510
 2086SOL     OW 7156   3.112   4.776   6.413
 2086SOL    HW1 7157   3.181   4.732   6.356
 2086SOL    HW2 7158   3.027   4.723   6.409
 2087SOL     OW 7159   4.848   6.342   2.390
 2087SOL    HW1 7160   4.835   6.266   2.327
 2087SOL    HW2 7161   4.804   6.424   2.353
 2088SOL     OW 7162   2.926   6.410   0.690
 2088SOL    HW1 7163   2.828   6.414   0.671
 2088SOL    HW2 7164   2.949   6.322   0.731
 2089SOL     OW 7165   4.925   1.666   0.147
 2089SOL    HW1 7166   4.942   1.580   0.100
 2089SOL    HW2 7167   5.011   1.714   0.162
 2090SOL     OW 7168   3.973   3.832   4.307
 2090SOL    HW1 7169   4.019   3.856   4.392
 2090SOL    HW2 7170   4.020   3.756   4.263
 2091SOL     OW 7171   0.516   5.736   0.407
 2091SOL    HW1 7172   0.519   5.806   0.478
 2091SOL    HW2 7173   0.525   5.779   0.317
 2092SOL     OW 7174   5.290   5.957   0.481
 2092SOL    HW1 7175   5.350   5.972   0.560
 2092SOL    HW2 7176   5.338   5.902   0.413
 2093SOL     OW 7177   1.573   2.084   2.219
 2093SOL    HW1 7178   1.637   2.158   2.201
 2093SOL    HW2 7179   1.483   2.121   2.240
 2094SOL     OW 7180   5.708   0.609   2.038
 2094SOL    HW1 7181   5.687   0.533   1.977
 2094SOL    HW2 7182   5.669   0.693   2.002
 2095SOL     OW 7183   5.083   6.668   3.468
 2095SOL    HW1 7184   5.175   6.644   3.440
 2095SOL    HW2 7185   5.086   6.743   3.534
 2096SOL     OW 7186   4.797   3.849   3.032
 2096SOL    HW1 7187   4.807   3.752   3.053
 2096SOL    HW2 7188   4.832   3.904   3.108
 2097SOL     OW 7189   0.524   2.793   6.297
 2097SOL    HW1 7190   0.486   2.778   6.389
 2097SOL    HW2 7191   0.543   2.704   6.255
 2098SOL     OW 7192   4.151   6.554   4.261
 2098SOL    HW1 7193   4.196   6.608   4.332
 2098SOL    HW2 7194   4.209   6.476   4.236
 2099SOL     OW 7195   2.927   0.829   4.622
 2099SOL    HW1 7196   2.846   0.771   4.612
 2099SOL    HW2 7197   2.986   0.793   4.695
 2100SOL     OW 7198   3.618   3.603   6.503
 2100SOL    HW1 7199   3.695   3.602   6.439
 2100SOL    HW2 7200   3.567   3.517   6.496
 2101SOL     OW 7201   0.629   6.827   2.493
 2101SOL    HW1 7202   0.694   6.858   2.562
 2101SOL    HW2 7203   0.565   6.900   2.473
 2102SOL     OW 7204   0.415   5.456   2.526
 2102SOL    HW1 7205   0.386   5.417   2.438
 2102SOL    HW2 7206   0.342   5.444   2.593
 2103SOL     OW 7207   2.779   3.982   0.111
 2103SOL    HW1 7208   2.865   3.974   0.060
 2103SOL    HW2 7209   2.743   3.890   0.128
 2104SOL     OW 7210   1.666   3.638   6.427
 2104SOL    HW1 7211   1.710   3.600   6.345
 2104SOL    HW2 7212   1.700   3.590   6.508
 2105SOL     OW 7213   5.702   5.134   2.749
 2105SOL    HW1 7214   5.729   5.041   2.724
 2105SOL    HW2 7215   5.628   5.164   2.689
 2106SOL     OW 7216   3.987   5.058   6.796
 2106SOL    HW1 7217   4.080   5.033   6.824
 2106SOL    HW2 7218   3.927   5.057   6.876
 2107SOL     OW 7219   4.055   3.555   5.910
 2107SOL    HW1 7220   3.966   3.588   5.881
 2107SOL    HW2 7221   4.089   3.488   5.844
 2108SOL     OW 7222   6.236   5.569   5.520
 2108SOL    HW1 7223   6.172   5.602   5.589
 2108SOL    HW2 7224   6.225   5.471   5.508
 2109SOL     OW 7225   4.948   6.581   3.249
 2109SOL    HW1 7226   5.006   6.611   3.325
 2109SOL    HW2 7227   4.884   6.654   3.226
 2110SOL     OW 7228   2.814   4.290   6.793
 2110SOL    HW1 7229   2.851   4.371   6.838
 2110SOL    HW2 7230   2.742   4.316   6.729
 2111SOL     OW 7231   0.833   2.365   5.985
 2111SOL    HW1 7232   0.930   2.342   5.980
 2111SOL    HW2 7233   0.799   2.346   6.077
 2112SOL     OW 7234   4.504   2.259   1.647
 2112SOL    HW1 7235   4.516   2.209   1.733
 2112SOL    HW2 7236   4.429   2.218   1.595
 2113SOL     OW 7237   1.681   0.139   3.297
 2113SOL    HW1 7238   1.773   0.101   3.290
 2113SOL    HW2 7239   1.659   0.158   3.392
 2114SOL     OW 7240   1.404   3.639   0.585
 2114SOL    HW1 7241   1.332   3.581   0.622
 2114SOL    HW2 7242   1.449   3.688   0.659
 2115SOL     OW 7243   2.132   4.274   3.453
 2115SOL    HW1 7244   2.213   4.301   3.400
 2115SOL    HW2 7245   2.051   4.317   3.413
 2116SOL     OW 7246   6.338   4.205   2.897
 2116SOL    HW1 7247   6.349   4.304   2.897
 2116SOL    HW2 7248   6.261   4.180   2.956
 2117SOL     OW 7249   0.031   4.979   1.904
 2117SOL    HW1 7250   0.122   4.999   1.868
 2117SOL    HW2 7251   6.989   5.047   1.872
 2118SOL     OW 7252   0.419   3.486   2.491
 2118SOL    HW1 7253   0.407   3.445   2.582
 2118SOL    HW2 7254   0.487   3.559   2.497
 2119SOL     OW 7255   2.272   5.842   1.300
 2119SOL    HW1 7256   2.311   5.763   1.253
 2119SOL    HW2 7257   2.209   5.811   1.371
 2120SOL     OW 7258   6.459   5.024   2.566
 2120SOL    HW1 7259   6.376   5.073   2.594
 2120SOL    HW2 7260   6.452   4.928   2.592
 2121SOL     OW 7261   0.796   5.286   5.269
 2121SOL    HW1 7262   0.858   5.207   5.260
 2121SOL    HW2 7263   0.772   5.319   5.178
 2122SOL     OW 7264   6.208   4.577   5.339
 2122SOL    HW1 7265   6.190   4.636   5.260
 2122SOL    HW2 7266   6.128   4.576   5.399
 2123SOL     OW 7267   0.441   4.265   3.020
 2123SOL    HW1 7268   0.501   4.188   3.038
 2123SOL    HW2 7269   0.368   4.237   2.959
 2124SOL     OW 7270   2.040   1.671   1.098
 2124SOL    HW1 7271   2.080   1.755   1.061
 2124SOL    HW2 7272   2.061   1.594   1.039
 2125SOL     OW 7273   1.326   1.101   0.277
 2125SOL    HW1 7274   1.306   1.003   0.284
 2125SOL    HW2 7275   1.424   1.115   0.282
 2126SOL     OW 7276   2.411   1.048   0.248
 2126SOL    HW1 7277   2.478   0.988   0.203
 2126SOL    HW2 7278   2.339   0.992   0.289
 2127SOL     OW 7279   6.133   2.647   4.308
 2127SOL    HW1 7280   6.050   2.704   4.308
 2127SOL    HW2 7281   6.188   2.670   4.389
 2128SOL     OW 7282   0.227   4.554   4.869
 2128SOL    HW1 7283   0.300   4.492   4.841
 2128SOL    HW2 7284   0.207   4.541   4.966
 2129SOL     OW 7285   4.886   2.768   5.667
 2129SOL    HW1 7286   4.817   2.713   5.714
 2129SOL    HW2 7287   4.916   2.721   5.584
 2130SOL     OW 7288   4.632   6.834   2.407
 2130SOL    HW1 7289   4.711   6.895   2.419
 2130SOL    HW2 7290   4.549   6.881   2.439
 2131SOL     OW 7291   0.208   1.172   0.644
 2131SOL    HW1 7292   0.155   1.135   0.720
 2131SOL    HW2 7293   0.179   1.129   0.559
 2132SOL     OW 7294   3.768   3.146   0.482
 2132SOL    HW1 7295   3.679   3.191   0.474
 2132SOL    HW2 7296   3.837   3.215   0.504
 2133SOL     OW 7297   2.783   2.494   5.562
 2133SOL    HW1 7298   2.879   2.468   5.549
 2133SOL    HW2 7299   2.750   2.544   5.482
 2134SOL     OW 7300   6.769   2.130   1.013
 2134SOL    HW1 7301   6.784   2.036   1.044
 2134SOL    HW2 7302   6.671   2.150   1.016
 2135SOL     OW 7303   0.030   4.441   4.611
 2135SOL    HW1 7304   6.997   4.359   4.615
 2135SOL    HW2 7305   0.126   4.415   4.626
 2136SOL     OW 7306   2.988   5.388   1.782
 2136SOL    HW1 7307   2.903   5.441   1.779
 2136SOL    HW2 7308   2.973   5.299   1.739
 2137SOL     OW 7309   3.184   5.348   4.697
 2137SOL    HW1 7310   3.248   5.314   4.766
 2137SOL    HW2 7311   3.235   5.380   4.618
 2138SOL     OW 7312   6.141   0.829   3.312
 2138SOL    HW1 7313   6.200   0.907   3.292
 2138SOL    HW2 7314   6.154   0.801   3.407
 2139SOL     OW 7315   3.386   0.635   4.918
 2139SOL    HW1 7316   3.348   0.717   4.960
 2139SOL    HW2 7317   3.431   0.659   4.832
 2140SOL     OW 7318   3.538   0.407   4.984
 2140SOL    HW1 7319   3.507   0.379   5.075
 2140SOL    HW2 7320   3.475   0.475   4.946
 2141SOL     OW 7321   6.349   4.038   2.499
 2141SOL    HW1 7322   6.267   4.030   2.555
 2141SOL    HW2 7323   6.371   4.134   2.484
 2142SOL     OW 7324   1.474   2.663   3.797
 2142SOL    HW1 7325   1.503   2.727   3.725
 2142SOL    HW2 7326   1.386   2.623   3.771
 2143SOL     OW 7327   1.996   5.971   1.059
 2143SOL    HW1 7328   2.038   5.888   1.022
 2143SOL    HW2 7329   2.034   6.051   1.014
 2144SOL     OW 7330   0.608   5.073   4.626
 2144SOL    HW1 7331   0.650   5.149   4.577
 2144SOL    HW2 7332   0.524   5.046   4.580
 2145SOL     OW 7333   3.799   6.901   4.324
 2145SOL    HW1 7334   3.704   6.932   4.330
 2145SOL    HW2 7335   3.815   6.862   4.233
 2146SOL     OW 7336   1.835   2.086   0.340
 2146SOL    HW1 7337   1.912   2.133   0.383
 2146SOL    HW2 7338   1.811   2.005   0.394
 2147SOL     OW 7339   6.517   2.066   5.970
 2147SOL    HW1 7340   6.425   2.103   5.982
 2147SOL    HW2 7341   6.515   1.995   5.900
 2148SOL     OW 7342   0.214   2.874   6.535
 2148SOL    HW1 7343   0.220   2.843   6.630
 2148SOL    HW2 7344   0.178   2.967   6.533
 2149SOL     OW 7345   1.207   0.953   0.743
 2149SOL    HW1 7346   1.110   0.931   0.747
 2149SOL    HW2 7347   1.228   1.024   0.810
 2150SOL     OW 7348   2.759   2.721   1.546
 2150SOL    HW1 7349   2.740   2.643   1.604
 2150SOL    HW2 7350   2.717   2.803   1.585
 2151SOL     OW 7351   0.698   6.450   6.751
 2151SOL    HW1 7352   0.735   6.516   6.686
 2151SOL    HW2 7353   0.773   6.398   6.792
 2152SOL     OW 7354   3.700   5.723   1.881
 2152SOL    HW1 7355   3.704   5.729   1.981
 2152SOL    HW2 7356   3.723   5.812   1.842
 2153SOL     OW 7357   4.515   0.970   2.698
 2153SOL    HW1 7358   4.604   0.928   2.682
 2153SOL    HW2 7359   4.513   1.061   2.659
 2154SOL     OW 7360   2.502   6.820   3.113
 2154SOL    HW1 7361   2.587   6.783   3.075
 2154SOL    HW2 7362   2.439   6.842   3.038
 2155SOL     OW 7363   4.144   6.976   0.995
 2155SOL    HW1 7364   4.083   7.024   1.059
 2155SOL    HW2 7365   4.210   6.921   1.047
 2156SOL     OW 7366   6.406   0.812   3.881
 2156SOL    HW1 7367   6.318   0.767   3.892
 2156SOL    HW2 7368   6.453   0.815   3.969
 2157SOL     OW 7369   4.285   5.895   4.141
 2157SOL    HW1 7370   4.255   5.970   4.083
 2157SOL    HW2 7371   4.206   5.839   4.167
 2158SOL     OW 7372   4.205   6.804   0.777
 2158SOL    HW1 7373   4.228   6.819   0.681
 2158SOL    HW2 7374   4.169   6.890   0.815
 2159SOL     OW 7375   1.674   0.676   5.184
 2159SOL    HW1 7376   1.718   0.759   5.149
 2159SOL    HW2 7377   1.651   0.690   5.281
 2160SOL     OW 7378   4.929   5.382   0.268
 2160SOL    HW1 7379   4.982   5.300   0.291
 2160SOL    HW2 7380   4.957   5.415   0.178
 2161SOL     OW 7381   0.386   3.929   2.478
 2161SOL    HW1 7382   0.442   3.933   2.395
 2161SOL    HW2 7383   0.444   3.947   2.558
 2162SOL     OW 7384   2.567   0.051   3.167
 2162SOL    HW1 7385   2.561   6.977   3.147
 2162SOL    HW2 7386   2.656   0.086   3.139
 2163SOL     OW 7387   1.995   3.266   0.340
 2163SOL    HW1 7388   1.983   3.307   0.250
 2163SOL    HW2 7389   1.949   3.322   0.409
 2164SOL     OW 7390   2.390   2.504   0.084
 2164SOL    HW1 7391   2.473   2.497   0.139
 2164SOL    HW2 7392   2.315   2.537   0.141
 2165SOL     OW 7393   0.732   1.650   4.604
 2165SOL    HW1 7394   0.670   1.725   4.624
 2165SOL    HW2 7395   0.789   1.674   4.526
 2166SOL     OW 7396   0.532   4.184   4.452
 2166SOL    HW1 7397   0.518   4.269   4.400
 2166SOL    HW2 7398   0.457   4.121   4.431
 2167SOL     OW 7399   1.347   2.515   3.600
 2167SOL    HW1 7400   1.264   2.503   3.546
 2167SOL    HW2 7401   1.384   2.607   3.585
 2168SOL     OW 7402   1.092   2.190   3.083
 2168SOL    HW1 7403   1.038   2.186   2.999
 2168SOL    HW2 7404   1.060   2.265   3.140
 2169SOL     OW 7405   0.446   0.778   0.915
 2169SOL    HW1 7406   0.439   0.760   0.817
 2169SOL    HW2 7407   0.488   0.699   0.960
 2170SOL     OW 7408   0.463   4.454   5.119
 2170SOL    HW1 7409   0.382   4.493   5.076
 2170SOL    HW2 7410   0.526   4.420   5.048
 2171SOL     OW 7411   0.501   5.601   1.460
 2171SOL    HW1 7412   0.482   5.680   1.518
 2171SOL    HW2 7413   0.449   5.608   1.375
 2172SOL     OW 7414   0.820   1.950   5.133
 2172SOL    HW1 7415   0.918   1.946   5.151
 2172SOL    HW2 7416   0.792   1.869   5.081
 2173SOL     OW 7417   5.863   0.021   5.392
 2173SOL    HW1 7418   5.846   0.119   5.378
 2173SOL    HW2 7419   5.864   0.002   5.490
 2174SOL     OW 7420   0.611   6.307   5.204
 2174SOL    HW1 7421   0.518   6.339   5.217
 2174SOL    HW2 7422   0.625   6.222   5.254
 2175SOL     OW 7423   1.925   3.224   5.199
 2175SOL    HW1 7424   1.925   3.131   5.162
 2175SOL    HW2 7425   2.001   3.276   5.162
 2176SOL     OW 7426   4.870   2.225   1.346
 2176SOL    HW1 7427   4.932   2.294   1.384
 2176SOL    HW2 7428   4.795   2.271   1.299
 2177SOL     OW 7429   6.559   0.462   2.888
 2177SOL    HW1 7430   6.468   0.425   2.906
 2177SOL    HW2 7431   6.625   0.386   2.881
 2178SOL     OW 7432   1.282   1.217   1.689
 2178SOL    HW1 7433   1.371   1.187   1.722
 2178SOL    HW2 7434   1.285   1.225   1.589
 2179SOL     OW 7435   2.021   4.189   6.589
 2179SOL    HW1 7436   1.936   4.238   6.570
 2179SOL    HW2 7437   2.023   4.162   6.685
 2180SOL     OW 7438   1.809   3.590   2.081
 2180SOL    HW1 7439   1.907   3.594   2.103
 2180SOL    HW2 7440   1.796   3.610   1.984
 2181SOL     OW 7441   4.824   4.820   4.583
 2181SOL    HW1 7442   4.776   4.907   4.590
 2181SOL    HW2 7443   4.787   4.756   4.651
 2182SOL     OW 7444   0.783   4.868   3.459
 2182SOL    HW1 7445   0.817   4.845   3.367
 2182SOL    HW2 7446   0.690   4.904   3.453
 2183SOL     OW 7447   2.840   3.771   0.390
 2183SOL    HW1 7448   2.887   3.750   0.304
 2183SOL    HW2 7449   2.792   3.689   0.423
 2184SOL     OW 7450   5.219   0.284   0.147
 2184SOL    HW1 7451   5.276   0.256   0.069
 2184SOL    HW2 7452   5.139   0.223   0.153
 2185SOL     OW 7453   0.857   1.037   6.440
 2185SOL    HW1 7454   0.826   1.122   6.483
 2185SOL    HW2 7455   0.784   0.969   6.446
 2186SOL     OW 7456   6.051   5.261   5.223
 2186SOL    HW1 7457   6.017   5.350   5.254
 2186SOL    HW2 7458   6.146   5.250   5.253
 2187SOL     OW 7459   0.196   5.381   2.744
 2187SOL    HW1 7460   0.242   5.410   2.827
 2187SOL    HW2 7461   0.211   5.283   2.730
 2188SOL     OW 7462   2.409   5.008   6.315
 2188SOL    HW1 7463   2.440   5.088   6.367
 2188SOL    HW2 7464   2.413   4.927   6.373
 2189SOL     OW 7465   2.532   1.233   2.435
 2189SOL    HW1 7466   2.522   1.309   2.500
 2189SOL    HW2 7467   2.443   1.191   2.418
 2190SOL     OW 7468   6.933   3.265   2.258
 2190SOL    HW1 7469   6.888   3.257   2.169
 2190SOL    HW2 7470   6.925   3.359   2.292
 2191SOL     OW 7471   2.710   1.518   5.178
 2191SOL    HW1 7472   2.745   1.474   5.261
 2191SOL    HW2 7473   2.786   1.562   5.129
 2192SOL     OW 7474   5.773   6.921   2.434
 2192SOL    HW1 7475   5.819   7.000   2.395
 2192SOL    HW2 7476   5.730   6.947   2.521
 2193SOL     OW 7477   6.125   6.609   6.300
 2193SOL    HW1 7478   6.109   6.537   6.233
 2193SOL    HW2 7479   6.064   6.686   6.282
 2194SOL     OW 7480   0.711   4.085   5.305
 2194SOL    HW1 7481   0.777   4.142   5.354
 2194SOL    HW2 7482   0.759   4.016   5.252
 2195SOL     OW 7483   6.902   5.925   5.125
 2195SOL    HW1 7484   7.000   5.932   5.106
 2195SOL    HW2 7485   6.883   5.839   5.173
 2196SOL     OW 7486   3.176   6.549   4.873
 2196SOL    HW1 7487   3.190   6.502   4.960
 2196SOL    HW2 7488   3.189   6.647   4.886
 2197SOL     OW 7489   2.618   3.054   5.904
 2197SOL    HW1 7490   2.655   3.145   5.884
 2197SOL    HW2 7491   2.587   3.011   5.820
 2198SOL     OW 7492   6.433   6.899   0.762
 2198SOL    HW1 7493   6.397   6.833   0.697
 2198SOL    HW2 7494   6.528   6.876   0.783
 2199SOL     OW 7495   4.994   0.168   4.817
 2199SOL    HW1 7496   4.981   0.075   4.781
 2199SOL    HW2 7497   4.951   0.174   4.907
 2200SOL     OW 7498   3.260   1.290   3.741
 2200SOL    HW1 7499   3.263   1.356   3.666
 2200SOL    HW2 7500   3.347   1.291   3.790
 2201SOL     OW 7501   6.362   3.011   3.179
 2201SOL    HW1 7502   6.354   2.949   3.101
 2201SOL    HW2 7503   6.335   2.963   3.262
 2202SOL     OW 7504   2.956   5.785   2.816
 2202SOL    HW1 7505   3.011   5.765   2.735
 2202SOL    HW2 7506   2.883   5.849   2.792
 2203SOL     OW 7507   2.714   3.807   1.297
 2203SOL    HW1 7508   2.649   3.740   1.260
 2203SOL    HW2 7509   2.736   3.874   1.226
 2204SOL     OW 7510   4.240   2.525   1.275
 2204SOL    HW1 7511   4.271   2.540   1.369
 2204SOL    HW2 7512   4.164   2.587   1.255
 2205SOL     OW 7513   1.660   6.810   0.308
 2205SOL    HW1 7514   1.696   6.842   0.395
 2205SOL    HW2 7515   1.735   6.797   0.243
 2206SOL     OW 7516   2.320   4.550   6.305
 2206SOL    HW1 7517   2.223   4.576   6.299
 2206SOL    HW2 7518   2.332   4.486   6.381
 2207SOL     OW 7519   3.263   5.537   0.384
 2207SOL    HW1 7520   3.198   5.602   0.345
 2207SOL    HW2 7521   3.218   5.449   0.399
 2208SOL     OW 7522   0.981   5.663   3.547
 2208SOL    HW1 7523   1.023   5.628   3.464
 2208SOL    HW2 7524   0.992   5.597   3.621
 2209SOL     OW 7525   2.446   5.788   5.064
 2209SOL    HW1 7526   2.422   5.812   4.970
 2209SOL    HW2 7527   2.456   5.872   5.118
 2210SOL     OW 7528   6.378   5.681   2.823
 2210SOL    HW1 7529   6.363   5.778   2.846
 2210SOL    HW2 7530   6.416   5.634   2.903
 2211SOL     OW 7531   6.111   0.928   0.562
 2211SOL    HW1 7532   6.041   0.966   0.623
 2211SOL    HW2 7533   6.071   0.907   0.473
 2212SOL     OW 7534   1.876   5.664   6.818
 2212SOL    HW1 7535   1.924   5.635   6.736
 2212SOL    HW2 7536   1.895   5.761   6.836
 2213SOL     OW 7537   4.585   2.546   5.203
 2213SOL    HW1 7538   4.570   2.626   5.260
 2213SOL    HW2 7539   4.560   2.567   5.108
 2214SOL     OW 7540   3.453   2.927   5.299
 2214SOL    HW1 7541   3.370   2.881   5.331
 2214SOL    HW2 7542   3.439   3.026   5.303
 2215SOL     OW 7543   5.516   1.542   6.333
 2215SOL    HW1 7544   5.611   1.564   6.310
 2215SOL    HW2 7545   5.512   1.499   6.423
 2216SOL     OW 7546   0.516   6.765   6.146
 2216SOL    HW1 7547   0.505   6.830   6.222
 2216SOL    HW2 7548   0.438   6.771   6.085
 2217SOL     OW 7549   4.279   0.645   3.559
 2217SOL    HW1 7550   4.354   0.660   3.495
 2217SOL    HW2 7551   4.292   0.558   3.606
 2218SOL     OW 7552   6.702   5.188   6.647
 2218SOL    HW1 7553   6.724   5.254   6.719
 2218SOL    HW2 7554   6.786   5.141   6.619
 2219SOL     OW 7555   6.212   2.075   1.114
 2219SOL    HW1 7556   6.140   2.135   1.150
 2219SOL    HW2 7557   6.196   1.982   1.145
 2220SOL     OW 7558   2.391   6.013   5.693
 2220SOL    HW1 7559   2.307   6.065   5.679
 2220SOL    HW2 7560   2.462   6.047   5.631
 2221SOL     OW 7561   6.969   1.781   4.598
 2221SOL    HW1 7562   6.993   1.826   4.684
 2221SOL    HW2 7563   6.901   1.835   4.549
 2222SOL     OW 7564   5.997   6.752   0.794
 2222SOL    HW1 7565   5.906   6.777   0.825
 2222SOL    HW2 7566   6.005   6.771   0.696
 2223SOL     OW 7567   6.510   1.696   5.812
 2223SOL    HW1 7568   6.560   1.694   5.898
 2223SOL    HW2 7569   6.521   1.608   5.765
 2224SOL     OW 7570   5.972   3.693   2.040
 2224SOL    HW1 7571   5.990   3.649   1.952
 2224SOL    HW2 7572   6.038   3.768   2.053
 2225SOL     OW 7573   0.294   6.869   3.338
 2225SOL    HW1 7574   0.249   6.849   3.250
 2225SOL    HW2 7575   0.228   6.857   3.412
 2226SOL     OW 7576   3.922   5.588   0.714
 2226SOL    HW1 7577   3.825   5.603   0.734
 2226SOL    HW2 7578   3.951   5.652   0.643
 2227SOL     OW 7579   4.546   2.702   1.573
 2227SOL    HW1 7580   4.582   2.746   1.656
 2227SOL    HW2 7581   4.577   2.607   1.570
 2228SOL     OW 7582   4.843   5.706   0.118
 2228SOL    HW1 7583   4.802   5.795   0.140
 2228SOL    HW2 7584   4.909   5.681   0.189
 2229SOL     OW 7585   3.743   3.691   4.653
 2229SOL    HW1 7586   3.738   3.626   4.577
 2229SOL    HW2 7587   3.750   3.642   4.739
 2230SOL     OW 7588   5.326   5.866   1.641
 2230SOL    HW1 7589   5.416   5.827   1.661
 2230SOL    HW2 7590   5.256   5.809   1.683
 2231SOL     OW 7591   0.671   0.334   6.512
 2231SOL    HW1 7592   0.702   0.298   6.600
 2231SOL    HW2 7593   0.666   0.259   6.446
 2232SOL     OW 7594   0.554   1.179   5.252
 2232SOL    HW1 7595   0.607   1.252   5.208
 2232SOL    HW2 7596   0.575   1.092   5.207
 2233SOL     OW 7597   2.797   3.041   0.850
 2233SOL    HW1 7598   2.893   3.015   0.837
 2233SOL    HW2 7599   2.788   3.140   0.843
 2234SOL     OW 7600   3.925   1.406   0.566
 2234SOL    HW1 7601   3.946   1.369   0.656
 2234SOL    HW2 7602   3.974   1.353   0.496
 2235SOL     OW 7603   2.759   0.218   2.472
 2235SOL    HW1 7604   2.663   0.197   2.454
 2235SOL    HW2 7605   2.766   0.294   2.537
 2236SOL     OW 7606   1.767   3.678   5.763
 2236SOL    HW1 7607   1.807   3.587   5.773
 2236SOL    HW2 7608   1.826   3.734   5.705
 2237SOL     OW 7609   5.927   4.467   4.795
 2237SOL    HW1 7610   6.007   4.506   4.841
 2237SOL    HW2 7611   5.934   4.367   4.796
 2238SOL     OW 7612   4.788   4.784   2.507
 2238SOL    HW1 7613   4.794   4.705   2.568
 2238SOL    HW2 7614   4.870   4.841   2.518
 2239SOL     OW 7615   4.799   5.534   3.958
 2239SOL    HW1 7616   4.760   5.621   3.988
 2239SOL    HW2 7617   4.851   5.548   3.874
 2240SOL     OW 7618   3.676   5.688   2.179
 2240SOL    HW1 7619   3.677   5.601   2.229
 2240SOL    HW2 7620   3.720   5.759   2.234
 2241SOL     OW 7621   6.647   6.749   2.056
 2241SOL    HW1 7622   6.648   6.849   2.059
 2241SOL    HW2 7623   6.673   6.712   2.145
 2242SOL     OW 7624   5.432   3.070   2.780
 2242SOL    HW1 7625   5.522   3.034   2.754
 2242SOL    HW2 7626   5.361   3.017   2.735
 2243SOL     OW 7627   1.886   6.846   0.178
 2243SOL    HW1 7628   1.973   6.841   0.226
 2243SOL    HW2 7629   1.896   6.901   0.095
 2244SOL     OW 7630   2.531   0.509   1.077
 2244SOL    HW1 7631   2.605   0.571   1.054
 2244SOL    HW2 7632   2.473   0.550   1.148
 2245SOL     OW 7633   6.999   1.336   0.943
 2245SOL    HW1 7634   0.039   1.259   0.939
 2245SOL    HW2 7635   0.012   1.405   1.006
 2246SOL     OW 7636   1.780   0.611   3.985
 2246SOL    HW1 7637   1.734   0.577   4.068
 2246SOL    HW2 7638   1.770   0.710   3.981
 2247SOL     OW 7639   3.069   3.294   2.500
 2247SOL    HW1 7640   3.138   3.357   2.462
 2247SOL    HW2 7641   3.111   3.205   2.515
 2248SOL     OW 7642   6.581   4.189   4.356
 2248SOL    HW1 7643   6.487   4.156   4.358
 2248SOL    HW2 7644   6.609   4.214   4.449
 2249SOL     OW 7645   4.572   0.039   3.684
 2249SOL    HW1 7646   4.479   0.057   3.717
 2249SOL    HW2 7647   4.610   0.123   3.644
 2250SOL     OW 7648   3.377   3.764   5.506
 2250SOL    HW1 7649   3.417   3.841   5.556
 2250SOL    HW2 7650   3.378   3.784   5.408
 2251SOL     OW 7651   5.078   0.086   6.163
 2251SOL    HW1 7652   5.102   0.181   6.144
 2251SOL    HW2 7653   5.022   0.049   6.089
 2252SOL     OW 7654   4.866   2.077   2.681
 2252SOL    HW1 7655   4.856   2.035   2.591
 2252SOL    HW2 7656   4.813   2.162   2.685
 2253SOL     OW 7657   0.349   3.946   0.368
 2253SOL    HW1 7658   0.261   3.976   0.332
 2253SOL    HW2 7659   0.345   3.849   0.391
 2254SOL     OW 7660   3.670   3.228   3.756
 2254SOL    HW1 7661   3.770   3.227   3.756
 2254SOL    HW2 7662   3.635   3.135   3.747
 2255SOL     OW 7663   3.125   3.732   5.476
 2255SOL    HW1 7664   3.224   3.736   5.463
 2255SOL    HW2 7665   3.085   3.672   5.407
 2256SOL     OW 7666   4.704   6.711   1.890
 2256SOL    HW1 7667   4.770   6.760   1.947
 2256SOL    HW2 7668   4.686   6.621   1.931
 2257SOL     OW 7669   0.895   0.957   4.972
 2257SOL    HW1 7670   0.807   1.001   4.992
 2257SOL    HW2 7671   0.960   1.026   4.942
 2258SOL     OW 7672   2.116   5.576   4.452
 2258SOL    HW1 7673   2.162   5.657   4.488
 2258SOL    HW2 7674   2.085   5.519   4.528
 2259SOL     OW 7675   5.580   2.996   5.335
 2259SOL    HW1 7676   5.504   3.024   5.394
 2259SOL    HW2 7677   5.622   3.076   5.294
 2260SOL     OW 7678   0.408   3.625   1.364
 2260SOL    HW1 7679   0.364   3.690   1.302
 2260SOL    HW2 7680   0.340   3.589   1.429
 2261SOL     OW 7681   6.741   4.919   0.698
 2261SOL    HW1 7682   6.654   4.948   0.738
 2261SOL    HW2 7683   6.803   4.998   0.692
 2262SOL     OW 7684   5.993   6.791   3.217
 2262SOL    HW1 7685   5.940   6.757   3.139
 2262SOL    HW2 7686   5.933   6.799   3.297
 2263SOL     OW 7687   2.057   6.105   0.560
 2263SOL    HW1 7688   2.144   6.067   0.530
 2263SOL    HW2 7689   2.003   6.035   0.605
 2264SOL     OW 7690   2.876   6.856   6.391
 2264SOL    HW1 7691   2.929   6.836   6.474
 2264SOL    HW2 7692   2.784   6.817   6.400
 2265SOL     OW 7693   1.750   0.757   4.539
 2265SOL    HW1 7694   1.791   0.686   4.483
 2265SOL    HW2 7695   1.807   0.774   4.619
 2266SOL     OW 7696   5.040   2.092   6.411
 2266SOL    HW1 7697   5.124   2.050   6.444
 2266SOL    HW2 7698   4.981   2.022   6.371
 2267SOL     OW 7699   4.819   2.869   5.026
 2267SOL    HW1 7700   4.904   2.862   5.078
 2267SOL    HW2 7701   4.751   2.807   5.066
 2268SOL     OW 7702   6.376   3.865   6.500
 2268SOL    HW1 7703   6.413   3.952   6.533
 2268SOL    HW2 7704   6.335   3.879   6.409
 2269SOL     OW 7705   0.824   3.272   5.316
 2269SOL    HW1 7706   0.852   3.235   5.405
 2269SOL    HW2 7707   0.830   3.200   5.247
 2270SOL     OW 7708   3.890   3.045   6.531
 2270SOL    HW1 7709   3.841   2.958   6.534
 2270SOL    HW2 7710   3.975   3.038   6.584
 2271SOL     OW 7711   5.524   4.421   0.056
 2271SOL    HW1 7712   5.584   4.412   7.001
 2271SOL    HW2 7713   5.533   4.513   0.095
 2272SOL     OW 7714   6.321   1.064   6.818
 2272SOL    HW1 7715   6.404   1.067   6.875
 2272SOL    HW2 7716   6.337   1.114   6.733
 2273SOL     OW 7717   1.223   2.443   1.814
 2273SOL    HW1 7718   1.165   2.426   1.734
 2273SOL    HW2 7719   1.228   2.541   1.831
 2274SOL     OW 7720   0.361   1.708   6.181
 2274SOL    HW1 7721   0.354   1.728   6.083
 2274SOL    HW2 7722   0.402   1.787   6.228
 2275SOL     OW 7723   5.679   6.745   3.139
 2275SOL    HW1 7724   5.744   6.700   3.078
 2275SOL    HW2 7725   5.597   6.770   3.088
 2276SOL     OW 7726   1.677   5.808   1.560
 2276SOL    HW1 7727   1.632   5.826   1.473
 2276SOL    HW2 7728   1.609   5.792   1.631
 2277SOL     OW 7729   3.591   4.100   4.929
 2277SOL    HW1 7730   3.609   4.020   4.872
 2277SOL    HW2 7731   3.496   4.129   4.917
 2278SOL     OW 7732   6.292   2.523   3.622
 2278SOL    HW1 7733   6.284   2.496   3.717
 2278SOL    HW2 7734   6.367   2.590   3.612
 2279SOL     OW 7735   6.246   0.230   5.116
 2279SOL    HW1 7736   6.318   0.250   5.049
 2279SOL    HW2 7737   6.285   0.180   5.193
 2280SOL     OW 7738   6.558   0.008   4.530
 2280SOL    HW1 7739   6.631   6.964   4.532
 2280SOL    HW2 7740   6.535   0.030   4.436
 2281SOL     OW 7741   3.121   0.694   1.621
 2281SOL    HW1 7742   3.119   0.650   1.711
 2281SOL    HW2 7743   3.030   0.730   1.599
 2282SOL     OW 7744   5.702   6.079   5.740
 2282SOL    HW1 7745   5.646   6.000   5.713
 2282SOL    HW2 7746   5.643   6.158   5.753
 2283SOL     OW 7747   1.725   0.625   2.031
 2283SOL    HW1 7748   1.652   0.694   2.031
 2283SOL    HW2 7749   1.730   0.582   1.941
 2284SOL     OW 7750   1.153   3.587   6.325
 2284SOL    HW1 7751   1.186   3.579   6.231
 2284SOL    HW2 7752   1.226   3.560   6.388
 2285SOL     OW 7753   1.208   3.352   0.049
 2285SOL    HW1 7754   1.142   3.311   0.112
 2285SOL    HW2 7755   1.279   3.285   0.028
 2286SOL     OW 7756   5.247   0.469   3.340
 2286SOL    HW1 7757   5.330   0.471   3.284
 2286SOL    HW2 7758   5.194   0.387   3.319
 2287SOL     OW 7759   2.405   1.059   3.729
 2287SOL    HW1 7760   2.470   1.116   3.779
 2287SOL    HW2 7761   2.413   0.964   3.761
 2288SOL     OW 7762   7.003   5.055   3.966
 2288SOL    HW1 7763   6.912   5.020   3.990
 2288SOL    HW2 7764   6.996   5.112   3.884
 2289SOL     OW 7765   7.020   5.399   0.661
 2289SOL    HW1 7766   7.017   5.323   0.726
 2289SOL    HW2 7767   0.082   5.449   0.672
 2290SOL     OW 7768   0.366   3.834   1.701
 2290SOL    HW1 7769   0.324   3.744   1.689
 2290SOL    HW2 7770   0.388   3.873   1.611
 2291SOL     OW 7771   2.603   2.340   5.704
 2291SOL    HW1 7772   2.513   2.353   5.664
 2291SOL    HW2 7773   2.667   2.405   5.664
 2292SOL     OW 7774   1.647   1.578   4.427
 2292SOL    HW1 7775   1.574   1.529   4.472
 2292SOL    HW2 7776   1.662   1.666   4.472
 2293SOL     OW 7777   5.271   5.916   2.127
 2293SOL    HW1 7778   5.234   5.970   2.052
 2293SOL    HW2 7779   5.296   5.978   2.202
 2294SOL     OW 7780   3.331   0.471   0.053
 2294SOL    HW1 7781   3.375   0.495   0.139
 2294SOL    HW2 7782   3.231   0.469   0.066
 2295SOL     OW 7783   0.416   1.446   2.478
 2295SOL    HW1 7784   0.477   1.401   2.544
 2295SOL    HW2 7785   0.471   1.483   2.403
 2296SOL     OW 7786   3.121   6.401   0.473
 2296SOL    HW1 7787   3.075   6.410   0.562
 2296SOL    HW2 7788   3.194   6.469   0.467
 2297SOL     OW 7789   3.851   4.437   5.319
 2297SOL    HW1 7790   3.939   4.391   5.320
 2297SOL    HW2 7791   3.789   4.390   5.257
 2298SOL     OW 7792   3.839   2.759   1.527
 2298SOL    HW1 7793   3.788   2.779   1.443
 2298SOL    HW2 7794   3.808   2.671   1.563
 2299SOL     OW 7795   5.510   0.791   6.790
 2299SOL    HW1 7796   5.453   0.868   6.765
 2299SOL    HW2 7797   5.509   0.723   6.716
 2300SOL     OW 7798   2.194   5.160   1.527
 2300SOL    HW1 7799   2.246   5.110   1.597
 2300SOL    HW2 7800   2.215   5.257   1.533
 2301SOL     OW 7801   2.924   3.259   3.236
 2301SOL    HW1 7802   2.919   3.246   3.137
 2301SOL    HW2 7803   2.973   3.182   3.278
 2302SOL     OW 7804   3.408   0.158   2.013
 2302SOL    HW1 7805   3.467   0.208   2.077
 2302SOL    HW2 7806   3.435   0.061   2.013
 2303SOL     OW 7807   1.713   3.215   6.058
 2303SOL    HW1 7808   1.721   3.125   6.101
 2303SOL    HW2 7809   1.800   3.264   6.067
 2304SOL     OW 7810   2.727   0.594   3.181
 2304SOL    HW1 7811   2.644   0.619   3.231
 2304SOL    HW2 7812   2.805   0.595   3.244
 2305SOL     OW 7813   3.520   5.774   3.338
 2305SOL    HW1 7814   3.426   5.776   3.373
 2305SOL    HW2 7815   3.584   5.774   3.415
 2306SOL     OW 7816   1.876   5.709   1.675
 2306SOL    HW1 7817   1.888   5.616   1.639
 2306SOL    HW2 7818   1.798   5.752   1.630
 2307SOL     OW 7819   2.209   4.573   2.656
 2307SOL    HW1 7820   2.264   4.629   2.593
 2307SOL    HW2 7821   2.232   4.477   2.642
 2308SOL     OW 7822   1.391   6.719   6.803
 2308SOL    HW1 7823   1.448   6.747   6.726
 2308SOL    HW2 7824   1.295   6.734   6.781
 2309SOL     OW 7825   2.833   6.890   0.124
 2309SOL    HW1 7826   2.933   6.890   0.120
 2309SOL    HW2 7827   2.803   6.932   0.210
 2310SOL     OW 7828   5.870   6.139   1.755
 2310SOL    HW1 7829   5.920   6.207   1.808
 2310SOL    HW2 7830   5.921   6.053   1.755
 2311SOL     OW 7831   2.963   6.511   2.305
 2311SOL    HW1 7832   2.916   6.434   2.260
 2311SOL    HW2 7833   2.895   6.570   2.349
 2312SOL     OW 7834   3.351   6.755   3.464
 2312SOL    HW1 7835   3.301   6.838   3.488
 2312SOL    HW2 7836   3.369   6.754   3.366
 2313SOL     OW 7837   4.457   5.479   2.321
 2313SOL    HW1 7838   4.479   5.425   2.402
 2313SOL    HW2 7839   4.472   5.576   2.340
 2314SOL     OW 7840   5.846   1.077   4.335
 2314SOL    HW1 7841   5.925   1.019   4.355
 2314SOL    HW2 7842   5.836   1.087   4.236
 2315SOL     OW 7843   5.069   3.547   5.020
 2315SOL    HW1 7844   4.970   3.550   5.033
 2315SOL    HW2 7845   5.099   3.635   4.981
 2316SOL     OW 7846   3.031   1.286   5.405
 2316SOL    HW1 7847   2.939   1.269   5.371
 2316SOL    HW2 7848   3.086   1.328   5.333
 2317SOL     OW 7849   6.722   6.324   3.519
 2317SOL    HW1 7850   6.761   6.381   3.591
 2317SOL    HW2 7851   6.646   6.271   3.556
 2318SOL     OW 7852   2.115   3.549   4.439
 2318SOL    HW1 7853   2.156   3.518   4.353
 2318SOL    HW2 7854   2.101   3.471   4.499
 2319SOL     OW 7855   3.150   5.693   5.225
 2319SOL    HW1 7856   3.248   5.697   5.246
 2319SOL    HW2 7857   3.114   5.604   5.253
 2320SOL     OW 7858   1.310   2.641   4.865
 2320SOL    HW1 7859   1.317   2.642   4.965
 2320SOL    HW2 7860   1.351   2.557   4.829
 2321SOL     OW 7861   2.138   5.506   0.127
 2321SOL    HW1 7862   2.137   5.561   0.043
 2321SOL    HW2 7863   2.227   5.516   0.172
 2322SOL     OW 7864   1.993   4.562   2.865
 2322SOL    HW1 7865   2.039   4.597   2.783
 2322SOL    HW2 7866   1.895   4.560   2.849
 2323SOL     OW 7867   3.481   4.892   1.743
 2323SOL    HW1 7868   3.535   4.821   1.788
 2323SOL    HW2 7869   3.394   4.854   1.712
 2324SOL     OW 7870   6.699   6.208   1.185
 2324SOL    HW1 7871   6.768   6.137   1.178
 2324SOL    HW2 7872   6.742   6.298   1.177
 2325SOL     OW 7873   0.473   4.334   1.254
 2325SOL    HW1 7874   0.428   4.317   1.342
 2325SOL    HW2 7875   0.539   4.409   1.264
 2326SOL     OW 7876   1.797   6.706   6.584
 2326SOL    HW1 7877   1.787   6.751   6.673
 2326SOL    HW2 7878   1.852   6.623   6.594
 2327SOL     OW 7879   0.672   1.584   2.941
 2327SOL    HW1 7880   0.727   1.505   2.915
 2327SOL    HW2 7881   0.732   1.661   2.964
 2328SOL     OW 7882   1.637   1.736   3.065
 2328SOL    HW1 7883   1.557   1.759   3.121
 2328SOL    HW2 7884   1.719   1.770   3.110
 2329SOL     OW 7885   0.727   4.522   5.248
 2329SOL    HW1 7886   0.633   4.490   5.252
 2329SOL    HW2 7887   0.742   4.591   5.319
 2330SOL     OW 7888   0.391   2.731   1.000
 2330SOL    HW1 7889   0.380   2.645   0.952
 2330SOL    HW2 7890   0.452   2.719   1.078
 2331SOL     OW 7891   3.901   5.195   0.215
 2331SOL    HW1 7892   3.986   5.158   0.252
 2331SOL    HW2 7893   3.877   5.147   0.130
 2332SOL     OW 7894   6.952   6.796   5.682
 2332SOL    HW1 7895   6.952   6.848   5.596
 2332SOL    HW2 7896   6.858   6.772   5.707
 2333SOL     OW 7897   0.308   4.531   3.717
 2333SOL    HW1 7898   0.388   4.540   3.658
 2333SOL    HW2 7899   0.337   4.500   3.808
 2334SOL     OW 7900   2.145   1.215   6.619
 2334SOL    HW1 7901   2.210   1.163   6.564
 2334SOL    HW2 7902   2.169   1.312   6.615
 2335SOL     OW 7903   6.000   0.892   3.994
 2335SOL    HW1 7904   5.937   0.943   3.936
 2335SOL    HW2 7905   5.958   0.806   4.022
 2336SOL     OW 7906   3.947   1.513   4.943
 2336SOL    HW1 7907   4.018   1.541   4.879
 2336SOL    HW2 7908   3.982   1.440   5.002
 2337SOL     OW 7909   4.025   0.424   1.199
 2337SOL    HW1 7910   4.027   0.354   1.271
 2337SOL    HW2 7911   4.119   0.441   1.167
 2338SOL     OW 7912   0.373   2.810   4.728
 2338SOL    HW1 7913   0.332   2.829   4.638
 2338SOL    HW2 7914   0.384   2.895   4.779
 2339SOL     OW 7915   3.418   4.118   3.308
 2339SOL    HW1 7916   3.342   4.079   3.255
 2339SOL    HW2 7917   3.499   4.059   3.297
 2340SOL     OW 7918   6.680   4.193   6.456
 2340SOL    HW1 7919   6.750   4.156   6.517
 2340SOL    HW2 7920   6.697   4.290   6.441
 2341SOL     OW 7921   3.113   4.812   2.306
 2341SOL    HW1 7922   3.167   4.775   2.382
 2341SOL    HW2 7923   3.132   4.910   2.297
 2342SOL     OW 7924   0.989   6.528   5.575
 2342SOL    HW1 7925   1.049   6.495   5.502
 2342SOL    HW2 7926   0.902   6.557   5.536
 2343SOL     OW 7927   1.650   5.106   2.746
 2343SOL    HW1 7928   1.622   5.126   2.652
 2343SOL    HW2 7929   1.713   5.029   2.746
 2344SOL     OW 7930   0.702   5.630   6.749
 2344SOL    HW1 7931   0.634   5.686   6.702
 2344SOL    HW2 7932   0.783   5.620   6.691
 2345SOL     OW 7933   2.626   5.550   5.301
 2345SOL    HW1 7934   2.621   5.648   5.316
 2345SOL    HW2 7935   2.560   5.503   5.361
 2346SOL     OW 7936   3.229   3.198   5.382
 2346SOL    HW1 7937   3.184   3.134   5.321
 2346SOL    HW2 7938   3.180   3.286   5.380
 2347SOL     OW 7939   2.824   2.458   1.405
 2347SOL    HW1 7940   2.801   2.471   1.502
 2347SOL    HW2 7941   2.777   2.527   1.350
 2348SOL     OW 7942   2.192   6.211   3.173
 2348SOL    HW1 7943   2.278   6.164   3.193
 2348SOL    HW2 7944   2.196   6.305   3.208
 2349SOL     OW 7945   1.345   4.714   5.999
 2349SOL    HW1 7946   1.308   4.701   5.907
 2349SOL    HW2 7947   1.395   4.801   6.003
 2350SOL     OW 7948   6.210   5.882   6.177
 2350SOL    HW1 7949   6.262   5.796   6.176
 2350SOL    HW2 7950   6.272   5.959   6.190
 2351SOL     OW 7951   2.918   5.226   4.337
 2351SOL    HW1 7952   2.961   5.181   4.414
 2351SOL    HW2 7953   2.889   5.318   4.364
 2352SOL     OW 7954   0.666   4.005   2.343
 2352SOL    HW1 7955   0.594   4.003   2.274
 2352SOL    HW2 7956   0.749   4.043   2.302
 2353SOL     OW 7957   3.486   5.434   4.569
 2353SOL    HW1 7958   3.514   5.426   4.665
 2353SOL    HW2 7959   3.544   5.374   4.513
 2354SOL     OW 7960   2.706   1.781   5.312
 2354SOL    HW1 7961   2.691   1.710   5.243
 2354SOL    HW2 7962   2.713   1.738   5.402
 2355SOL     OW 7963   2.140   6.896   6.067
 2355SOL    HW1 7964   2.221   6.838   6.068
 2355SOL    HW2 7965   2.159   6.980   6.016
 2356SOL     OW 7966   1.361   3.372   6.520
 2356SOL    HW1 7967   1.441   3.386   6.578
 2356SOL    HW2 7968   1.381   3.303   6.451
 2357SOL     OW 7969   4.014   0.053   3.055
 2357SOL    HW1 7970   4.056   0.142   3.039
 2357SOL    HW2 7971   4.014   0.000   2.970
 2358SOL     OW 7972   3.420   5.269   5.180
 2358SOL    HW1 7973   3.393   5.356   5.222
 2358SOL    HW2 7974   3.519   5.267   5.169
 2359SOL     OW 7975   6.895   1.130   4.936
 2359SOL    HW1 7976   6.939   1.219   4.948
 2359SOL    HW2 7977   6.961   1.065   4.897
 2360SOL     OW 7978   5.411   3.499   0.073
 2360SOL    HW1 7979   5.439   3.403   0.081
 2360SOL    HW2 7980   5.324   3.512   0.122
 2361SOL     OW 7981   2.610   0.839   5.781
 2361SOL    HW1 7982   2.683   0.772   5.795
 2361SOL    HW2 7983   2.549   0.808   5.708
 2362SOL     OW 7984   2.099   5.608   3.829
 2362SOL    HW1 7985   2.081   5.625   3.732
 2362SOL    HW2 7986   2.157   5.681   3.865
 2363SOL     OW 7987   4.722   2.096   4.966
 2363SOL    HW1 7988   4.678   2.067   4.881
 2363SOL    HW2 7989   4.813   2.131   4.946
 2364SOL     OW 7990   0.869   2.170   2.525
 2364SOL    HW1 7991   0.888   2.229   2.446
 2364SOL    HW2 7992   0.945   2.106   2.537
 2365SOL     OW 7993   6.428   2.488   6.493
 2365SOL    HW1 7994   6.368   2.510   6.417
 2365SOL    HW2 7995   6.461   2.572   6.536
 2366SOL     OW 7996   2.701   5.396   6.275
 2366SOL    HW1 7997   2.767   5.418   6.202
 2366SOL    HW2 7998   2.614   5.440   6.255
 2367SOL     OW 7999   2.716   3.962   0.785
 2367SOL    HW1 8000   2.633   3.906   0.786
 2367SOL    HW2 8001   2.737   3.991   0.878
 2368SOL     OW 8002   4.287   0.169   4.622
 2368SOL    HW1 8003   4.347   0.089   4.629
 2368SOL    HW2 8004   4.193   0.142   4.642
 2369SOL     OW 8005   2.053   0.928   5.191
 2369SOL    HW1 8006   1.966   0.932   5.239
 2369SOL    HW2 8007   2.099   1.016   5.197
 2370SOL     OW 8008   4.787   3.126   6.829
 2370SOL    HW1 8009   4.818   3.219   6.809
 2370SOL    HW2 8010   4.688   3.121   6.817
 2371SOL     OW 8011   0.899   6.689   1.401
 2371SOL    HW1 8012   0.834   6.718   1.471
 2371SOL    HW2 8013   0.917   6.765   1.339
 2372SOL     OW 8014   0.452   2.838   1.824
 2372SOL    HW1 8015   0.496   2.919   1.861
 2372SOL    HW2 8016   0.492   2.756   1.866
 2373SOL     OW 8017   0.958   2.345   6.397
 2373SOL    HW1 8018   0.944   2.306   6.488
 2373SOL    HW2 8019   1.047   2.390   6.393
 2374SOL     OW 8020   6.052   1.795   3.650
 2374SOL    HW1 8021   6.012   1.876   3.694
 2374SOL    HW2 8022   6.130   1.823   3.594
 2375SOL     OW 8023   3.301   6.314   4.853
 2375SOL    HW1 8024   3.244   6.395   4.866
 2375SOL    HW2 8025   3.359   6.326   4.772
 2376SOL     OW 8026   6.624   2.337   4.339
 2376SOL    HW1 8027   6.578   2.387   4.266
 2376SOL    HW2 8028   6.706   2.293   4.303
 2377SOL     OW 8029   3.921   3.970   3.486
 2377SOL    HW1 8030   3.977   3.983   3.568
 2377SOL    HW2 8031   3.971   3.915   3.419
 2378SOL     OW 8032   5.297   1.675   0.822
 2378SOL    HW1 8033   5.288   1.667   0.921
 2378SOL    HW2 8034   5.267   1.590   0.779
 2379SOL     OW 8035   6.273   1.480   0.024
 2379SOL    HW1 8036   6.292   1.560   0.082
 2379SOL    HW2 8037   6.303   1.499   6.954
 2380SOL     OW 8038   0.480   1.601   6.678
 2380SOL    HW1 8039   0.578   1.598   6.695
 2380SOL    HW2 8040   0.435   1.526   6.727
 2381SOL     OW 8041   2.005   4.977   4.544
 2381SOL    HW1 8042   2.036   4.920   4.468
 2381SOL    HW2 8043   2.019   5.073   4.521
 2382SOL     OW 8044   1.854   3.631   4.698
 2382SOL    HW1 8045   1.833   3.637   4.796
 2382SOL    HW2 8046   1.929   3.693   4.676
 2383SOL     OW 8047   4.707   6.243   0.926
 2383SOL    HW1 8048   4.632   6.240   0.860
 2383SOL    HW2 8049   4.691   6.174   0.997
 2384SOL     OW 8050   5.973   1.157   3.302
 2384SOL    HW1 8051   6.067   1.147   3.269
 2384SOL    HW2 8052   5.931   1.237   3.259
 2385SOL     OW 8053   1.051   6.847   0.248
 2385SOL    HW1 8054   0.953   6.862   0.241
 2385SOL    HW2 8055   1.093   6.860   0.158
 2386SOL     OW 8056   6.273   5.711   4.539
 2386SOL    HW1 8057   6.185   5.702   4.492
 2386SOL    HW2 8058   6.342   5.659   4.490
 2387SOL     OW 8059   1.207   2.285   4.038
 2387SOL    HW1 8060   1.188   2.275   3.940
 2387SOL    HW2 8061   1.258   2.205   4.069
 2388SOL     OW 8062   0.866   2.168   4.557
 2388SOL    HW1 8063   0.875   2.267   4.552
 2388SOL    HW2 8064   0.797   2.137   4.492
 2389SOL     OW 8065   4.833   4.252   3.150
 2389SOL    HW1 8066   4.742   4.280   3.182
 2389SOL    HW2 8067   4.856   4.163   3.188
 2390SOL     OW 8068   4.038   3.283   3.522
 2390SOL    HW1 8069   4.006   3.219   3.452
 2390SOL    HW2 8070   3.989   3.267   3.607
 2391SOL     OW 8071   4.844   3.877   5.874
 2391SOL    HW1 8072   4.874   3.946   5.808
 2391SOL    HW2 8073   4.754   3.903   5.910
 2392SOL     OW 8074   4.548   6.476   5.390
 2392SOL    HW1 8075   4.562   6.555   5.330
 2392SOL    HW2 8076   4.637   6.438   5.415
 2393SOL     OW 8077   4.751   3.633   5.800
 2393SOL    HW1 8078   4.797   3.719   5.825
 2393SOL    HW2 8079   4.653   3.642   5.816
 2394SOL     OW 8080   1.520   3.694   4.918
 2394SOL    HW1 8081   1.500   3.673   5.014
 2394SOL    HW2 8082   1.496   3.789   4.899
 2395SOL     OW 8083   5.349   2.310   5.839
 2395SOL    HW1 8084   5.447   2.318   5.857
 2395SOL    HW2 8085   5.298   2.346   5.917
 2396SOL     OW 8086   3.582   5.755   1.373
 2396SOL    HW1 8087   3.489   5.732   1.345
 2396SOL    HW2 8088   3.647   5.700   1.319
 2397SOL     OW 8089   6.710   3.864   5.622
 2397SOL    HW1 8090   6.661   3.838   5.705
 2397SOL    HW2 8091   6.691   3.798   5.550
 2398SOL     OW 8092   3.350   3.881   6.584
 2398SOL    HW1 8093   3.342   3.837   6.494
 2398SOL    HW2 8094   3.262   3.878   6.630
 2399SOL     OW 8095   4.636   1.332   1.775
 2399SOL    HW1 8096   4.547   1.376   1.791
 2399SOL    HW2 8097   4.623   1.252   1.718
 2400SOL     OW 8098   3.124   4.021   0.970
 2400SOL    HW1 8099   3.098   4.080   0.894
 2400SOL    HW2 8100   3.058   3.946   0.978
 2401SOL     OW 8101   5.032   6.178   6.647
 2401SOL    HW1 8102   5.099   6.123   6.697
 2401SOL    HW2 8103   4.951   6.122   6.629
 2402SOL     OW 8104   0.121   0.463   3.704
 2402SOL    HW1 8105   0.060   0.464   3.625
 2402SOL    HW2 8106   0.150   0.556   3.724
 2403SOL     OW 8107   2.075   2.250   6.588
 2403SOL    HW1 8108   2.007   2.188   6.547
 2403SOL    HW2 8109   2.029   2.318   6.644
 2404SOL     OW 8110   2.753   0.964   1.009
 2404SOL    HW1 8111   2.828   0.962   1.075
 2404SOL    HW2 8112   2.708   1.054   1.013
 2405SOL     OW 8113   3.479   3.516   2.438
 2405SOL    HW1 8114   3.507   3.420   2.432
 2405SOL    HW2 8115   3.518   3.567   2.361
 2406SOL     OW 8116   2.688   7.007   2.142
 2406SOL    HW1 8117   2.702   0.082   2.147
 2406SOL    HW2 8118   2.722   6.964   2.225
 2407SOL     OW 8119   5.888   1.760   2.339
 2407SOL    HW1 8120   5.795   1.732   2.317
 2407SOL    HW2 8121   5.953   1.701   2.293
 2408SOL     OW 8122   4.624   4.823   2.841
 2408SOL    HW1 8123   4.651   4.917   2.862
 2408SOL    HW2 8124   4.674   4.790   2.761
 2409SOL     OW 8125   1.969   4.830   2.129
 2409SOL    HW1 8126   1.964   4.782   2.216
 2409SOL    HW2 8127   2.051   4.888   2.128
 2410SOL     OW 8128   4.099   3.501   5.480
 2410SOL    HW1 8129   4.103   3.595   5.445
 2410SOL    HW2 8130   4.117   3.438   5.405
 2411SOL     OW 8131   4.746   5.864   4.914
 2411SOL    HW1 8132   4.843   5.855   4.938
 2411SOL    HW2 8133   4.689   5.828   4.987
 2412SOL     OW 8134   5.259   4.882   0.890
 2412SOL    HW1 8135   5.244   4.792   0.851
 2412SOL    HW2 8136   5.356   4.895   0.909
 2413SOL     OW 8137   6.174   1.592   0.725
 2413SOL    HW1 8138   6.224   1.610   0.640
 2413SOL    HW2 8139   6.077   1.579   0.704
 2414SOL     OW 8140   4.754   4.565   2.681
 2414SOL    HW1 8141   4.660   4.556   2.714
 2414SOL    HW2 8142   4.817   4.528   2.750
 2415SOL     OW 8143   6.516   0.948   2.910
 2415SOL    HW1 8144   6.594   0.922   2.853
 2415SOL    HW2 8145   6.442   0.883   2.898
 2416SOL     OW 8146   4.802   2.425   5.093
 2416SOL    HW1 8147   4.728   2.456   5.152
 2416SOL    HW2 8148   4.806   2.483   5.011
 2417SOL     OW 8149   3.753   3.573   4.892
 2417SOL    HW1 8150   3.692   3.501   4.858
 2417SOL    HW2 8151   3.812   3.537   4.963
 2418SOL     OW 8152   3.273   3.211   4.846
 2418SOL    HW1 8153   3.308   3.305   4.853
 2418SOL    HW2 8154   3.258   3.188   4.749
 2419SOL     OW 8155   6.709   0.174   4.681
 2419SOL    HW1 8156   6.796   0.147   4.640
 2419SOL    HW2 8157   6.639   0.107   4.657
 2420SOL     OW 8158   3.223   0.725   2.408
 2420SOL    HW1 8159   3.152   0.746   2.476
 2420SOL    HW2 8160   3.271   0.642   2.434
 2421SOL     OW 8161   1.936   2.631   4.933
 2421SOL    HW1 8162   1.937   2.595   5.026
 2421SOL    HW2 8163   1.947   2.556   4.868
 2422SOL     OW 8164   5.631   1.688   1.064
 2422SOL    HW1 8165   5.617   1.779   1.025
 2422SOL    HW2 8166   5.590   1.683   1.155
 2423SOL     OW 8167   1.709   5.609   2.707
 2423SOL    HW1 8168   1.722   5.677   2.635
 2423SOL    HW2 8169   1.792   5.553   2.716
 2424SOL     OW 8170   5.961   6.830   6.305
 2424SOL    HW1 8171   5.998   6.912   6.263
 2424SOL    HW2 8172   5.928   6.851   6.397
 2425SOL     OW 8173   5.609   0.686   4.143
 2425SOL    HW1 8174   5.587   0.654   4.236
 2425SOL    HW2 8175   5.708   0.694   4.134
 2426SOL     OW 8176   1.049   6.067   4.870
 2426SOL    HW1 8177   0.977   6.056   4.802
 2426SOL    HW2 8178   1.110   5.988   4.867
 2427SOL     OW 8179   5.403   5.734   5.343
 2427SOL    HW1 8180   5.412   5.819   5.290
 2427SOL    HW2 8181   5.311   5.727   5.380
 2428SOL     OW 8182   0.275   0.443   2.130
 2428SOL    HW1 8183   0.231   0.444   2.220
 2428SOL    HW2 8184   0.317   0.354   2.115
 2429SOL     OW 8185   5.774   5.634   2.964
 2429SOL    HW1 8186   5.739   5.607   2.874
 2429SOL    HW2 8187   5.736   5.723   2.989
 2430SOL     OW 8188   6.131   0.883   1.742
 2430SOL    HW1 8189   6.162   0.826   1.666
 2430SOL    HW2 8190   6.188   0.866   1.822
 2431SOL     OW 8191   3.803   0.830   1.569
 2431SOL    HW1 8192   3.798   0.874   1.479
 2431SOL    HW2 8193   3.884   0.862   1.618
 2432SOL     OW 8194   3.414   6.134   2.825
 2432SOL    HW1 8195   3.426   6.150   2.923
 2432SOL    HW2 8196   3.430   6.220   2.775
 2433SOL     OW 8197   3.732   1.805   0.355
 2433SOL    HW1 8198   3.757   1.824   0.450
 2433SOL    HW2 8199   3.710   1.892   0.309
 2434SOL     OW 8200   4.073   1.471   5.900
 2434SOL    HW1 8201   4.138   1.466   5.824
 2434SOL    HW2 8202   4.071   1.383   5.949
 2435SOL     OW 8203   4.778   5.215   5.832
 2435SOL    HW1 8204   4.831   5.191   5.751
 2435SOL    HW2 8205   4.840   5.226   5.910
 2436SOL     OW 8206   1.461   5.377   0.174
 2436SOL    HW1 8207   1.493   5.286   0.199
 2436SOL    HW2 8208   1.505   5.445   0.233
 2437SOL     OW 8209   5.380   6.529   6.787
 2437SOL    HW1 8210   5.364   6.544   6.690
 2437SOL    HW2 8211   5.464   6.477   6.799
 2438SOL     OW 8212   3.159   1.145   6.658
 2438SOL    HW1 8213   3.164   1.071   6.592
 2438SOL    HW2 8214   3.098   1.217   6.624
 2439SOL     OW 8215   0.329   4.794   6.406
 2439SOL    HW1 8216   0.384   4.766   6.328
 2439SOL    HW2 8217   0.299   4.713   6.457
 2440SOL     OW 8218   4.420   6.269   6.021
 2440SOL    HW1 8219   4.346   6.331   6.045
 2440SOL    HW2 8220   4.487   6.267   6.094
 2441SOL     OW 8221   0.062   2.308   6.654
 2441SOL    HW1 8222   6.999   2.280   6.693
 2441SOL    HW2 8223   0.069   2.277   6.560
 2442SOL     OW 8224   1.114   4.117   5.980
 2442SOL    HW1 8225   1.075   4.102   6.071
 2442SOL    HW2 8226   1.111   4.031   5.929
 2443SOL     OW 8227   3.451   4.915   6.232
 2443SOL    HW1 8228   3.488   5.007   6.220
 2443SOL    HW2 8229   3.523   4.854   6.265
 2444SOL     OW 8230   2.643   5.039   6.787
 2444SOL    HW1 8231   2.555   5.037   6.741
 2444SOL    HW2 8232   2.640   4.977   6.866
 2445SOL     OW 8233   0.151   1.578   1.032
 2445SOL    HW1 8234   0.176   1.563   0.936
 2445SOL    HW2 8235   0.116   1.672   1.042
 2446SOL     OW 8236   6.145   4.615   4.122
 2446SOL    HW1 8237   6.178   4.666   4.201
 2446SOL    HW2 8238   6.160   4.517   4.138
 2447SOL     OW 8239   2.576   3.080   6.829
 2447SOL    HW1 8240   2.651   3.145   6.846
 2447SOL    HW2 8241   2.491   3.118   6.864
 2448SOL     OW 8242   0.507   0.752   4.859
 2448SOL    HW1 8243   0.517   0.667   4.911
 2448SOL    HW2 8244   0.415   0.789   4.873
 2449SOL     OW 8245   0.028   3.990   0.617
 2449SOL    HW1 8246   0.051   4.072   0.669
 2449SOL    HW2 8247   6.977   4.011   0.554
 2450SOL     OW 8248   2.547   4.567   2.781
 2450SOL    HW1 8249   2.506   4.581   2.690
 2450SOL    HW2 8250   2.475   4.551   2.848
 2451SOL     OW 8251   1.538   6.684   4.184
 2451SOL    HW1 8252   1.546   6.627   4.103
 2451SOL    HW2 8253   1.549   6.780   4.158
 2452SOL     OW 8254   1.886   3.509   3.078
 2452SOL    HW1 8255   1.967   3.454   3.100
 2452SOL    HW2 8256   1.875   3.513   2.979
 2453SOL     OW 8257   6.243   4.786   1.346
 2453SOL    HW1 8258   6.236   4.874   1.392
 2453SOL    HW2 8259   6.251   4.713   1.414
 2454SOL     OW 8260   3.619   0.659   1.921
 2454SOL    HW1 8261   3.651   0.627   2.011
 2454SOL    HW2 8262   3.613   0.759   1.922
 2455SOL     OW 8263   5.236   5.481   0.545
 2455SOL    HW1 8264   5.156   5.444   0.591
 2455SOL    HW2 8265   5.300   5.406   0.523
 2456SOL     OW 8266   4.975   6.635   1.779
 2456SOL    HW1 8267   4.915   6.712   1.800
 2456SOL    HW2 8268   4.922   6.562   1.736
 2457SOL     OW 8269   5.736   6.613   0.342
 2457SOL    HW1 8270   5.682   6.575   0.416
 2457SOL    HW2 8271   5.712   6.709   0.328
 2458SOL     OW 8272   2.257   5.463   3.196
 2458SOL    HW1 8273   2.234   5.540   3.136
 2458SOL    HW2 8274   2.332   5.411   3.156
 2459SOL     OW 8275   1.759   0.023   0.492
 2459SOL    HW1 8276   1.676   0.008   0.545
 2459SOL    HW2 8277   1.818   0.088   0.540
 2460SOL     OW 8278   2.250   6.307   2.439
 2460SOL    HW1 8279   2.279   6.294   2.533
 2460SOL    HW2 8280   2.301   6.382   2.398
 2461SOL     OW 8281   5.610   0.475   2.257
 2461SOL    HW1 8282   5.665   0.515   2.183
 2461SOL    HW2 8283   5.516   0.464   2.225
 2462SOL     OW 8284   2.155   5.050   0.393
 2462SOL    HW1 8285   2.169   5.093   0.304
 2462SOL    HW2 8286   2.057   5.041   0.410
 2463SOL     OW 8287   6.966   1.878   3.389
 2463SOL    HW1 8288   7.013   1.793   3.411
 2463SOL    HW2 8289   6.868   1.860   3.382
 2464SOL     OW 8290   0.790   4.149   1.109
 2464SOL    HW1 8291   0.796   4.245   1.081
 2464SOL    HW2 8292   0.743   4.143   1.197
 2465SOL     OW 8293   6.892   5.873   1.944
 2465SOL    HW1 8294   6.913   5.828   2.031
 2465SOL    HW2 8295   6.807   5.836   1.907
 2466SOL     OW 8296   4.264   1.694   2.915
 2466SOL    HW1 8297   4.263   1.602   2.953
 2466SOL    HW2 8298   4.178   1.710   2.865
 2467SOL     OW 8299   6.799   0.642   6.049
 2467SOL    HW1 8300   6.724   0.677   6.106
 2467SOL    HW2 8301   6.830   0.714   5.987
 2468SOL     OW 8302   6.840   6.433   2.171
 2468SOL    HW1 8303   6.748   6.418   2.206
 2468SOL    HW2 8304   6.871   6.525   2.196
 2469SOL     OW 8305   2.940   3.636   5.283
 2469SOL    HW1 8306   2.926   3.727   5.243
 2469SOL    HW2 8307   2.859   3.611   5.337
 2470SOL     OW 8308   2.749   3.878   6.250
 2470SOL    HW1 8309   2.655   3.911   6.246
 2470SOL    HW2 8310   2.812   3.956   6.250
 2471SOL     OW 8311   0.465   6.395   2.453
 2471SOL    HW1 8312   0.375   6.352   2.444
 2471SOL    HW2 8313   0.486   6.447   2.370
 2472SOL     OW 8314   5.450   2.419   4.245
 2472SOL    HW1 8315   5.496   2.332   4.223
 2472SOL    HW2 8316   5.353   2.412   4.222
 2473SOL     OW 8317   1.233   5.412   4.489
 2473SOL    HW1 8318   1.165   5.484   4.478
 2473SOL    HW2 8319   1.195   5.325   4.461
 2474SOL     OW 8320   0.260   5.621   5.367
 2474SOL    HW1 8321   0.189   5.575   5.421
 2474SOL    HW2 8322   0.239   5.718   5.359
 2475SOL     OW 8323   4.424   2.439   0.415
 2475SOL    HW1 8324   4.425   2.393   0.504
 2475SOL    HW2 8325   4.398   2.535   0.426
 2476SOL     OW 8326   1.065   1.760   3.656
 2476SOL    HW1 8327   0.973   1.762   3.694
 2476SOL    HW2 8328   1.090   1.665   3.635
 2477SOL     OW 8329   5.550   5.630   1.545
 2477SOL    HW1 8330   5.477   5.597   1.486
 2477SOL    HW2 8331   5.576   5.558   1.610
 2478SOL     OW 8332   6.413   6.528   2.758
 2478SOL    HW1 8333   6.493   6.567   2.713
 2478SOL    HW2 8334   6.331   6.574   2.725
 2479SOL     OW 8335   0.109   2.379   0.789
 2479SOL    HW1 8336   0.097   2.282   0.809
 2479SOL    HW2 8337   0.027   2.414   0.744
 2480SOL     OW 8338   6.412   3.533   1.498
 2480SOL    HW1 8339   6.345   3.602   1.470
 2480SOL    HW2 8340   6.504   3.573   1.495
 2481SOL     OW 8341   4.174   5.466   1.932
 2481SOL    HW1 8342   4.166   5.373   1.895
 2481SOL    HW2 8343   4.202   5.461   2.028
 2482SOL     OW 8344   5.355   3.480   5.065
 2482SOL    HW1 8345   5.339   3.385   5.090
 2482SOL    HW2 8346   5.269   3.531   5.071
 2483SOL     OW 8347   1.156   1.067   6.837
 2483SOL    HW1 8348   1.086   1.125   6.878
 2483SOL    HW2 8349   1.125   1.036   6.747
 2484SOL     OW 8350   2.970   1.220   0.385
 2484SOL    HW1 8351   2.880   1.226   0.429
 2484SOL    HW2 8352   2.971   1.278   0.303
 2485SOL     OW 8353   0.261   5.281   2.379
 2485SOL    HW1 8354   0.255   5.244   2.287
 2485SOL    HW2 8355   0.170   5.279   2.422
 2486SOL     OW 8356   1.833   5.483   3.011
 2486SOL    HW1 8357   1.734   5.477   2.995
 2486SOL    HW2 8358   1.853   5.566   3.063
 2487SOL     OW 8359   4.106   0.298   0.681
 2487SOL    HW1 8360   4.025   0.240   0.683
 2487SOL    HW2 8361   4.139   0.307   0.587
 2488SOL     OW 8362   2.641   4.753   1.511
 2488SOL    HW1 8363   2.713   4.747   1.580
 2488SOL    HW2 8364   2.553   4.764   1.557
 2489SOL     OW 8365   1.489   5.403   5.175
 2489SOL    HW1 8366   1.513   5.483   5.230
 2489SOL    HW2 8367   1.504   5.423   5.078
 2490SOL     OW 8368   6.186   4.027   0.912
 2490SOL    HW1 8369   6.284   4.005   0.920
 2490SOL    HW2 8370   6.175   4.108   0.854
 2491SOL     OW 8371   3.030   4.837   3.160
 2491SOL    HW1 8372   3.030   4.884   3.248
 2491SOL    HW2 8373   3.120   4.846   3.117
 2492SOL     OW 8374   4.721   2.965   6.423
 2492SOL    HW1 8375   4.649   2.923   6.478
 2492SOL    HW2 8376   4.802   2.906   6.421
 2493SOL     OW 8377   5.901   1.814   3.027
 2493SOL    HW1 8378   5.913   1.790   2.931
 2493SOL    HW2 8379   5.967   1.763   3.083
 2494SOL     OW 8380   4.777   2.589   2.002
 2494SOL    HW1 8381   4.718   2.518   1.965
 2494SOL    HW2 8382   4.872   2.572   1.975
 2495SOL     OW 8383   5.645   1.106   5.145
 2495SOL    HW1 8384   5.590   1.187   5.128
 2495SOL    HW2 8385   5.586   1.025   5.146
 2496SOL     OW 8386   1.103   5.422   6.961
 2496SOL    HW1 8387   1.129   5.416   0.033
 2496SOL    HW2 8388   1.089   5.330   6.924
 2497SOL     OW 8389   6.810   1.885   6.690
 2497SOL    HW1 8390   6.826   1.876   6.788
 2497SOL    HW2 8391   6.731   1.831   6.664
 2498SOL     OW 8392   1.439   3.126   4.194
 2498SOL    HW1 8393   1.476   3.093   4.281
 2498SOL    HW2 8394   1.414   3.222   4.203
 2499SOL     OW 8395   5.183   0.741   4.663
 2499SOL    HW1 8396   5.101   0.690   4.687
 2499SOL    HW2 8397   5.255   0.721   4.729
 2500SOL     OW 8398   4.666   3.203   6.275
 2500SOL    HW1 8399   4.570   3.224   6.292
 2500SOL    HW2 8400   4.688   3.115   6.318
 2501SOL     OW 8401   6.289   4.619   0.202
 2501SOL    HW1 8402   6.263   4.592   0.294
 2501SOL    HW2 8403   6.208   4.619   0.143
 2502SOL     OW 8404   2.014   0.023   2.627
 2502SOL    HW1 8405   2.027   0.104   2.569
 2502SOL    HW2 8406   2.048   0.042   2.719
 2503SOL     OW 8407   3.972   5.007   5.963
 2503SOL    HW1 8408   3.898   5.062   6.000
 2503SOL    HW2 8409   3.964   5.001   5.864
 2504SOL     OW 8410   1.666   5.159   4.375
 2504SOL    HW1 8411   1.657   5.256   4.401
 2504SOL    HW2 8412   1.620   5.102   4.444
 2505SOL     OW 8413   4.782   5.382   4.281
 2505SOL    HW1 8414   4.690   5.412   4.255
 2505SOL    HW2 8415   4.821   5.326   4.208
 2506SOL     OW 8416   6.307   2.591   6.272
 2506SOL    HW1 8417   6.372   2.602   6.197
 2506SOL    HW2 8418   6.294   2.679   6.317
 2507SOL     OW 8419   6.174   5.811   0.653
 2507SOL    HW1 8420   6.164   5.832   0.556
 2507SOL    HW2 8421   6.163   5.895   0.707
 2508SOL     OW 8422   2.285   2.283   2.177
 2508SOL    HW1 8423   2.368   2.245   2.216
 2508SOL    HW2 8424   2.303   2.314   2.084
 2509SOL     OW 8425   5.533   2.388   3.286
 2509SOL    HW1 8426   5.563   2.297   3.258
 2509SOL    HW2 8427   5.443   2.382   3.330
 2510SOL     OW 8428   3.322   5.031   0.549
 2510SOL    HW1 8429   3.282   5.016   0.639
 2510SOL    HW2 8430   3.406   4.977   0.541
 2511SOL     OW 8431   1.319   0.838   5.211
 2511SOL    HW1 8432   1.360   0.811   5.125
 2511SOL    HW2 8433   1.337   0.768   5.280
 2512SOL     OW 8434   4.981   3.698   4.767
 2512SOL    HW1 8435   4.943   3.607   4.783
 2512SOL    HW2 8436   4.974   3.719   4.669
 2513SOL     OW 8437   0.714   2.677   6.581
 2513SOL    HW1 8438   0.743   2.645   6.491
 2513SOL    HW2 8439   0.652   2.611   6.623
 2514SOL     OW 8440   1.194   1.259   4.388
 2514SOL    HW1 8441   1.249   1.204   4.324
 2514SOL    HW2 8442   1.125   1.310   4.337
 2515SOL     OW 8443   0.942   5.727   0.838
 2515SOL    HW1 8444   0.912   5.801   0.778
 2515SOL    HW2 8445   1.042   5.723   0.840
 2516SOL     OW 8446   5.615   6.845   3.801
 2516SOL    HW1 8447   5.669   6.850   3.885
 2516SOL    HW2 8448   5.626   6.930   3.750
 2517SOL     OW 8449   2.316   4.870   0.243
 2517SOL    HW1 8450   2.371   4.826   0.314
 2517SOL    HW2 8451   2.241   4.920   0.286
 2518SOL     OW 8452   2.300   3.122   6.302
 2518SOL    HW1 8453   2.373   3.059   6.275
 2518SOL    HW2 8454   2.279   3.183   6.226
 2519SOL     OW 8455   4.713   4.762   5.135
 2519SOL    HW1 8456   4.700   4.675   5.087
 2519SOL    HW2 8457   4.629   4.788   5.182
 2520SOL     OW 8458   2.496   4.018   1.194
 2520SOL    HW1 8459   2.465   3.940   1.247
 2520SOL    HW2 8460   2.467   4.007   1.099
 2521SOL     OW 8461   6.095   0.215   5.843
 2521SOL    HW1 8462   6.160   0.206   5.919
 2521SOL    HW2 8463   6.108   0.303   5.798
 2522SOL     OW 8464   0.823   3.210   4.651
 2522SOL    HW1 8465   0.725   3.218   4.633
 2522SOL    HW2 8466   0.868   3.170   4.572
 2523SOL     OW 8467   0.654   3.899   0.289
 2523SOL    HW1 8468   0.714   3.967   0.332
 2523SOL    HW2 8469   0.559   3.921   0.310
 2524SOL     OW 8470   1.493   0.019   3.877
 2524SOL    HW1 8471   1.492   6.991   3.792
 2524SOL    HW2 8472   1.556   0.095   3.870
 2525SOL     OW 8473   0.969   3.635   3.444
 2525SOL    HW1 8474   0.938   3.694   3.519
 2525SOL    HW2 8475   0.981   3.690   3.361
 2526SOL     OW 8476   0.210   1.473   3.741
 2526SOL    HW1 8477   0.113   1.498   3.744
 2526SOL    HW2 8478   0.258   1.518   3.816
 2527SOL     OW 8479   5.637   6.516   4.269
 2527SOL    HW1 8480   5.641   6.494   4.366
 2527SOL    HW2 8481   5.561   6.467   4.227
 2528SOL     OW 8482   6.193   5.382   0.929
 2528SOL    HW1 8483   6.206   5.424   1.019
 2528SOL    HW2 8484   6.268   5.410   0.869
 2529SOL     OW 8485   5.262   4.575   4.667
 2529SOL    HW1 8486   5.334   4.595   4.601
 2529SOL    HW2 8487   5.214   4.660   4.691
 2530SOL     OW 8488   1.272   0.306   3.264
 2530SOL    HW1 8489   1.344   0.237   3.253
 2530SOL    HW2 8490   1.308   0.383   3.316
 2531SOL     OW 8491   3.912   1.180   5.878
 2531SOL    HW1 8492   4.003   1.195   5.917
 2531SOL    HW2 8493   3.917   1.183   5.778
 2532SOL     OW 8494   1.126   4.967   6.941
 2532SOL    HW1 8495   1.124   4.886   6.882
 2532SOL    HW2 8496   1.065   4.953   7.019
 2533SOL     OW 8497   5.601   6.355   5.904
 2533SOL    HW1 8498   5.700   6.364   5.910
 2533SOL    HW2 8499   5.558   6.422   5.964
 2534SOL     OW 8500   1.363   1.016   3.551
 2534SOL    HW1 8501   1.327   1.034   3.642
 2534SOL    HW2 8502   1.319   0.934   3.513
 2535SOL     OW 8503   2.575   1.251   3.826
 2535SOL    HW1 8504   2.526   1.305   3.758
 2535SOL    HW2 8505   2.564   1.292   3.917
 2536SOL     OW 8506   5.873   1.357   4.187
 2536SOL    HW1 8507   5.829   1.279   4.143
 2536SOL    HW2 8508   5.832   1.442   4.155
 2537SOL     OW 8509   5.318   5.354   1.488
 2537SOL    HW1 8510   5.256   5.325   1.561
 2537SOL    HW2 8511   5.297   5.449   1.463
 2538SOL     OW 8512   1.850   5.071   4.229
 2538SOL    HW1 8513   1.916   5.147   4.227
 2538SOL    HW2 8514   1.768   5.100   4.279
 2539SOL     OW 8515   4.003   0.024   5.155
 2539SOL    HW1 8516   3.916   7.005   5.128
 2539SOL    HW2 8517   4.063   6.979   5.195
 2540SOL     OW 8518   5.550   1.225   2.044
 2540SOL    HW1 8519   5.536   1.321   2.068
 2540SOL    HW2 8520   5.590   1.177   2.123
 2541SOL     OW 8521   1.521   6.261   6.221
 2541SOL    HW1 8522   1.556   6.241   6.313
 2541SOL    HW2 8523   1.510   6.176   6.170
 2542SOL     OW 8524   3.589   1.656   4.404
 2542SOL    HW1 8525   3.526   1.712   4.350
 2542SOL    HW2 8526   3.631   1.712   4.475
 2543SOL     OW 8527   0.913   1.400   3.143
 2543SOL    HW1 8528   0.829   1.388   3.195
 2543SOL    HW2 8529   0.967   1.474   3.183
 2544SOL     OW 8530   6.615   5.077   1.482
 2544SOL    HW1 8531   6.605   5.174   1.504
 2544SOL    HW2 8532   6.644   5.067   1.387
 2545SOL     OW 8533   0.669   1.862   1.128
 2545SOL    HW1 8534   0.575   1.854   1.161
 2545SOL    HW2 8535   0.709   1.770   1.120
 2546SOL     OW 8536   6.956   4.038   2.015
 2546SOL    HW1 8537   6.895   4.025   2.093
 2546SOL    HW2 8538   7.010   3.955   2.000
 2547SOL     OW 8539   5.414   3.807   0.785
 2547SOL    HW1 8540   5.478   3.881   0.764
 2547SOL    HW2 8541   5.386   3.812   0.881
 2548SOL     OW 8542   0.048   6.737   5.351
 2548SOL    HW1 8543   0.089   6.689   5.429
 2548SOL    HW2 8544   7.011   6.809   5.385
 2549SOL     OW 8545   2.397   1.711   0.701
 2549SOL    HW1 8546   2.332   1.646   0.661
 2549SOL    HW2 8547   2.446   1.758   0.628
 2550SOL     OW 8548   4.505   6.805   6.155
 2550SOL    HW1 8549   4.450   6.859   6.218
 2550SOL    HW2 8550   4.494   6.708   6.175
 2551SOL     OW 8551   2.917   5.674   6.954
 2551SOL    HW1 8552   2.862   5.683   6.870
 2551SOL    HW2 8553   3.001   5.625   6.933
 2552SOL     OW 8554   2.059   6.492   0.783
 2552SOL    HW1 8555   2.026   6.479   0.689
 2552SOL    HW2 8556   1.992   6.545   0.834
 2553SOL     OW 8557   4.314   1.626   6.973
 2553SOL    HW1 8558   4.263   1.637   6.887
 2553SOL    HW2 8559   4.411   1.641   6.956
 2554SOL     OW 8560   1.858   5.873   1.296
 2554SOL    HW1 8561   1.918   5.800   1.328
 2554SOL    HW2 8562   1.884   5.900   1.203
 2555SOL     OW 8563   6.098   6.177   5.178
 2555SOL    HW1 8564   6.140   6.101   5.129
 2555SOL    HW2 8565   6.151   6.261   5.162
 2556SOL     OW 8566   3.883   6.729   1.491
 2556SOL    HW1 8567   3.877   6.828   1.481
 2556SOL    HW2 8568   3.814   6.685   1.433
 2557SOL     OW 8569   4.093   0.636   6.924
 2557SOL    HW1 8570   4.079   0.618   6.827
 2557SOL    HW2 8571   4.149   0.562   6.963
 2558SOL     OW 8572   5.792   4.342   6.807
 2558SOL    HW1 8573   5.886   4.341   6.841
 2558SOL    HW2 8574   5.756   4.248   6.806
 2559SOL     OW 8575   0.859   3.712   4.086
 2559SOL    HW1 8576   0.865   3.612   4.088
 2559SOL    HW2 8577   0.890   3.748   4.174
 2560SOL     OW 8578   4.846   2.249   3.132
 2560SOL    HW1 8579   4.892   2.171   3.089
 2560SOL    HW2 8580   4.817   2.314   3.061
 2561SOL     OW 8581   3.639   0.698   4.297
 2561SOL    HW1 8582   3.660   0.711   4.200
 2561SOL    HW2 8583   3.707   0.638   4.338
 2562SOL     OW 8584   2.942   6.936   3.366
 2562SOL    HW1 8585   3.003   6.978   3.433
 2562SOL    HW2 8586   2.861   6.900   3.412
 2563SOL     OW 8587   3.412   1.265   0.269
 2563SOL    HW1 8588   3.493   1.297   0.316
 2563SOL    HW2 8589   3.341   1.335   0.272
 2564SOL     OW 8590   1.467   1.389   0.456
 2564SOL    HW1 8591   1.372   1.417   0.467
 2564SOL    HW2 8592   1.516   1.402   0.543
 2565SOL     OW 8593   1.037   2.072   6.534
 2565SOL    HW1 8594   1.023   2.046   6.439
 2565SOL    HW2 8595   0.961   2.041   6.590
 2566SOL     OW 8596   2.793   0.941   0.691
 2566SOL    HW1 8597   2.845   0.855   0.694
 2566SOL    HW2 8598   2.772   0.971   0.784
 2567SOL     OW 8599   1.366   7.013   6.901
 2567SOL    HW1 8600   1.296   0.042   6.853
 2567SOL    HW2 8601   1.457   0.019   6.872
 2568SOL     OW 8602   2.920   6.186   1.341
 2568SOL    HW1 8603   2.826   6.153   1.341
 2568SOL    HW2 8604   2.957   6.182   1.434
 2569SOL     OW 8605   0.929   1.210   0.818
 2569SOL    HW1 8606   0.889   1.147   0.884
 2569SOL    HW2 8607   0.990   1.274   0.865
 2570SOL     OW 8608   5.249   6.309   0.126
 2570SOL    HW1 8609   5.268   6.214   0.146
 2570SOL    HW2 8610   5.259   6.364   0.209
 2571SOL     OW 8611   4.049   3.629   4.643
 2571SOL    HW1 8612   4.075   3.715   4.599
 2571SOL    HW2 8613   3.963   3.596   4.603
 2572SOL     OW 8614   2.167   6.085   1.592
 2572SOL    HW1 8615   2.229   6.132   1.655
 2572SOL    HW2 8616   2.103   6.029   1.644
 2573SOL     OW 8617   6.801   2.189   3.747
 2573SOL    HW1 8618   6.808   2.266   3.684
 2573SOL    HW2 8619   6.705   2.162   3.757
 2574SOL     OW 8620   6.793   4.036   1.525
 2574SOL    HW1 8621   6.710   4.087   1.503
 2574SOL    HW2 8622   6.861   4.097   1.563
 2575SOL     OW 8623   5.797   3.966   0.706
 2575SOL    HW1 8624   5.813   3.889   0.644
 2575SOL    HW2 8625   5.702   3.997   0.696
 2576SOL     OW 8626   1.968   6.793   3.111
 2576SOL    HW1 8627   1.891   6.856   3.115
 2576SOL    HW2 8628   2.053   6.843   3.121
 2577SOL     OW 8629   2.474   6.529   3.130
 2577SOL    HW1 8630   2.502   6.624   3.148
 2577SOL    HW2 8631   2.383   6.514   3.167
 2578SOL     OW 8632   5.350   2.792   4.206
 2578SOL    HW1 8633   5.257   2.772   4.234
 2578SOL    HW2 8634   5.372   2.740   4.124
 2579SOL     OW 8635   0.380   2.272   6.689
 2579SOL    HW1 8636   0.464   2.326   6.683
 2579SOL    HW2 8637   0.307   2.318   6.639
 2580SOL     OW 8638   1.933   2.448   6.452
 2580SOL    HW1 8639   1.870   2.516   6.489
 2580SOL    HW2 8640   2.027   2.480   6.461
 2581SOL     OW 8641   5.227   5.822   2.489
 2581SOL    HW1 8642   5.152   5.880   2.457
 2581SOL    HW2 8643   5.226   5.818   2.589
 2582SOL     OW 8644   0.958   5.704   2.924
 2582SOL    HW1 8645   0.928   5.698   2.829
 2582SOL    HW2 8646   1.045   5.754   2.928
 2583SOL     OW 8647   0.944   0.170   0.986
 2583SOL    HW1 8648   0.857   0.123   0.972
 2583SOL    HW2 8649   1.017   0.120   0.939
 2584SOL     OW 8650   3.303   6.336   0.885
 2584SOL    HW1 8651   3.245   6.406   0.928
 2584SOL    HW2 8652   3.373   6.306   0.950
 2585SOL     OW 8653   3.018   0.255   1.145
 2585SOL    HW1 8654   3.014   0.346   1.104
 2585SOL    HW2 8655   3.020   0.186   1.073
 2586SOL     OW 8656   5.916   1.877   4.228
 2586SOL    HW1 8657   6.011   1.853   4.208
 2586SOL    HW2 8658   5.879   1.812   4.294
 2587SOL     OW 8659   5.875   6.483   4.150
 2587SOL    HW1 8660   5.789   6.520   4.183
 2587SOL    HW2 8661   5.857   6.414   4.079
 2588SOL     OW 8662   5.585   0.398   1.903
 2588SOL    HW1 8663   5.552   0.328   1.839
 2588SOL    HW2 8664   5.523   0.403   1.981
 2589SOL     OW 8665   6.473   6.747   5.773
 2589SOL    HW1 8666   6.374   6.738   5.770
 2589SOL    HW2 8667   6.501   6.836   5.738
 2590SOL     OW 8668   4.270   6.689   3.042
 2590SOL    HW1 8669   4.318   6.635   2.972
 2590SOL    HW2 8670   4.332   6.707   3.118
 2591SOL     OW 8671   5.153   6.018   1.895
 2591SOL    HW1 8672   5.224   6.072   1.852
 2591SOL    HW2 8673   5.069   6.024   1.842
 2592SOL     OW 8674   3.206   5.748   1.600
 2592SOL    HW1 8675   3.214   5.686   1.678
 2592SOL    HW2 8676   3.281   5.814   1.602
 2593SOL     OW 8677   3.773   6.324   2.848
 2593SOL    HW1 8678   3.851   6.373   2.887
 2593SOL    HW2 8679   3.754   6.242   2.903
 2594SOL     OW 8680   0.025   0.187   6.809
 2594SOL    HW1 8681   0.078   0.269   6.830
 2594SOL    HW2 8682   6.951   0.209   6.809
 2595SOL     OW 8683   6.659   3.433   4.946
 2595SOL    HW1 8684   6.647   3.466   5.040
 2595SOL    HW2 8685   6.635   3.506   4.882
 2596SOL     OW 8686   3.882   2.070   2.132
 2596SOL    HW1 8687   3.854   2.040   2.224
 2596SOL    HW2 8688   3.809   2.124   2.091
 2597SOL     OW 8689   2.816   3.282   1.128
 2597SOL    HW1 8690   2.850   3.367   1.088
 2597SOL    HW2 8691   2.743   3.301   1.193
 2598SOL     OW 8692   6.878   2.787   3.440
 2598SOL    HW1 8693   6.787   2.796   3.398
 2598SOL    HW2 8694   6.904   2.874   3.481
 2599SOL     OW 8695   4.191   5.842   0.164
 2599SOL    HW1 8696   4.280   5.856   0.207
 2599SOL    HW2 8697   4.201   5.786   0.082
 2600SOL     OW 8698   5.794   3.768   3.903
 2600SOL    HW1 8699   5.704   3.727   3.917
 2600SOL    HW2 8700   5.785   3.867   3.905
 2601SOL     OW 8701   3.453   3.308   6.066
 2601SOL    HW1 8702   3.523   3.376   6.047
 2601SOL    HW2 8703   3.431   3.310   6.164
 2602SOL     OW 8704   0.377   4.857   4.419
 2602SOL    HW1 8705   0.293   4.872   4.471
 2602SOL    HW2 8706   0.414   4.945   4.389
 2603SOL     OW 8707   2.357   2.339   0.803
 2603SOL    HW1 8708   2.313   2.330   0.892
 2603SOL    HW2 8709   2.408   2.425   0.800
 2604SOL     OW 8710   5.236   0.395   1.269
 2604SOL    HW1 8711   5.239   0.495   1.271
 2604SOL    HW2 8712   5.207   0.361   1.359
 2605SOL     OW 8713   4.158   4.913   4.307
 2605SOL    HW1 8714   4.205   4.848   4.366
 2605SOL    HW2 8715   4.099   4.972   4.362
 2606SOL     OW 8716   6.034   4.079   1.122
 2606SOL    HW1 8717   6.083   4.082   1.035
 2606SOL    HW2 8718   6.014   3.984   1.146
 2607SOL     OW 8719   1.184   0.724   2.949
 2607SOL    HW1 8720   1.186   0.674   3.036
 2607SOL    HW2 8721   1.276   0.729   2.911
 2608SOL     OW 8722   5.151   0.631   1.393
 2608SOL    HW1 8723   5.077   0.642   1.459
 2608SOL    HW2 8724   5.156   0.712   1.334
 2609SOL     OW 8725   0.695   2.036   2.973
 2609SOL    HW1 8726   0.605   2.010   2.940
 2609SOL    HW2 8727   0.688   2.120   3.028
 2610SOL     OW 8728   6.582   5.615   4.958
 2610SOL    HW1 8729   6.623   5.536   4.911
 2610SOL    HW2 8730   6.649   5.656   5.019
 2611SOL     OW 8731   5.360   6.398   1.212
 2611SOL    HW1 8732   5.450   6.393   1.254
 2611SOL    HW2 8733   5.322   6.490   1.225
 2612SOL     OW 8734   5.139   6.811   3.707
 2612SOL    HW1 8735   5.239   6.824   3.702
 2612SOL    HW2 8736   5.105   6.844   3.795
 2613SOL     OW 8737   3.610   0.279   2.178
 2613SOL    HW1 8738   3.681   0.238   2.122
 2613SOL    HW2 8739   3.625   0.255   2.274
 2614SOL     OW 8740   6.108   6.796   6.008
 2614SOL    HW1 8741   6.021   6.766   6.046
 2614SOL    HW2 8742   6.180   6.784   6.077
 2615SOL     OW 8743   5.363   5.438   3.165
 2615SOL    HW1 8744   5.371   5.536   3.145
 2615SOL    HW2 8745   5.453   5.400   3.186
 2616SOL     OW 8746   3.739   2.936   2.629
 2616SOL    HW1 8747   3.666   2.953   2.563
 2616SOL    HW2 8748   3.827   2.956   2.587
 2617SOL     OW 8749   3.641   5.690   0.914
 2617SOL    HW1 8750   3.645   5.681   0.814
 2617SOL    HW2 8751   3.585   5.769   0.937
 2618SOL     OW 8752   0.092   0.634   1.311
 2618SOL    HW1 8753   0.146   0.550   1.323
 2618SOL    HW2 8754   0.050   0.634   1.220
 2619SOL     OW 8755   4.100   1.616   2.011
 2619SOL    HW1 8756   4.058   1.690   2.065
 2619SOL    HW2 8757   4.183   1.585   2.058
 2620SOL     OW 8758   1.369   4.594   3.696
 2620SOL    HW1 8759   1.276   4.618   3.721
 2620SOL    HW2 8760   1.377   4.494   3.689
 2621SOL     OW 8761   0.470   5.846   3.879
 2621SOL    HW1 8762   0.567   5.845   3.855
 2621SOL    HW2 8763   0.459   5.880   3.972
 2622SOL     OW 8764   1.838   3.581   6.211
 2622SOL    HW1 8765   1.874   3.540   6.127
 2622SOL    HW2 8766   1.908   3.637   6.254
 2623SOL     OW 8767   3.560   1.100   5.002
 2623SOL    HW1 8768   3.628   1.173   4.992
 2623SOL    HW2 8769   3.546   1.055   4.914
 2624SOL     OW 8770   5.973   2.482   3.271
 2624SOL    HW1 8771   5.896   2.534   3.234
 2624SOL    HW2 8772   5.942   2.389   3.293
 2625SOL     OW 8773   2.550   2.703   5.853
 2625SOL    HW1 8774   2.513   2.777   5.909
 2625SOL    HW2 8775   2.619   2.653   5.905
 2626SOL     OW 8776   1.467   6.504   3.676
 2626SOL    HW1 8777   1.452   6.484   3.773
 2626SOL    HW2 8778   1.380   6.527   3.633
 2627SOL     OW 8779   0.408   0.554   4.495
 2627SOL    HW1 8780   0.362   0.552   4.406
 2627SOL    HW2 8781   0.377   0.476   4.550
 2628SOL     OW 8782   3.767   6.514   7.003
 2628SOL    HW1 8783   3.712   6.470   0.050
 2628SOL    HW2 8784   3.715   6.517   6.917
 2629SOL     OW 8785   3.741   4.255   1.499
 2629SOL    HW1 8786   3.651   4.262   1.542
 2629SOL    HW2 8787   3.763   4.159   1.483
 2630SOL     OW 8788   3.629   1.507   2.321
 2630SOL    HW1 8789   3.621   1.527   2.223
 2630SOL    HW2 8790   3.552   1.550   2.369
 2631SOL     OW 8791   4.935   6.752   4.422
 2631SOL    HW1 8792   5.008   6.820   4.426
 2631SOL    HW2 8793   4.951   6.682   4.492
 2632SOL     OW 8794   3.225   1.924   6.976
 2632SOL    HW1 8795   3.141   1.889   7.018
 2632SOL    HW2 8796   3.268   1.851   6.923
 2633SOL     OW 8797   6.229   2.406   6.721
 2633SOL    HW1 8798   6.209   2.484   6.662
 2633SOL    HW2 8799   6.284   2.340   6.671
 2634SOL     OW 8800   2.434   4.267   1.620
 2634SOL    HW1 8801   2.364   4.198   1.640
 2634SOL    HW2 8802   2.481   4.242   1.536
 2635SOL     OW 8803   5.618   5.846   4.473
 2635SOL    HW1 8804   5.623   5.761   4.420
 2635SOL    HW2 8805   5.585   5.826   4.565
 2636SOL     OW 8806   5.587   6.825   5.704
 2636SOL    HW1 8807   5.509   6.884   5.723
 2636SOL    HW2 8808   5.585   6.745   5.764
 2637SOL     OW 8809   5.396   6.831   3.605
 2637SOL    HW1 8810   5.435   6.822   3.514
 2637SOL    HW2 8811   5.470   6.829   3.673
 2638SOL     OW 8812   5.222   6.164   1.208
 2638SOL    HW1 8813   5.280   6.245   1.217
 2638SOL    HW2 8814   5.127   6.189   1.226
 2639SOL     OW 8815   5.623   6.648   1.827
 2639SOL    HW1 8816   5.618   6.658   1.727
 2639SOL    HW2 8817   5.618   6.738   1.870
 2640SOL     OW 8818   0.377   6.456   5.237
 2640SOL    HW1 8819   0.310   6.480   5.307
 2640SOL    HW2 8820   0.382   6.529   5.169
 2641SOL     OW 8821   5.176   3.810   6.890
 2641SOL    HW1 8822   5.131   3.733   6.936
 2641SOL    HW2 8823   5.247   3.848   6.950
 2642SOL     OW 8824   4.623   0.399   4.174
 2642SOL    HW1 8825   4.583   0.488   4.193
 2642SOL    HW2 8826   4.674   0.403   4.088
 2643SOL     OW 8827   0.188   6.426   3.230
 2643SOL    HW1 8828   0.255   6.352   3.222
 2643SOL    HW2 8829   0.149   6.446   3.140
 2644SOL     OW 8830   1.245   4.995   5.711
 2644SOL    HW1 8831   1.168   5.009   5.773
 2644SOL    HW2 8832   1.259   5.078   5.658
 2645SOL     OW 8833   5.245   6.421   5.563
 2645SOL    HW1 8834   5.254   6.432   5.662
 2645SOL    HW2 8835   5.311   6.480   5.517
 2646SOL     OW 8836   0.023   0.284   6.173
 2646SOL    HW1 8837   6.967   0.336   6.203
 2646SOL    HW2 8838   0.075   0.252   6.253
 2647SOL     OW 8839   4.997   1.691   0.957
 2647SOL    HW1 8840   5.008   1.593   0.943
 2647SOL    HW2 8841   4.901   1.716   0.945
 2648SOL     OW 8842   6.568   0.027   2.538
 2648SOL    HW1 8843   6.610   0.072   2.617
 2648SOL    HW2 8844   6.505   6.980   2.570
 2649SOL     OW 8845   3.628   1.129   5.966
 2649SOL    HW1 8846   3.726   1.113   5.957
 2649SOL    HW2 8847   3.594   1.173   5.883
 2650SOL     OW 8848   0.384   5.346   3.562
 2650SOL    HW1 8849   0.368   5.266   3.620
 2650SOL    HW2 8850   0.303   5.405   3.562
 2651SOL     OW 8851   0.165   1.316   1.700
 2651SOL    HW1 8852   0.089   1.379   1.681
 2651SOL    HW2 8853   0.250   1.368   1.709
 2652SOL     OW 8854   3.221   3.356   3.220
 2652SOL    HW1 8855   3.124   3.331   3.223
 2652SOL    HW2 8856   3.234   3.447   3.259
 2653SOL     OW 8857   5.468   6.643   5.910
 2653SOL    HW1 8858   5.504   6.642   6.003
 2653SOL    HW2 8859   5.393   6.709   5.904
 2654SOL     OW 8860   5.185   2.091   5.898
 2654SOL    HW1 8861   5.250   2.018   5.921
 2654SOL    HW2 8862   5.227   2.152   5.831
 2655SOL     OW 8863   4.116   6.390   4.727
 2655SOL    HW1 8864   4.182   6.333   4.678
 2655SOL    HW2 8865   4.121   6.484   4.693
 2656SOL     OW 8866   5.399   4.404   3.899
 2656SOL    HW1 8867   5.337   4.373   3.971
 2656SOL    HW2 8868   5.384   4.501   3.881
 2657SOL     OW 8869   1.803   4.587   6.913
 2657SOL    HW1 8870   1.903   4.587   6.922
 2657SOL    HW2 8871   1.779   4.579   6.816
 2658SOL     OW 8872   6.016   4.090   6.155
 2658SOL    HW1 8873   5.983   4.180   6.184
 2658SOL    HW2 8874   6.046   4.094   6.060
 2659SOL     OW 8875   6.619   2.373   4.631
 2659SOL    HW1 8876   6.639   2.361   4.534
 2659SOL    HW2 8877   6.529   2.417   4.642
 2660SOL     OW 8878   6.477   2.626   2.238
 2660SOL    HW1 8879   6.557   2.605   2.293
 2660SOL    HW2 8880   6.487   2.584   2.147
 2661SOL     OW 8881   3.356   5.682   1.232
 2661SOL    HW1 8882   3.265   5.676   1.272
 2661SOL    HW2 8883   3.351   5.658   1.135
 2662SOL     OW 8884   4.467   6.209   4.800
 2662SOL    HW1 8885   4.556   6.163   4.797
 2662SOL    HW2 8886   4.432   6.219   4.707
 2663SOL     OW 8887   1.751   5.245   1.516
 2663SOL    HW1 8888   1.760   5.166   1.577
 2663SOL    HW2 8889   1.717   5.323   1.567
 2664SOL     OW 8890   3.734   3.989   3.008
 2664SOL    HW1 8891   3.653   4.012   2.955
 2664SOL    HW2 8892   3.711   3.989   3.106
 2665SOL     OW 8893   3.682   1.728   4.703
 2665SOL    HW1 8894   3.665   1.825   4.687
 2665SOL    HW2 8895   3.730   1.717   4.791
 2666SOL     OW 8896   4.878   4.548   0.906
 2666SOL    HW1 8897   4.976   4.565   0.919
 2666SOL    HW2 8898   4.853   4.571   0.812
 2667SOL     OW 8899   2.137   6.085   5.561
 2667SOL    HW1 8900   2.040   6.059   5.558
 2667SOL    HW2 8901   2.166   6.118   5.472
 2668SOL     OW 8902   0.091   3.453   4.629
 2668SOL    HW1 8903   0.039   3.368   4.643
 2668SOL    HW2 8904   0.153   3.466   4.706
 2669SOL     OW 8905   4.241   5.416   5.581
 2669SOL    HW1 8906   4.323   5.363   5.562
 2669SOL    HW2 8907   4.175   5.360   5.631
 2670SOL     OW 8908   0.145   0.816   6.892
 2670SOL    HW1 8909   0.106   0.810   6.800
 2670SOL    HW2 8910   0.232   0.767   6.896
 2671SOL     OW 8911   2.499   4.013   6.760
 2671SOL    HW1 8912   2.538   4.040   6.848
 2671SOL    HW2 8913   2.566   4.027   6.688
 2672SOL     OW 8914   2.005   5.524   0.370
 2672SOL    HW1 8915   2.081   5.494   0.428
 2672SOL    HW2 8916   2.022   5.496   0.276
 2673SOL     OW 8917   4.102   2.234   2.939
 2673SOL    HW1 8918   4.028   2.236   3.006
 2673SOL    HW2 8919   4.161   2.315   2.952
 2674SOL     OW 8920   0.953   5.028   4.579
 2674SOL    HW1 8921   0.900   5.102   4.538
 2674SOL    HW2 8922   0.892   4.968   4.630
 2675SOL     OW 8923   0.332   4.100   5.535
 2675SOL    HW1 8924   0.403   4.107   5.605
 2675SOL    HW2 8925   0.282   4.014   5.546
 2676SOL     OW 8926   5.061   1.846   2.462
 2676SOL    HW1 8927   5.098   1.810   2.548
 2676SOL    HW2 8928   5.080   1.781   2.388
 2677SOL     OW 8929   1.454   4.707   1.953
 2677SOL    HW1 8930   1.551   4.716   1.973
 2677SOL    HW2 8931   1.441   4.644   1.877
 2678SOL     OW 8932   1.395   4.931   6.880
 2678SOL    HW1 8933   1.298   4.932   6.906
 2678SOL    HW2 8934   1.423   4.837   6.861
 2679SOL     OW 8935   3.350   5.301   1.163
 2679SOL    HW1 8936   3.403   5.341   1.239
 2679SOL    HW2 8937   3.370   5.203   1.157
 2680SOL     OW 8938   1.796   1.852   0.474
 2680SOL    HW1 8939   1.747   1.789   0.535
 2680SOL    HW2 8940   1.825   1.802   0.393
 2681SOL     OW 8941   1.100   3.193   4.271
 2681SOL    HW1 8942   1.180   3.181   4.331
 2681SOL    HW2 8943   1.058   3.282   4.290
 2682SOL     OW 8944   5.452   2.572   2.180
 2682SOL    HW1 8945   5.357   2.559   2.150
 2682SOL    HW2 8946   5.513   2.563   2.101
 2683SOL     OW 8947   0.333   5.036   1.199
 2683SOL    HW1 8948   0.342   4.937   1.188
 2683SOL    HW2 8949   0.251   5.057   1.252
 2684SOL     OW 8950   4.084   6.282   2.791
 2684SOL    HW1 8951   4.128   6.310   2.705
 2684SOL    HW2 8952   4.032   6.197   2.775
 2685SOL     OW 8953   5.201   6.178   4.639
 2685SOL    HW1 8954   5.238   6.163   4.730
 2685SOL    HW2 8955   5.205   6.276   4.617
 2686SOL     OW 8956   2.592   2.426   4.238
 2686SOL    HW1 8957   2.648   2.418   4.321
 2686SOL    HW2 8958   2.495   2.424   4.263
 2687SOL     OW 8959   4.095   4.756   2.581
 2687SOL    HW1 8960   4.037   4.682   2.614
 2687SOL    HW2 8961   4.058   4.843   2.613
 2688SOL     OW 8962   4.169   5.297   6.000
 2688SOL    HW1 8963   4.244   5.362   6.007
 2688SOL    HW2 8964   4.190   5.228   5.931
 2689SOL     OW 8965   1.433   2.024   3.650
 2689SOL    HW1 8966   1.362   1.967   3.693
 2689SOL    HW2 8967   1.426   2.117   3.685
 2690SOL     OW 8968   3.980   3.112   3.758
 2690SOL    HW1 8969   3.947   3.064   3.840
 2690SOL    HW2 8970   3.999   3.046   3.686
 2691SOL     OW 8971   1.292   5.547   2.215
 2691SOL    HW1 8972   1.272   5.578   2.308
 2691SOL    HW2 8973   1.257   5.454   2.202
 2692SOL     OW 8974   6.968   5.203   3.740
 2692SOL    HW1 8975   6.895   5.141   3.709
 2692SOL    HW2 8976   0.032   5.173   3.701
 2693SOL     OW 8977   2.065   3.751   3.611
 2693SOL    HW1 8978   2.102   3.749   3.703
 2693SOL    HW2 8979   2.125   3.805   3.552
 2694SOL     OW 8980   2.933   7.009   2.893
 2694SOL    HW1 8981   3.011   0.032   2.850
 2694SOL    HW2 8982   2.877   0.051   2.943
 2695SOL     OW 8983   4.503   2.096   2.369
 2695SOL    HW1 8984   4.408   2.126   2.357
 2695SOL    HW2 8985   4.516   2.008   2.322
 2696SOL     OW 8986   3.913   3.904   5.620
 2696SOL    HW1 8987   3.860   3.962   5.682
 2696SOL    HW2 8988   3.919   3.948   5.530
 2697SOL     OW 8989   4.338   2.303   3.943
 2697SOL    HW1 8990   4.339   2.350   4.031
 2697SOL    HW2 8991   4.338   2.204   3.958
 2698SOL     OW 8992   1.015   4.545   1.239
 2698SOL    HW1 8993   1.013   4.644   1.230
 2698SOL    HW2 8994   1.051   4.521   1.329
 2699SOL     OW 8995   3.740   5.349   0.799
 2699SOL    HW1 8996   3.730   5.302   0.887
 2699SOL    HW2 8997   3.822   5.407   0.801
 2700SOL     OW 8998   2.136   3.618   2.624
 2700SOL    HW1 8999   2.139   3.518   2.614
 2700SOL    HW2 9000   2.152   3.642   2.719
 2701SOL     OW 9001   3.484   0.099   6.779
 2701SOL    HW1 9002   3.490   0.065   6.873
 2701SOL    HW2 9003   3.428   0.181   6.776
 2702SOL     OW 9004   0.054   1.395   2.970
 2702SOL    HW1 9005   7.016   1.330   3.013
 2702SOL    HW2 9006   0.078   1.363   2.878
 2703SOL     OW 9007   2.649   1.899   2.668
 2703SOL    HW1 9008   2.693   1.916   2.756
 2703SOL    HW2 9009   2.716   1.910   2.594
 2704SOL     OW 9010   2.275   5.453   2.090
 2704SOL    HW1 9011   2.264   5.469   1.991
 2704SOL    HW2 9012   2.278   5.540   2.138
 2705SOL     OW 9013   6.509   6.134   3.555
 2705SOL    HW1 9014   6.448   6.186   3.615
 2705SOL    HW2 9015   6.579   6.090   3.611
 2706SOL     OW 9016   6.796   1.608   2.047
 2706SOL    HW1 9017   6.874   1.578   1.993
 2706SOL    HW2 9018   6.751   1.528   2.088
 2707SOL     OW 9019   1.921   1.772   6.796
 2707SOL    HW1 9020   1.904   1.712   6.718
 2707SOL    HW2 9021   1.918   1.868   6.766
 2708SOL     OW 9022   2.466   2.624   1.782
 2708SOL    HW1 9023   2.422   2.607   1.694
 2708SOL    HW2 9024   2.396   2.644   1.851
 2709SOL     OW 9025   5.058   5.789   1.373
 2709SOL    HW1 9026   4.990   5.729   1.331
 2709SOL    HW2 9027   5.039   5.799   1.470
 2710SOL     OW 9028   0.026   3.821   2.706
 2710SOL    HW1 9029   0.049   3.728   2.679
 2710SOL    HW2 9030   0.039   3.883   2.629
 2711SOL     OW 9031   1.509   0.152   2.286
 2711SOL    HW1 9032   1.595   0.100   2.285
 2711SOL    HW2 9033   1.501   0.205   2.201
 2712SOL     OW 9034   2.671   4.873   0.363
 2712SOL    HW1 9035   2.587   4.861   0.416
 2712SOL    HW2 9036   2.660   4.829   0.274
 2713SOL     OW 9037   2.152   3.138   4.880
 2713SOL    HW1 9038   2.228   3.084   4.918
 2713SOL    HW2 9039   2.066   3.091   4.899
 2714SOL     OW 9040   5.579   1.566   5.864
 2714SOL    HW1 9041   5.518   1.582   5.942
 2714SOL    HW2 9042   5.672   1.553   5.896
 2715SOL     OW 9043   5.416   1.077   0.362
 2715SOL    HW1 9044   5.479   1.097   0.437
 2715SOL    HW2 9045   5.331   1.039   0.399
 2716SOL     OW 9046   6.595   5.128   1.818
 2716SOL    HW1 9047   6.574   5.206   1.876
 2716SOL    HW2 9048   6.596   5.157   1.722
 2717SOL     OW 9049   0.881   6.473   2.450
 2717SOL    HW1 9050   0.867   6.408   2.525
 2717SOL    HW2 9051   0.947   6.543   2.479
 2718SOL     OW 9052   1.735   3.744   4.255
 2718SOL    HW1 9053   1.713   3.699   4.342
 2718SOL    HW2 9054   1.666   3.815   4.237
 2719SOL     OW 9055   4.342   5.059   2.582
 2719SOL    HW1 9056   4.279   5.035   2.656
 2719SOL    HW2 9057   4.397   4.980   2.557
 2720SOL     OW 9058   1.572   6.284   4.068
 2720SOL    HW1 9059   1.634   6.352   4.109
 2720SOL    HW2 9060   1.615   6.244   3.988
 2721SOL     OW 9061   2.577   0.153   4.319
 2721SOL    HW1 9062   2.589   0.072   4.262
 2721SOL    HW2 9063   2.529   0.224   4.268
 2722SOL     OW 9064   0.616   5.464   3.266
 2722SOL    HW1 9065   0.632   5.508   3.177
 2722SOL    HW2 9066   0.536   5.405   3.260
 2723SOL     OW 9067   2.220   1.472   5.444
 2723SOL    HW1 9068   2.237   1.570   5.454
 2723SOL    HW2 9069   2.306   1.422   5.449
 2724SOL     OW 9070   3.383   5.362   6.435
 2724SOL    HW1 9071   3.429   5.314   6.361
 2724SOL    HW2 9072   3.328   5.297   6.487
 2725SOL     OW 9073   4.889   4.535   2.919
 2725SOL    HW1 9074   4.900   4.634   2.905
 2725SOL    HW2 9075   4.969   4.499   2.967
 2726SOL     OW 9076   4.887   4.625   1.893
 2726SOL    HW1 9077   4.849   4.657   1.807
 2726SOL    HW2 9078   4.987   4.619   1.885
 2727SOL     OW 9079   0.766   4.978   3.002
 2727SOL    HW1 9080   0.673   4.992   3.037
 2727SOL    HW2 9081   0.789   5.053   2.939
 2728SOL     OW 9082   2.986   6.982   5.011
 2728SOL    HW1 9083   3.059   6.984   4.943
 2728SOL    HW2 9084   2.984   6.892   5.055
 2729SOL     OW 9085   6.427   5.396   3.325
 2729SOL    HW1 9086   6.436   5.494   3.308
 2729SOL    HW2 9087   6.518   5.357   3.341
 2730SOL     OW 9088   2.404   6.764   0.235
 2730SOL    HW1 9089   2.407   6.702   0.156
 2730SOL    HW2 9090   2.485   6.748   0.292
 2731SOL     OW 9091   2.960   4.031   1.768
 2731SOL    HW1 9092   2.944   4.125   1.737
 2731SOL    HW2 9093   2.893   3.970   1.727
 2732SOL     OW 9094   5.870   3.063   2.418
 2732SOL    HW1 9095   5.785   3.014   2.399
 2732SOL    HW2 9096   5.947   3.000   2.413
 2733SOL     OW 9097   0.755   6.740   5.791
 2733SOL    HW1 9098   0.690   6.814   5.774
 2733SOL    HW2 9099   0.831   6.748   5.727
 2734SOL     OW 9100   1.850   0.053   3.656
 2734SOL    HW1 9101   1.826   0.047   3.753
 2734SOL    HW2 9102   1.809   0.135   3.617
 2735SOL     OW 9103   1.134   4.070   2.653
 2735SOL    HW1 9104   1.174   4.091   2.564
 2735SOL    HW2 9105   1.070   4.143   2.679
 2736SOL     OW 9106   4.678   0.440   5.521
 2736SOL    HW1 9107   4.713   0.510   5.584
 2736SOL    HW2 9108   4.678   0.477   5.428
 2737SOL     OW 9109   3.818   3.553   6.307
 2737SOL    HW1 9110   3.888   3.494   6.348
 2737SOL    HW2 9111   3.863   3.631   6.264
 2738SOL     OW 9112   4.933   5.150   3.802
 2738SOL    HW1 9113   4.910   5.197   3.887
 2738SOL    HW2 9114   4.922   5.052   3.814
 2739SOL     OW 9115   5.507   4.475   0.985
 2739SOL    HW1 9116   5.558   4.413   0.925
 2739SOL    HW2 9117   5.502   4.565   0.941
 2740SOL     OW 9118   6.280   2.264   2.437
 2740SOL    HW1 9119   6.337   2.296   2.513
 2740SOL    HW2 9120   6.338   2.246   2.358
 2741SOL     OW 9121   6.913   2.234   5.888
 2741SOL    HW1 9122   6.822   2.264   5.861
 2741SOL    HW2 9123   6.910   2.138   5.917
 2742SOL     OW 9124   1.591   5.649   6.545
 2742SOL    HW1 9125   1.519   5.639   6.476
 2742SOL    HW2 9126   1.663   5.582   6.528
 2743SOL     OW 9127   5.166   5.073   1.683
 2743SOL    HW1 9128   5.173   5.083   1.782
 2743SOL    HW2 9129   5.121   5.153   1.644
 2744SOL     OW 9130   4.293   2.289   6.746
 2744SOL    HW1 9131   4.280   2.347   6.666
 2744SOL    HW2 9132   4.367   2.223   6.728
 2745SOL     OW 9133   1.710   6.250   1.099
 2745SOL    HW1 9134   1.748   6.253   1.006
 2745SOL    HW2 9135   1.774   6.203   1.160
 2746SOL     OW 9136   1.721   2.308   5.098
 2746SOL    HW1 9137   1.802   2.344   5.145
 2746SOL    HW2 9138   1.682   2.380   5.040
 2747SOL     OW 9139   6.139   5.519   4.782
 2747SOL    HW1 9140   6.175   5.584   4.849
 2747SOL    HW2 9141   6.166   5.548   4.690
 2748SOL     OW 9142   4.347   1.500   3.651
 2748SOL    HW1 9143   4.274   1.562   3.621
 2748SOL    HW2 9144   4.435   1.548   3.649
 2749SOL     OW 9145   4.708   4.319   4.053
 2749SOL    HW1 9146   4.724   4.238   4.110
 2749SOL    HW2 9147   4.793   4.343   4.005
 2750SOL     OW 9148   0.718   5.957   2.138
 2750SOL    HW1 9149   0.688   5.992   2.049
 2750SOL    HW2 9150   0.799   5.900   2.125
 2751SOL     OW 9151   1.972   0.157   0.136
 2751SOL    HW1 9152   1.983   0.082   0.201
 2751SOL    HW2 9153   1.879   0.193   0.142
 2752SOL     OW 9154   5.432   6.321   5.045
 2752SOL    HW1 9155   5.502   6.375   4.997
 2752SOL    HW2 9156   5.428   6.350   5.141
 2753SOL     OW 9157   3.574   6.147   6.359
 2753SOL    HW1 9158   3.619   6.082   6.421
 2753SOL    HW2 9159   3.480   6.116   6.342
 2754SOL     OW 9160   0.257   0.226   4.413
 2754SOL    HW1 9161   0.353   0.205   4.397
 2754SOL    HW2 9162   0.245   0.254   4.509
 2755SOL     OW 9163   3.233   6.180   2.430
 2755SOL    HW1 9164   3.185   6.113   2.487
 2755SOL    HW2 9165   3.328   6.188   2.461
 2756SOL     OW 9166   5.547   3.640   5.208
 2756SOL    HW1 9167   5.486   3.565   5.181
 2756SOL    HW2 9168   5.609   3.661   5.133
 2757SOL     OW 9169   4.700   1.859   0.095
 2757SOL    HW1 9170   4.747   1.945   0.116
 2757SOL    HW2 9171   4.768   1.790   0.071
 2758SOL     OW 9172   5.357   4.866   3.300
 2758SOL    HW1 9173   5.286   4.921   3.256
 2758SOL    HW2 9174   5.320   4.822   3.382
 2759SOL     OW 9175   3.345   4.481   6.025
 2759SOL    HW1 9176   3.255   4.500   5.984
 2759SOL    HW2 9177   3.394   4.416   5.967
 2760SOL     OW 9178   5.617   5.894   3.623
 2760SOL    HW1 9179   5.663   5.834   3.558
 2760SOL    HW2 9180   5.580   5.973   3.574
 2761SOL     OW 9181   1.868   3.877   2.937
 2761SOL    HW1 9182   1.830   3.801   2.883
 2761SOL    HW2 9183   1.798   3.910   3.000
 2762SOL     OW 9184   1.616   2.357   6.950
 2762SOL    HW1 9185   1.552   2.416   6.998
 2762SOL    HW2 9186   1.663   2.297   7.016
 2763SOL     OW 9187   4.691   1.302   6.000
 2763SOL    HW1 9188   4.750   1.299   6.081
 2763SOL    HW2 9189   4.690   1.394   5.962
 2764SOL     OW 9190   0.534   4.005   1.863
 2764SOL    HW1 9191   0.471   3.958   1.801
 2764SOL    HW2 9192   0.571   3.939   1.929
 2765SOL     OW 9193   6.206   6.602   0.190
 2765SOL    HW1 9194   6.176   6.560   0.105
 2765SOL    HW2 9195   6.135   6.590   0.260
 2766SOL     OW 9196   5.401   1.216   6.702
 2766SOL    HW1 9197   5.412   1.226   6.801
 2766SOL    HW2 9198   5.303   1.215   6.679
 2767SOL     OW 9199   5.786   4.847   6.403
 2767SOL    HW1 9200   5.721   4.923   6.409
 2767SOL    HW2 9201   5.861   4.873   6.342
 2768SOL     OW 9202   4.601   0.622   1.029
 2768SOL    HW1 9203   4.550   0.704   1.003
 2768SOL    HW2 9204   4.652   0.639   1.113
 2769SOL     OW 9205   1.570   4.425   5.960
 2769SOL    HW1 9206   1.559   4.486   5.881
 2769SOL    HW2 9207   1.666   4.425   5.988
 2770SOL     OW 9208   2.460   6.887   6.698
 2770SOL    HW1 9209   2.427   6.981   6.700
 2770SOL    HW2 9210   2.426   6.842   6.615
 2771SOL     OW 9211   4.724   0.290   5.093
 2771SOL    HW1 9212   4.715   0.278   5.192
 2771SOL    HW2 9213   4.640   0.259   5.048
 2772SOL     OW 9214   4.018   0.848   2.694
 2772SOL    HW1 9215   4.029   0.850   2.595
 2772SOL    HW2 9216   4.084   0.784   2.734
 2773SOL     OW 9217   6.685   3.002   4.331
 2773SOL    HW1 9218   6.748   2.950   4.272
 2773SOL    HW2 9219   6.599   2.952   4.339
 2774SOL     OW 9220   4.925   1.779   3.508
 2774SOL    HW1 9221   4.953   1.875   3.502
 2774SOL    HW2 9222   4.894   1.748   3.419
 2775SOL     OW 9223   0.411   4.347   4.848
 2775SOL    HW1 9224   0.503   4.325   4.880
 2775SOL    HW2 9225   0.357   4.263   4.842
 2776SOL     OW 9226   4.981   5.101   6.117
 2776SOL    HW1 9227   4.897   5.047   6.112
 2776SOL    HW2 9228   5.048   5.065   6.053
 2777SOL     OW 9229   3.192   2.281   6.005
 2777SOL    HW1 9230   3.254   2.203   6.011
 2777SOL    HW2 9231   3.200   2.324   5.915
 2778SOL     OW 9232   2.338   6.142   6.582
 2778SOL    HW1 9233   2.317   6.141   6.679
 2778SOL    HW2 9234   2.366   6.050   6.552
 2779SOL     OW 9235   6.136   6.035   2.431
 2779SOL    HW1 9236   6.068   6.018   2.360
 2779SOL    HW2 9237   6.217   6.076   2.390
 2780SOL     OW 9238   0.187   1.298   6.203
 2780SOL    HW1 9239   0.251   1.353   6.149
 2780SOL    HW2 9240   0.228   1.276   6.292
 2781SOL     OW 9241   6.723   0.322   2.550
 2781SOL    HW1 9242   6.754   0.273   2.468
 2781SOL    HW2 9243   6.773   0.408   2.557
 2782SOL     OW 9244   4.512   1.113   6.865
 2782SOL    HW1 9245   4.499   1.058   6.783
 2782SOL    HW2 9246   4.430   1.109   6.921
 2783SOL     OW 9247   5.523   3.376   1.742
 2783SOL    HW1 9248   5.622   3.392   1.744
 2783SOL    HW2 9249   5.503   3.287   1.784
 2784SOL     OW 9250   1.769   1.846   1.006
 2784SOL    HW1 9251   1.784   1.769   1.068
 2784SOL    HW2 9252   1.753   1.929   1.059
 2785SOL     OW 9253   5.432   2.987   1.654
 2785SOL    HW1 9254   5.472   3.014   1.741
 2785SOL    HW2 9255   5.429   2.887   1.648
 2786SOL     OW 9256   6.935   5.747   0.388
 2786SOL    HW1 9257   7.009   5.782   0.445
 2786SOL    HW2 9258   6.956   5.653   0.360
 2787SOL     OW 9259   6.023   5.269   5.807
 2787SOL    HW1 9260   5.985   5.243   5.719
 2787SOL    HW2 9261   6.122   5.281   5.799
 2788SOL     OW 9262   3.693   6.450   5.576
 2788SOL    HW1 9263   3.715   6.354   5.595
 2788SOL    HW2 9264   3.595   6.465   5.590
 2789SOL     OW 9265   0.253   2.687   4.992
 2789SOL    HW1 9266   0.315   2.723   4.922
 2789SOL    HW2 9267   0.170   2.652   4.949
 2790SOL     OW 9268   2.383   5.659   0.532
 2790SOL    HW1 9269   2.480   5.680   0.529
 2790SOL    HW2 9270   2.359   5.621   0.621
 2791SOL     OW 9271   6.765   3.458   3.206
 2791SOL    HW1 9272   6.708   3.540   3.197
 2791SOL    HW2 9273   6.715   3.388   3.257
 2792SOL     OW 9274   3.301   1.367   5.224
 2792SOL    HW1 9275   3.393   1.344   5.255
 2792SOL    HW2 9276   3.279   1.314   5.142
 2793SOL     OW 9277   3.634   4.700   1.223
 2793SOL    HW1 9278   3.677   4.620   1.265
 2793SOL    HW2 9279   3.689   4.731   1.145
 2794SOL     OW 9280   0.024   1.549   6.039
 2794SOL    HW1 9281   0.028   1.529   6.137
 2794SOL    HW2 9282   6.970   1.502   5.998
 2795SOL     OW 9283   0.704   4.444   1.787
 2795SOL    HW1 9284   0.751   4.411   1.705
 2795SOL    HW2 9285   0.608   4.415   1.784
 2796SOL     OW 9286   0.970   5.963   5.975
 2796SOL    HW1 9287   1.010   5.880   5.936
 2796SOL    HW2 9288   0.940   6.024   5.901
 2797SOL     OW 9289   5.172   6.906   4.465
 2797SOL    HW1 9290   5.252   6.934   4.412
 2797SOL    HW2 9291   5.109   6.983   4.472
 2798SOL     OW 9292   6.062   6.318   1.831
 2798SOL    HW1 9293   6.077   6.396   1.770
 2798SOL    HW2 9294   6.149   6.271   1.847
 2799SOL     OW 9295   3.908   6.238   4.787
 2799SOL    HW1 9296   3.921   6.155   4.840
 2799SOL    HW2 9297   3.988   6.297   4.798
 2800SOL     OW 9298   6.158   0.931   6.516
 2800SOL    HW1 9299   6.123   0.861   6.454
 2800SOL    HW2 9300   6.120   0.915   6.608
 2801SOL     OW 9301   0.647   5.008   5.761
 2801SOL    HW1 9302   0.728   4.978   5.811
 2801SOL    HW2 9303   0.669   5.091   5.709
 2802SOL     OW 9304   6.437   5.989   5.182
 2802SOL    HW1 9305   6.475   6.078   5.208
 2802SOL    HW2 9306   6.362   5.966   5.244
 2803SOL     OW 9307   3.227   3.454   6.308
 2803SOL    HW1 9308   3.160   3.494   6.245
 2803SOL    HW2 9309   3.226   3.354   6.299
 2804SOL     OW 9310   0.514   3.069   4.170
 2804SOL    HW1 9311   0.420   3.035   4.182
 2804SOL    HW2 9312   0.577   3.011   4.222
 2805SOL     OW 9313   4.263   3.220   1.473
 2805SOL    HW1 9314   4.258   3.317   1.500
 2805SOL    HW2 9315   4.284   3.164   1.553
 2806SOL     OW 9316   0.932   4.529   5.955
 2806SOL    HW1 9317   0.931   4.604   6.021
 2806SOL    HW2 9318   0.845   4.481   5.957
 2807SOL     OW 9319   2.711   0.197   3.394
 2807SOL    HW1 9320   2.737   0.101   3.384
 2807SOL    HW2 9321   2.763   0.253   3.330
 2808SOL     OW 9322   6.071   5.500   0.276
 2808SOL    HW1 9323   6.015   5.555   0.338
 2808SOL    HW2 9324   6.012   5.448   0.214
 2809SOL     OW 9325   6.409   4.793   2.125
 2809SOL    HW1 9326   6.335   4.851   2.158
 2809SOL    HW2 9327   6.392   4.768   2.029
 2810SOL     OW 9328   2.245   5.388   3.737
 2810SOL    HW1 9329   2.318   5.328   3.770
 2810SOL    HW2 9330   2.216   5.448   3.812
 2811SOL     OW 9331   0.844   0.373   2.224
 2811SOL    HW1 9332   0.795   0.393   2.309
 2811SOL    HW2 9333   0.882   0.458   2.186
 2812SOL     OW 9334   0.340   3.391   1.056
 2812SOL    HW1 9335   0.276   3.468   1.053
 2812SOL    HW2 9336   0.333   3.339   0.971
 2813SOL     OW 9337   0.797   2.089   1.233
 2813SOL    HW1 9338   0.733   2.030   1.182
 2813SOL    HW2 9339   0.765   2.183   1.230
 2814SOL     OW 9340   2.045   4.008   0.526
 2814SOL    HW1 9341   1.990   4.091   0.533
 2814SOL    HW2 9342   2.034   3.954   0.610
 2815SOL     OW 9343   0.558   5.885   5.165
 2815SOL    HW1 9344   0.547   5.788   5.145
 2815SOL    HW2 9345   0.618   5.896   5.245
 2816SOL     OW 9346   0.281   5.954   5.669
 2816SOL    HW1 9347   0.213   5.881   5.672
 2816SOL    HW2 9348   0.296   5.983   5.574
 2817SOL     OW 9349   3.963   0.627   2.143
 2817SOL    HW1 9350   3.961   0.596   2.238
 2817SOL    HW2 9351   3.870   0.647   2.112
 2818SOL     OW 9352   1.471   0.456   1.314
 2818SOL    HW1 9353   1.469   0.413   1.224
 2818SOL    HW2 9354   1.418   0.401   1.379
 2819SOL     OW 9355   0.436   0.258   0.853
 2819SOL    HW1 9356   0.426   0.181   0.915
 2819SOL    HW2 9357   0.530   0.262   0.819
 2820SOL     OW 9358   1.297   2.531   1.405
 2820SOL    HW1 9359   1.307   2.618   1.453
 2820SOL    HW2 9360   1.229   2.474   1.451
 2821SOL     OW 9361   3.081   4.410   6.491
 2821SOL    HW1 9362   3.094   4.408   6.392
 2821SOL    HW2 9363   3.009   4.475   6.514
 2822SOL     OW 9364   4.369   2.316   0.659
 2822SOL    HW1 9365   4.373   2.216   0.667
 2822SOL    HW2 9366   4.295   2.351   0.716
 2823SOL     OW 9367   4.954   1.916   0.581
 2823SOL    HW1 9368   4.896   1.871   0.513
 2823SOL    HW2 9369   5.043   1.871   0.583
 2824SOL     OW 9370   1.114   3.638   5.362
 2824SOL    HW1 9371   1.058   3.669   5.440
 2824SOL    HW2 9372   1.204   3.609   5.394
 2825SOL     OW 9373   5.143   1.559   6.182
 2825SOL    HW1 9374   5.047   1.550   6.158
 2825SOL    HW2 9375   5.153   1.563   6.281
 2826SOL     OW 9376   1.463   4.288   6.703
 2826SOL    HW1 9377   1.546   4.285   6.758
 2826SOL    HW2 9378   1.475   4.232   6.622
 2827SOL     OW 9379   0.051   0.579   6.361
 2827SOL    HW1 9380   6.980   0.552   6.344
 2827SOL    HW2 9381   0.091   0.518   6.429
 2828SOL     OW 9382   1.629   4.052   1.003
 2828SOL    HW1 9383   1.559   4.115   1.037
 2828SOL    HW2 9384   1.607   3.959   1.033
 2829SOL     OW 9385   3.650   3.963   3.277
 2829SOL    HW1 9386   3.698   4.025   3.339
 2829SOL    HW2 9387   3.663   3.869   3.308
 2830SOL     OW 9388   3.516   5.437   5.771
 2830SOL    HW1 9389   3.494   5.344   5.742
 2830SOL    HW2 9390   3.440   5.498   5.749
 2831SOL     OW 9391   6.603   2.021   1.697
 2831SOL    HW1 9392   6.599   1.921   1.702
 2831SOL    HW2 9393   6.617   2.058   1.789
 2832SOL     OW 9394   0.520   3.160   0.993
 2832SOL    HW1 9395   0.564   3.087   0.941
 2832SOL    HW2 9396   0.432   3.129   1.027
 2833SOL     OW 9397   1.697   2.232   1.563
 2833SOL    HW1 9398   1.749   2.238   1.478
 2833SOL    HW2 9399   1.623   2.300   1.560
 2834SOL     OW 9400   4.259   6.035   4.869
 2834SOL    HW1 9401   4.266   5.968   4.795
 2834SOL    HW2 9402   4.335   6.099   4.864
 2835SOL     OW 9403   0.864   6.635   0.570
 2835SOL    HW1 9404   0.885   6.655   0.665
 2835SOL    HW2 9405   0.937   6.579   0.530
 2836SOL     OW 9406   3.725   5.908   3.580
 2836SOL    HW1 9407   3.690   5.899   3.672
 2836SOL    HW2 9408   3.806   5.850   3.568
 2837SOL     OW 9409   5.290   3.997   2.309
 2837SOL    HW1 9410   5.264   3.915   2.259
 2837SOL    HW2 9411   5.207   4.049   2.331
 2838SOL     OW 9412   5.040   3.772   6.061
 2838SOL    HW1 9413   4.990   3.829   5.995
 2838SOL    HW2 9414   5.109   3.718   6.013
 2839SOL     OW 9415   6.069   3.269   4.905
 2839SOL    HW1 9416   6.047   3.216   4.987
 2839SOL    HW2 9417   6.003   3.248   4.833
 2840SOL     OW 9418   0.572   5.892   3.117
 2840SOL    HW1 9419   0.632   5.939   3.052
 2840SOL    HW2 9420   0.582   5.932   3.208
 2841SOL     OW 9421   5.643   2.393   1.828
 2841SOL    HW1 9422   5.619   2.474   1.881
 2841SOL    HW2 9423   5.679   2.323   1.890
 2842SOL     OW 9424   1.720   6.587   3.587
 2842SOL    HW1 9425   1.633   6.565   3.632
 2842SOL    HW2 9426   1.780   6.634   3.651
 2843SOL     OW 9427   2.089   2.937   3.266
 2843SOL    HW1 9428   2.156   2.897   3.328
 2843SOL    HW2 9429   2.061   3.027   3.301
 2844SOL     OW 9430   4.746   4.269   0.892
 2844SOL    HW1 9431   4.647   4.282   0.883
 2844SOL    HW2 9432   4.794   4.337   0.836
 2845SOL     OW 9433   3.932   2.182   3.146
 2845SOL    HW1 9434   3.935   2.083   3.129
 2845SOL    HW2 9435   3.933   2.200   3.244
 2846SOL     OW 9436   4.919   0.614   0.760
 2846SOL    HW1 9437   4.830   0.628   0.716
 2846SOL    HW2 9438   4.933   0.682   0.831
 2847SOL     OW 9439   5.107   4.174   2.413
 2847SOL    HW1 9440   5.029   4.216   2.460
 2847SOL    HW2 9441   5.192   4.207   2.452
 2848SOL     OW 9442   0.718   3.849   5.101
 2848SOL    HW1 9443   0.809   3.888   5.114
 2848SOL    HW2 9444   0.703   3.830   5.004
 2849SOL     OW 9445   3.733   0.220   2.685
 2849SOL    HW1 9446   3.815   0.273   2.705
 2849SOL    HW2 9447   3.668   0.229   2.760
 2850SOL     OW 9448   2.427   0.070   2.812
 2850SOL    HW1 9449   2.490   0.146   2.824
 2850SOL    HW2 9450   2.438   0.032   2.720
 2851SOL     OW 9451   4.064   3.106   0.968
 2851SOL    HW1 9452   4.075   3.205   0.958
 2851SOL    HW2 9453   4.152   3.065   0.993
 2852SOL     OW 9454   6.489   4.270   5.974
 2852SOL    HW1 9455   6.455   4.205   5.906
 2852SOL    HW2 9456   6.475   4.232   6.065
 2853SOL     OW 9457   0.731   3.854   0.038
 2853SOL    HW1 9458   0.704   3.884   0.130
 2853SOL    HW2 9459   0.829   3.836   0.036
 2854SOL     OW 9460   3.541   1.643   5.936
 2854SOL    HW1 9461   3.449   1.606   5.948
 2854SOL    HW2 9462   3.608   1.573   5.960
 2855SOL     OW 9463   1.893   1.411   4.445
 2855SOL    HW1 9464   1.809   1.461   4.426
 2855SOL    HW2 9465   1.938   1.450   4.525
 2856SOL     OW 9466   1.088   4.470   3.143
 2856SOL    HW1 9467   1.111   4.413   3.221
 2856SOL    HW2 9468   0.992   4.496   3.148
 2857SOL     OW 9469   6.649   3.227   0.625
 2857SOL    HW1 9470   6.748   3.228   0.610
 2857SOL    HW2 9471   6.630   3.259   0.718
 2858SOL     OW 9472   4.666   4.648   3.144
 2858SOL    HW1 9473   4.599   4.576   3.129
 2858SOL    HW2 9474   4.687   4.693   3.057
 2859SOL     OW 9475   5.421   4.689   1.864
 2859SOL    HW1 9476   5.449   4.785   1.869
 2859SOL    HW2 9477   5.500   4.632   1.843
 2860SOL     OW 9478   1.172   5.848   1.404
 2860SOL    HW1 9479   1.180   5.943   1.435
 2860SOL    HW2 9480   1.094   5.840   1.342
 2861SOL     OW 9481   4.648   4.880   7.014
 2861SOL    HW1 9482   4.572   4.831   0.032
 2861SOL    HW2 9483   4.630   4.893   6.916
 2862SOL     OW 9484   4.593   2.910   0.978
 2862SOL    HW1 9485   4.531   2.907   0.899
 2862SOL    HW2 9486   4.590   2.822   1.026
 2863SOL     OW 9487   5.975   6.908   5.164
 2863SOL    HW1 9488   6.008   6.820   5.196
 2863SOL    HW2 9489   5.933   6.958   5.240
 2864SOL     OW 9490   3.842   3.355   0.069
 2864SOL    HW1 9491   3.833   3.403   0.156
 2864SOL    HW2 9492   3.771   3.385   0.006
 2865SOL     OW 9493   5.190   6.081   4.341
 2865SOL    HW1 9494   5.173   5.990   4.380
 2865SOL    HW2 9495   5.110   6.110   4.287
 2866SOL     OW 9496   4.485   4.184   6.821
 2866SOL    HW1 9497   4.459   4.281   6.822
 2866SOL    HW2 9498   4.408   4.129   6.789
 2867SOL     OW 9499   5.814   6.495   1.951
 2867SOL    HW1 9500   5.883   6.477   1.880
 2867SOL    HW2 9501   5.732   6.533   1.910
 2868SOL     OW 9502   1.703   1.005   5.917
 2868SOL    HW1 9503   1.770   1.062   5.965
 2868SOL    HW2 9504   1.739   0.978   5.828
 2869SOL     OW 9505   5.371   5.361   3.816
 2869SOL    HW1 9506   5.298   5.343   3.749
 2869SOL    HW2 9507   5.389   5.459   3.821
 2870SOL     OW 9508   0.544   1.771   1.519
 2870SOL    HW1 9509   0.556   1.842   1.588
 2870SOL    HW2 9510   0.581   1.684   1.553
 2871SOL     OW 9511   5.918   1.411   1.437
 2871SOL    HW1 9512   5.831   1.460   1.431
 2871SOL    HW2 9513   5.969   1.442   1.517
 2872SOL     OW 9514   2.189   1.749   2.140
 2872SOL    HW1 9515   2.201   1.814   2.065
 2872SOL    HW2 9516   2.104   1.770   2.189
 2873SOL     OW 9517   0.641   6.480   1.171
 2873SOL    HW1 9518   0.631   6.577   1.193
 2873SOL    HW2 9519   0.724   6.444   1.214
 2874SOL     OW 9520   2.030   0.818   3.375
 2874SOL    HW1 9521   1.967   0.807   3.298
 2874SOL    HW2 9522   2.119   0.848   3.341
 2875SOL     OW 9523   2.747   6.696   3.046
 2875SOL    HW1 9524   2.842   6.724   3.065
 2875SOL    HW2 9525   2.745   6.598   3.027
 2876SOL     OW 9526   1.428   6.497   2.197
 2876SOL    HW1 9527   1.345   6.553   2.198
 2876SOL    HW2 9528   1.414   6.418   2.136
 2877SOL     OW 9529   1.587   1.249   5.766
 2877SOL    HW1 9530   1.505   1.196   5.789
 2877SOL    HW2 9531   1.561   1.333   5.719
 2878SOL     OW 9532   4.020   3.233   4.741
 2878SOL    HW1 9533   4.115   3.221   4.769
 2878SOL    HW2 9534   3.960   3.186   4.805
 2879SOL     OW 9535   4.347   5.051   6.523
 2879SOL    HW1 9536   4.351   5.129   6.586
 2879SOL    HW2 9537   4.411   5.066   6.448
 2880SOL     OW 9538   1.628   1.309   4.787
 2880SOL    HW1 9539   1.612   1.220   4.830
 2880SOL    HW2 9540   1.600   1.382   4.849
 2881SOL     OW 9541   4.036   6.444   6.958
 2881SOL    HW1 9542   4.063   6.422   0.028
 2881SOL    HW2 9543   3.941   6.476   6.958
 2882SOL     OW 9544   4.512   5.907   0.608
 2882SOL    HW1 9545   4.481   5.828   0.661
 2882SOL    HW2 9546   4.477   5.991   0.650
 2883SOL     OW 9547   6.144   6.431   3.613
 2883SOL    HW1 9548   6.059   6.443   3.665
 2883SOL    HW2 9549   6.124   6.434   3.515
 2884SOL     OW 9550   0.163   5.364   3.123
 2884SOL    HW1 9551   0.087   5.322   3.074
 2884SOL    HW2 9552   0.245   5.362   3.066
 2885SOL     OW 9553   1.057   3.234   2.819
 2885SOL    HW1 9554   1.070   3.326   2.853
 2885SOL    HW2 9555   0.967   3.199   2.846
 2886SOL     OW 9556   2.682   4.814   5.797
 2886SOL    HW1 9557   2.689   4.824   5.896
 2886SOL    HW2 9558   2.642   4.725   5.775
 2887SOL     OW 9559   1.343   6.122   3.865
 2887SOL    HW1 9560   1.392   6.179   3.799
 2887SOL    HW2 9561   1.260   6.169   3.894
 2888SOL     OW 9562   6.537   6.295   0.801
 2888SOL    HW1 9563   6.495   6.380   0.834
 2888SOL    HW2 9564   6.469   6.241   0.752
 2889SOL     OW 9565   3.219   6.454   3.322
 2889SOL    HW1 9566   3.149   6.430   3.389
 2889SOL    HW2 9567   3.196   6.543   3.281
 2890SOL     OW 9568   1.719   0.368   0.661
 2890SOL    HW1 9569   1.720   0.464   0.635
 2890SOL    HW2 9570   1.731   0.360   0.760
 2891SOL     OW 9571   0.504   3.153   3.849
 2891SOL    HW1 9572   0.453   3.074   3.882
 2891SOL    HW2 9573   0.456   3.195   3.772
 2892SOL     OW 9574   6.738   3.782   1.192
 2892SOL    HW1 9575   6.680   3.742   1.121
 2892SOL    HW2 9576   6.718   3.880   1.200
 2893SOL     OW 9577   0.165   4.861   4.589
 2893SOL    HW1 9578   0.203   4.929   4.651
 2893SOL    HW2 9579   0.085   4.818   4.631
 2894SOL     OW 9580   0.955   5.118   1.836
 2894SOL    HW1 9581   0.955   5.040   1.773
 2894SOL    HW2 9582   1.045   5.127   1.878
 2895SOL     OW 9583   3.885   6.829   5.936
 2895SOL    HW1 9584   3.829   6.910   5.954
 2895SOL    HW2 9585   3.863   6.793   5.845
 2896SOL     OW 9586   5.535   6.404   4.701
 2896SOL    HW1 9587   5.571   6.444   4.785
 2896SOL    HW2 9588   5.592   6.434   4.623
 2897SOL     OW 9589   3.921   4.974   2.660
 2897SOL    HW1 9590   3.877   5.057   2.626
 2897SOL    HW2 9591   3.868   4.938   2.737
 2898SOL     OW 9592   5.674   4.197   2.795
 2898SOL    HW1 9593   5.772   4.184   2.810
 2898SOL    HW2 9594   5.639   4.121   2.738
 2899SOL     OW 9595   6.824   3.135   1.050
 2899SOL    HW1 9596   6.885   3.202   1.008
 2899SOL    HW2 9597   6.806   3.161   1.145
 2900SOL     OW 9598   3.328   3.707   0.308
 2900SOL    HW1 9599   3.234   3.692   0.279
 2900SOL    HW2 9600   3.378   3.755   0.236
 2901SOL     OW 9601   1.432   3.622   3.199
 2901SOL    HW1 9602   1.428   3.647   3.103
 2901SOL    HW2 9603   1.519   3.576   3.218
 2902SOL     OW 9604   1.108   5.861   4.035
 2902SOL    HW1 9605   1.070   5.941   4.081
 2902SOL    HW2 9606   1.202   5.845   4.068
 2903SOL     OW 9607   4.059   6.040   0.988
 2903SOL    HW1 9608   4.075   6.099   0.908
 2903SOL    HW2 9609   4.097   6.084   1.069
 2904SOL     OW 9610   2.393   4.446   5.269
 2904SOL    HW1 9611   2.450   4.466   5.349
 2904SOL    HW2 9612   2.443   4.471   5.186
 2905SOL     OW 9613   0.590   4.830   1.808
 2905SOL    HW1 9614   0.546   4.896   1.748
 2905SOL    HW2 9615   0.660   4.780   1.758
 2906SOL     OW 9616   5.975   5.856   3.570
 2906SOL    HW1 9617   6.054   5.795   3.571
 2906SOL    HW2 9618   6.006   5.950   3.578
 2907SOL     OW 9619   0.978   0.350   3.517
 2907SOL    HW1 9620   0.893   0.316   3.475
 2907SOL    HW2 9621   0.956   0.424   3.580
 2908SOL     OW 9622   4.485   0.032   3.200
 2908SOL    HW1 9623   4.401   0.029   3.254
 2908SOL    HW2 9624   4.468   7.017   3.109
 2909SOL     OW 9625   1.208   5.837   2.319
 2909SOL    HW1 9626   1.272   5.815   2.393
 2909SOL    HW2 9627   1.118   5.800   2.341
 2910SOL     OW 9628   0.015   0.408   3.422
 2910SOL    HW1 9629   7.014   0.311   3.424
 2910SOL    HW2 9630   0.108   0.417   3.386
 2911SOL     OW 9631   6.884   4.009   4.423
 2911SOL    HW1 9632   6.834   3.923   4.419
 2911SOL    HW2 9633   6.967   4.003   4.367
 2912SOL     OW 9634   6.972   6.504   0.589
 2912SOL    HW1 9635   6.975   6.508   0.490
 2912SOL    HW2 9636   6.899   6.563   0.623
 2913SOL     OW 9637   2.122   5.734   0.907
 2913SOL    HW1 9638   2.056   5.712   0.835
 2913SOL    HW2 9639   2.195   5.791   0.869
 2914SOL     OW 9640   5.030   5.121   0.380
 2914SOL    HW1 9641   5.087   5.135   0.461
 2914SOL    HW2 9642   5.052   5.032   0.339
 2915SOL     OW 9643   3.212   1.304   3.401
 2915SOL    HW1 9644   3.126   1.255   3.417
 2915SOL    HW2 9645   3.247   1.282   3.310
 2916SOL     OW 9646   1.488   6.344   0.697
 2916SOL    HW1 9647   1.449   6.252   0.705
 2916SOL    HW2 9648   1.552   6.346   0.620
 2917SOL     OW 9649   2.416   6.547   3.513
 2917SOL    HW1 9650   2.419   6.536   3.612
 2917SOL    HW2 9651   2.495   6.601   3.483
 2918SOL     OW 9652   6.250   3.601   0.965
 2918SOL    HW1 9653   6.258   3.671   1.036
 2918SOL    HW2 9654   6.215   3.643   0.882
 2919SOL     OW 9655   1.064   6.085   4.204
 2919SOL    HW1 9656   1.064   6.185   4.195
 2919SOL    HW2 9657   1.079   6.061   4.300
 2920SOL     OW 9658   1.528   1.828   1.462
 2920SOL    HW1 9659   1.580   1.861   1.383
 2920SOL    HW2 9660   1.431   1.839   1.445
 2921SOL     OW 9661   0.269   6.953   5.755
 2921SOL    HW1 9662   0.275   0.023   5.788
 2921SOL    HW2 9663   0.195   6.946   5.688
 2922SOL     OW 9664   3.826   0.698   3.270
 2922SOL    HW1 9665   3.833   0.692   3.171
 2922SOL    HW2 9666   3.916   0.685   3.311
 2923SOL     OW 9667   6.430   5.071   4.968
 2923SOL    HW1 9668   6.366   5.074   4.891
 2923SOL    HW2 9669   6.426   4.982   5.012
 2924SOL     OW 9670   6.648   2.974   5.438
 2924SOL    HW1 9671   6.602   2.913   5.374
 2924SOL    HW2 9672   6.594   2.983   5.521
 2925SOL     OW 9673   5.367   0.045   5.965
 2925SOL    HW1 9674   5.347   6.975   5.936
 2925SOL    HW2 9675   5.292   0.105   5.937
 2926SOL     OW 9676   0.248   1.670   4.854
 2926SOL    HW1 9677   0.261   1.726   4.772
 2926SOL    HW2 9678   0.335   1.658   4.901
 2927SOL     OW 9679   1.540   2.773   1.533
 2927SOL    HW1 9680   1.603   2.820   1.596
 2927SOL    HW2 9681   1.580   2.773   1.441
 2928SOL     OW 9682   6.906   2.267   0.157
 2928SOL    HW1 9683   6.888   2.364   0.174
 2928SOL    HW2 9684   6.823   2.224   0.120
 2929SOL     OW 9685   1.859   2.557   4.460
 2929SOL    HW1 9686   1.843   2.576   4.364
 2929SOL    HW2 9687   1.839   2.639   4.514
 2930SOL     OW 9688   0.528   5.609   5.197
 2930SOL    HW1 9689   0.578   5.554   5.264
 2930SOL    HW2 9690   0.429   5.597   5.210
 2931SOL     OW 9691   4.612   4.259   5.978
 2931SOL    HW1 9692   4.640   4.320   6.053
 2931SOL    HW2 9693   4.604   4.166   6.013
 2932SOL     OW 9694   6.478   5.830   0.663
 2932SOL    HW1 9695   6.542   5.849   0.737
 2932SOL    HW2 9696   6.389   5.803   0.702
 2933SOL     OW 9697   1.239   0.119   0.547
 2933SOL    HW1 9698   1.283   0.117   0.636
 2933SOL    HW2 9699   1.247   0.029   0.503
 2934SOL     OW 9700   3.870   3.934   0.061
 2934SOL    HW1 9701   3.884   3.921   0.159
 2934SOL    HW2 9702   3.959   3.935   0.015
 2935SOL     OW 9703   6.689   2.573   6.379
 2935SOL    HW1 9704   6.727   2.490   6.420
 2935SOL    HW2 9705   6.590   2.565   6.371
 2936SOL     OW 9706   4.612   0.143   1.157
 2936SOL    HW1 9707   4.620   0.158   1.058
 2936SOL    HW2 9708   4.646   0.051   1.179
 2937SOL     OW 9709   4.205   5.412   2.244
 2937SOL    HW1 9710   4.167   5.387   2.333
 2937SOL    HW2 9711   4.294   5.457   2.258
 2938SOL     OW 9712   6.658   5.695   6.585
 2938SOL    HW1 9713   6.673   5.765   6.514
 2938SOL    HW2 9714   6.695   5.728   6.672
 2939SOL     OW 9715   0.030   5.851   1.705
 2939SOL    HW1 9716   0.081   5.766   1.696
 2939SOL    HW2 9717   7.000   5.849   1.789
 2940SOL     OW 9718   5.076   5.727   3.905
 2940SOL    HW1 9719   5.061   5.717   4.003
 2940SOL    HW2 9720   5.066   5.637   3.860
 2941SOL     OW 9721   2.012   3.300   3.701
 2941SOL    HW1 9722   1.927   3.343   3.732
 2941SOL    HW2 9723   2.082   3.309   3.772
 2942SOL     OW 9724   3.640   1.437   0.651
 2942SOL    HW1 9725   3.625   1.484   0.738
 2942SOL    HW2 9726   3.738   1.431   0.633
 2943SOL     OW 9727   5.828   4.108   3.438
 2943SOL    HW1 9728   5.897   4.166   3.481
 2943SOL    HW2 9729   5.870   4.056   3.364
 2944SOL     OW 9730   2.025   5.665   3.573
 2944SOL    HW1 9731   2.079   5.653   3.489
 2944SOL    HW2 9732   1.938   5.709   3.550
 2945SOL     OW 9733   5.205   4.421   1.443
 2945SOL    HW1 9734   5.275   4.356   1.473
 2945SOL    HW2 9735   5.146   4.445   1.520
 2946SOL     OW 9736   3.057   4.093   6.048
 2946SOL    HW1 9737   3.035   3.996   6.054
 2946SOL    HW2 9738   3.156   4.104   6.038
 2947SOL     OW 9739   5.724   6.370   0.798
 2947SOL    HW1 9740   5.816   6.362   0.758
 2947SOL    HW2 9741   5.667   6.427   0.739
 2948SOL     OW 9742   5.789   3.974   2.363
 2948SOL    HW1 9743   5.823   3.880   2.357
 2948SOL    HW2 9744   5.692   3.973   2.390
 2949SOL     OW 9745   1.071   6.882   0.648
 2949SOL    HW1 9746   0.998   6.895   0.581
 2949SOL    HW2 9747   1.157   6.862   0.600
 2950SOL     OW 9748   5.324   4.266   2.537
 2950SOL    HW1 9749   5.410   4.236   2.496
 2950SOL    HW2 9750   5.342   4.315   2.622
 2951SOL     OW 9751   5.820   1.372   1.842
 2951SOL    HW1 9752   5.810   1.471   1.832
 2951SOL    HW2 9753   5.734   1.328   1.816
 2952SOL     OW 9754   6.049   1.621   4.323
 2952SOL    HW1 9755   6.006   1.532   4.305
 2952SOL    HW2 9756   6.077   1.663   4.237
 2953SOL     OW 9757   1.119   5.586   3.322
 2953SOL    HW1 9758   1.202   5.543   3.287
 2953SOL    HW2 9759   1.125   5.685   3.310
 2954SOL     OW 9760   0.263   4.594   6.112
 2954SOL    HW1 9761   0.257   4.522   6.042
 2954SOL    HW2 9762   0.261   4.552   6.203
 2955SOL     OW 9763   2.067   4.075   0.254
 2955SOL    HW1 9764   2.047   4.054   0.349
 2955SOL    HW2 9765   2.037   4.000   0.195
 2956SOL     OW 9766   6.652   4.065   3.372
 2956SOL    HW1 9767   6.566   4.115   3.387
 2956SOL    HW2 9768   6.675   4.012   3.454
 2957SOL     OW 9769   3.095   5.543   2.283
 2957SOL    HW1 9770   3.060   5.504   2.369
 2957SOL    HW2 9771   3.149   5.624   2.303
 2958SOL     OW 9772   2.347   4.790   3.339
 2958SOL    HW1 9773   2.336   4.876   3.290
 2958SOL    HW2 9774   2.419   4.736   3.296
 2959SOL     OW 9775   6.505   2.298   2.648
 2959SOL    HW1 9776   6.579   2.261   2.591
 2959SOL    HW2 9777   6.499   2.245   2.732
 2960SOL     OW 9778   4.711   0.971   0.605
 2960SOL    HW1 9779   4.724   0.998   0.700
 2960SOL    HW2 9780   4.780   1.016   0.548
 2961SOL     OW 9781   5.577   3.959   2.687
 2961SOL    HW1 9782   5.544   3.980   2.595
 2961SOL    HW2 9783   5.537   3.872   2.717
 2962SOL     OW 9784   0.143   6.634   2.423
 2962SOL    HW1 9785   0.238   6.658   2.442
 2962SOL    HW2 9786   0.088   6.717   2.420
 2963SOL     OW 9787   2.023   1.305   4.961
 2963SOL    HW1 9788   1.938   1.304   5.014
 2963SOL    HW2 9789   2.003   1.283   4.866
 2964SOL     OW 9790   0.762   2.938   6.840
 2964SOL    HW1 9791   0.744   2.919   6.744
 2964SOL    HW2 9792   0.861   2.940   6.855
 2965SOL     OW 9793   0.549   0.058   4.937
 2965SOL    HW1 9794   0.481   7.012   4.957
 2965SOL    HW2 9795   0.641   0.019   4.950
 2966SOL     OW 9796   4.325   5.608   3.647
 2966SOL    HW1 9797   4.265   5.686   3.660
 2966SOL    HW2 9798   4.419   5.633   3.671
 2967SOL     OW 9799   6.427   0.879   5.811
 2967SOL    HW1 9800   6.484   0.953   5.774
 2967SOL    HW2 9801   6.340   0.876   5.761
 2968SOL     OW 9802   1.528   2.203   0.869
 2968SOL    HW1 9803   1.566   2.114   0.844
 2968SOL    HW2 9804   1.531   2.264   0.790
 2969SOL     OW 9805   5.570   3.284   4.391
 2969SOL    HW1 9806   5.646   3.312   4.331
 2969SOL    HW2 9807   5.525   3.204   4.352
 2970SOL     OW 9808   2.683   2.401   4.482
 2970SOL    HW1 9809   2.633   2.454   4.551
 2970SOL    HW2 9810   2.770   2.371   4.520
 2971SOL     OW 9811   5.524   3.862   6.772
 2971SOL    HW1 9812   5.505   3.852   6.675
 2971SOL    HW2 9813   5.561   3.777   6.809
 2972SOL     OW 9814   5.546   4.743   6.893
 2972SOL    HW1 9815   5.467   4.698   6.934
 2972SOL    HW2 9816   5.598   4.677   6.839
 2973SOL     OW 9817   5.107   6.950   2.373
 2973SOL    HW1 9818   5.061   6.878   2.321
 2973SOL    HW2 9819   5.083   0.016   2.337
 2974SOL     OW 9820   4.965   5.379   3.488
 2974SOL    HW1 9821   5.022   5.313   3.537
 2974SOL    HW2 9822   4.996   5.386   3.393
 2975SOL     OW 9823   4.707   4.774   4.339
 2975SOL    HW1 9824   4.745   4.789   4.430
 2975SOL    HW2 9825   4.655   4.688   4.339
 2976SOL     OW 9826   4.345   2.223   1.927
 2976SOL    HW1 9827   4.359   2.130   1.893
 2976SOL    HW2 9828   4.261   2.225   1.983
 2977SOL     OW 9829   1.270   0.869   1.657
 2977SOL    HW1 9830   1.261   0.799   1.585
 2977SOL    HW2 9831   1.179   0.900   1.684
 2978SOL     OW 9832   4.222   4.836   6.375
 2978SOL    HW1 9833   4.273   4.904   6.427
 2978SOL    HW2 9834   4.208   4.868   6.281
 2979SOL     OW 9835   3.031   1.212   4.101
 2979SOL    HW1 9836   2.963   1.163   4.045
 2979SOL    HW2 9837   3.104   1.149   4.127
 2980SOL     OW 9838   3.746   3.889   5.968
 2980SOL    HW1 9839   3.662   3.903   5.917
 2980SOL    HW2 9840   3.789   3.803   5.939
 2981SOL     OW 9841   1.487   1.270   0.879
 2981SOL    HW1 9842   1.390   1.254   0.861
 2981SOL    HW2 9843   1.507   1.367   0.868
 2982SOL     OW 9844   0.737   0.685   1.572
 2982SOL    HW1 9845   0.724   0.657   1.477
 2982SOL    HW2 9846   0.664   0.749   1.598
 2983SOL     OW 9847   5.978   2.904   6.558
 2983SOL    HW1 9848   6.010   2.998   6.569
 2983SOL    HW2 9849   6.005   2.870   6.468
 2984SOL     OW 9850   0.000   5.181   0.447
 2984SOL    HW1 9851   0.071   5.158   0.514
 2984SOL    HW2 9852   7.006   5.279   0.450
 2985SOL     OW 9853   0.417   0.305   4.890
 2985SOL    HW1 9854   0.389   0.334   4.981
 2985SOL    HW2 9855   0.444   0.209   4.892
 2986SOL     OW 9856   3.666   4.149   2.707
 2986SOL    HW1 9857   3.606   4.113   2.635
 2986SOL    HW2 9858   3.757   4.164   2.670
 2987SOL     OW 9859   1.095   1.579   4.375
 2987SOL    HW1 9860   1.128   1.574   4.470
 2987SOL    HW2 9861   1.050   1.493   4.351
 2988SOL     OW 9862   0.534   1.706   0.062
 2988SOL    HW1 9863   0.576   1.631   0.012
 2988SOL    HW2 9864   0.574   1.793   0.032
 2989SOL     OW 9865   4.972   3.497   4.502
 2989SOL    HW1 9866   5.032   3.469   4.577
 2989SOL    HW2 9867   4.975   3.597   4.493
 2990SOL     OW 9868   4.953   2.079   4.548
 2990SOL    HW1 9869   4.943   2.038   4.458
 2990SOL    HW2 9870   5.030   2.144   4.547
 2991SOL     OW 9871   5.721   3.159   0.808
 2991SOL    HW1 9872   5.745   3.252   0.835
 2991SOL    HW2 9873   5.697   3.106   0.889
 2992SOL     OW 9874   0.349   3.081   5.746
 2992SOL    HW1 9875   0.348   2.983   5.728
 2992SOL    HW2 9876   0.401   3.099   5.830
 2993SOL     OW 9877   1.261   4.548   0.553
 2993SOL    HW1 9878   1.348   4.566   0.508
 2993SOL    HW2 9879   1.187   4.552   0.486
 2994SOL     OW 9880   4.817   6.927   0.129
 2994SOL    HW1 9881   4.904   6.975   0.120
 2994SOL    HW2 9882   4.819   6.867   0.208
 2995SOL     OW 9883   5.014   6.664   0.547
 2995SOL    HW1 9884   5.013   6.720   0.629
 2995SOL    HW2 9885   5.079   6.701   0.481
 2996SOL     OW 9886   0.872   1.447   4.769
 2996SOL    HW1 9887   0.813   1.517   4.729
 2996SOL    HW2 9888   0.828   1.357   4.760
 2997SOL     OW 9889   5.051   0.339   3.798
 2997SOL    HW1 9890   4.958   0.366   3.774
 2997SOL    HW2 9891   5.117   0.390   3.743
 2998SOL     OW 9892   2.457   1.374   2.896
 2998SOL    HW1 9893   2.494   1.425   2.819
 2998SOL    HW2 9894   2.478   1.422   2.981
 2999SOL     OW 9895   2.920   4.388   0.368
 2999SOL    HW1 9896   3.001   4.393   0.426
 2999SOL    HW2 9897   2.869   4.304   0.389
 3000SOL     OW 9898   3.373   3.846   5.252
 3000SOL    HW1 9899   3.411   3.809   5.167
 3000SOL    HW2 9900   3.373   3.946   5.247
 3001SOL     OW 9901   6.430   1.563   6.202
 3001SOL    HW1 9902   6.418   1.583   6.299
 3001SOL    HW2 9903   6.342   1.570   6.155
 3002SOL     OW 9904   2.204   0.888   1.804
 3002SOL    HW1 9905   2.264   0.926   1.874
 3002SOL    HW2 9906   2.232   0.921   1.714
 3003SOL     OW 9907   1.480   6.112   0.247
 3003SOL    HW1 9908   1.401   6.069   0.202
 3003SOL    HW2 9909   1.471   6.212   0.241
 3004SOL     OW 9910   2.674   5.597   4.293
 3004SOL    HW1 9911   2.621   5.554   4.219
 3004SOL    HW2 9912   2.621   5.672   4.332
 3005SOL     OW 9913   0.904   2.185   5.414
 3005SOL    HW1 9914   0.921   2.241   5.496
 3005SOL    HW2 9915   0.905   2.243   5.333
 3006SOL     OW 9916   5.406   1.466   5.229
 3006SOL    HW1 9917   5.461   1.463   5.312
 3006SOL    HW2 9918   5.426   1.551   5.179
 3007SOL     OW 9919   5.159   4.586   6.822
 3007SOL    HW1 9920   5.092   4.599   6.895
 3007SOL    HW2 9921   5.135   4.643   6.744
 3008SOL     OW 9922   4.617   2.479   5.669
 3008SOL    HW1 9923   4.552   2.416   5.711
 3008SOL    HW2 9924   4.699   2.429   5.641
 3009SOL     OW 9925   0.626   2.944   2.475
 3009SOL    HW1 9926   0.644   3.000   2.556
 3009SOL    HW2 9927   0.701   2.880   2.462
 3010SOL     OW 9928   4.207   6.240   6.287
 3010SOL    HW1 9929   4.239   6.331   6.311
 3010SOL    HW2 9930   4.269   6.171   6.325
 3011SOL     OW 9931   6.207   0.116   0.975
 3011SOL    HW1 9932   6.183   0.019   0.978
 3011SOL    HW2 9933   6.251   0.142   1.060
 3012SOL     OW 9934   2.737   2.916   6.097
 3012SOL    HW1 9935   2.818   2.868   6.065
 3012SOL    HW2 9936   2.677   2.935   6.019
 3013SOL     OW 9937   0.783   6.113   4.207
 3013SOL    HW1 9938   0.798   6.126   4.305
 3013SOL    HW2 9939   0.868   6.083   4.164
 3014SOL     OW 9940   4.744   0.706   5.603
 3014SOL    HW1 9941   4.779   0.758   5.526
 3014SOL    HW2 9942   4.765   0.754   5.688
 3015SOL     OW 9943   1.257   1.331   0.115
 3015SOL    HW1 9944   1.275   1.242   0.157
 3015SOL    HW2 9945   1.334   1.392   0.132
 3016SOL     OW 9946   2.650   6.375   4.838
 3016SOL    HW1 9947   2.701   6.461   4.847
 3016SOL    HW2 9948   2.710   6.298   4.858
 3017SOL     OW 9949   6.506   5.700   1.596
 3017SOL    HW1 9950   6.568   5.728   1.523
 3017SOL    HW2 9951   6.472   5.781   1.644
 3018SOL     OW 9952   3.501   0.150   0.265
 3018SOL    HW1 9953   3.475   0.068   0.214
 3018SOL    HW2 9954   3.420   0.206   0.281
 3019SOL     OW 9955   1.850   0.255   5.600
 3019SOL    HW1 9956   1.761   0.219   5.571
 3019SOL    HW2 9957   1.922   0.218   5.541
 3020SOL     OW 9958   5.039   3.581   6.986
 3020SOL    HW1 9959   4.951   3.581   0.009
 3020SOL    HW2 9960   5.108   3.539   0.021
 3021SOL     OW 9961   3.921   6.726   4.667
 3021SOL    HW1 9962   3.825   6.721   4.696
 3021SOL    HW2 9963   3.934   6.670   4.585
 3022SOL     OW 9964   4.647   5.787   3.965
 3022SOL    HW1 9965   4.592   5.809   4.046
 3022SOL    HW2 9966   4.592   5.734   3.900
 3023SOL     OW 9967   3.959   6.677   3.033
 3023SOL    HW1 9968   4.051   6.711   3.010
 3023SOL    HW2 9969   3.950   6.670   3.132
 3024SOL     OW 9970   0.301   6.197   6.403
 3024SOL    HW1 9971   0.313   6.213   6.501
 3024SOL    HW2 9972   0.390   6.180   6.360
 3025SOL     OW 9973   3.563   6.021   0.672
 3025SOL    HW1 9974   3.539   6.116   0.652
 3025SOL    HW2 9975   3.487   5.961   0.646
 3026SOL     OW 9976   5.985   1.292   0.724
 3026SOL    HW1 9977   6.019   1.309   0.817
 3026SOL    HW2 9978   6.060   1.259   0.667
 3027SOL     OW 9979   5.063   1.489   1.509
 3027SOL    HW1 9980   5.058   1.545   1.592
 3027SOL    HW2 9981   5.069   1.393   1.533
 3028SOL     OW 9982   2.854   4.557   6.204
 3028SOL    HW1 9983   2.878   4.653   6.189
 3028SOL    HW2 9984   2.777   4.551   6.268
 3029SOL     OW 9985   0.805   1.944   4.106
 3029SOL    HW1 9986   0.879   1.944   4.174
 3029SOL    HW2 9987   0.743   2.021   4.124
 3030SOL     OW 9988   1.979   3.400   0.927
 3030SOL    HW1 9989   2.026   3.343   0.994
 3030SOL    HW2 9990   1.892   3.356   0.902
 3031SOL     OW 9991   0.979   6.216   1.357
 3031SOL    HW1 9992   1.045   6.184   1.424
 3031SOL    HW2 9993   0.900   6.155   1.355
 3032SOL     OW 9994   1.586   0.353   2.697
 3032SOL    HW1 9995   1.521   0.375   2.770
 3032SOL    HW2 9996   1.651   0.284   2.730
 3033SOL     OW 9997   6.810   2.058   4.003
 3033SOL    HW1 9998   6.828   2.104   3.917
 3033SOL    HW2 9999   6.757   1.975   3.987
 3034SOL     OW10000   0.307   5.569   3.925
 3034SOL    HW110001   0.363   5.621   3.861
 3034SOL    HW210002   0.359   5.551   4.008
 3035SOL     OW10003   1.250   2.727   6.167
 3035SOL    HW110004   1.182   2.744   6.238
 3035SOL    HW210005   1.274   2.630   6.167
 3036SOL     OW10006   2.836   2.142   6.539
 3036SOL    HW110007   2.873   2.193   6.462
 3036SOL    HW210008   2.906   2.081   6.576
 3037SOL     OW10009   0.179   5.138   6.486
 3037SOL    HW110010   0.228   5.068   6.538
 3037SOL    HW210011   0.144   5.207   6.548
 3038SOL     OW10012   5.135   4.367   6.610
 3038SOL    HW110013   5.074   4.401   6.538
 3038SOL    HW210014   5.159   4.443   6.671
 3039SOL     OW10015   6.476   4.298   0.128
 3039SOL    HW110016   6.564   4.305   0.081
 3039SOL    HW210017   6.409   4.254   0.068
 3040SOL     OW10018   4.093   4.244   6.201
 3040SOL    HW110019   4.105   4.275   6.296
 3040SOL    HW210020   4.127   4.150   6.193
 3041SOL     OW10021   2.199   4.227   4.907
 3041SOL    HW110022   2.290   4.189   4.888
 3041SOL    HW210023   2.160   4.181   4.987
 3042SOL     OW10024   6.931   5.124   3.093
 3042SOL    HW110025   6.982   5.051   3.047
 3042SOL    HW210026   6.916   5.200   3.029
 3043SOL     OW10027   3.089   4.706   0.953
 3043SOL    HW110028   3.024   4.766   0.906
 3043SOL    HW210029   3.146   4.660   0.885
 3044SOL     OW10030   3.043   3.388   5.346
 3044SOL    HW110031   3.031   3.486   5.331
 3044SOL    HW210032   2.955   3.342   5.338
 3045SOL     OW10033   4.965   1.381   2.350
 3045SOL    HW110034   4.914   1.313   2.298
 3045SOL    HW210035   4.915   1.468   2.349
 3046SOL     OW10036   5.573   5.414   0.640
 3046SOL    HW110037   5.566   5.314   0.637
 3046SOL    HW210038   5.543   5.447   0.729
 3047SOL     OW10039   6.328   0.453   6.384
 3047SOL    HW110040   6.364   0.360   6.394
 3047SOL    HW210041   6.382   0.516   6.440
 3048SOL     OW10042   3.859   3.327   1.049
 3048SOL    HW110043   3.813   3.314   1.137
 3048SOL    HW210044   3.947   3.372   1.064
 3049SOL     OW10045   1.332   0.680   4.593
 3049SOL    HW110046   1.253   0.619   4.586
 3049SOL    HW210047   1.372   0.694   4.503
 3050SOL     OW10048   3.170   2.483   1.400
 3050SOL    HW110049   3.136   2.541   1.474
 3050SOL    HW210050   3.109   2.404   1.389
 3051SOL     OW10051   2.376   6.791   4.886
 3051SOL    HW110052   2.435   6.720   4.846
 3051SOL    HW210053   2.391   6.796   4.984
 3052SOL     OW10054   6.348   6.158   2.300
 3052SOL    HW110055   6.321   6.218   2.224
 3052SOL    HW210056   6.393   6.213   2.371
 3053SOL     OW10057   1.324   4.317   0.660
 3053SOL    HW110058   1.294   4.406   0.628
 3053SOL    HW210059   1.424   4.318   0.671
 3054SOL     OW10060   5.705   1.412   2.499
 3054SOL    HW110061   5.616   1.435   2.459
 3054SOL    HW210062   5.724   1.474   2.576
 3055SOL     OW10063   6.063   5.461   6.424
 3055SOL    HW110064   6.082   5.365   6.403
 3055SOL    HW210065   6.018   5.504   6.346
 3056SOL     OW10066   4.905   1.441   6.444
 3056SOL    HW110067   4.849   1.365   6.412
 3056SOL    HW210068   4.945   1.419   6.533
 3057SOL     OW10069   6.138   5.601   3.161
 3057SOL    HW110070   6.150   5.546   3.078
 3057SOL    HW210071   6.092   5.547   3.231
 3058SOL     OW10072   6.415   4.628   6.930
 3058SOL    HW110073   6.377   4.618   7.022
 3058SOL    HW210074   6.446   4.539   6.897
 3059SOL     OW10075   2.513   2.523   4.665
 3059SOL    HW110076   2.536   2.591   4.735
 3059SOL    HW210077   2.424   2.545   4.625
 3060SOL     OW10078   4.457   5.264   5.572
 3060SOL    HW110079   4.528   5.325   5.536
 3060SOL    HW210080   4.496   5.208   5.645
 3061SOL     OW10081   5.316   4.926   5.068
 3061SOL    HW110082   5.379   4.849   5.058
 3061SOL    HW210083   5.347   5.001   5.010
 3062SOL     OW10084   5.141   3.888   1.325
 3062SOL    HW110085   5.103   3.811   1.274
 3062SOL    HW210086   5.104   3.889   1.418
 3063SOL     OW10087   7.002   4.406   1.354
 3063SOL    HW110088   7.014   4.433   1.259
 3063SOL    HW210089   6.953   4.319   1.358
 3064SOL     OW10090   4.127   1.705   6.719
 3064SOL    HW110091   4.045   1.648   6.731
 3064SOL    HW210092   4.112   1.795   6.760
 3065SOL     OW10093   0.720   0.802   6.394
 3065SOL    HW110094   0.621   0.802   6.405
 3065SOL    HW210095   0.759   0.725   6.444
 3066SOL     OW10096   5.528   6.097   6.080
 3066SOL    HW110097   5.509   6.011   6.033
 3066SOL    HW210098   5.599   6.083   6.149
 3067SOL     OW10099   2.363   2.729   6.352
 3067SOL    HW110100   2.349   2.649   6.294
 3067SOL    HW210101   2.447   2.718   6.405
 3068SOL     OW10102   0.393   1.048   1.044
 3068SOL    HW110103   0.470   1.112   1.048
 3068SOL    HW210104   0.426   0.958   1.015
 3069SOL     OW10105   4.883   0.266   2.583
 3069SOL    HW110106   4.949   0.279   2.509
 3069SOL    HW210107   4.887   0.343   2.646
 3070SOL     OW10108   3.051   1.461   1.189
 3070SOL    HW110109   2.983   1.406   1.237
 3070SOL    HW210110   3.111   1.401   1.136
 3071SOL     OW10111   0.289   3.048   3.483
 3071SOL    HW110112   0.250   2.969   3.531
 3071SOL    HW210113   0.219   3.090   3.426
 3072SOL     OW10114   2.080   6.837   6.523
 3072SOL    HW110115   2.036   6.815   6.436
 3072SOL    HW210116   2.054   6.769   6.591
 3073SOL     OW10117   6.170   5.077   0.489
 3073SOL    HW110118   6.136   5.010   0.423
 3073SOL    HW210119   6.093   5.129   0.526
 3074SOL     OW10120   2.149   3.254   1.116
 3074SOL    HW110121   2.126   3.338   1.165
 3074SOL    HW210122   2.236   3.218   1.149
 3075SOL     OW10123   2.297   5.035   3.223
 3075SOL    HW110124   2.235   5.052   3.299
 3075SOL    HW210125   2.244   5.019   3.140
 3076SOL     OW10126   6.920   0.402   4.389
 3076SOL    HW110127   6.831   0.366   4.361
 3076SOL    HW210128   6.909   0.492   4.431
 3077SOL     OW10129   6.594   4.295   2.028
 3077SOL    HW110130   6.559   4.375   1.978
 3077SOL    HW210131   6.649   4.239   1.967
 3078SOL     OW10132   6.872   3.162   1.768
 3078SOL    HW110133   6.967   3.174   1.738
 3078SOL    HW210134   6.870   3.102   1.848
 3079SOL     OW10135   2.391   3.196   5.392
 3079SOL    HW110136   2.459   3.269   5.391
 3079SOL    HW210137   2.415   3.127   5.323
 3080SOL     OW10138   4.267   5.168   1.007
 3080SOL    HW110139   4.178   5.124   0.997
 3080SOL    HW210140   4.269   5.220   1.092
 3081SOL     OW10141   1.902   4.078   0.826
 3081SOL    HW110142   1.842   4.048   0.901
 3081SOL    HW210143   1.849   4.086   0.742
 3082SOL     OW10144   3.836   4.984   4.741
 3082SOL    HW110145   3.913   4.920   4.746
 3082SOL    HW210146   3.855   5.063   4.800
 3083SOL     OW10147   2.255   5.662   2.491
 3083SOL    HW110148   2.208   5.687   2.576
 3083SOL    HW210149   2.275   5.564   2.491
 3084SOL     OW10150   0.819   3.446   3.629
 3084SOL    HW110151   0.870   3.468   3.546
 3084SOL    HW210152   0.865   3.487   3.708
 3085SOL     OW10153   4.484   4.760   1.043
 3085SOL    HW110154   4.509   4.768   0.947
 3085SOL    HW210155   4.565   4.738   1.097
 3086SOL     OW10156   6.322   1.135   6.540
 3086SOL    HW110157   6.270   1.052   6.518
 3086SOL    HW210158   6.419   1.117   6.525
 3087SOL     OW10159   2.989   6.880   2.123
 3087SOL    HW110160   2.895   6.901   2.098
 3087SOL    HW210161   3.050   6.950   2.084
 3088SOL     OW10162   1.049   2.756   5.178
 3088SOL    HW110163   1.138   2.734   5.219
 3088SOL    HW210164   1.043   2.855   5.163
 3089SOL     OW10165   5.151   6.966   5.245
 3089SOL    HW110166   5.149   6.868   5.264
 3089SOL    HW210167   5.163   6.980   5.147
 3090SOL     OW10168   1.082   2.395   1.570
 3090SOL    HW110169   1.057   2.362   1.479
 3090SOL    HW210170   1.032   2.344   1.639
 3091SOL     OW10171   1.134   2.073   0.325
 3091SOL    HW110172   1.053   2.050   0.378
 3091SOL    HW210173   1.165   2.165   0.349
 3092SOL     OW10174   6.758   6.738   2.784
 3092SOL    HW110175   6.723   6.681   2.859
 3092SOL    HW210176   6.846   6.702   2.753
 3093SOL     OW10177   5.237   5.064   6.776
 3093SOL    HW110178   5.182   5.131   6.725
 3093SOL    HW210179   5.222   5.077   6.874
 3094SOL     OW10180   2.678   1.421   6.164
 3094SOL    HW110181   2.755   1.444   6.105
 3094SOL    HW210182   2.655   1.499   6.222
 3095SOL     OW10183   2.180   3.350   5.351
 3095SOL    HW110184   2.255   3.284   5.351
 3095SOL    HW210185   2.149   3.365   5.257
 3096SOL     OW10186   0.694   3.782   4.834
 3096SOL    HW110187   0.626   3.715   4.865
 3096SOL    HW210188   0.648   3.870   4.817
 3097SOL     OW10189   5.386   2.627   6.590
 3097SOL    HW110190   5.407   2.644   6.686
 3097SOL    HW210191   5.454   2.673   6.533
 3098SOL     OW10192   1.946   2.009   1.825
 3098SOL    HW110193   1.963   2.067   1.745
 3098SOL    HW210194   1.865   1.952   1.808
 3099SOL     OW10195   0.490   6.156   3.738
 3099SOL    HW110196   0.503   6.165   3.640
 3099SOL    HW210197   0.409   6.100   3.756
 3100SOL     OW10198   6.759   5.560   2.141
 3100SOL    HW110199   6.786   5.655   2.160
 3100SOL    HW210200   6.756   5.509   2.226
 3101SOL     OW10201   4.096   6.246   5.838
 3101SOL    HW110202   4.104   6.231   5.740
 3101SOL    HW210203   4.005   6.282   5.859
 3102SOL     OW10204   0.387   4.881   0.785
 3102SOL    HW110205   0.407   4.970   0.826
 3102SOL    HW210206   0.305   4.843   0.827
 3103SOL     OW10207   3.469   0.399   1.087
 3103SOL    HW110208   3.543   0.399   1.155
 3103SOL    HW210209   3.381   0.401   1.133
 3104SOL     OW10210   4.611   0.341   5.922
 3104SOL    HW110211   4.537   0.274   5.917
 3104SOL    HW210212   4.685   0.314   5.860
 3105SOL     OW10213   5.159   3.465   0.183
 3105SOL    HW110214   5.169   3.366   0.175
 3105SOL    HW210215   5.102   3.486   0.263
 3106SOL     OW10216   5.995   0.732   4.916
 3106SOL    HW110217   6.055   0.756   4.992
 3106SOL    HW210218   5.900   0.754   4.939
 3107SOL     OW10219   3.875   0.911   5.957
 3107SOL    HW110220   3.909   0.859   6.036
 3107SOL    HW210221   3.918   1.002   5.957
 3108SOL     OW10222   1.941   4.296   4.513
 3108SOL    HW110223   2.005   4.327   4.583
 3108SOL    HW210224   1.991   4.256   4.436
 3109SOL     OW10225   7.013   6.424   3.899
 3109SOL    HW110226   0.019   6.362   3.972
 3109SOL    HW210227   7.011   6.374   3.812
 3110SOL     OW10228   1.813   4.474   3.771
 3110SOL    HW110229   1.747   4.532   3.819
 3110SOL    HW210230   1.893   4.460   3.830
 3111SOL     OW10231   6.343   4.520   4.950
 3111SOL    HW110232   6.385   4.586   4.889
 3111SOL    HW210233   6.409   4.449   4.973
 3112SOL     OW10234   3.066   2.042   6.748
 3112SOL    HW110235   2.996   1.974   6.771
 3112SOL    HW210236   3.125   2.057   6.828
 3113SOL     OW10237   1.885   5.155   3.249
 3113SOL    HW110238   1.862   5.178   3.154
 3113SOL    HW210239   1.970   5.202   3.275
 3114SOL     OW10240   4.293   1.105   7.021
 3114SOL    HW110241   4.262   1.017   6.986
 3114SOL    HW210242   4.301   1.100   0.096
 3115SOL     OW10243   4.075   5.179   5.549
 3115SOL    HW110244   4.099   5.096   5.498
 3115SOL    HW210245   3.975   5.190   5.549
 3116SOL     OW10246   0.379   2.230   0.678
 3116SOL    HW110247   0.395   2.250   0.581
 3116SOL    HW210248   0.286   2.196   0.690
 3117SOL     OW10249   5.179   1.729   5.012
 3117SOL    HW110250   5.279   1.722   5.018
 3117SOL    HW210251   5.148   1.809   5.063
 3118SOL     OW10252   1.993   1.288   2.808
 3118SOL    HW110253   2.072   1.288   2.869
 3118SOL    HW210254   2.023   1.275   2.714
 3119SOL     OW10255   4.202   3.838   5.949
 3119SOL    HW110256   4.238   3.902   5.881
 3119SOL    HW210257   4.154   3.763   5.903
 3120SOL     OW10258   2.265   0.009   4.828
 3120SOL    HW110259   2.333   6.969   4.862
 3120SOL    HW210260   2.266   0.092   4.883
 3121SOL     OW10261   5.113   1.334   4.352
 3121SOL    HW110262   5.178   1.326   4.276
 3121SOL    HW210263   5.096   1.430   4.372
 3122SOL     OW10264   4.123   5.262   4.656
 3122SOL    HW110265   4.201   5.315   4.687
 3122SOL    HW210266   4.149   5.207   4.576
 3123SOL     OW10267   2.608   2.101   3.347
 3123SOL    HW110268   2.534   2.060   3.400
 3123SOL    HW210269   2.653   2.030   3.293
 3124SOL     OW10270   4.925   6.947   3.949
 3124SOL    HW110271   4.978   7.000   4.016
 3124SOL    HW210272   4.833   6.932   3.985
 3125SOL     OW10273   1.691   2.494   4.901
 3125SOL    HW110274   1.708   2.568   4.966
 3125SOL    HW210275   1.593   2.488   4.882
 3126SOL     OW10276   5.482   5.292   4.294
 3126SOL    HW110277   5.438   5.335   4.216
 3126SOL    HW210278   5.439   5.203   4.311
 3127SOL     OW10279   0.315   1.655   4.376
 3127SOL    HW110280   0.286   1.582   4.316
 3127SOL    HW210281   0.372   1.720   4.325
 3128SOL     OW10282   4.712   0.490   0.100
 3128SOL    HW110283   4.663   0.572   0.130
 3128SOL    HW210284   4.676   0.410   0.149
 3129SOL     OW10285   4.719   3.511   0.900
 3129SOL    HW110286   4.801   3.477   0.854
 3129SOL    HW210287   4.744   3.584   0.964
 3130SOL     OW10288   1.040   4.584   1.808
 3130SOL    HW110289   1.124   4.548   1.768
 3130SOL    HW210290   0.992   4.510   1.856
 3131SOL     OW10291   6.757   3.998   2.492
 3131SOL    HW110292   6.795   4.086   2.522
 3131SOL    HW210293   6.687   4.015   2.423
 3132SOL     OW10294   4.025   4.273   0.000
 3132SOL    HW110295   4.064   4.183   7.008
 3132SOL    HW210296   4.063   4.338   6.959
 3133SOL     OW10297   4.238   0.894   3.726
 3133SOL    HW110298   4.252   0.832   3.649
 3133SOL    HW210299   4.307   0.875   3.796
 3134SOL     OW10300   3.741   5.224   2.559
 3134SOL    HW110301   3.765   5.161   2.485
 3134SOL    HW210302   3.654   5.269   2.538
 3135SOL     OW10303   5.600   6.653   6.160
 3135SOL    HW110304   5.589   6.747   6.193
 3135SOL    HW210305   5.602   6.591   6.239
 3136SOL     OW10306   6.229   1.068   2.807
 3136SOL    HW110307   6.266   0.979   2.836
 3136SOL    HW210308   6.130   1.069   2.822
 3137SOL     OW10309   6.291   6.839   0.254
 3137SOL    HW110310   6.253   6.747   0.249
 3137SOL    HW210311   6.222   6.904   0.220
 3138SOL     OW10312   5.429   5.008   4.303
 3138SOL    HW110313   5.479   4.922   4.293
 3138SOL    HW210314   5.382   5.030   4.218
 3139SOL     OW10315   2.521   5.477   1.343
 3139SOL    HW110316   2.481   5.508   1.257
 3139SOL    HW210317   2.504   5.545   1.414
 3140SOL     OW10318   6.739   6.575   5.546
 3140SOL    HW110319   6.738   6.614   5.638
 3140SOL    HW210320   6.791   6.489   5.547
 3141SOL     OW10321   6.564   2.496   6.779
 3141SOL    HW110322   6.537   2.588   6.750
 3141SOL    HW210323   6.664   2.491   6.786
 3142SOL     OW10324   5.322   0.829   2.209
 3142SOL    HW110325   5.267   0.913   2.207
 3142SOL    HW210326   5.329   0.797   2.304
 3143SOL     OW10327   6.154   1.217   0.499
 3143SOL    HW110328   6.113   1.253   0.415
 3143SOL    HW210329   6.237   1.166   0.475
 3144SOL     OW10330   4.237   3.953   6.226
 3144SOL    HW110331   4.239   3.911   6.135
 3144SOL    HW210332   4.326   3.993   6.247
 3145SOL     OW10333   1.461   5.890   1.401
 3145SOL    HW110334   1.491   5.900   1.306
 3145SOL    HW210335   1.371   5.848   1.404
 3146SOL     OW10336   0.711   0.507   5.007
 3146SOL    HW110337   0.613   0.508   5.026
 3146SOL    HW210338   0.760   0.555   5.080
 3147SOL     OW10339   3.834   4.966   6.565
 3147SOL    HW110340   3.788   4.880   6.587
 3147SOL    HW210341   3.885   4.999   6.645
 3148SOL     OW10342   0.876   5.485   3.100
 3148SOL    HW110343   0.880   5.512   3.196
 3148SOL    HW210344   0.920   5.555   3.043
 3149SOL     OW10345   2.878   1.389   0.834
 3149SOL    HW110346   2.916   1.321   0.772
 3149SOL    HW210347   2.951   1.447   0.869
 3150SOL     OW10348   6.862   6.270   5.114
 3150SOL    HW110349   6.831   6.192   5.059
 3150SOL    HW210350   6.819   6.353   5.080
 3151SOL     OW10351   5.595   1.817   6.166
 3151SOL    HW110352   5.584   1.888   6.235
 3151SOL    HW210353   5.651   1.743   6.203
 3152SOL     OW10354   1.551   3.450   6.128
 3152SOL    HW110355   1.602   3.366   6.109
 3152SOL    HW210356   1.604   3.509   6.188
 3153SOL     OW10357   6.645   5.410   0.871
 3153SOL    HW110358   6.555   5.416   0.829
 3153SOL    HW210359   6.640   5.355   0.954
 3154SOL     OW10360   5.641   1.499   1.378
 3154SOL    HW110361   5.580   1.569   1.342
 3154SOL    HW210362   5.592   1.412   1.386
 3155SOL     OW10363   0.036   4.780   0.387
 3155SOL    HW110364   7.006   4.767   0.470
 3155SOL    HW210365   0.133   4.769   0.409
 3156SOL     OW10366   3.610   4.165   2.098
 3156SOL    HW110367   3.707   4.151   2.121
 3156SOL    HW210368   3.587   4.262   2.110
 3157SOL     OW10369   0.539   1.625   5.517
 3157SOL    HW110370   0.626   1.604   5.472
 3157SOL    HW210371   0.549   1.705   5.575
 3158SOL     OW10372   3.138   1.571   5.288
 3158SOL    HW110373   3.212   1.504   5.281
 3158SOL    HW210374   3.176   1.662   5.300
 3159SOL     OW10375   5.369   6.920   0.579
 3159SOL    HW110376   5.387   7.012   0.546
 3159SOL    HW210377   5.417   6.905   0.665
 3160SOL     OW10378   2.597   6.922   6.157
 3160SOL    HW110379   2.641   6.853   6.214
 3160SOL    HW210380   2.663   6.959   6.092
 3161SOL     OW10381   1.751   2.576   3.170
 3161SOL    HW110382   1.674   2.512   3.180
 3161SOL    HW210383   1.755   2.635   3.251
 3162SOL     OW10384   1.930   5.611   0.754
 3162SOL    HW110385   1.915   5.593   0.656
 3162SOL    HW210386   1.846   5.591   0.804
 3163SOL     OW10387   4.503   3.752   0.134
 3163SOL    HW110388   4.561   3.714   0.206
 3163SOL    HW210389   4.538   3.841   0.106
 3164SOL     OW10390   2.691   5.538   3.703
 3164SOL    HW110391   2.769   5.593   3.674
 3164SOL    HW210392   2.636   5.513   3.623
 3165SOL     OW10393   1.179   5.438   0.203
 3165SOL    HW110394   1.272   5.473   0.213
 3165SOL    HW210395   1.168   5.357   0.260
 3166SOL     OW10396   4.002   0.857   5.318
 3166SOL    HW110397   3.904   0.847   5.305
 3166SOL    HW210398   4.045   0.767   5.321
 3167SOL     OW10399   4.458   4.314   0.887
 3167SOL    HW110400   4.449   4.349   0.793
 3167SOL    HW210401   4.416   4.378   0.951
 3168SOL     OW10402   4.204   1.864   0.559
 3168SOL    HW110403   4.150   1.783   0.581
 3168SOL    HW210404   4.143   1.944   0.554
 3169SOL     OW10405   1.119   5.144   2.360
 3169SOL    HW110406   1.074   5.056   2.373
 3169SOL    HW210407   1.073   5.194   2.287
 3170SOL     OW10408   3.668   5.151   3.092
 3170SOL    HW110409   3.663   5.248   3.116
 3170SOL    HW210410   3.738   5.106   3.147
 3171SOL     OW10411   5.720   2.289   3.014
 3171SOL    HW110412   5.753   2.243   3.096
 3171SOL    HW210413   5.724   2.388   3.027
 3172SOL     OW10414   0.008   4.850   0.136
 3172SOL    HW110415   6.956   4.794   0.102
 3172SOL    HW210416   0.008   4.847   0.236
 3173SOL     OW10417   3.407   1.457   0.025
 3173SOL    HW110418   3.469   1.535   0.031
 3173SOL    HW210419   3.340   1.463   0.099
 3174SOL     OW10420   2.652   3.565   6.018
 3174SOL    HW110421   2.706   3.484   5.992
 3174SOL    HW210422   2.589   3.587   5.944
 3175SOL     OW10423   6.706   1.102   3.454
 3175SOL    HW110424   6.719   1.012   3.412
 3175SOL    HW210425   6.745   1.101   3.547
 3176SOL     OW10426   0.677   4.428   4.935
 3176SOL    HW110427   0.675   4.437   4.835
 3176SOL    HW210428   0.698   4.517   4.976
 3177SOL     OW10429   5.706   3.769   3.239
 3177SOL    HW110430   5.632   3.826   3.205
 3177SOL    HW210431   5.724   3.792   3.335
 3178SOL     OW10432   6.338   1.124   0.699
 3178SOL    HW110433   6.332   1.217   0.736
 3178SOL    HW210434   6.269   1.113   0.627
 3179SOL     OW10435   0.757   1.862   1.903
 3179SOL    HW110436   0.837   1.922   1.892
 3179SOL    HW210437   0.762   1.816   1.992
 3180SOL     OW10438   6.713   5.909   6.425
 3180SOL    HW110439   6.809   5.892   6.448
 3180SOL    HW210440   6.679   5.986   6.479
 3181SOL     OW10441   0.694   1.201   4.755
 3181SOL    HW110442   0.662   1.107   4.768
 3181SOL    HW210443   0.617   1.264   4.765
 3182SOL     OW10444   2.842   0.507   0.226
 3182SOL    HW110445   2.798   0.597   0.231
 3182SOL    HW210446   2.818   0.454   0.307
 3183SOL     OW10447   4.529   4.432   2.261
 3183SOL    HW110448   4.457   4.494   2.231
 3183SOL    HW210449   4.548   4.365   2.188
 3184SOL     OW10450   0.705   2.187   4.130
 3184SOL    HW110451   0.787   2.230   4.168
 3184SOL    HW210452   0.714   2.181   4.031
 3185SOL     OW10453   7.003   6.284   6.111
 3185SOL    HW110454   0.071   6.322   6.120
 3185SOL    HW210455   7.003   6.211   6.042
 3186SOL     OW10456   1.005   1.145   5.965
 3186SOL    HW110457   0.941   1.105   5.899
 3186SOL    HW210458   1.097   1.110   5.948
 3187SOL     OW10459   4.185   5.844   2.670
 3187SOL    HW110460   4.204   5.942   2.669
 3187SOL    HW210461   4.168   5.811   2.577
 3188SOL     OW10462   2.216   4.726   5.929
 3188SOL    HW110463   2.288   4.792   5.909
 3188SOL    HW210464   2.199   4.670   5.847
 3189SOL     OW10465   2.661   1.442   0.229
 3189SOL    HW110466   2.620   1.422   0.140
 3189SOL    HW210467   2.733   1.511   0.217
 3190SOL     OW10468   0.024   6.049   4.754
 3190SOL    HW110469   0.035   6.146   4.735
 3190SOL    HW210470   7.023   6.036   4.850
 3191SOL     OW10471   4.844   5.634   2.086
 3191SOL    HW110472   4.745   5.622   2.077
 3191SOL    HW210473   4.875   5.702   2.021
 3192SOL     OW10474   6.322   2.120   1.583
 3192SOL    HW110475   6.416   2.102   1.610
 3192SOL    HW210476   6.269   2.035   1.591
 3193SOL     OW10477   4.104   0.561   5.300
 3193SOL    HW110478   4.067   0.572   5.392
 3193SOL    HW210479   4.132   0.466   5.287
 3194SOL     OW10480   1.521   1.036   5.362
 3194SOL    HW110481   1.579   1.008   5.438
 3194SOL    HW210482   1.493   0.955   5.310
 3195SOL     OW10483   0.572   1.305   1.545
 3195SOL    HW110484   0.490   1.248   1.544
 3195SOL    HW210485   0.562   1.377   1.614
 3196SOL     OW10486   6.578   0.514   5.213
 3196SOL    HW110487   6.675   0.525   5.234
 3196SOL    HW210488   6.536   0.604   5.205
 3197SOL     OW10489   2.544   0.293   6.574
 3197SOL    HW110490   2.621   0.330   6.626
 3197SOL    HW210491   2.492   0.369   6.534
 3198SOL     OW10492   6.661   2.489   3.515
 3198SOL    HW110493   6.683   2.401   3.473
 3198SOL    HW210494   6.598   2.539   3.456
 3199SOL     OW10495   6.039   4.574   3.113
 3199SOL    HW110496   5.949   4.561   3.154
 3199SOL    HW210497   6.032   4.637   3.036
 3200SOL     OW10498   5.702   3.420   4.161
 3200SOL    HW110499   5.720   3.386   4.069
 3200SOL    HW210500   5.613   3.464   4.164
 3201SOL     OW10501   6.355   4.475   2.871
 3201SOL    HW110502   6.305   4.537   2.931
 3201SOL    HW210503   6.351   4.509   2.777
 3202SOL     OW10504   1.072   4.860   0.638
 3202SOL    HW110505   1.151   4.918   0.656
 3202SOL    HW210506   1.079   4.776   0.691
 3203SOL     OW10507   4.156   6.533   1.631
 3203SOL    HW110508   4.102   6.577   1.702
 3203SOL    HW210509   4.200   6.602   1.574
 3204SOL     OW10510   3.107   1.074   3.750
 3204SOL    HW110511   3.012   1.101   3.736
 3204SOL    HW210512   3.166   1.154   3.741
 3205SOL     OW10513   5.464   3.285   5.722
 3205SOL    HW110514   5.433   3.306   5.629
 3205SOL    HW210515   5.386   3.284   5.784
 3206SOL     OW10516   2.589   2.894   1.755
 3206SOL    HW110517   2.553   2.931   1.669
 3206SOL    HW210518   2.544   2.806   1.774
 3207SOL     OW10519   0.547   0.335   5.602
 3207SOL    HW110520   0.569   0.241   5.630
 3207SOL    HW210521   0.597   0.399   5.660
 3208SOL     OW10522   6.091   5.915   5.053
 3208SOL    HW110523   5.994   5.902   5.032
 3208SOL    HW210524   6.145   5.889   4.973
 3209SOL     OW10525   4.879   5.593   6.230
 3209SOL    HW110526   4.970   5.634   6.232
 3209SOL    HW210527   4.810   5.665   6.218
 3210SOL     OW10528   0.160   5.292   1.615
 3210SOL    HW110529   0.245   5.253   1.580
 3210SOL    HW210530   0.125   5.359   1.549
 3211SOL     OW10531   1.484   5.838   0.656
 3211SOL    HW110532   1.547   5.789   0.716
 3211SOL    HW210533   1.474   5.788   0.570
 3212SOL     OW10534   3.122   6.897   2.593
 3212SOL    HW110535   3.083   6.989   2.581
 3212SOL    HW210536   3.208   6.904   2.645
 3213SOL     OW10537   2.116   0.732   6.401
 3213SOL    HW110538   2.045   0.801   6.407
 3213SOL    HW210539   2.191   0.766   6.344
 3214SOL     OW10540   3.849   0.681   2.985
 3214SOL    HW110541   3.891   0.761   2.942
 3214SOL    HW210542   3.759   0.665   2.945
 3215SOL     OW10543   1.125   3.395   0.471
 3215SOL    HW110544   1.117   3.487   0.508
 3215SOL    HW210545   1.072   3.332   0.527
 3216SOL     OW10546   5.429   4.221   1.263
 3216SOL    HW110547   5.415   4.221   1.362
 3216SOL    HW210548   5.358   4.165   1.219
 3217SOL     OW10549   6.911   4.969   2.810
 3217SOL    HW110550   6.885   4.924   2.724
 3217SOL    HW210551   7.007   4.996   2.805
 3218SOL     OW10552   6.892   1.594   2.724
 3218SOL    HW110553   6.862   1.510   2.768
 3218SOL    HW210554   6.987   1.614   2.751
 3219SOL     OW10555   0.100   0.742   5.098
 3219SOL    HW110556   0.191   0.784   5.103
 3219SOL    HW210557   0.030   0.814   5.105
 3220SOL     OW10558   6.805   5.750   6.842
 3220SOL    HW110559   6.820   5.762   6.940
 3220SOL    HW210560   6.792   5.840   6.799
 3221SOL     OW10561   3.966   0.538   2.408
 3221SOL    HW110562   3.973   0.636   2.429
 3221SOL    HW210563   3.871   0.509   2.415
 3222SOL     OW10564   2.963   1.431   2.897
 3222SOL    HW110565   2.915   1.518   2.887
 3222SOL    HW210566   3.056   1.440   2.859
 3223SOL     OW10567   1.708   6.655   0.663
 3223SOL    HW110568   1.754   6.689   0.745
 3223SOL    HW210569   1.772   6.654   0.587
 3224SOL     OW10570   4.662   2.715   4.716
 3224SOL    HW110571   4.730   2.733   4.787
 3224SOL    HW210572   4.671   2.785   4.644
 3225SOL     OW10573   3.797   1.032   4.081
 3225SOL    HW110574   3.750   1.098   4.139
 3225SOL    HW210575   3.891   1.019   4.114
 3226SOL     OW10576   1.075   0.183   2.034
 3226SOL    HW110577   1.160   0.170   1.982
 3226SOL    HW210578   1.034   0.094   2.053
 3227SOL     OW10579   4.038   2.411   6.219
 3227SOL    HW110580   3.987   2.380   6.139
 3227SOL    HW210581   4.136   2.402   6.201
 3228SOL     OW10582   1.365   3.922   0.805
 3228SOL    HW110583   1.306   3.958   0.878
 3228SOL    HW210584   1.314   3.921   0.719
 3229SOL     OW10585   2.392   1.211   6.187
 3229SOL    HW110586   2.475   1.181   6.235
 3229SOL    HW210587   2.417   1.281   6.119
 3230SOL     OW10588   2.665   5.652   5.669
 3230SOL    HW110589   2.717   5.590   5.727
 3230SOL    HW210590   2.608   5.711   5.726
 3231SOL     OW10591   3.341   1.027   2.740
 3231SOL    HW110592   3.321   0.945   2.685
 3231SOL    HW210593   3.419   1.009   2.799
 3232SOL     OW10594   3.908   5.952   4.239
 3232SOL    HW110595   3.943   5.860   4.220
 3232SOL    HW210596   3.816   5.945   4.277
 3233SOL     OW10597   0.304   2.561   6.976
 3233SOL    HW110598   0.321   2.646   0.001
 3233SOL    HW210599   0.295   2.486   0.018
 3234SOL     OW10600   2.004   2.966   0.718
 3234SOL    HW110601   2.005   2.976   0.817
 3234SOL    HW210602   2.090   3.000   0.680
 3235SOL     OW10603   6.666   5.761   1.851
 3235SOL    HW110604   6.630   5.778   1.759
 3235SOL    HW210605   6.601   5.705   1.902
 3236SOL     OW10606   2.679   4.208   0.579
 3236SOL    HW110607   2.689   4.127   0.638
 3236SOL    HW210608   2.671   4.178   0.484
 3237SOL     OW10609   6.297   1.624   4.419
 3237SOL    HW110610   6.202   1.632   4.386
 3237SOL    HW210611   6.309   1.536   4.465
 3238SOL     OW10612   5.950   5.250   0.515
 3238SOL    HW110613   5.900   5.309   0.452
 3238SOL    HW210614   5.941   5.286   0.608
 3239SOL     OW10615   0.017   0.290   3.909
 3239SOL    HW110616   0.091   0.341   3.864
 3239SOL    HW210617   0.029   0.295   4.008
 3240SOL     OW10618   0.177   0.153   6.381
 3240SOL    HW110619   0.200   0.079   6.319
 3240SOL    HW210620   0.164   0.116   6.473
 3241SOL     OW10621   4.879   1.524   6.142
 3241SOL    HW110622   4.854   1.473   6.225
 3241SOL    HW210623   4.829   1.610   6.140
 3242SOL     OW10624   5.109   4.240   5.705
 3242SOL    HW110625   5.106   4.330   5.750
 3242SOL    HW210626   5.160   4.176   5.762
 3243SOL     OW10627   3.986   5.510   6.402
 3243SOL    HW110628   3.902   5.530   6.351
 3243SOL    HW210629   4.048   5.456   6.345
 3244SOL     OW10630   6.062   6.393   6.507
 3244SOL    HW110631   6.091   6.470   6.449
 3244SOL    HW210632   5.969   6.367   6.483
 3245SOL     OW10633   4.377   2.406   4.179
 3245SOL    HW110634   4.439   2.484   4.169
 3245SOL    HW210635   4.356   2.392   4.275
 3246SOL     OW10636   0.482   6.966   2.118
 3246SOL    HW110637   0.448   6.898   2.183
 3246SOL    HW210638   0.582   6.972   2.124
 3247SOL     OW10639   0.241   4.359   2.595
 3247SOL    HW110640   0.163   4.298   2.584
 3247SOL    HW210641   0.294   4.362   2.511
 3248SOL     OW10642   5.608   2.000   2.617
 3248SOL    HW110643   5.693   1.994   2.565
 3248SOL    HW210644   5.628   2.022   2.712
 3249SOL     OW10645   3.714   3.658   3.830
 3249SOL    HW110646   3.688   3.579   3.886
 3249SOL    HW210647   3.634   3.715   3.813
 3250SOL     OW10648   4.957   5.640   2.984
 3250SOL    HW110649   4.906   5.718   2.948
 3250SOL    HW210650   5.040   5.626   2.930
 3251SOL     OW10651   2.387   0.647   4.964
 3251SOL    HW110652   2.340   0.567   4.926
 3251SOL    HW210653   2.324   0.725   4.962
 3252SOL     OW10654   2.904   1.300   3.660
 3252SOL    HW110655   2.854   1.354   3.728
 3252SOL    HW210656   2.923   1.355   3.580
 3253SOL     OW10657   6.063   3.153   1.168
 3253SOL    HW110658   6.045   3.134   1.072
 3253SOL    HW210659   6.161   3.167   1.182
 3254SOL     OW10660   5.252   0.401   0.406
 3254SOL    HW110661   5.288   0.494   0.412
 3254SOL    HW210662   5.259   0.368   0.312
 3255SOL     OW10663   5.787   5.174   1.178
 3255SOL    HW110664   5.822   5.149   1.088
 3255SOL    HW210665   5.691   5.146   1.185
 3256SOL     OW10666   4.446   1.923   1.326
 3256SOL    HW110667   4.545   1.920   1.310
 3256SOL    HW210668   4.401   1.961   1.246
 3257SOL     OW10669   2.822   2.171   2.267
 3257SOL    HW110670   2.772   2.239   2.321
 3257SOL    HW210671   2.849   2.211   2.180
 3258SOL     OW10672   3.613   5.207   3.569
 3258SOL    HW110673   3.631   5.117   3.607
 3258SOL    HW210674   3.565   5.199   3.481
 3259SOL     OW10675   5.611   4.770   4.286
 3259SOL    HW110676   5.639   4.675   4.300
 3259SOL    HW210677   5.679   4.817   4.230
 3260SOL     OW10678   1.735   4.699   2.021
 3260SOL    HW110679   1.832   4.724   2.019
 3260SOL    HW210680   1.719   4.636   2.097
 3261SOL     OW10681   5.707   0.777   3.137
 3261SOL    HW110682   5.696   0.777   3.038
 3261SOL    HW210683   5.626   0.818   3.180
 3262SOL     OW10684   3.806   2.059   2.438
 3262SOL    HW110685   3.792   2.083   2.534
 3262SOL    HW210686   3.733   1.995   2.410
 3263SOL     OW10687   2.559   1.262   3.239
 3263SOL    HW110688   2.552   1.169   3.202
 3263SOL    HW210689   2.649   1.299   3.219
 3264SOL     OW10690   2.462   5.096   0.187
 3264SOL    HW110691   2.401   5.016   0.189
 3264SOL    HW210692   2.555   5.066   0.169
 3265SOL     OW10693   6.270   5.788   5.314
 3265SOL    HW110694   6.174   5.814   5.314
 3265SOL    HW210695   6.284   5.710   5.376
 3266SOL     OW10696   3.156   4.450   0.578
 3266SOL    HW110697   3.241   4.503   0.574
 3266SOL    HW210698   3.126   4.443   0.673
 3267SOL     OW10699   4.046   0.963   1.206
 3267SOL    HW110700   3.973   1.031   1.201
 3267SOL    HW210701   4.036   0.909   1.289
 3268SOL     OW10702   0.417   4.897   1.535
 3268SOL    HW110703   0.318   4.913   1.527
 3268SOL    HW210704   0.466   4.984   1.525
 3269SOL     OW10705   0.633   5.386   2.224
 3269SOL    HW110706   0.626   5.329   2.306
 3269SOL    HW210707   0.585   5.473   2.240
 3270SOL     OW10708   0.637   2.580   5.477
 3270SOL    HW110709   0.555   2.551   5.427
 3270SOL    HW210710   0.694   2.637   5.418
 3271SOL     OW10711   6.918   3.543   1.920
 3271SOL    HW110712   6.845   3.479   1.895
 3271SOL    HW210713   6.877   3.626   1.960
 3272SOL     OW10714   4.259   6.131   0.250
 3272SOL    HW110715   4.231   6.145   0.345
 3272SOL    HW210716   4.185   6.087   0.199
 3273SOL     OW10717   4.592   3.713   6.224
 3273SOL    HW110718   4.503   3.704   6.181
 3273SOL    HW210719   4.663   3.685   6.160
 3274SOL     OW10720   6.132   0.767   0.141
 3274SOL    HW110721   6.072   0.688   0.154
 3274SOL    HW210722   6.210   0.759   0.202
 3275SOL     OW10723   4.768   0.687   1.238
 3275SOL    HW110724   4.745   0.656   1.330
 3275SOL    HW210725   4.844   0.632   1.202
 3276SOL     OW10726   4.608   0.081   0.082
 3276SOL    HW110727   4.542   0.038   0.020
 3276SOL    HW210728   4.672   0.011   0.116
 3277SOL     OW10729   2.901   1.493   1.856
 3277SOL    HW110730   2.815   1.544   1.863
 3277SOL    HW210731   2.881   1.401   1.822
 3278SOL     OW10732   0.098   0.388   6.562
 3278SOL    HW110733   0.151   0.407   6.645
 3278SOL    HW210734   0.116   0.295   6.532
 3279SOL     OW10735   4.260   6.792   1.544
 3279SOL    HW110736   4.317   6.852   1.599
 3279SOL    HW210737   4.226   6.843   1.464
 3280SOL     OW10738   5.528   3.795   4.025
 3280SOL    HW110739   5.480   3.876   4.057
 3280SOL    HW210740   5.520   3.788   3.926
 3281SOL     OW10741   6.705   4.619   1.726
 3281SOL    HW110742   6.683   4.571   1.641
 3281SOL    HW210743   6.798   4.657   1.719
 3282SOL     OW10744   0.467   3.913   5.321
 3282SOL    HW110745   0.553   3.952   5.351
 3282SOL    HW210746   0.396   3.984   5.320
 3283SOL     OW10747   2.964   0.951   1.164
 3283SOL    HW110748   3.025   1.001   1.103
 3283SOL    HW210749   3.012   0.932   1.250
 3284SOL     OW10750   1.894   5.742   4.577
 3284SOL    HW110751   1.805   5.715   4.539
 3284SOL    HW210752   1.957   5.764   4.502
 3285SOL     OW10753   5.185   1.014   4.620
 3285SOL    HW110754   5.204   0.918   4.639
 3285SOL    HW210755   5.256   1.051   4.561
 3286SOL     OW10756   3.095   1.949   1.825
 3286SOL    HW110757   3.074   2.043   1.852
 3286SOL    HW210758   3.190   1.943   1.796
 3287SOL     OW10759   1.192   7.009   6.022
 3287SOL    HW110760   1.103   0.029   6.026
 3287SOL    HW210761   1.214   6.968   6.110
 3288SOL     OW10762   1.444   6.586   0.483
 3288SOL    HW110763   1.521   6.638   0.519
 3288SOL    HW210764   1.478   6.510   0.427
 3289SOL     OW10765   3.072   1.594   6.803
 3289SOL    HW110766   3.001   1.592   6.873
 3289SOL    HW210767   3.161   1.608   6.847
 3290SOL     OW10768   6.392   5.427   0.723
 3290SOL    HW110769   6.395   5.327   0.715
 3290SOL    HW210770   6.332   5.464   0.652
 3291SOL     OW10771   4.364   0.370   6.177
 3291SOL    HW110772   4.313   0.320   6.106
 3291SOL    HW210773   4.319   0.457   6.195
 3292SOL     OW10774   0.733   1.655   0.611
 3292SOL    HW110775   0.712   1.714   0.689
 3292SOL    HW210776   0.795   1.583   0.639
 3293SOL     OW10777   6.576   4.634   2.507
 3293SOL    HW110778   6.506   4.700   2.537
 3293SOL    HW210779   6.565   4.549   2.558
 3294SOL     OW10780   5.551   2.596   5.632
 3294SOL    HW110781   5.649   2.581   5.624
 3294SOL    HW210782   5.502   2.525   5.581
 3295SOL     OW10783   1.814   3.235   0.748
 3295SOL    HW110784   1.875   3.164   0.784
 3295SOL    HW210785   1.719   3.209   0.765
 3296SOL     OW10786   6.861   6.743   5.097
 3296SOL    HW110787   6.961   6.746   5.091
 3296SOL    HW210788   6.833   6.673   5.163
 3297SOL     OW10789   3.072   2.039   5.467
 3297SOL    HW110790   3.006   2.051   5.393
 3297SOL    HW210791   3.149   2.102   5.453
 3298SOL     OW10792   6.133   3.919   4.962
 3298SOL    HW110793   6.034   3.906   4.953
 3298SOL    HW210794   6.177   3.831   4.979
 3299SOL     OW10795   4.074   4.908   3.561
 3299SOL    HW110796   4.072   4.998   3.517
 3299SOL    HW210797   4.157   4.859   3.532
 3300SOL     OW10798   2.376   6.983   5.364
 3300SOL    HW110799   2.474   6.995   5.376
 3300SOL    HW210800   2.328   0.040   5.399
 3301SOL     OW10801   1.482   3.427   2.744
 3301SOL    HW110802   1.536   3.345   2.763
 3301SOL    HW210803   1.499   3.456   2.649
 3302SOL     OW10804   1.466   4.674   6.852
 3302SOL    HW110805   1.405   4.600   6.821
 3302SOL    HW210806   1.557   4.659   6.815
 3303SOL     OW10807   3.594   2.948   0.530
 3303SOL    HW110808   3.592   2.868   0.470
 3303SOL    HW210809   3.665   3.012   0.499
 3304SOL     OW10810   2.228   4.536   6.734
 3304SOL    HW110811   2.298   4.607   6.726
 3304SOL    HW210812   2.267   4.448   6.707
 3305SOL     OW10813   3.332   0.573   0.930
 3305SOL    HW110814   3.310   0.651   0.989
 3305SOL    HW210815   3.378   0.502   0.984
 3306SOL     OW10816   1.283   6.211   6.736
 3306SOL    HW110817   1.205   6.272   6.719
 3306SOL    HW210818   1.367   6.256   6.705
 3307SOL     OW10819   1.178   6.854   5.787
 3307SOL    HW110820   1.136   6.913   5.718
 3307SOL    HW210821   1.213   6.911   5.861
 3308SOL     OW10822   3.947   4.616   1.439
 3308SOL    HW110823   3.979   4.552   1.509
 3308SOL    HW210824   3.871   4.669   1.475
 3309SOL     OW10825   5.008   4.610   3.939
 3309SOL    HW110826   5.078   4.666   3.983
 3309SOL    HW210827   4.922   4.619   3.988
 3310SOL     OW10828   0.769   4.882   4.722
 3310SOL    HW110829   0.747   4.848   4.813
 3310SOL    HW210830   0.706   4.956   4.699
 3311SOL     OW10831   3.714   3.595   1.245
 3311SOL    HW110832   3.730   3.662   1.172
 3311SOL    HW210833   3.627   3.617   1.291
 3312SOL     OW10834   4.784   2.940   6.127
 3312SOL    HW110835   4.772   3.021   6.070
 3312SOL    HW210836   4.745   2.957   6.218
 3313SOL     OW10837   0.691   0.748   3.328
 3313SOL    HW110838   0.786   0.725   3.348
 3313SOL    HW210839   0.688   0.802   3.244
 3314SOL     OW10840   2.098   0.291   3.072
 3314SOL    HW110841   2.048   0.359   3.018
 3314SOL    HW210842   2.177   0.334   3.115
 3315SOL     OW10843   0.680   4.878   5.151
 3315SOL    HW110844   0.639   4.968   5.136
 3315SOL    HW210845   0.664   4.849   5.245
 3316SOL     OW10846   3.255   1.048   5.960
 3316SOL    HW110847   3.167   1.018   5.995
 3316SOL    HW210848   3.291   0.980   5.896
 3317SOL     OW10849   5.691   2.123   1.906
 3317SOL    HW110850   5.740   2.074   1.978
 3317SOL    HW210851   5.684   2.064   1.825
 3318SOL     OW10852   2.607   1.914   6.695
 3318SOL    HW110853   2.691   1.887   6.647
 3318SOL    HW210854   2.574   2.001   6.657
 3319SOL     OW10855   6.951   6.963   2.635
 3319SOL    HW110856   6.997   0.028   2.639
 3319SOL    HW210857   6.977   6.908   2.715
 3320SOL     OW10858   6.477   1.291   0.416
 3320SOL    HW110859   6.528   1.313   0.499
 3320SOL    HW210860   6.385   1.328   0.423
 3321SOL     OW10861   5.775   1.456   0.962
 3321SOL    HW110862   5.738   1.461   0.870
 3321SOL    HW210863   5.759   1.543   1.009
 3322SOL     OW10864   6.294   3.189   0.741
 3322SOL    HW110865   6.339   3.133   0.671
 3322SOL    HW210866   6.346   3.185   0.826
 3323SOL     OW10867   2.649   1.876   2.041
 3323SOL    HW110868   2.693   1.953   1.995
 3323SOL    HW210869   2.557   1.902   2.071
 3324SOL     OW10870   4.658   5.701   5.865
 3324SOL    HW110871   4.582   5.755   5.830
 3324SOL    HW210872   4.654   5.609   5.826
 3325SOL     OW10873   0.849   3.370   6.854
 3325SOL    HW110874   0.930   3.421   6.824
 3325SOL    HW210875   0.831   3.295   6.790
 3326SOL     OW10876   5.316   0.875   2.979
 3326SOL    HW110877   5.280   0.967   2.994
 3326SOL    HW210878   5.285   0.841   2.890
 3327SOL     OW10879   1.764   6.068   1.776
 3327SOL    HW110880   1.771   6.030   1.869
 3327SOL    HW210881   1.669   6.060   1.744
 3328SOL     OW10882   3.512   1.962   1.006
 3328SOL    HW110883   3.497   1.942   1.103
 3328SOL    HW210884   3.429   2.004   0.968
 3329SOL     OW10885   5.889   6.486   5.205
 3329SOL    HW110886   5.903   6.393   5.238
 3329SOL    HW210887   5.858   6.543   5.282
 3330SOL     OW10888   0.017   3.191   2.521
 3330SOL    HW110889   6.976   3.246   2.469
 3330SOL    HW210890   7.008   3.096   2.526
 3331SOL     OW10891   1.762   2.563   1.134
 3331SOL    HW110892   1.691   2.501   1.102
 3331SOL    HW210893   1.838   2.562   1.069
 3332SOL     OW10894   5.243   5.183   0.575
 3332SOL    HW110895   5.197   5.177   0.664
 3332SOL    HW210896   5.341   5.167   0.587
 3333SOL     OW10897   4.025   5.346   6.715
 3333SOL    HW110898   4.001   5.273   6.778
 3333SOL    HW210899   4.008   5.317   6.621
 3334SOL     OW10900   3.458   3.324   1.363
 3334SOL    HW110901   3.370   3.368   1.347
 3334SOL    HW210902   3.456   3.276   1.450
 3335SOL     OW10903   4.915   5.120   5.602
 3335SOL    HW110904   4.880   5.088   5.514
 3335SOL    HW210905   4.984   5.055   5.635
 3336SOL     OW10906   3.164   5.265   5.692
 3336SOL    HW110907   3.251   5.216   5.690
 3336SOL    HW210908   3.136   5.281   5.787
 3337SOL     OW10909   3.603   2.193   1.404
 3337SOL    HW110910   3.510   2.189   1.367
 3337SOL    HW210911   3.601   2.239   1.493
 3338SOL     OW10912   6.639   4.297   1.523
 3338SOL    HW110913   6.554   4.327   1.566
 3338SOL    HW210914   6.643   4.331   1.429
 3339SOL     OW10915   6.720   6.003   6.731
 3339SOL    HW110916   6.676   6.027   6.817
 3339SOL    HW210917   6.682   6.059   6.657
 3340SOL     OW10918   3.694   6.786   1.776
 3340SOL    HW110919   3.605   6.742   1.765
 3340SOL    HW210920   3.765   6.716   1.779
 3341SOL     OW10921   0.344   0.061   2.801
 3341SOL    HW110922   0.404   0.043   2.878
 3341SOL    HW210923   0.362   0.153   2.765
 3342SOL     OW10924   2.117   0.118   3.746
 3342SOL    HW110925   2.163   0.068   3.819
 3342SOL    HW210926   2.050   0.059   3.702
 3343SOL     OW10927   5.117   2.771   0.634
 3343SOL    HW110928   5.040   2.834   0.632
 3343SOL    HW210929   5.184   2.799   0.565
 3344SOL     OW10930   5.164   3.801   4.950
 3344SOL    HW110931   5.085   3.850   4.986
 3344SOL    HW210932   5.136   3.748   4.870
 3345SOL     OW10933   2.758   3.859   5.758
 3345SOL    HW110934   2.799   3.927   5.698
 3345SOL    HW210935   2.825   3.788   5.779
 3346SOL     OW10936   0.553   1.495   2.256
 3346SOL    HW110937   0.585   1.583   2.218
 3346SOL    HW210938   0.616   1.423   2.228
 3347SOL     OW10939   6.613   4.053   4.097
 3347SOL    HW110940   6.622   4.087   4.190
 3347SOL    HW210941   6.697   4.070   4.046
 3348SOL     OW10942   3.388   3.305   3.775
 3348SOL    HW110943   3.486   3.295   3.789
 3348SOL    HW210944   3.371   3.333   3.680
 3349SOL     OW10945   6.766   4.634   4.409
 3349SOL    HW110946   6.862   4.658   4.396
 3349SOL    HW210947   6.738   4.568   4.339
 3350SOL     OW10948   2.165   1.095   6.892
 3350SOL    HW110949   2.219   1.023   6.848
 3350SOL    HW210950   2.132   1.159   6.823
 3351SOL     OW10951   5.706   0.450   1.155
 3351SOL    HW110952   5.790   0.430   1.104
 3351SOL    HW210953   5.707   0.400   1.241
 3352SOL     OW10954   1.066   4.201   0.701
 3352SOL    HW110955   1.003   4.272   0.733
 3352SOL    HW210956   1.153   4.243   0.677
 3353SOL     OW10957   1.382   0.310   6.808
 3353SOL    HW110958   1.382   0.386   6.744
 3353SOL    HW210959   1.393   0.345   6.901
 3354SOL     OW10960   6.649   1.770   2.900
 3354SOL    HW110961   6.685   1.689   2.948
 3354SOL    HW210962   6.654   1.849   2.961
 3355SOL     OW10963   7.024   2.147   0.963
 3355SOL    HW110964   6.926   2.155   0.982
 3355SOL    HW210965   0.043   2.092   1.035
 3356SOL     OW10966   2.831   3.416   0.127
 3356SOL    HW110967   2.841   3.445   0.032
 3356SOL    HW210968   2.790   3.325   0.130
 3357SOL     OW10969   2.238   5.161   1.135
 3357SOL    HW110970   2.289   5.247   1.132
 3357SOL    HW210971   2.205   5.138   1.043
 3358SOL     OW10972   4.845   6.166   2.172
 3358SOL    HW110973   4.767   6.115   2.135
 3358SOL    HW210974   4.898   6.205   2.097
 3359SOL     OW10975   0.353   0.491   2.741
 3359SOL    HW110976   0.366   0.591   2.744
 3359SOL    HW210977   0.315   0.460   2.829
 3360SOL     OW10978   0.180   1.161   0.352
 3360SOL    HW110979   0.163   1.120   0.263
 3360SOL    HW210980   0.278   1.178   0.363
 3361SOL     OW10981   6.563   5.903   3.132
 3361SOL    HW110982   6.582   5.861   3.221
 3361SOL    HW210983   6.634   5.876   3.066
 3362SOL     OW10984   2.973   1.469   5.088
 3362SOL    HW110985   3.016   1.496   5.175
 3362SOL    HW210986   3.043   1.463   5.017
 3363SOL     OW10987   0.686   1.262   6.557
 3363SOL    HW110988   0.767   1.299   6.602
 3363SOL    HW210989   0.671   1.310   6.471
 3364SOL     OW10990   1.072   5.713   6.200
 3364SOL    HW110991   0.993   5.774   6.208
 3364SOL    HW210992   1.105   5.715   6.105
 3365SOL     OW10993   0.284   1.804   4.608
 3365SOL    HW110994   0.245   1.896   4.595
 3365SOL    HW210995   0.268   1.750   4.525
 3366SOL     OW10996   5.822   1.047   4.902
 3366SOL    HW110997   5.780   0.958   4.916
 3366SOL    HW210998   5.776   1.115   4.960
 3367SOL     OW10999   1.744   2.264   1.847
 3367SOL    HW111000   1.822   2.283   1.906
 3367SOL    HW211001   1.776   2.229   1.759
 3368SOL     OW11002   6.412   5.139   6.150
 3368SOL    HW111003   6.503   5.179   6.142
 3368SOL    HW211004   6.405   5.087   6.234
 3369SOL     OW11005   3.697   1.005   0.361
 3369SOL    HW111006   3.718   1.029   0.266
 3369SOL    HW211007   3.771   0.949   0.399
 3370SOL     OW11008   6.431   0.022   4.966
 3370SOL    HW111009   6.423   6.949   4.946
 3370SOL    HW211010   6.522   0.042   5.003
 3371SOL     OW11011   1.188   4.130   2.403
 3371SOL    HW111012   1.192   4.219   2.357
 3371SOL    HW211013   1.180   4.058   2.335
 3372SOL     OW11014   0.266   1.171   2.258
 3372SOL    HW111015   0.304   1.090   2.213
 3372SOL    HW211016   0.340   1.235   2.278
 3373SOL     OW11017   6.365   1.254   4.369
 3373SOL    HW111018   6.266   1.243   4.366
 3373SOL    HW211019   6.405   1.224   4.283
 3374SOL     OW11020   3.594   6.410   5.327
 3374SOL    HW111021   3.651   6.459   5.393
 3374SOL    HW211022   3.529   6.473   5.285
 3375SOL     OW11023   4.621   4.544   5.024
 3375SOL    HW111024   4.633   4.445   5.015
 3375SOL    HW211025   4.524   4.565   5.032
 3376SOL     OW11026   3.482   2.959   2.475
 3376SOL    HW111027   3.429   2.916   2.548
 3376SOL    HW211028   3.464   2.913   2.388
 3377SOL     OW11029   1.163   6.407   5.323
 3377SOL    HW111030   1.132   6.441   5.234
 3377SOL    HW211031   1.262   6.399   5.323
 3378SOL     OW11032   6.904   1.619   1.176
 3378SOL    HW111033   6.853   1.534   1.187
 3378SOL    HW211034   6.956   1.638   1.259
 3379SOL     OW11035   0.420   4.245   5.928
 3379SOL    HW111036   0.416   4.159   5.877
 3379SOL    HW211037   0.469   4.231   6.014
 3380SOL     OW11038   6.563   4.657   6.121
 3380SOL    HW111039   6.644   4.630   6.070
 3380SOL    HW211040   6.508   4.576   6.143
 3381SOL     OW11041   2.426   2.065   0.415
 3381SOL    HW111042   2.341   2.048   0.365
 3381SOL    HW211043   2.405   2.117   0.498
 3382SOL     OW11044   0.128   1.453   6.764
 3382SOL    HW111045   0.218   1.435   6.803
 3382SOL    HW211046   0.071   1.500   6.831
 3383SOL     OW11047   6.161   4.976   2.781
 3383SOL    HW111048   6.101   5.048   2.746
 3383SOL    HW211049   6.251   5.014   2.802
 3384SOL     OW11050   3.374   3.455   4.903
 3384SOL    HW111051   3.338   3.539   4.863
 3384SOL    HW211052   3.343   3.448   4.998
 3385SOL     OW11053   6.388   4.026   3.541
 3385SOL    HW111054   6.436   4.088   3.603
 3385SOL    HW211055   6.303   3.996   3.583
 3386SOL     OW11056   5.959   4.187   4.790
 3386SOL    HW111057   5.883   4.128   4.762
 3386SOL    HW211058   6.039   4.167   4.733
 3387SOL     OW11059   2.316   2.588   2.419
 3387SOL    HW111060   2.384   2.609   2.490
 3387SOL    HW211061   2.351   2.617   2.330
 3388SOL     OW11062   5.629   3.058   1.025
 3388SOL    HW111063   5.706   3.032   1.082
 3388SOL    HW211064   5.556   3.097   1.081
 3389SOL     OW11065   4.725   4.108   3.844
 3389SOL    HW111066   4.629   4.082   3.835
 3389SOL    HW211067   4.731   4.202   3.877
 3390SOL     OW11068   5.203   2.718   5.978
 3390SOL    HW111069   5.143   2.798   5.976
 3390SOL    HW211070   5.241   2.703   5.886
 3391SOL     OW11071   4.000   1.941   4.755
 3391SOL    HW111072   4.061   1.952   4.833
 3391SOL    HW211073   3.905   1.953   4.785
 3392SOL     OW11074   2.121   0.959   4.449
 3392SOL    HW111075   2.137   0.931   4.354
 3392SOL    HW211076   2.172   1.043   4.467
 3393SOL     OW11077   6.401   6.706   0.574
 3393SOL    HW111078   6.310   6.685   0.538
 3393SOL    HW211079   6.454   6.756   0.505
 3394SOL     OW11080   5.824   2.953   1.190
 3394SOL    HW111081   5.787   2.934   1.281
 3394SOL    HW211082   5.921   2.978   1.199
 3395SOL     OW11083   6.550   3.689   3.818
 3395SOL    HW111084   6.514   3.780   3.837
 3395SOL    HW211085   6.483   3.620   3.844
 3396SOL     OW11086   0.324   3.256   3.666
 3396SOL    HW111087   0.365   3.320   3.602
 3396SOL    HW211088   0.328   3.163   3.628
 3397SOL     OW11089   4.061   0.882   5.595
 3397SOL    HW111090   3.999   0.844   5.526
 3397SOL    HW211091   4.156   0.861   5.569
 3398SOL     OW11092   1.078   0.190   4.039
 3398SOL    HW111093   1.008   0.217   3.974
 3398SOL    HW211094   1.162   0.168   3.990
 3399SOL     OW11095   4.283   4.702   4.544
 3399SOL    HW111096   4.246   4.611   4.526
 3399SOL    HW211097   4.344   4.698   4.623
 3400SOL     OW11098   4.718   2.307   6.084
 3400SOL    HW111099   4.810   2.304   6.124
 3400SOL    HW211100   4.707   2.229   6.022
 3401SOL     OW11101   6.821   3.917   0.849
 3401SOL    HW111102   6.785   3.855   0.780
 3401SOL    HW211103   6.919   3.900   0.861
 3402SOL     OW11104   5.510   5.494   1.215
 3402SOL    HW111105   5.605   5.512   1.193
 3402SOL    HW211106   5.498   5.397   1.238
 3403SOL     OW11107   4.064   0.482   4.798
 3403SOL    HW111108   3.968   0.480   4.767
 3403SOL    HW211109   4.105   0.392   4.784
 3404SOL     OW11110   4.589   1.329   0.466
 3404SOL    HW111111   4.572   1.351   0.370
 3404SOL    HW211112   4.519   1.373   0.522
 3405SOL     OW11113   6.566   3.780   5.872
 3405SOL    HW111114   6.661   3.769   5.900
 3405SOL    HW211115   6.517   3.833   5.942
 3406SOL     OW11116   2.244   4.579   1.733
 3406SOL    HW111117   2.335   4.538   1.737
 3406SOL    HW211118   2.247   4.670   1.775
 3407SOL     OW11119   1.522   5.702   1.800
 3407SOL    HW111120   1.439   5.757   1.788
 3407SOL    HW211121   1.515   5.648   1.883
 3408SOL     OW11122   4.762   4.167   3.580
 3408SOL    HW111123   4.840   4.107   3.562
 3408SOL    HW211124   4.724   4.147   3.670
 3409SOL     OW11125   3.933   6.994   5.659
 3409SOL    HW111126   3.962   6.906   5.622
 3409SOL    HW211127   3.998   0.001   5.728
 3410SOL     OW11128   6.086   5.564   6.882
 3410SOL    HW111129   6.085   5.485   6.821
 3410SOL    HW211130   6.180   5.593   6.898
 3411SOL     OW11131   5.779   2.371   2.166
 3411SOL    HW111132   5.778   2.277   2.134
 3411SOL    HW211133   5.781   2.373   2.266
 3412SOL     OW11134   4.093   3.237   0.083
 3412SOL    HW111135   4.131   3.242   0.175
 3412SOL    HW211136   3.998   3.270   0.085
 3413SOL     OW11137   4.352   1.459   2.641
 3413SOL    HW111138   4.261   1.431   2.670
 3413SOL    HW211139   4.350   1.555   2.613
 3414SOL     OW11140   3.504   1.811   5.018
 3414SOL    HW111141   3.491   1.897   4.968
 3414SOL    HW211142   3.582   1.762   4.978
 3415SOL     OW11143   1.044   4.758   4.458
 3415SOL    HW111144   1.120   4.715   4.505
 3415SOL    HW211145   1.030   4.850   4.494
 3416SOL     OW11146   6.962   4.242   5.938
 3416SOL    HW111147   6.956   4.316   5.871
 3416SOL    HW211148   6.980   4.156   5.891
 3417SOL     OW11149   6.238   5.717   2.555
 3417SOL    HW111150   6.300   5.663   2.613
 3417SOL    HW211151   6.239   5.812   2.584
 3418SOL     OW11152   4.053   1.034   4.160
 3418SOL    HW111153   4.070   1.131   4.140
 3418SOL    HW211154   4.047   1.021   4.259
 3419SOL     OW11155   4.015   5.135   6.406
 3419SOL    HW111156   3.946   5.080   6.455
 3419SOL    HW211157   4.105   5.096   6.422
 3420SOL     OW11158   5.211   1.792   3.602
 3420SOL    HW111159   5.111   1.790   3.597
 3420SOL    HW211160   5.249   1.733   3.531
 3421SOL     OW11161   6.390   0.596   5.789
 3421SOL    HW111162   6.411   0.691   5.811
 3421SOL    HW211163   6.475   0.543   5.785
 3422SOL     OW11164   3.329   0.044   1.099
 3422SOL    HW111165   3.232   0.066   1.085
 3422SOL    HW211166   3.376   0.047   1.011
 3423SOL     OW11167   2.124   0.931   0.088
 3423SOL    HW111168   2.193   0.861   0.070
 3423SOL    HW211169   2.110   0.987   0.006
 3424SOL     OW11170   3.766   0.947   2.437
 3424SOL    HW111171   3.727   0.922   2.526
 3424SOL    HW211172   3.717   1.025   2.399
 3425SOL     OW11173   4.941   4.024   2.243
 3425SOL    HW111174   4.856   4.074   2.228
 3425SOL    HW211175   5.007   4.083   2.289
 3426SOL     OW11176   3.551   3.583   0.403
 3426SOL    HW111177   3.616   3.659   0.396
 3426SOL    HW211178   3.461   3.618   0.428
 3427SOL     OW11179   6.546   6.845   0.352
 3427SOL    HW111180   6.611   6.799   0.292
 3427SOL    HW211181   6.454   6.841   0.312
 3428SOL     OW11182   3.943   5.187   2.027
 3428SOL    HW111183   3.891   5.267   2.054
 3428SOL    HW211184   3.883   5.122   1.979
 3429SOL     OW11185   0.660   2.357   6.731
 3429SOL    HW111186   0.754   2.342   6.761
 3429SOL    HW211187   0.614   2.417   6.795
 3430SOL     OW11188   1.255   6.450   6.566
 3430SOL    HW111189   1.341   6.441   6.616
 3430SOL    HW211190   1.199   6.521   6.608
 3431SOL     OW11191   2.427   6.665   1.327
 3431SOL    HW111192   2.493   6.640   1.397
 3431SOL    HW211193   2.475   6.699   1.246
 3432SOL     OW11194   2.662   2.201   5.305
 3432SOL    HW111195   2.746   2.182   5.255
 3432SOL    HW211196   2.595   2.128   5.288
 3433SOL     OW11197   2.463   1.156   6.543
 3433SOL    HW111198   2.438   1.068   6.504
 3433SOL    HW211199   2.472   1.147   6.642
 3434SOL     OW11200   3.069   2.696   0.605
 3434SOL    HW111201   3.149   2.747   0.639
 3434SOL    HW211202   3.061   2.611   0.657
 3435SOL     OW11203   0.054   2.667   1.254
 3435SOL    HW111204   0.063   2.743   1.318
 3435SOL    HW211205   0.136   2.609   1.258
 3436SOL     OW11206   4.752   6.927   5.107
 3436SOL    HW111207   4.779   6.982   5.186
 3436SOL    HW211208   4.753   6.830   5.131
 3437SOL     OW11209   4.499   0.703   6.349
 3437SOL    HW111210   4.585   0.659   6.375
 3437SOL    HW211211   4.424   0.638   6.356
 3438SOL     OW11212   1.425   2.964   6.404
 3438SOL    HW111213   1.479   2.891   6.360
 3438SOL    HW211214   1.449   2.969   6.501
 3439SOL     OW11215   2.727   0.167   4.646
 3439SOL    HW111216   2.772   0.134   4.564
 3439SOL    HW211217   2.663   0.097   4.680
 3440SOL     OW11218   4.362   3.240   1.236
 3440SOL    HW111219   4.337   3.256   1.331
 3440SOL    HW211220   4.448   3.190   1.231
 3441SOL     OW11221   5.051   0.660   3.110
 3441SOL    HW111222   5.112   0.728   3.151
 3441SOL    HW211223   5.022   0.595   3.180
 3442SOL     OW11224   2.248   4.806   3.627
 3442SOL    HW111225   2.286   4.830   3.537
 3442SOL    HW211226   2.202   4.718   3.621
 3443SOL     OW11227   5.514   1.051   3.360
 3443SOL    HW111228   5.426   1.083   3.395
 3443SOL    HW211229   5.500   0.973   3.300
 3444SOL     OW11230   5.168   5.434   6.800
 3444SOL    HW111231   5.261   5.401   6.785
 3444SOL    HW211232   5.120   5.437   6.712
 3445SOL     OW11233   6.573   3.878   4.365
 3445SOL    HW111234   6.636   3.862   4.441
 3445SOL    HW211235   6.543   3.973   4.366
 3446SOL     OW11236   4.969   0.948   2.901
 3446SOL    HW111237   5.039   0.923   2.834
 3446SOL    HW211238   4.907   0.871   2.916
 3447SOL     OW11239   5.391   4.930   0.115
 3447SOL    HW111240   5.385   4.843   0.066
 3447SOL    HW211241   5.436   4.916   0.203
 3448SOL     OW11242   3.831   6.898   0.982
 3448SOL    HW111243   3.804   6.846   1.063
 3448SOL    HW211244   3.837   6.995   1.005
 3449SOL     OW11245   6.456   6.316   2.535
 3449SOL    HW111246   6.464   6.233   2.591
 3449SOL    HW211247   6.437   6.394   2.594
 3450SOL     OW11248   1.204   2.263   0.562
 3450SOL    HW111249   1.260   2.304   0.490
 3450SOL    HW211250   1.126   2.323   0.581
 3451SOL     OW11251   0.667   5.473   3.745
 3451SOL    HW111252   0.764   5.472   3.769
 3451SOL    HW211253   0.615   5.419   3.811
 3452SOL     OW11254   6.626   0.856   6.868
 3452SOL    HW111255   6.663   0.835   6.959
 3452SOL    HW211256   6.551   0.793   6.847
 3453SOL     OW11257   5.684   5.927   5.213
 3453SOL    HW111258   5.612   5.966   5.272
 3453SOL    HW211259   5.656   5.935   5.118
 3454SOL     OW11260   1.918   0.956   6.379
 3454SOL    HW111261   1.864   0.986   6.458
 3454SOL    HW211262   2.000   1.014   6.371
 3455SOL     OW11263   1.047   2.854   4.550
 3455SOL    HW111264   1.063   2.774   4.492
 3455SOL    HW211265   1.005   2.927   4.497
 3456SOL     OW11266   5.818   5.728   2.390
 3456SOL    HW111267   5.807   5.635   2.357
 3456SOL    HW211268   5.814   5.729   2.490
 3457SOL     OW11269   2.870   5.046   4.141
 3457SOL    HW111270   2.880   5.125   4.201
 3457SOL    HW211271   2.789   4.994   4.168
 3458SOL     OW11272   5.220   6.672   6.954
 3458SOL    HW111273   5.275   6.624   6.886
 3458SOL    HW211274   5.222   6.770   6.934
 3459SOL     OW11275   0.369   3.717   3.081
 3459SOL    HW111276   0.420   3.717   2.995
 3459SOL    HW211277   0.430   3.742   3.156
 3460SOL     OW11278   3.683   3.508   0.703
 3460SOL    HW111279   3.585   3.500   0.685
 3460SOL    HW211280   3.710   3.604   0.700
 3461SOL     OW11281   3.853   5.433   4.432
 3461SOL    HW111282   3.768   5.382   4.424
 3461SOL    HW211283   3.862   5.469   4.524
 3462SOL     OW11284   6.092   3.427   2.303
 3462SOL    HW111285   6.039   3.404   2.221
 3462SOL    HW211286   6.064   3.367   2.378
 3463SOL     OW11287   0.783   3.174   2.842
 3463SOL    HW111288   0.768   3.243   2.913
 3463SOL    HW211289   0.710   3.179   2.774
 3464SOL     OW11290   5.621   2.146   7.006
 3464SOL    HW111291   5.538   2.187   0.020
 3464SOL    HW211292   5.696   2.212   7.014
 3465SOL     OW11293   1.578   3.312   1.866
 3465SOL    HW111294   1.529   3.393   1.834
 3465SOL    HW211295   1.643   3.338   1.937
 3466SOL     OW11296   5.608   5.314   5.661
 3466SOL    HW111297   5.622   5.365   5.746
 3466SOL    HW211298   5.522   5.341   5.619
 3467SOL     OW11299   3.153   1.336   0.544
 3467SOL    HW111300   3.068   1.329   0.491
 3467SOL    HW211301   3.186   1.430   0.541
 3468SOL     OW11302   5.387   1.860   2.552
 3468SOL    HW111303   5.459   1.914   2.596
 3468SOL    HW211304   5.384   1.880   2.454
 3469SOL     OW11305   5.129   0.613   6.014
 3469SOL    HW111306   5.202   0.642   6.076
 3469SOL    HW211307   5.101   0.690   5.957
 3470SOL     OW11308   0.552   2.615   1.926
 3470SOL    HW111309   0.548   2.649   2.020
 3470SOL    HW211310   0.550   2.515   1.927
 3471SOL     OW11311   4.843   4.447   3.571
 3471SOL    HW111312   4.790   4.512   3.625
 3471SOL    HW211313   4.805   4.356   3.582
 3472SOL     OW11314   3.849   1.286   2.613
 3472SOL    HW111315   3.936   1.289   2.563
 3472SOL    HW211316   3.777   1.253   2.552
 3473SOL     OW11317   0.046   3.228   3.619
 3473SOL    HW111318   0.036   3.285   3.537
 3473SOL    HW211319   0.140   3.233   3.652
 3474SOL     OW11320   0.384   4.133   3.763
 3474SOL    HW111321   0.302   4.186   3.784
 3474SOL    HW211322   0.464   4.177   3.805
 3475SOL     OW11323   0.767   4.679   3.990
 3475SOL    HW111324   0.765   4.709   3.895
 3475SOL    HW211325   0.852   4.709   4.033
 3476SOL     OW11326   1.341   1.528   3.142
 3476SOL    HW111327   1.409   1.591   3.103
 3476SOL    HW211328   1.258   1.579   3.164
 3477SOL     OW11329   1.011   3.679   0.394
 3477SOL    HW111330   0.988   3.770   0.426
 3477SOL    HW211331   0.927   3.626   0.380
 3478SOL     OW11332   2.715   6.979   6.836
 3478SOL    HW111333   2.660   0.014   6.894
 3478SOL    HW211334   2.655   6.914   6.789
 3479SOL     OW11335   1.125   1.502   3.557
 3479SOL    HW111336   1.057   1.515   3.485
 3479SOL    HW211337   1.207   1.459   3.519
 3480SOL     OW11338   0.847   5.849   6.187
 3480SOL    HW111339   0.784   5.776   6.159
 3480SOL    HW211340   0.876   5.901   6.107
 3481SOL     OW11341   5.191   0.925   0.864
 3481SOL    HW111342   5.110   0.899   0.915
 3481SOL    HW211343   5.255   0.972   0.925
 3482SOL     OW11344   6.277   1.817   2.678
 3482SOL    HW111345   6.362   1.868   2.674
 3482SOL    HW211346   6.282   1.738   2.616
 3483SOL     OW11347   5.616   2.043   2.922
 3483SOL    HW111348   5.630   1.959   2.974
 3483SOL    HW211349   5.669   2.117   2.963
 3484SOL     OW11350   1.549   3.447   6.946
 3484SOL    HW111351   1.607   3.435   0.002
 3484SOL    HW211352   1.558   3.540   6.911
 3485SOL     OW11353   0.654   2.143   5.015
 3485SOL    HW111354   0.638   2.220   5.078
 3485SOL    HW211355   0.714   2.077   5.058
 3486SOL     OW11356   1.978   0.290   3.991
 3486SOL    HW111357   2.007   0.226   3.920
 3486SOL    HW211358   1.886   0.324   3.969
 3487SOL     OW11359   6.409   2.771   6.994
 3487SOL    HW111360   6.407   2.705   0.045
 3487SOL    HW211361   6.503   2.802   6.979
 3488SOL     OW11362   5.589   0.971   4.709
 3488SOL    HW111363   5.609   1.023   4.626
 3488SOL    HW211364   5.639   1.012   4.786
 3489SOL     OW11365   3.362   7.011   1.802
 3489SOL    HW111366   3.274   0.005   1.759
 3489SOL    HW211367   3.409   0.074   1.819
 3490SOL     OW11368   3.483   5.150   1.704
 3490SOL    HW111369   3.481   5.192   1.795
 3490SOL    HW211370   3.492   5.051   1.714
 3491SOL     OW11371   3.866   3.228   6.116
 3491SOL    HW111372   3.885   3.303   6.053
 3491SOL    HW211373   3.771   3.197   6.103
 3492SOL     OW11374   6.289   4.534   1.482
 3492SOL    HW111375   6.380   4.559   1.515
 3492SOL    HW211376   6.297   4.498   1.388
 3493SOL     OW11377   6.425   3.715   4.085
 3493SOL    HW111378   6.424   3.710   4.185
 3493SOL    HW211379   6.376   3.636   4.048
 3494SOL     OW11380   2.414   1.055   1.937
 3494SOL    HW111381   2.425   1.067   2.036
 3494SOL    HW211382   2.488   0.999   1.902
 3495SOL     OW11383   0.721   3.997   2.629
 3495SOL    HW111384   0.762   4.077   2.672
 3495SOL    HW211385   0.690   4.020   2.537
 3496SOL     OW11386   5.529   5.051   1.210
 3496SOL    HW111387   5.565   4.960   1.195
 3496SOL    HW211388   5.459   5.048   1.282
 3497SOL     OW11389   2.835   1.114   3.924
 3497SOL    HW111390   2.824   1.034   3.865
 3497SOL    HW211391   2.787   1.192   3.885
 3498SOL     OW11392   3.019   1.237   2.278
 3498SOL    HW111393   2.922   1.219   2.297
 3498SOL    HW211394   3.053   1.304   2.344
 3499SOL     OW11395   6.671   4.913   4.451
 3499SOL    HW111396   6.756   4.957   4.478
 3499SOL    HW211397   6.688   4.816   4.432
 3500SOL     OW11398   2.062   3.050   3.625
 3500SOL    HW111399   2.009   2.995   3.688
 3500SOL    HW211400   2.041   3.147   3.638
 3501SOL     OW11401   2.921   0.103   6.224
 3501SOL    HW111402   2.896   0.013   6.261
 3501SOL    HW211403   2.904   0.174   6.292
 3502SOL     OW11404   6.296   3.295   1.490
 3502SOL    HW111405   6.333   3.387   1.474
 3502SOL    HW211406   6.298   3.244   1.404
 3503SOL     OW11407   0.237   6.593   5.507
 3503SOL    HW111408   0.218   6.540   5.590
 3503SOL    HW211409   0.331   6.629   5.512
 3504SOL     OW11410   2.036   0.990   2.248
 3504SOL    HW111411   1.981   0.957   2.171
 3504SOL    HW211412   2.043   1.089   2.245
 3505SOL     OW11413   5.729   4.939   5.165
 3505SOL    HW111414   5.703   5.026   5.207
 3505SOL    HW211415   5.708   4.864   5.229
 3506SOL     OW11416   5.748   4.546   5.083
 3506SOL    HW111417   5.807   4.467   5.068
 3506SOL    HW211418   5.758   4.610   5.006
 3507SOL     OW11419   2.241   0.007   0.054
 3507SOL    HW111420   2.160   0.061   0.072
 3507SOL    HW211421   2.226   6.972   6.998
 3508SOL     OW11422   2.884   2.332   6.311
 3508SOL    HW111423   2.785   2.344   6.306
 3508SOL    HW211424   2.920   2.385   6.387
 3509SOL     OW11425   6.030   6.630   6.835
 3509SOL    HW111426   6.019   6.729   6.849
 3509SOL    HW211427   5.981   6.581   6.907
 3510SOL     OW11428   1.532   1.002   1.641
 3510SOL    HW111429   1.617   0.957   1.670
 3510SOL    HW211430   1.459   0.935   1.636
 3511SOL     OW11431   2.006   4.476   1.645
 3511SOL    HW111432   2.089   4.526   1.671
 3511SOL    HW211433   1.979   4.415   1.719
 3512SOL     OW11434   0.887   3.914   0.990
 3512SOL    HW111435   0.843   3.850   1.054
 3512SOL    HW211436   0.857   4.007   1.011
 3513SOL     OW11437   5.865   1.705   1.224
 3513SOL    HW111438   5.780   1.657   1.202
 3513SOL    HW211439   5.894   1.758   1.144
 3514SOL     OW11440   6.112   0.447   2.285
 3514SOL    HW111441   6.130   0.545   2.283
 3514SOL    HW211442   6.043   0.424   2.216
 3515SOL     OW11443   5.377   6.429   3.195
 3515SOL    HW111444   5.361   6.523   3.226
 3515SOL    HW211445   5.294   6.375   3.211
 3516SOL     OW11446   5.027   6.255   1.479
 3516SOL    HW111447   5.087   6.177   1.494
 3516SOL    HW211448   4.994   6.255   1.385
 3517SOL     OW11449   0.097   1.889   1.143
 3517SOL    HW111450   0.121   1.901   1.239
 3517SOL    HW211451   0.171   1.922   1.085
 3518SOL     OW11452   5.265   2.182   4.951
 3518SOL    HW111453   5.285   2.200   5.047
 3518SOL    HW211454   5.325   2.109   4.917
 3519SOL     OW11455   1.982   0.991   5.732
 3519SOL    HW111456   2.014   1.055   5.662
 3519SOL    HW211457   2.035   1.004   5.816
 3520SOL     OW11458   2.830   6.901   0.589
 3520SOL    HW111459   2.825   7.001   0.592
 3520SOL    HW211460   2.896   6.873   0.519
 3521SOL     OW11461   4.139   2.776   0.158
 3521SOL    HW111462   4.097   2.842   0.096
 3521SOL    HW211463   4.169   2.823   0.241
 3522SOL     OW11464   6.385   5.513   6.686
 3522SOL    HW111465   6.393   5.443   6.614
 3522SOL    HW211466   6.473   5.523   6.733
 3523SOL     OW11467   1.829   4.467   5.131
 3523SOL    HW111468   1.842   4.551   5.078
 3523SOL    HW211469   1.844   4.388   5.071
 3524SOL     OW11470   4.986   2.018   1.999
 3524SOL    HW111471   5.060   2.077   2.030
 3524SOL    HW211472   4.899   2.052   2.035
 3525SOL     OW11473   6.650   3.543   4.686
 3525SOL    HW111474   6.697   3.478   4.626
 3525SOL    HW211475   6.557   3.512   4.702
 3526SOL     OW11476   1.955   0.132   3.274
 3526SOL    HW111477   1.915   0.211   3.320
 3526SOL    HW211478   2.015   0.162   3.200
 3527SOL     OW11479   5.369   3.694   6.413
 3527SOL    HW111480   5.429   3.693   6.333
 3527SOL    HW211481   5.273   3.696   6.383
 3528SOL     OW11482   2.502   6.041   5.169
 3528SOL    HW111483   2.428   6.083   5.117
 3528SOL    HW211484   2.510   6.086   5.258
 3529SOL     OW11485   4.019   6.399   0.988
 3529SOL    HW111486   3.920   6.406   0.981
 3529SOL    HW211487   4.058   6.489   1.007
 3530SOL     OW11488   6.855   5.184   1.863
 3530SOL    HW111489   6.767   5.140   1.843
 3530SOL    HW211490   6.853   5.278   1.831
 3531SOL     OW11491   5.481   2.795   0.637
 3531SOL    HW111492   5.474   2.808   0.736
 3531SOL    HW211493   5.493   2.884   0.593
 3532SOL     OW11494   2.561   0.752   1.503
 3532SOL    HW111495   2.514   0.789   1.424
 3532SOL    HW211496   2.515   0.781   1.587
 3533SOL     OW11497   0.673   1.000   2.576
 3533SOL    HW111498   0.598   1.049   2.622
 3533SOL    HW211499   0.646   0.979   2.482
 3534SOL     OW11500   0.901   2.265   0.912
 3534SOL    HW111501   0.946   2.185   0.953
 3534SOL    HW211502   0.934   2.276   0.818
 3535SOL     OW11503   2.129   5.316   6.397
 3535SOL    HW111504   2.159   5.412   6.390
 3535SOL    HW211505   2.164   5.277   6.482
 3536SOL     OW11506   3.291   2.111   3.182
 3536SOL    HW111507   3.212   2.163   3.152
 3536SOL    HW211508   3.301   2.119   3.281
 3537SOL     OW11509   1.953   5.351   1.863
 3537SOL    HW111510   1.991   5.437   1.897
 3537SOL    HW211511   1.935   5.360   1.765
 3538SOL     OW11512   2.704   5.794   5.410
 3538SOL    HW111513   2.703   5.749   5.499
 3538SOL    HW211514   2.797   5.822   5.388
 3539SOL     OW11515   3.233   3.625   4.762
 3539SOL    HW111516   3.276   3.560   4.700
 3539SOL    HW211517   3.193   3.700   4.709
 3540SOL     OW11518   2.242   2.585   4.609
 3540SOL    HW111519   2.200   2.522   4.544
 3540SOL    HW211520   2.233   2.547   4.702
 3541SOL     OW11521   2.868   2.534   5.819
 3541SOL    HW111522   2.948   2.477   5.801
 3541SOL    HW211523   2.807   2.530   5.740
 3542SOL     OW11524   1.467   4.940   2.877
 3542SOL    HW111525   1.548   4.897   2.916
 3542SOL    HW211526   1.493   5.024   2.830
 3543SOL     OW11527   6.592   2.485   3.804
 3543SOL    HW111528   6.624   2.478   3.710
 3543SOL    HW211529   6.558   2.577   3.821
 3544SOL     OW11530   1.813   4.308   6.486
 3544SOL    HW111531   1.820   4.247   6.408
 3544SOL    HW211532   1.729   4.361   6.479
 3545SOL     OW11533   3.888   6.182   6.832
 3545SOL    HW111534   3.826   6.258   6.851
 3545SOL    HW211535   3.932   6.196   6.744
 3546SOL     OW11536   0.838   4.523   3.202
 3546SOL    HW111537   0.775   4.484   3.134
 3546SOL    HW211538   0.809   4.495   3.294
 3547SOL     OW11539   4.936   4.360   3.895
 3547SOL    HW111540   4.972   4.453   3.910
 3547SOL    HW211541   5.010   4.300   3.864
 3548SOL     OW11542   5.409   1.644   6.044
 3548SOL    HW111543   5.329   1.615   6.097
 3548SOL    HW211544   5.458   1.716   6.093
 3549SOL     OW11545   6.982   4.702   4.700
 3549SOL    HW111546   6.988   4.703   4.800
 3549SOL    HW211547   0.003   4.619   4.665
 3550SOL     OW11548   5.179   2.999   2.410
 3550SOL    HW111549   5.135   3.079   2.371
 3550SOL    HW211550   5.110   2.932   2.436
 3551SOL     OW11551   3.941   6.039   2.765
 3551SOL    HW111552   3.866   6.035   2.831
 3551SOL    HW211553   3.983   5.949   2.756
 3552SOL     OW11554   5.029   5.950   2.348
 3552SOL    HW111555   5.076   5.971   2.262
 3552SOL    HW211556   4.931   5.938   2.331
 3553SOL     OW11557   5.923   2.984   1.490
 3553SOL    HW111558   5.908   3.082   1.474
 3553SOL    HW211559   5.840   2.933   1.464
 3554SOL     OW11560   3.535   3.200   1.129
 3554SOL    HW111561   3.521   3.265   1.054
 3554SOL    HW211562   3.544   3.250   1.215
 3555SOL     OW11563   1.012   3.436   3.212
 3555SOL    HW111564   1.107   3.408   3.224
 3555SOL    HW211565   0.977   3.473   3.298
 3556SOL     OW11566   4.046   0.925   4.981
 3556SOL    HW111567   4.050   0.863   5.059
 3556SOL    HW211568   3.951   0.935   4.951
 3557SOL     OW11569   0.678   0.736   3.662
 3557SOL    HW111570   0.733   0.815   3.633
 3557SOL    HW211571   0.645   0.751   3.755
 3558SOL     OW11572   0.282   6.064   1.602
 3558SOL    HW111573   0.220   5.994   1.638
 3558SOL    HW211574   0.229   6.131   1.550
 3559SOL     OW11575   6.953   0.153   4.538
 3559SOL    HW111576   6.968   0.219   4.464
 3559SOL    HW211577   0.016   0.108   4.560
 3560SOL     OW11578   1.622   5.331   0.986
 3560SOL    HW111579   1.679   5.323   0.905
 3560SOL    HW211580   1.584   5.423   0.992
 3561SOL     OW11581   4.227   5.122   5.770
 3561SOL    HW111582   4.171   5.130   5.687
 3561SOL    HW211583   4.314   5.077   5.747
 3562SOL     OW11584   4.441   1.041   4.139
 3562SOL    HW111585   4.528   1.004   4.170
 3562SOL    HW211586   4.384   1.064   4.218
 3563SOL     OW11587   5.483   1.007   1.570
 3563SOL    HW111588   5.538   1.042   1.646
 3563SOL    HW211589   5.525   0.924   1.534
 3564SOL     OW11590   1.579   4.364   4.251
 3564SOL    HW111591   1.613   4.293   4.189
 3564SOL    HW211592   1.652   4.429   4.269
 3565SOL     OW11593   3.646   6.736   4.651
 3565SOL    HW111594   3.674   6.820   4.605
 3565SOL    HW211595   3.569   6.695   4.603
 3566SOL     OW11596   0.067   3.109   6.237
 3566SOL    HW111597   0.057   3.129   6.140
 3566SOL    HW211598   0.108   3.188   6.283
 3567SOL     OW11599   1.245   2.391   7.013
 3567SOL    HW111600   1.276   2.313   6.959
 3567SOL    HW211601   1.315   2.462   7.011
 3568SOL     OW11602   5.517   4.965   3.106
 3568SOL    HW111603   5.460   4.917   3.173
 3568SOL    HW211604   5.480   4.952   3.014
 3569SOL     OW11605   2.941   2.874   5.310
 3569SOL    HW111606   3.011   2.935   5.275
 3569SOL    HW211607   2.969   2.837   5.398
 3570SOL     OW11608   5.308   0.437   5.307
 3570SOL    HW111609   5.400   0.466   5.335
 3570SOL    HW211610   5.281   0.356   5.360
 3571SOL     OW11611   1.206   0.981   4.926
 3571SOL    HW111612   1.241   1.075   4.938
 3571SOL    HW211613   1.226   0.950   4.833
 3572SOL     OW11614   5.287   3.310   2.707
 3572SOL    HW111615   5.259   3.378   2.775
 3572SOL    HW211616   5.321   3.229   2.754
 3573SOL     OW11617   6.420   4.283   2.371
 3573SOL    HW111618   6.515   4.303   2.347
 3573SOL    HW211619   6.370   4.257   2.288
 3574SOL     OW11620   2.162   3.499   6.960
 3574SOL    HW111621   2.184   3.438   6.884
 3574SOL    HW211622   2.078   3.549   6.938
 3575SOL     OW11623   5.259   5.611   1.484
 3575SOL    HW111624   5.246   5.601   1.583
 3575SOL    HW211625   5.204   5.688   1.451
 3576SOL     OW11626   0.209   2.330   0.177
 3576SOL    HW111627   0.176   2.260   0.114
 3576SOL    HW211628   0.132   2.386   0.209
 3577SOL     OW11629   2.329   3.004   5.596
 3577SOL    HW111630   2.372   3.081   5.549
 3577SOL    HW211631   2.399   2.952   5.646
 3578SOL     OW11632   3.991   2.821   1.042
 3578SOL    HW111633   4.001   2.919   1.023
 3578SOL    HW211634   4.021   2.802   1.136
 3579SOL     OW11635   0.046   3.093   3.227
 3579SOL    HW111636   0.012   3.174   3.180
 3579SOL    HW211637   0.068   3.022   3.160
 3580SOL     OW11638   6.769   4.042   1.089
 3580SOL    HW111639   6.695   4.107   1.101
 3580SOL    HW211640   6.764   4.002   0.997
 3581SOL     OW11641   1.185   6.890   3.222
 3581SOL    HW111642   1.183   6.931   3.130
 3581SOL    HW211643   1.187   6.962   3.291
 3582SOL     OW11644   3.550   5.497   5.477
 3582SOL    HW111645   3.620   5.473   5.411
 3582SOL    HW211646   3.578   5.470   5.568
 3583SOL     OW11647   1.444   4.180   0.168
 3583SOL    HW111648   1.404   4.171   0.259
 3583SOL    HW211649   1.421   4.269   0.129
 3584SOL     OW11650   5.912   4.968   5.553
 3584SOL    HW111651   6.010   4.967   5.533
 3584SOL    HW211652   5.872   5.053   5.518
 3585SOL     OW11653   3.353   2.098   4.732
 3585SOL    HW111654   3.350   2.185   4.685
 3585SOL    HW211655   3.267   2.049   4.718
 3586SOL     OW11656   6.403   2.898   4.356
 3586SOL    HW111657   6.356   2.856   4.434
 3586SOL    HW211658   6.336   2.944   4.298
 3587SOL     OW11659   3.396   5.931   6.477
 3587SOL    HW111660   3.314   5.940   6.534
 3587SOL    HW211661   3.369   5.926   6.381
 3588SOL     OW11662   6.630   4.445   4.211
 3588SOL    HW111663   6.647   4.355   4.249
 3588SOL    HW211664   6.610   4.437   4.113
 3589SOL     OW11665   6.706   7.015   5.965
 3589SOL    HW111666   6.689   6.985   5.871
 3589SOL    HW211667   6.798   6.989   5.993
 3590SOL     OW11668   0.184   4.231   0.708
 3590SOL    HW111669   0.171   4.281   0.623
 3590SOL    HW211670   0.282   4.222   0.727
 3591SOL     OW11671   5.663   2.749   0.317
 3591SOL    HW111672   5.592   2.820   0.314
 3591SOL    HW211673   5.642   2.684   0.389
 3592SOL     OW11674   0.473   0.305   2.343
 3592SOL    HW111675   0.520   0.309   2.431
 3592SOL    HW211676   0.494   0.387   2.290
 3593SOL     OW11677   0.291   4.663   5.697
 3593SOL    HW111678   0.386   4.689   5.680
 3593SOL    HW211679   0.241   4.741   5.734
 3594SOL     OW11680   4.498   7.014   5.001
 3594SOL    HW111681   4.586   6.992   5.043
 3594SOL    HW211682   4.511   0.058   4.929
 3595SOL     OW11683   6.342   6.263   0.117
 3595SOL    HW111684   6.289   6.318   0.053
 3595SOL    HW211685   6.306   6.169   0.119
 3596SOL     OW11686   4.343   2.262   3.176
 3596SOL    HW111687   4.406   2.287   3.251
 3596SOL    HW211688   4.280   2.191   3.208
 3597SOL     OW11689   1.807   3.355   5.546
 3597SOL    HW111690   1.765   3.434   5.502
 3597SOL    HW211691   1.757   3.334   5.630
 3598SOL     OW11692   1.983   6.354   5.631
 3598SOL    HW111693   2.036   6.272   5.611
 3598SOL    HW211694   1.889   6.328   5.655
 3599SOL     OW11695   4.835   1.888   6.036
 3599SOL    HW111696   4.920   1.843   6.008
 3599SOL    HW211697   4.792   1.929   5.956
 3600SOL     OW11698   1.934   3.617   1.255
 3600SOL    HW111699   1.896   3.537   1.208
 3600SOL    HW211700   2.026   3.597   1.286
 3601SOL     OW11701   5.140   1.953   5.250
 3601SOL    HW111702   5.222   1.947   5.306
 3601SOL    HW211703   5.080   1.875   5.269
 3602SOL     OW11704   2.325   2.543   1.564
 3602SOL    HW111705   2.335   2.464   1.504
 3602SOL    HW211706   2.229   2.572   1.564
 3603SOL     OW11707   3.423   0.966   6.205
 3603SOL    HW111708   3.480   1.048   6.193
 3603SOL    HW211709   3.377   0.945   6.119
 3604SOL     OW11710   6.491   0.710   3.407
 3604SOL    HW111711   6.543   0.778   3.457
 3604SOL    HW211712   6.508   0.619   3.446
 3605SOL     OW11713   1.593   5.256   3.797
 3605SOL    HW111714   1.606   5.182   3.863
 3605SOL    HW211715   1.678   5.307   3.786
 3606SOL     OW11716   1.932   6.307   1.606
 3606SOL    HW111717   1.975   6.223   1.638
 3606SOL    HW211718   1.894   6.293   1.515
 3607SOL     OW11719   5.144   2.701   2.819
 3607SOL    HW111720   5.193   2.643   2.884
 3607SOL    HW211721   5.048   2.675   2.816
 3608SOL     OW11722   4.827   2.061   4.254
 3608SOL    HW111723   4.828   2.160   4.244
 3608SOL    HW211724   4.920   2.029   4.275
 3609SOL     OW11725   2.232   6.504   4.570
 3609SOL    HW111726   2.300   6.470   4.635
 3609SOL    HW211727   2.208   6.599   4.593
 3610SOL     OW11728   2.141   0.532   5.670
 3610SOL    HW111729   2.116   0.628   5.684
 3610SOL    HW211730   2.166   0.518   5.574
 3611SOL     OW11731   4.605   4.514   4.211
 3611SOL    HW111732   4.505   4.523   4.217
 3611SOL    HW211733   4.628   4.465   4.127
 3612SOL     OW11734   6.700   1.391   6.768
 3612SOL    HW111735   6.649   1.308   6.790
 3612SOL    HW211736   6.669   1.466   6.827
 3613SOL     OW11737   4.703   5.204   2.010
 3613SOL    HW111738   4.701   5.143   1.931
 3613SOL    HW211739   4.734   5.153   2.090
 3614SOL     OW11740   3.407   3.396   6.819
 3614SOL    HW111741   3.343   3.360   6.886
 3614SOL    HW211742   3.390   3.494   6.807
 3615SOL     OW11743   5.705   3.214   5.708
 3615SOL    HW111744   5.612   3.242   5.731
 3615SOL    HW211745   5.755   3.292   5.669
 3616SOL     OW11746   1.671   2.115   5.983
 3616SOL    HW111747   1.729   2.193   6.007
 3616SOL    HW211748   1.591   2.147   5.933
 3617SOL     OW11749   4.433   6.637   5.580
 3617SOL    HW111750   4.459   6.548   5.541
 3617SOL    HW211751   4.381   6.622   5.664
 3618SOL     OW11752   2.153   3.875   5.203
 3618SOL    HW111753   2.211   3.911   5.130
 3618SOL    HW211754   2.199   3.887   5.291
 3619SOL     OW11755   5.552   3.429   0.655
 3619SOL    HW111756   5.572   3.523   0.684
 3619SOL    HW211757   5.483   3.389   0.716
 3620SOL     OW11758   6.237   6.002   4.442
 3620SOL    HW111759   6.174   6.080   4.448
 3620SOL    HW211760   6.217   5.937   4.516
 3621SOL     OW11761   3.791   3.292   4.038
 3621SOL    HW111762   3.723   3.360   4.009
 3621SOL    HW211763   3.850   3.332   4.108
 3622SOL     OW11764   0.789   0.730   1.007
 3622SOL    HW111765   0.699   0.694   1.031
 3622SOL    HW211766   0.857   0.658   1.013
 3623SOL     OW11767   0.699   5.492   5.416
 3623SOL    HW111768   0.740   5.410   5.375
 3623SOL    HW211769   0.693   5.479   5.515
 3624SOL     OW11770   1.753   0.260   1.518
 3624SOL    HW111771   1.852   0.264   1.512
 3624SOL    HW211772   1.717   0.351   1.539
 3625SOL     OW11773   0.081   2.965   6.965
 3625SOL    HW111774   0.176   2.966   6.936
 3625SOL    HW211775   0.028   2.905   6.905
 3626SOL     OW11776   0.263   3.777   4.588
 3626SOL    HW111777   0.193   3.770   4.659
 3626SOL    HW211778   0.341   3.830   4.623
 3627SOL     OW11779   4.508   2.764   1.313
 3627SOL    HW111780   4.518   2.733   1.407
 3627SOL    HW211781   4.441   2.838   1.309
 3628SOL     OW11782   1.226   2.033   1.806
 3628SOL    HW111783   1.259   1.943   1.832
 3628SOL    HW211784   1.303   2.096   1.798
 3629SOL     OW11785   1.422   0.495   3.696
 3629SOL    HW111786   1.406   0.574   3.755
 3629SOL    HW211787   1.346   0.431   3.705
 3630SOL     OW11788   6.923   2.363   2.746
 3630SOL    HW111789   6.920   2.457   2.713
 3630SOL    HW211790   7.001   2.316   2.704
 3631SOL     OW11791   2.219   6.910   3.218
 3631SOL    HW111792   2.256   6.870   3.134
 3631SOL    HW211793   2.247   7.006   3.225
 3632SOL     OW11794   4.276   3.707   0.899
 3632SOL    HW111795   4.350   3.643   0.876
 3632SOL    HW211796   4.201   3.696   0.835
 3633SOL     OW11797   3.399   2.732   5.665
 3633SOL    HW111798   3.445   2.732   5.576
 3633SOL    HW211799   3.384   2.638   5.695
 3634SOL     OW11800   2.492   6.203   5.875
 3634SOL    HW111801   2.456   6.280   5.822
 3634SOL    HW211802   2.452   6.118   5.840
 3635SOL     OW11803   2.580   1.184   1.416
 3635SOL    HW111804   2.556   1.112   1.351
 3635SOL    HW211805   2.504   1.199   1.479
 3636SOL     OW11806   6.757   5.442   0.629
 3636SOL    HW111807   6.720   5.470   0.718
 3636SOL    HW211808   6.854   5.417   0.640
 3637SOL     OW11809   0.643   3.349   0.041
 3637SOL    HW111810   0.557   3.370   7.018
 3637SOL    HW211811   0.719   3.353   6.999
 3638SOL     OW11812   6.660   3.782   2.790
 3638SOL    HW111813   6.759   3.790   2.797
 3638SOL    HW211814   6.620   3.872   2.773
 3639SOL     OW11815   3.959   4.125   5.114
 3639SOL    HW111816   4.049   4.132   5.156
 3639SOL    HW211817   3.964   4.067   5.032
 3640SOL     OW11818   5.456   2.892   0.275
 3640SOL    HW111819   5.428   2.815   0.217
 3640SOL    HW211820   5.519   2.951   0.223
 3641SOL     OW11821   6.140   3.757   1.182
 3641SOL    HW111822   6.054   3.784   1.139
 3641SOL    HW211823   6.129   3.667   1.224
 3642SOL     OW11824   5.456   2.386   6.485
 3642SOL    HW111825   5.415   2.461   6.536
 3642SOL    HW211826   5.496   2.321   6.548
 3643SOL     OW11827   4.047   6.466   6.539
 3643SOL    HW111828   4.022   6.373   6.568
 3643SOL    HW211829   3.965   6.514   6.506
 3644SOL     OW11830   2.253   0.643   1.969
 3644SOL    HW111831   2.158   0.661   1.942
 3644SOL    HW211832   2.271   0.686   2.057
 3645SOL     OW11833   1.238   3.497   4.171
 3645SOL    HW111834   1.141   3.474   4.184
 3645SOL    HW211835   1.278   3.522   4.258
 3646SOL     OW11836   2.916   4.854   4.659
 3646SOL    HW111837   3.001   4.889   4.699
 3646SOL    HW211838   2.848   4.841   4.731
 3647SOL     OW11839   2.206   6.722   6.947
 3647SOL    HW111840   2.179   6.645   7.005
 3647SOL    HW211841   2.290   6.697   6.897
 3648SOL     OW11842   4.935   5.781   3.526
 3648SOL    HW111843   4.939   5.799   3.427
 3648SOL    HW211844   5.028   5.777   3.563
 3649SOL     OW11845   5.616   3.647   6.930
 3649SOL    HW111846   5.659   3.708   6.996
 3649SOL    HW211847   5.546   3.592   6.977
 3650SOL     OW11848   4.776   4.026   0.605
 3650SOL    HW111849   4.793   4.044   0.508
 3650SOL    HW211850   4.679   4.039   0.625
 3651SOL     OW11851   1.883   2.343   5.458
 3651SOL    HW111852   1.913   2.314   5.367
 3651SOL    HW211853   1.848   2.437   5.453
 3652SOL     OW11854   5.435   1.091   2.497
 3652SOL    HW111855   5.468   1.120   2.407
 3652SOL    HW211856   5.504   1.032   2.539
 3653SOL     OW11857   0.812   0.816   2.238
 3653SOL    HW111858   0.746   0.786   2.306
 3653SOL    HW211859   0.868   0.738   2.210
 3654SOL     OW11860   4.825   5.960   1.105
 3654SOL    HW111861   4.821   5.862   1.124
 3654SOL    HW211862   4.851   5.975   1.010
 3655SOL     OW11863   2.971   1.210   4.414
 3655SOL    HW111864   2.917   1.137   4.456
 3655SOL    HW211865   3.060   1.174   4.386
 3656SOL     OW11866   0.964   5.769   2.411
 3656SOL    HW111867   0.973   5.683   2.463
 3656SOL    HW211868   0.867   5.784   2.389
 3657SOL     OW11869   4.761   6.154   5.427
 3657SOL    HW111870   4.730   6.202   5.509
 3657SOL    HW211871   4.685   6.144   5.363
 3658SOL     OW11872   1.438   5.767   6.764
 3658SOL    HW111873   1.502   5.724   6.828
 3658SOL    HW211874   1.457   5.737   6.671
 3659SOL     OW11875   7.019   1.543   6.376
 3659SOL    HW111876   0.093   1.522   6.384
 3659SOL    HW211877   6.965   1.465   6.408
 3660SOL     OW11878   5.534   5.860   5.689
 3660SOL    HW111879   5.437   5.867   5.666
 3660SOL    HW211880   5.576   5.787   5.635
 3661SOL     OW11881   0.013   0.979   4.775
 3661SOL    HW111882   0.076   1.041   4.729
 3661SOL    HW211883   6.989   0.924   4.706
 3662SOL     OW11884   3.736   0.681   5.857
 3662SOL    HW111885   3.803   0.754   5.868
 3662SOL    HW211886   3.656   0.700   5.915
 3663SOL     OW11887   2.276   3.043   6.888
 3663SOL    HW111888   2.326   2.961   6.860
 3663SOL    HW211889   2.193   3.016   6.937
 3664SOL     OW11890   4.456   1.552   2.330
 3664SOL    HW111891   4.412   1.621   2.387
 3664SOL    HW211892   4.530   1.508   2.381
 3665SOL     OW11893   0.510   6.613   5.561
 3665SOL    HW111894   0.599   6.597   5.519
 3665SOL    HW211895   0.520   6.672   5.641
 3666SOL     OW11896   1.626   2.395   3.443
 3666SOL    HW111897   1.583   2.350   3.521
 3666SOL    HW211898   1.562   2.459   3.401
 3667SOL     OW11899   1.343   1.830   2.775
 3667SOL    HW111900   1.330   1.910   2.834
 3667SOL    HW211901   1.333   1.857   2.679
 3668SOL     OW11902   1.324   0.176   1.962
 3668SOL    HW111903   1.379   0.255   1.990
 3668SOL    HW211904   1.385   0.099   1.942
 3669SOL     OW11905   6.193   2.204   4.118
 3669SOL    HW111906   6.279   2.201   4.067
 3669SOL    HW211907   6.198   2.277   4.187
 3670SOL     OW11908   3.767   5.103   1.606
 3670SOL    HW111909   3.704   5.041   1.559
 3670SOL    HW211910   3.751   5.197   1.575
 3671SOL     OW11911   6.902   0.654   3.357
 3671SOL    HW111912   6.931   0.705   3.276
 3671SOL    HW211913   6.935   0.560   3.350
 3672SOL     OW11914   5.180   0.983   2.526
 3672SOL    HW111915   5.176   1.067   2.580
 3672SOL    HW211916   5.274   0.965   2.499
 3673SOL     OW11917   4.950   6.160   0.383
 3673SOL    HW111918   4.872   6.222   0.393
 3673SOL    HW211919   4.979   6.158   0.287
 3674SOL     OW11920   1.843   5.918   5.918
 3674SOL    HW111921   1.758   5.921   5.865
 3674SOL    HW211922   1.827   5.873   6.006
 3675SOL     OW11923   0.443   1.967   3.952
 3675SOL    HW111924   0.385   2.010   3.884
 3675SOL    HW211925   0.539   1.973   3.922
 3676SOL     OW11926   4.805   2.551   2.957
 3676SOL    HW111927   4.743   2.626   2.936
 3676SOL    HW211928   4.849   2.520   2.873
 3677SOL     OW11929   1.868   1.053   4.302
 3677SOL    HW111930   1.880   1.010   4.391
 3677SOL    HW211931   1.891   0.988   4.230
 3678SOL     OW11932   1.230   0.323   3.642
 3678SOL    HW111933   1.138   0.327   3.602
 3678SOL    HW211934   1.238   0.239   3.696
 3679SOL     OW11935   5.300   0.460   2.771
 3679SOL    HW111936   5.260   0.376   2.805
 3679SOL    HW211937   5.354   0.503   2.844
 3680SOL     OW11938   4.698   1.595   3.046
 3680SOL    HW111939   4.644   1.648   2.981
 3680SOL    HW211940   4.649   1.511   3.070
 3681SOL     OW11941   1.438   0.622   5.067
 3681SOL    HW111942   1.534   0.637   5.093
 3681SOL    HW211943   1.418   0.674   4.984
 3682SOL     OW11944   5.392   2.655   1.087
 3682SOL    HW111945   5.342   2.609   1.161
 3682SOL    HW211946   5.378   2.606   1.001
 3683SOL     OW11947   0.261   0.375   4.683
 3683SOL    HW111948   0.336   0.346   4.742
 3683SOL    HW211949   0.187   0.414   4.739
 3684SOL     OW11950   1.948   6.675   5.562
 3684SOL    HW111951   1.971   6.757   5.614
 3684SOL    HW211952   2.023   6.609   5.567
 3685SOL     OW11953   2.344   5.848   5.468
 3685SOL    HW111954   2.382   5.929   5.423
 3685SOL    HW211955   2.373   5.846   5.563
 3686SOL     OW11956   6.497   3.360   3.478
 3686SOL    HW111957   6.548   3.444   3.497
 3686SOL    HW211958   6.437   3.373   3.400
 3687SOL     OW11959   4.791   5.994   3.593
 3687SOL    HW111960   4.772   6.003   3.691
 3687SOL    HW211961   4.864   5.927   3.579
 3688SOL     OW11962   6.103   3.204   0.099
 3688SOL    HW111963   6.165   3.128   0.078
 3688SOL    HW211964   6.025   3.170   0.151
 3689SOL     OW11965   2.479   1.615   5.025
 3689SOL    HW111966   2.562   1.607   5.080
 3689SOL    HW211967   2.455   1.525   4.988
 3690SOL     OW11968   5.184   5.447   0.929
 3690SOL    HW111969   5.205   5.523   0.990
 3690SOL    HW211970   5.220   5.362   0.968
 3691SOL     OW11971   2.762   1.808   6.491
 3691SOL    HW111972   2.837   1.844   6.437
 3691SOL    HW211973   2.714   1.737   6.439
 3692SOL     OW11974   0.048   3.765   6.050
 3692SOL    HW111975   0.138   3.726   6.068
 3692SOL    HW211976   0.054   3.865   6.049
 3693SOL     OW11977   0.656   1.802   2.551
 3693SOL    HW111978   0.619   1.894   2.566
 3693SOL    HW211979   0.601   1.736   2.601
 3694SOL     OW11980   0.985   0.785   1.668
 3694SOL    HW111981   0.968   0.870   1.719
 3694SOL    HW211982   0.898   0.744   1.642
 3695SOL     OW11983   6.676   2.566   2.416
 3695SOL    HW111984   6.728   2.639   2.459
 3695SOL    HW211985   6.737   2.489   2.396
 3696SOL     OW11986   4.921   0.666   4.716
 3696SOL    HW111987   4.954   0.631   4.803
 3696SOL    HW211988   4.851   0.736   4.732
 3697SOL     OW11989   6.500   6.162   3.269
 3697SOL    HW111990   6.508   6.074   3.223
 3697SOL    HW211991   6.529   6.152   3.364
 3698SOL     OW11992   1.691   0.645   3.448
 3698SOL    HW111993   1.775   0.639   3.502
 3698SOL    HW211994   1.646   0.733   3.465
 3699SOL     OW11995   2.607   2.040   4.248
 3699SOL    HW111996   2.606   2.063   4.345
 3699SOL    HW211997   2.559   2.111   4.196
 3700SOL     OW11998   1.898   5.118   5.129
 3700SOL    HW111999   1.993   5.101   5.102
 3700SOL    HW212000   1.887   5.214   5.153
 3701SOL     OW12001   0.906   6.557   2.928
 3701SOL    HW112002   0.914   6.458   2.942
 3701SOL    HW212003   0.992   6.593   2.894
 3702SOL     OW12004   5.730   5.658   3.968
 3702SOL    HW112005   5.769   5.649   3.877
 3702SOL    HW212006   5.804   5.662   4.036
 3703SOL     OW12007   1.231   1.243   5.750
 3703SOL    HW112008   1.183   1.163   5.714
 3703SOL    HW212009   1.180   1.281   5.828
 3704SOL     OW12010   5.869   2.716   1.047
 3704SOL    HW112011   5.863   2.806   1.090
 3704SOL    HW212012   5.946   2.715   0.983
 3705SOL     OW12013   5.102   4.841   3.688
 3705SOL    HW112014   5.128   4.745   3.679
 3705SOL    HW212015   5.015   4.848   3.737
 3706SOL     OW12016   0.979   3.809   0.762
 3706SOL    HW112017   0.955   3.867   0.840
 3706SOL    HW212018   0.967   3.860   0.678
 3707SOL     OW12019   3.035   4.831   3.710
 3707SOL    HW112020   2.990   4.807   3.796
 3707SOL    HW212021   3.105   4.764   3.688
 3708SOL     OW12022   3.470   6.785   1.313
 3708SOL    HW112023   3.548   6.759   1.257
 3708SOL    HW212024   3.472   6.884   1.330
 3709SOL     OW12025   2.002   0.475   2.063
 3709SOL    HW112026   1.955   0.390   2.087
 3709SOL    HW212027   2.026   0.524   2.147
 3710SOL     OW12028   0.615   5.171   5.430
 3710SOL    HW112029   0.680   5.208   5.363
 3710SOL    HW212030   0.639   5.204   5.522
 3711SOL     OW12031   1.878   6.153   5.261
 3711SOL    HW112032   1.903   6.120   5.170
 3711SOL    HW212033   1.802   6.098   5.296
 3712SOL     OW12034   2.234   5.607   6.071
 3712SOL    HW112035   2.211   5.703   6.053
 3712SOL    HW212036   2.332   5.594   6.061
 3713SOL     OW12037   6.750   6.473   4.566
 3713SOL    HW112038   6.661   6.489   4.607
 3713SOL    HW212039   6.788   6.387   4.601
 3714SOL     OW12040   1.136   4.745   0.166
 3714SOL    HW112041   1.170   4.837   0.148
 3714SOL    HW212042   1.138   4.729   0.265
 3715SOL     OW12043   0.056   6.045   3.688
 3715SOL    HW112044   6.998   6.038   3.744
 3715SOL    HW212045   0.137   6.043   3.747
 3716SOL     OW12046   6.283   5.654   4.106
 3716SOL    HW112047   6.197   5.701   4.125
 3716SOL    HW212048   6.282   5.618   4.013
 3717SOL     OW12049   4.720   1.269   1.131
 3717SOL    HW112050   4.693   1.176   1.154
 3717SOL    HW212051   4.639   1.328   1.128
 3718SOL     OW12052   0.381   6.501   6.496
 3718SOL    HW112053   0.283   6.520   6.496
 3718SOL    HW212054   0.410   6.472   6.405
 3719SOL     OW12055   4.260   3.524   6.342
 3719SOL    HW112056   4.184   3.551   6.401
 3719SOL    HW212057   4.268   3.589   6.267
 3720SOL     OW12058   6.439   3.442   1.075
 3720SOL    HW112059   6.366   3.489   1.024
 3720SOL    HW212060   6.499   3.394   1.011
 3721SOL     OW12061   6.301   5.181   6.863
 3721SOL    HW112062   6.353   5.219   6.939
 3721SOL    HW212063   6.260   5.255   6.809
 3722SOL     OW12064   4.124   0.005   2.121
 3722SOL    HW112065   4.075   0.004   2.034
 3722SOL    HW212066   4.133   0.099   2.153
 3723SOL     OW12067   4.447   5.389   0.431
 3723SOL    HW112068   4.462   5.464   0.497
 3723SOL    HW212069   4.525   5.385   0.368
 3724SOL     OW12070   1.560   4.900   5.488
 3724SOL    HW112071   1.555   4.941   5.580
 3724SOL    HW212072   1.655   4.882   5.465
 3725SOL     OW12073   0.382   5.987   0.033
 3725SOL    HW112074   0.331   5.968   0.117
 3725SOL    HW212075   0.422   6.078   0.037
 3726SOL     OW12076   5.047   4.283   4.225
 3726SOL    HW112077   5.139   4.321   4.217
 3726SOL    HW212078   4.988   4.347   4.275
 3727SOL     OW12079   0.249   2.980   4.219
 3727SOL    HW112080   0.202   3.030   4.291
 3727SOL    HW212081   0.209   2.889   4.209
 3728SOL     OW12082   3.418   3.462   0.697
 3728SOL    HW112083   3.382   3.553   0.675
 3728SOL    HW212084   3.398   3.440   0.792
 3729SOL     OW12085   0.300   0.360   5.470
 3729SOL    HW112086   0.231   0.422   5.509
 3729SOL    HW212087   0.386   0.371   5.519
 3730SOL     OW12088   4.204   6.451   6.022
 3730SOL    HW112089   4.139   6.382   5.990
 3730SOL    HW212090   4.186   6.471   6.119
 3731SOL     OW12091   0.294   1.561   6.429
 3731SOL    HW112092   0.323   1.601   6.342
 3731SOL    HW212093   0.338   1.610   6.505
 3732SOL     OW12094   2.346   1.239   0.429
 3732SOL    HW112095   2.328   1.326   0.383
 3732SOL    HW212096   2.396   1.178   0.367
 3733SOL     OW12097   1.879   2.713   3.883
 3733SOL    HW112098   1.901   2.705   3.786
 3733SOL    HW212099   1.962   2.705   3.937
 3734SOL     OW12100   4.018   0.321   1.475
 3734SOL    HW112101   4.115   0.335   1.491
 3734SOL    HW212102   3.966   0.394   1.518
 3735SOL     OW12103   4.092   6.557   2.326
 3735SOL    HW112104   4.020   6.617   2.361
 3735SOL    HW212105   4.149   6.607   2.262
 3736SOL     OW12106   6.616   1.186   1.170
 3736SOL    HW112107   6.593   1.148   1.080
 3736SOL    HW212108   6.619   1.112   1.237
 3737SOL     OW12109   6.729   2.408   3.218
 3737SOL    HW112110   6.714   2.324   3.270
 3737SOL    HW212111   6.655   2.473   3.238
 3738SOL     OW12112   6.673   5.920   0.855
 3738SOL    HW112113   6.724   6.004   0.838
 3738SOL    HW212114   6.599   5.938   0.920
 3739SOL     OW12115   3.225   4.949   1.975
 3739SOL    HW112116   3.176   5.029   1.940
 3739SOL    HW212117   3.161   4.875   1.992
 3740SOL     OW12118   5.876   5.614   6.612
 3740SOL    HW112119   5.916   5.560   6.539
 3740SOL    HW212120   5.940   5.687   6.638
 3741SOL     OW12121   5.193   2.697   0.270
 3741SOL    HW112122   5.099   2.733   0.273
 3741SOL    HW212123   5.222   2.673   0.363
 3742SOL     OW12124   4.584   5.647   0.305
 3742SOL    HW112125   4.589   5.629   0.403
 3742SOL    HW212126   4.670   5.689   0.274
 3743SOL     OW12127   4.338   3.985   1.219
 3743SOL    HW112128   4.260   4.047   1.206
 3743SOL    HW212129   4.410   4.008   1.154
 3744SOL     OW12130   1.183   6.389   1.999
 3744SOL    HW112131   1.241   6.463   2.033
 3744SOL    HW212132   1.087   6.413   2.012
 3745SOL     OW12133   5.013   3.429   2.403
 3745SOL    HW112134   5.076   3.437   2.326
 3745SOL    HW212135   4.925   3.471   2.380
 3746SOL     OW12136   6.552   0.119   3.609
 3746SOL    HW112137   6.463   0.117   3.565
 3746SOL    HW212138   6.589   0.026   3.615
 3747SOL     OW12139   4.507   6.545   6.199
 3747SOL    HW112140   4.419   6.534   6.245
 3747SOL    HW212141   4.555   6.457   6.197
 3748SOL     OW12142   5.694   0.976   2.531
 3748SOL    HW112143   5.660   1.003   2.621
 3748SOL    HW212144   5.725   0.882   2.534
 3749SOL     OW12145   0.972   5.143   2.862
 3749SOL    HW112146   1.008   5.215   2.921
 3749SOL    HW212147   0.960   5.178   2.769
 3750SOL     OW12148   5.909   4.454   0.567
 3750SOL    HW112149   5.842   4.424   0.500
 3750SOL    HW212150   5.925   4.380   0.633
 3751SOL     OW12151   1.746   3.187   1.058
 3751SOL    HW112152   1.773   3.092   1.043
 3751SOL    HW212153   1.666   3.208   1.002
 3752SOL     OW12154   0.135   0.014   6.644
 3752SOL    HW112155   0.093   0.068   6.717
 3752SOL    HW212156   0.064   6.997   6.587
 3753SOL     OW12157   0.962   6.703   4.485
 3753SOL    HW112158   1.035   6.690   4.419
 3753SOL    HW212159   1.000   6.696   4.578
 3754SOL     OW12160   5.620   6.541   1.044
 3754SOL    HW112161   5.669   6.490   0.973
 3754SOL    HW212162   5.532   6.573   1.007
 3755SOL     OW12163   5.293   5.050   3.985
 3755SOL    HW112164   5.259   5.144   3.978
 3755SOL    HW212165   5.380   5.041   3.938
 3756SOL     OW12166   2.070   1.750   6.319
 3756SOL    HW112167   2.161   1.777   6.350
 3756SOL    HW212168   2.078   1.702   6.232
 3757SOL     OW12169   3.219   5.809   5.551
 3757SOL    HW112170   3.269   5.776   5.471
 3757SOL    HW212171   3.123   5.781   5.544
 3758SOL     OW12172   2.270   1.002   4.791
 3758SOL    HW112173   2.301   1.084   4.840
 3758SOL    HW212174   2.214   0.946   4.852
 3759SOL     OW12175   5.032   5.427   5.605
 3759SOL    HW112176   5.004   5.490   5.677
 3759SOL    HW212177   5.044   5.335   5.644
 3760SOL     OW12178   1.283   3.117   3.826
 3760SOL    HW112179   1.199   3.127   3.880
 3760SOL    HW212180   1.346   3.057   3.873
 3761SOL     OW12181   0.589   6.780   5.120
 3761SOL    HW112182   0.567   6.856   5.180
 3761SOL    HW212183   0.505   6.731   5.096
 3762SOL     OW12184   1.193   4.192   0.328
 3762SOL    HW112185   1.105   4.159   0.294
 3762SOL    HW212186   1.180   4.280   0.374
 3763SOL     OW12187   6.716   3.865   6.580
 3763SOL    HW112188   6.623   3.881   6.614
 3763SOL    HW212189   6.769   3.816   6.650
 3764SOL     OW12190   1.937   0.285   4.591
 3764SOL    HW112191   1.849   0.329   4.608
 3764SOL    HW212192   1.999   0.303   4.668
 3765SOL     OW12193   4.835   0.666   3.553
 3765SOL    HW112194   4.802   0.760   3.569
 3765SOL    HW212195   4.783   0.603   3.611
 3766SOL     OW12196   0.723   1.132   4.034
 3766SOL    HW112197   0.701   1.216   4.084
 3766SOL    HW212198   0.745   1.059   4.099
 3767SOL     OW12199   1.601   5.182   0.285
 3767SOL    HW112200   1.633   5.140   0.199
 3767SOL    HW212201   1.562   5.111   0.344
 3768SOL     OW12202   4.656   6.338   6.505
 3768SOL    HW112203   4.718   6.329   6.583
 3768SOL    HW212204   4.624   6.247   6.477
 3769SOL     OW12205   5.624   5.955   4.876
 3769SOL    HW112206   5.611   6.018   4.800
 3769SOL    HW212207   5.640   5.863   4.842
 3770SOL     OW12208   2.134   1.395   5.895
 3770SOL    HW112209   2.118   1.381   5.993
 3770SOL    HW212210   2.176   1.484   5.881
 3771SOL     OW12211   5.183   2.224   0.501
 3771SOL    HW112212   5.140   2.312   0.482
 3771SOL    HW212213   5.200   2.214   0.599
 3772SOL     OW12214   6.336   0.725   1.042
 3772SOL    HW112215   6.404   0.761   1.105
 3772SOL    HW212216   6.275   0.798   1.012
 3773SOL     OW12217   5.869   3.175   5.436
 3773SOL    HW112218   5.926   3.103   5.477
 3773SOL    HW212219   5.834   3.235   5.509
 3774SOL     OW12220   1.213   0.060   6.446
 3774SOL    HW112221   1.185   0.156   6.439
 3774SOL    HW212222   1.134   0.001   6.432
 3775SOL     OW12223   5.512   3.899   3.113
 3775SOL    HW112224   5.419   3.890   3.076
 3775SOL    HW212225   5.576   3.920   3.040
 3776SOL     OW12226   2.247   2.256   1.013
 3776SOL    HW112227   2.175   2.293   1.071
 3776SOL    HW212228   2.275   2.167   1.048
 3777SOL     OW12229   3.017   5.154   4.573
 3777SOL    HW112230   2.930   5.133   4.618
 3777SOL    HW212231   3.071   5.214   4.632
 3778SOL     OW12232   2.238   5.698   3.071
 3778SOL    HW112233   2.157   5.757   3.067
 3778SOL    HW212234   2.314   5.744   3.026
 3779SOL     OW12235   2.548   4.486   0.304
 3779SOL    HW112236   2.514   4.434   0.383
 3779SOL    HW212237   2.553   4.425   0.224
 3780SOL     OW12238   3.692   5.508   4.883
 3780SOL    HW112239   3.717   5.577   4.951
 3780SOL    HW212240   3.708   5.416   4.921
 3781SOL     OW12241   2.364   6.697   3.946
 3781SOL    HW112242   2.357   6.610   3.897
 3781SOL    HW212243   2.385   6.770   3.881
 3782SOL     OW12244   3.009   1.939   4.288
 3782SOL    HW112245   2.927   1.902   4.243
 3782SOL    HW212246   3.009   2.038   4.281
 3783SOL     OW12247   6.403   6.769   5.015
 3783SOL    HW112248   6.434   6.701   5.082
 3783SOL    HW212249   6.330   6.728   4.959
 3784SOL     OW12250   5.856   1.426   3.770
 3784SOL    HW112251   5.780   1.454   3.829
 3784SOL    HW212252   5.821   1.381   3.688
 3785SOL     OW12253   2.477   1.639   0.296
 3785SOL    HW112254   2.548   1.571   0.313
 3785SOL    HW212255   2.436   1.624   0.206
 3786SOL     OW12256   2.787   4.768   3.403
 3786SOL    HW112257   2.779   4.719   3.316
 3786SOL    HW212258   2.876   4.812   3.409
 3787SOL     OW12259   5.372   1.105   4.455
 3787SOL    HW112260   5.365   1.046   4.374
 3787SOL    HW212261   5.467   1.132   4.468
 3788SOL     OW12262   6.550   2.965   3.678
 3788SOL    HW112263   6.554   2.928   3.585
 3788SOL    HW212264   6.458   2.951   3.716
 3789SOL     OW12265   0.972   4.178   4.363
 3789SOL    HW112266   0.998   4.085   4.336
 3789SOL    HW212267   1.053   4.236   4.366
 3790SOL     OW12268   2.126   3.678   4.712
 3790SOL    HW112269   2.137   3.621   4.631
 3790SOL    HW212270   2.116   3.620   4.793
 3791SOL     OW12271   5.318   6.680   1.167
 3791SOL    HW112272   5.230   6.713   1.199
 3791SOL    HW212273   5.320   6.683   1.067
 3792SOL     OW12274   6.453   0.308   5.377
 3792SOL    HW112275   6.364   0.351   5.390
 3792SOL    HW212276   6.512   0.369   5.325
 3793SOL     OW12277   2.132   1.315   2.583
 3793SOL    HW112278   2.210   1.345   2.528
 3793SOL    HW212279   2.054   1.377   2.567
 3794SOL     OW12280   3.823   5.411   2.153
 3794SOL    HW112281   3.906   5.422   2.208
 3794SOL    HW212282   3.743   5.415   2.212
 3795SOL     OW12283   5.074   0.328   6.717
 3795SOL    HW112284   5.019   0.245   6.716
 3795SOL    HW212285   5.014   0.408   6.727
 3796SOL     OW12286   1.355   2.067   1.328
 3796SOL    HW112287   1.295   2.086   1.405
 3796SOL    HW212288   1.312   2.003   1.265
 3797SOL     OW12289   0.051   5.261   2.146
 3797SOL    HW112290   0.144   5.284   2.118
 3797SOL    HW212291   0.049   5.169   2.184
 3798SOL     OW12292   2.549   4.631   3.212
 3798SOL    HW112293   2.631   4.662   3.164
 3798SOL    HW212294   2.492   4.578   3.149
 3799SOL     OW12295   1.124   1.889   5.149
 3799SOL    HW112296   1.136   1.837   5.064
 3799SOL    HW212297   1.144   1.830   5.227
 3800SOL     OW12298   5.157   2.547   5.051
 3800SOL    HW112299   5.130   2.505   5.138
 3800SOL    HW212300   5.234   2.496   5.013
 3801SOL     OW12301   6.494   6.258   5.244
 3801SOL    HW112302   6.430   6.289   5.173
 3801SOL    HW212303   6.464   6.292   5.333
 3802SOL     OW12304   1.219   2.317   5.512
 3802SOL    HW112305   1.206   2.221   5.487
 3802SOL    HW212306   1.285   2.323   5.588
 3803SOL     OW12307   4.471   0.625   2.136
 3803SOL    HW112308   4.515   0.552   2.084
 3803SOL    HW212309   4.417   0.586   2.210
 3804SOL     OW12310   4.645   1.527   4.754
 3804SOL    HW112311   4.620   1.564   4.665
 3804SOL    HW212312   4.734   1.481   4.748
 3805SOL     OW12313   2.961   4.323   1.661
 3805SOL    HW112314   3.054   4.317   1.625
 3805SOL    HW212315   2.959   4.388   1.737
 3806SOL     OW12316   3.139   2.869   6.889
 3806SOL    HW112317   3.204   2.933   6.930
 3806SOL    HW212318   3.182   2.779   6.880
 3807SOL     OW12319   1.553   0.019   4.533
 3807SOL    HW112320   1.573   0.111   4.497
 3807SOL    HW212321   1.523   6.984   4.458
 3808SOL     OW12322   3.123   0.357   2.225
 3808SOL    HW112323   3.220   0.340   2.245
 3808SOL    HW212324   3.112   0.452   2.196
 3809SOL     OW12325   6.026   2.093   6.802
 3809SOL    HW112326   6.060   2.165   6.863
 3809SOL    HW212327   6.093   2.078   6.728
 3810SOL     OW12328   3.267   3.331   5.644
 3810SOL    HW112329   3.350   3.276   5.646
 3810SOL    HW212330   3.213   3.307   5.563
 3811SOL     OW12331   0.511   3.977   4.745
 3811SOL    HW112332   0.569   3.982   4.663
 3811SOL    HW212333   0.523   4.060   4.799
 3812SOL     OW12334   6.467   2.401   5.980
 3812SOL    HW112335   6.499   2.348   6.058
 3812SOL    HW212336   6.383   2.361   5.944
 3813SOL     OW12337   3.725   5.243   1.041
 3813SOL    HW112338   3.764   5.315   1.098
 3813SOL    HW212339   3.719   5.158   1.094
 3814SOL     OW12340   6.904   5.987   1.160
 3814SOL    HW112341   6.984   5.971   1.218
 3814SOL    HW212342   6.877   5.902   1.115
 3815SOL     OW12343   5.183   2.027   1.113
 3815SOL    HW112344   5.160   2.017   1.016
 3815SOL    HW212345   5.104   2.001   1.169
 3816SOL     OW12346   6.695   6.658   2.302
 3816SOL    HW112347   6.724   6.739   2.352
 3816SOL    HW212348   6.642   6.598   2.363
 3817SOL     OW12349   4.597   2.567   4.168
 3817SOL    HW112350   4.623   2.606   4.257
 3817SOL    HW212351   4.644   2.616   4.095
 3818SOL     OW12352   4.445   6.474   2.869
 3818SOL    HW112353   4.540   6.493   2.894
 3818SOL    HW212354   4.420   6.382   2.899
 3819SOL     OW12355   5.731   5.457   0.417
 3819SOL    HW112356   5.661   5.460   0.489
 3819SOL    HW212357   5.752   5.550   0.387
 3820SOL     OW12358   5.656   5.956   4.104
 3820SOL    HW112359   5.556   5.956   4.108
 3820SOL    HW212360   5.686   5.960   4.009
 3821SOL     OW12361   1.778   3.626   1.696
 3821SOL    HW112362   1.687   3.669   1.693
 3821SOL    HW212363   1.834   3.673   1.764
 3822SOL     OW12364   1.931   5.282   1.321
 3822SOL    HW112365   2.026   5.260   1.341
 3822SOL    HW212366   1.874   5.256   1.399
 3823SOL     OW12367   3.819   1.939   5.458
 3823SOL    HW112368   3.725   1.950   5.425
 3823SOL    HW212369   3.823   1.962   5.556
 3824SOL     OW12370   6.018   2.316   5.936
 3824SOL    HW112371   5.941   2.260   5.967
 3824SOL    HW212372   6.042   2.381   6.008
 3825SOL     OW12373   6.781   0.237   6.846
 3825SOL    HW112374   6.755   0.270   6.755
 3825SOL    HW212375   6.772   0.312   6.912
 3826SOL     OW12376   0.330   3.687   0.454
 3826SOL    HW112377   0.419   3.660   0.490
 3826SOL    HW212378   0.316   3.644   0.364
 3827SOL     OW12379   3.786   4.121   0.330
 3827SOL    HW112380   3.857   4.052   0.342
 3827SOL    HW212381   3.697   4.075   0.318
 3828SOL     OW12382   4.410   1.966   1.048
 3828SOL    HW112383   4.381   1.900   0.979
 3828SOL    HW212384   4.495   2.009   1.020
 3829SOL     OW12385   2.499   5.194   3.354
 3829SOL    HW112386   2.419   5.147   3.318
 3829SOL    HW212387   2.540   5.139   3.427
 3830SOL     OW12388   2.039   0.126   5.450
 3830SOL    HW112389   2.036   0.057   5.523
 3830SOL    HW212390   1.963   0.111   5.387
 3831SOL     OW12391   4.010   1.690   2.489
 3831SOL    HW112392   4.062   1.770   2.458
 3831SOL    HW212393   3.919   1.692   2.447
 3832SOL     OW12394   6.354   0.847   1.904
 3832SOL    HW112395   6.387   0.771   1.848
 3832SOL    HW212396   6.426   0.916   1.911
 3833SOL     OW12397   0.731   4.616   0.688
 3833SOL    HW112398   0.639   4.629   0.725
 3833SOL    HW212399   0.741   4.667   0.602
 3834SOL     OW12400   2.990   1.901   0.482
 3834SOL    HW112401   3.051   1.975   0.451
 3834SOL    HW212402   2.895   1.933   0.479
 3835SOL     OW12403   3.689   5.664   5.797
 3835SOL    HW112404   3.650   5.572   5.787
 3835SOL    HW212405   3.788   5.659   5.783
 3836SOL     OW12406   1.952   4.280   6.183
 3836SOL    HW112407   1.945   4.255   6.086
 3836SOL    HW212408   1.924   4.375   6.194
 3837SOL     OW12409   4.795   3.556   0.100
 3837SOL    HW112410   4.760   3.465   0.120
 3837SOL    HW212411   4.792   3.612   0.183
 3838SOL     OW12412   5.419   2.315   4.515
 3838SOL    HW112413   5.442   2.296   4.419
 3838SOL    HW212414   5.322   2.295   4.530
 3839SOL     OW12415   5.921   0.020   4.945
 3839SOL    HW112416   5.906   6.968   4.881
 3839SOL    HW212417   5.943   7.007   5.035
 3840SOL     OW12418   1.539   1.127   4.538
 3840SOL    HW112419   1.504   1.209   4.583
 3840SOL    HW212420   1.588   1.152   4.455
 3841SOL     OW12421   0.955   3.972   5.145
 3841SOL    HW112422   0.954   4.070   5.124
 3841SOL    HW212423   1.050   3.942   5.158
 3842SOL     OW12424   0.653   5.303   0.136
 3842SOL    HW112425   0.580   5.357   0.177
 3842SOL    HW212426   0.695   5.354   0.061
 3843SOL     OW12427   6.095   3.304   0.582
 3843SOL    HW112428   6.170   3.278   0.643
 3843SOL    HW212429   6.042   3.222   0.559
 3844SOL     OW12430   1.934   5.028   5.622
 3844SOL    HW112431   1.853   5.084   5.638
 3844SOL    HW212432   1.931   4.948   5.682
 3845SOL     OW12433   3.437   3.245   3.140
 3845SOL    HW112434   3.440   3.268   3.043
 3845SOL    HW212435   3.351   3.277   3.180
 3846SOL     OW12436   6.936   4.170   4.647
 3846SOL    HW112437   6.912   4.113   4.568
 3846SOL    HW212438   6.974   4.112   4.719
 3847SOL     OW12439   6.787   0.130   6.480
 3847SOL    HW112440   6.730   0.133   6.398
 3847SOL    HW212441   6.790   0.220   6.522
 3848SOL     OW12442   2.446   5.125   2.183
 3848SOL    HW112443   2.517   5.055   2.190
 3848SOL    HW212444   2.476   5.207   2.231
 3849SOL     OW12445   0.812   1.644   5.761
 3849SOL    HW112446   0.784   1.666   5.668
 3849SOL    HW212447   0.833   1.546   5.767
 3850SOL     OW12448   3.152   4.012   1.954
 3850SOL    HW112449   3.061   4.025   1.914
 3850SOL    HW212450   3.148   3.942   2.025
 3851SOL     OW12451   2.111   3.785   3.212
 3851SOL    HW112452   2.019   3.756   3.238
 3851SOL    HW212453   2.161   3.815   3.293
 3852SOL     OW12454   4.477   0.636   5.098
 3852SOL    HW112455   4.537   0.638   5.018
 3852SOL    HW212456   4.389   0.597   5.073
 3853SOL     OW12457   1.163   3.385   1.947
 3853SOL    HW112458   1.077   3.400   1.898
 3853SOL    HW212459   1.187   3.288   1.943
 3854SOL     OW12460   1.007   3.445   4.318
 3854SOL    HW112461   1.019   3.491   4.407
 3854SOL    HW212462   0.909   3.434   4.300
 3855SOL     OW12463   6.077   4.069   5.902
 3855SOL    HW112464   6.114   3.987   5.857
 3855SOL    HW212465   6.053   4.137   5.832
 3856SOL     OW12466   6.746   0.153   5.375
 3856SOL    HW112467   6.684   0.117   5.306
 3856SOL    HW212468   6.711   0.239   5.410
 3857SOL     OW12469   1.081   6.502   5.091
 3857SOL    HW112470   1.118   6.486   4.999
 3857SOL    HW212471   0.983   6.521   5.084
 3858SOL     OW12472   1.803   5.909   6.338
 3858SOL    HW112473   1.880   5.973   6.339
 3858SOL    HW212474   1.779   5.884   6.432
 3859SOL     OW12475   0.164   2.912   3.020
 3859SOL    HW112476   0.078   2.872   2.990
 3859SOL    HW212477   0.216   2.846   3.073
 3860SOL     OW12478   2.240   5.876   6.060
 3860SOL    HW112479   2.229   5.904   6.155
 3860SOL    HW212480   2.219   5.953   6.000
 3861SOL     OW12481   4.696   4.486   1.357
 3861SOL    HW112482   4.764   4.556   1.377
 3861SOL    HW212483   4.721   4.401   1.403
 3862SOL     OW12484   1.211   6.108   6.119
 3862SOL    HW112485   1.223   6.177   6.191
 3862SOL    HW212486   1.128   6.129   6.067
 3863SOL     OW12487   3.371   3.704   1.198
 3863SOL    HW112488   3.409   3.727   1.109
 3863SOL    HW212489   3.334   3.787   1.241
 3864SOL     OW12490   3.162   1.919   6.525
 3864SOL    HW112491   3.206   1.996   6.480
 3864SOL    HW212492   3.146   1.942   6.621
 3865SOL     OW12493   4.354   0.382   2.357
 3865SOL    HW112494   4.446   0.356   2.386
 3865SOL    HW212495   4.313   0.443   2.425
 3866SOL     OW12496   3.919   0.170   0.972
 3866SOL    HW112497   3.876   0.134   0.889
 3866SOL    HW212498   4.002   0.219   0.948
 3867SOL     OW12499   2.131   3.439   3.186
 3867SOL    HW112500   2.182   3.525   3.183
 3867SOL    HW212501   2.096   3.424   3.279
 3868SOL     OW12502   2.804   6.721   2.320
 3868SOL    HW112503   2.746   6.670   2.258
 3868SOL    HW212504   2.878   6.765   2.269
 3869SOL     OW12505   0.471   2.867   3.380
 3869SOL    HW112506   0.422   2.954   3.386
 3869SOL    HW212507   0.522   2.852   3.465
 3870SOL     OW12508   3.025   5.490   0.152
 3870SOL    HW112509   2.951   5.427   0.176
 3870SOL    HW212510   3.065   5.463   0.064
 3871SOL     OW12511   2.905   0.320   3.216
 3871SOL    HW112512   2.991   0.268   3.216
 3871SOL    HW212513   2.917   0.404   3.270
 3872SOL     OW12514   4.107   3.531   1.215
 3872SOL    HW112515   4.187   3.589   1.227
 3872SOL    HW212516   4.053   3.530   1.299
 3873SOL     OW12517   5.462   4.895   1.629
 3873SOL    HW112518   5.388   4.831   1.608
 3873SOL    HW212519   5.466   4.908   1.729
 3874SOL     OW12520   4.296   0.117   0.189
 3874SOL    HW112521   4.333   0.114   0.096
 3874SOL    HW212522   4.372   0.122   0.254
 3875SOL     OW12523   1.515   4.476   1.725
 3875SOL    HW112524   1.557   4.504   1.639
 3875SOL    HW212525   1.554   4.388   1.754
 3876SOL     OW12526   5.884   4.068   4.008
 3876SOL    HW112527   5.916   4.083   3.914
 3876SOL    HW212528   5.846   4.153   4.045
 3877SOL     OW12529   6.200   0.940   2.121
 3877SOL    HW112530   6.264   0.928   2.197
 3877SOL    HW212531   6.240   0.903   2.038
 3878SOL     OW12532   3.841   6.861   6.452
 3878SOL    HW112533   3.853   6.896   6.544
 3878SOL    HW212534   3.866   6.932   6.386
 3879SOL     OW12535   4.406   5.494   1.712
 3879SOL    HW112536   4.339   5.502   1.785
 3879SOL    HW212537   4.395   5.406   1.667
 3880SOL     OW12538   5.682   2.964   3.178
 3880SOL    HW112539   5.700   2.904   3.256
 3880SOL    HW212540   5.685   2.911   3.093
 3881SOL     OW12541   0.714   4.403   1.001
 3881SOL    HW112542   0.618   4.397   0.975
 3881SOL    HW212543   0.722   4.445   1.092
 3882SOL     OW12544   6.914   1.341   5.572
 3882SOL    HW112545   7.003   1.359   5.615
 3882SOL    HW212546   6.854   1.420   5.587
 3883SOL     OW12547   4.192   0.610   5.040
 3883SOL    HW112548   4.132   0.569   4.970
 3883SOL    HW212549   4.154   0.591   5.131
 3884SOL     OW12550   2.096   6.043   5.835
 3884SOL    HW112551   2.106   6.067   5.738
 3884SOL    HW212552   2.021   5.976   5.844
 3885SOL     OW12553   6.817   1.089   3.695
 3885SOL    HW112554   6.732   1.115   3.741
 3885SOL    HW212555   6.884   1.060   3.763
 3886SOL     OW12556   0.007   6.531   4.863
 3886SOL    HW112557   6.937   6.504   4.888
 3886SOL    HW212558   0.061   6.542   4.946
 3887SOL     OW12559   4.413   2.048   5.614
 3887SOL    HW112560   4.335   1.986   5.615
 3887SOL    HW212561   4.448   2.056   5.521
 3888SOL     OW12562   0.106   1.677   0.745
 3888SOL    HW112563   0.093   1.720   0.656
 3888SOL    HW212564   0.018   1.661   0.788
 3889SOL     OW12565   0.979   6.287   6.423
 3889SOL    HW112566   1.042   6.340   6.480
 3889SOL    HW212567   1.030   6.216   6.375
 3890SOL     OW12568   5.683   4.621   3.280
 3890SOL    HW112569   5.622   4.689   3.240
 3890SOL    HW212570   5.696   4.546   3.214
 3891SOL     OW12571   5.383   5.175   4.953
 3891SOL    HW112572   5.470   5.192   4.908
 3891SOL    HW212573   5.355   5.256   5.004
 3892SOL     OW12574   5.470   6.860   3.017
 3892SOL    HW112575   5.423   6.831   2.934
 3892SOL    HW212576   5.403   6.884   3.087
 3893SOL     OW12577   3.383   5.748   4.276
 3893SOL    HW112578   3.461   5.714   4.329
 3893SOL    HW212579   3.379   5.700   4.189
 3894SOL     OW12580   4.762   3.674   6.844
 3894SOL    HW112581   4.846   3.664   6.792
 3894SOL    HW212582   4.783   3.670   6.942
 3895SOL     OW12583   2.766   1.767   5.881
 3895SOL    HW112584   2.775   1.724   5.792
 3895SOL    HW212585   2.677   1.744   5.921
 3896SOL     OW12586   6.538   3.136   5.245
 3896SOL    HW112587   6.577   3.086   5.323
 3896SOL    HW212588   6.560   3.088   5.160
 3897SOL     OW12589   3.771   0.169   1.996
 3897SOL    HW112590   3.727   0.079   1.982
 3897SOL    HW212591   3.770   0.219   1.910
 3898SOL     OW12592   3.842   3.944   4.087
 3898SOL    HW112593   3.751   3.900   4.087
 3898SOL    HW212594   3.892   3.916   4.168
 3899SOL     OW12595   4.822   1.666   5.647
 3899SOL    HW112596   4.785   1.746   5.600
 3899SOL    HW212597   4.832   1.591   5.581
 3900SOL     OW12598   6.576   2.368   2.987
 3900SOL    HW112599   6.632   2.353   3.068
 3900SOL    HW212600   6.634   2.404   2.913
 3901SOL     OW12601   1.512   6.705   5.647
 3901SOL    HW112602   1.502   6.792   5.695
 3901SOL    HW212603   1.489   6.630   5.709
 3902SOL     OW12604   3.924   4.982   1.369
 3902SOL    HW112605   3.963   5.074   1.379
 3902SOL    HW212606   3.931   4.934   1.457
 3903SOL     OW12607   4.336   2.765   6.772
 3903SOL    HW112608   4.378   2.809   6.851
 3903SOL    HW212609   4.320   2.669   6.791
 3904SOL     OW12610   1.074   6.437   0.496
 3904SOL    HW112611   1.057   6.341   0.477
 3904SOL    HW212612   1.112   6.481   0.414
 3905SOL     OW12613   6.843   0.603   5.211
 3905SOL    HW112614   6.915   0.534   5.200
 3905SOL    HW212615   6.857   0.651   5.298
 3906SOL     OW12616   1.903   4.774   4.163
 3906SOL    HW112617   1.930   4.744   4.072
 3906SOL    HW212618   1.894   4.874   4.164
 3907SOL     OW12619   0.175   0.710   3.741
 3907SOL    HW112620   0.185   0.787   3.678
 3907SOL    HW212621   0.098   0.726   3.802
 3908SOL     OW12622   1.229   0.454   5.173
 3908SOL    HW112623   1.306   0.511   5.143
 3908SOL    HW212624   1.198   0.397   5.097
 3909SOL     OW12625   5.505   2.706   6.301
 3909SOL    HW112626   5.580   2.721   6.365
 3909SOL    HW212627   5.428   2.764   6.325
 3910SOL     OW12628   3.663   1.405   0.377
 3910SOL    HW112629   3.626   1.418   0.469
 3910SOL    HW212630   3.744   1.346   0.382
 3911SOL     OW12631   6.889   0.970   0.690
 3911SOL    HW112632   6.892   1.003   0.596
 3911SOL    HW212633   6.973   0.919   0.710
 3912SOL     OW12634   3.953   1.676   0.652
 3912SOL    HW112635   3.925   1.610   0.582
 3912SOL    HW212636   3.887   1.751   0.657
 3913SOL     OW12637   5.343   5.222   1.093
 3913SOL    HW112638   5.401   5.215   1.011
 3913SOL    HW212639   5.377   5.159   1.162
 3914SOL     OW12640   6.366   1.570   0.509
 3914SOL    HW112641   6.346   1.666   0.493
 3914SOL    HW212642   6.456   1.547   0.473
 3915SOL     OW12643   4.652   5.583   6.972
 3915SOL    HW112644   4.733   5.632   7.003
 3915SOL    HW212645   4.664   5.485   6.987
 3916SOL     OW12646   2.180   1.844   1.852
 3916SOL    HW112647   2.100   1.898   1.828
 3916SOL    HW212648   2.170   1.750   1.819
 3917SOL     OW12649   3.307   5.447   1.512
 3917SOL    HW112650   3.343   5.354   1.506
 3917SOL    HW212651   3.305   5.476   1.607
 3918SOL     OW12652   5.467   1.218   0.765
 3918SOL    HW112653   5.371   1.190   0.758
 3918SOL    HW212654   5.515   1.191   0.681
 3919SOL     OW12655   3.278   0.378   1.910
 3919SOL    HW112656   3.325   0.295   1.939
 3919SOL    HW212657   3.179   0.367   1.922
 3920SOL     OW12658   3.070   1.450   5.801
 3920SOL    HW112659   3.100   1.363   5.762
 3920SOL    HW212660   3.044   1.512   5.728
 3921SOL     OW12661   0.091   2.674   6.086
 3921SOL    HW112662   0.168   2.731   6.114
 3921SOL    HW212663   0.005   2.720   6.109
 3922SOL     OW12664   5.758   4.446   3.070
 3922SOL    HW112665   5.742   4.504   2.990
 3922SOL    HW212666   5.711   4.359   3.058
 3923SOL     OW12667   5.477   1.289   1.625
 3923SOL    HW112668   5.535   1.238   1.688
 3923SOL    HW212669   5.502   1.266   1.531
 3924SOL     OW12670   5.840   4.945   4.668
 3924SOL    HW112671   5.838   4.849   4.640
 3924SOL    HW212672   5.748   4.982   4.669
 3925SOL     OW12673   4.607   3.744   0.659
 3925SOL    HW112674   4.566   3.659   0.694
 3925SOL    HW212675   4.685   3.769   0.717
 3926SOL     OW12676   0.510   6.490   6.235
 3926SOL    HW112677   0.585   6.477   6.300
 3926SOL    HW212678   0.507   6.587   6.208
 3927SOL     OW12679   5.758   2.607   5.166
 3927SOL    HW112680   5.680   2.629   5.223
 3927SOL    HW212681   5.726   2.573   5.077
 3928SOL     OW12682   2.521   6.104   2.662
 3928SOL    HW112683   2.556   6.171   2.597
 3928SOL    HW212684   2.555   6.127   2.754
 3929SOL     OW12685   6.965   2.265   5.040
 3929SOL    HW112686   0.002   2.189   5.061
 3929SOL    HW212687   6.901   2.238   4.968
 3930SOL     OW12688   0.382   3.873   3.938
 3930SOL    HW112689   0.374   3.967   3.903
 3930SOL    HW212690   0.461   3.867   3.998
 3931SOL     OW12691   1.948   2.385   1.401
 3931SOL    HW112692   1.877   2.346   1.342
 3931SOL    HW212693   1.918   2.473   1.436
 3932SOL     OW12694   2.434   5.226   4.039
 3932SOL    HW112695   2.493   5.298   4.004
 3932SOL    HW212696   2.463   5.201   4.131
 3933SOL     OW12697   2.317   5.567   0.791
 3933SOL    HW112698   2.397   5.533   0.841
 3933SOL    HW212699   2.236   5.558   0.848
 3934SOL     OW12700   0.154   1.369   1.206
 3934SOL    HW112701   0.139   1.448   1.146
 3934SOL    HW212702   0.252   1.362   1.228
 3935SOL     OW12703   6.435   3.208   6.291
 3935SOL    HW112704   6.425   3.295   6.243
 3935SOL    HW212705   6.515   3.160   6.255
 3936SOL     OW12706   0.785   4.954   5.434
 3936SOL    HW112707   0.710   5.021   5.436
 3936SOL    HW212708   0.856   4.987   5.372
 3937SOL     OW12709   0.095   6.964   1.867
 3937SOL    HW112710   0.138   7.007   1.788
 3937SOL    HW212711   0.002   6.935   1.843
 3938SOL     OW12712   0.607   4.048   3.091
 3938SOL    HW112713   0.689   4.013   3.045
 3938SOL    HW212714   0.577   3.982   3.160
 3939SOL     OW12715   1.414   1.191   2.306
 3939SOL    HW112716   1.408   1.123   2.233
 3939SOL    HW212717   1.326   1.237   2.318
 3940SOL     OW12718   3.635   5.337   1.479
 3940SOL    HW112719   3.628   5.425   1.526
 3940SOL    HW212720   3.545   5.292   1.478
 3941SOL     OW12721   5.069   6.337   3.260
 3941SOL    HW112722   5.006   6.415   3.263
 3941SOL    HW212723   5.095   6.311   3.353
 3942SOL     OW12724   6.643   5.979   5.774
 3942SOL    HW112725   6.731   5.932   5.770
 3942SOL    HW212726   6.587   5.951   5.696
 3943SOL     OW12727   1.364   3.025   6.831
 3943SOL    HW112728   1.384   2.930   6.809
 3943SOL    HW212729   1.282   3.055   6.782
 3944SOL     OW12730   5.607   2.490   6.765
 3944SOL    HW112731   5.604   2.392   6.744
 3944SOL    HW212732   5.529   2.513   6.824
 3945SOL     OW12733   6.266   0.235   3.487
 3945SOL    HW112734   6.294   0.289   3.408
 3945SOL    HW212735   6.294   0.282   3.571
 3946SOL     OW12736   1.073   3.251   0.249
 3946SOL    HW112737   1.121   3.172   0.288
 3946SOL    HW212738   1.074   3.326   0.316
 3947SOL     OW12739   5.682   4.863   2.312
 3947SOL    HW112740   5.680   4.828   2.218
 3947SOL    HW212741   5.615   4.936   2.322
 3948SOL     OW12742   0.789   2.563   6.357
 3948SOL    HW112743   0.839   2.625   6.297
 3948SOL    HW212744   0.846   2.484   6.377
 3949SOL     OW12745   5.591   6.885   2.043
 3949SOL    HW112746   5.689   6.903   2.058
 3949SOL    HW212747   5.546   6.871   2.132
 3950SOL     OW12748   3.135   4.599   1.689
 3950SOL    HW112749   3.062   4.588   1.756
 3950SOL    HW212750   3.101   4.578   1.598
 3951SOL     OW12751   0.614   2.347   5.203
 3951SOL    HW112752   0.711   2.369   5.205
 3951SOL    HW212753   0.566   2.399   5.273
 3952SOL     OW12754   5.885   3.478   6.133
 3952SOL    HW112755   5.900   3.425   6.049
 3952SOL    HW212756   5.790   3.470   6.162
 3953SOL     OW12757   3.367   4.094   6.120
 3953SOL    HW112758   3.423   4.025   6.164
 3953SOL    HW212759   3.294   4.122   6.182
 3954SOL     OW12760   0.426   3.259   5.100
 3954SOL    HW112761   0.493   3.298   5.036
 3954SOL    HW212762   0.473   3.197   5.163
 3955SOL     OW12763   6.579   4.727   0.531
 3955SOL    HW112764   6.631   4.752   0.450
 3955SOL    HW212765   6.618   4.772   0.611
 3956SOL     OW12766   0.997   2.499   5.480
 3956SOL    HW112767   1.035   2.411   5.509
 3956SOL    HW212768   0.966   2.550   5.560
 3957SOL     OW12769   1.088   1.305   2.630
 3957SOL    HW112770   1.009   1.246   2.615
 3957SOL    HW212771   1.142   1.312   2.546
 3958SOL     OW12772   5.687   6.503   5.653
 3958SOL    HW112773   5.635   6.486   5.737
 3958SOL    HW212774   5.780   6.467   5.663
 3959SOL     OW12775   2.435   4.873   0.724
 3959SOL    HW112776   2.460   4.914   0.812
 3959SOL    HW212777   2.425   4.775   0.735
 3960SOL     OW12778   4.350   3.483   0.548
 3960SOL    HW112779   4.345   3.574   0.507
 3960SOL    HW212780   4.381   3.491   0.643
 3961SOL     OW12781   5.698   0.684   2.409
 3961SOL    HW112782   5.657   0.610   2.355
 3961SOL    HW212783   5.793   0.695   2.382
 3962SOL     OW12784   0.688   0.085   6.409
 3962SOL    HW112785   0.691   0.085   6.509
 3962SOL    HW212786   0.619   0.021   6.377
 3963SOL     OW12787   5.472   5.438   3.453
 3963SOL    HW112788   5.410   5.504   3.412
 3963SOL    HW212789   5.445   5.345   3.425
 3964SOL     OW12790   5.669   6.323   5.405
 3964SOL    HW112791   5.693   6.390   5.475
 3964SOL    HW212792   5.745   6.260   5.392
 3965SOL     OW12793   3.685   3.426   6.887
 3965SOL    HW112794   3.610   3.412   6.823
 3965SOL    HW212795   3.698   3.524   6.903
 3966SOL     OW12796   5.790   3.996   5.202
 3966SOL    HW112797   5.781   3.981   5.300
 3966SOL    HW212798   5.709   4.043   5.168
 3967SOL     OW12799   0.863   5.558   6.541
 3967SOL    HW112800   0.806   5.513   6.472
 3967SOL    HW212801   0.942   5.501   6.561
 3968SOL     OW12802   5.837   0.358   1.718
 3968SOL    HW112803   5.756   0.400   1.759
 3968SOL    HW212804   5.834   0.259   1.732
 3969SOL     OW12805   0.211   5.630   1.740
 3969SOL    HW112806   0.216   5.577   1.655
 3969SOL    HW212807   0.175   5.572   1.813
 3970SOL     OW12808   4.464   4.982   3.029
 3970SOL    HW112809   4.420   4.926   3.099
 3970SOL    HW212810   4.493   4.925   2.953
 3971SOL     OW12811   1.573   5.625   3.561
 3971SOL    HW112812   1.600   5.529   3.547
 3971SOL    HW212813   1.604   5.656   3.651
 3972SOL     OW12814   1.511   6.967   0.580
 3972SOL    HW112815   1.519   6.946   0.677
 3972SOL    HW212816   1.449   6.901   0.537
 3973SOL     OW12817   3.103   3.260   3.723
 3973SOL    HW112818   3.196   3.286   3.749
 3973SOL    HW212819   3.073   3.316   3.646
 3974SOL     OW12820   6.212   1.864   6.454
 3974SOL    HW112821   6.211   1.768   6.482
 3974SOL    HW212822   6.215   1.869   6.354
 3975SOL     OW12823   6.859   1.075   5.659
 3975SOL    HW112824   6.885   1.087   5.755
 3975SOL    HW212825   6.857   1.164   5.614
 3976SOL     OW12826   0.614   3.642   0.192
 3976SOL    HW112827   0.587   3.733   0.226
 3976SOL    HW212828   0.688   3.606   0.250
 3977SOL     OW12829   4.181   6.591   6.776
 3977SOL    HW112830   4.160   6.557   6.685
 3977SOL    HW212831   4.124   6.543   6.843
 3978SOL     OW12832   5.586   3.496   6.115
 3978SOL    HW112833   5.559   3.447   6.197
 3978SOL    HW212834   5.572   3.594   6.129
 3979SOL     OW12835   1.115   0.092   3.376
 3979SOL    HW112836   1.054   0.117   3.301
 3979SOL    HW212837   1.099   0.153   3.454
 3980SOL     OW12838   5.807   2.904   3.991
 3980SOL    HW112839   5.726   2.942   4.036
 3980SOL    HW212840   5.818   2.808   4.017
 3981SOL     OW12841   6.810   1.916   6.247
 3981SOL    HW112842   6.817   1.824   6.285
 3981SOL    HW212843   6.880   1.975   6.289
 3982SOL     OW12844   2.901   1.941   3.766
 3982SOL    HW112845   2.906   2.040   3.753
 3982SOL    HW212846   2.905   1.920   3.864
 3983SOL     OW12847   3.151   6.472   4.027
 3983SOL    HW112848   3.180   6.377   4.026
 3983SOL    HW212849   3.189   6.520   3.948
 3984SOL     OW12850   1.675   6.688   1.923
 3984SOL    HW112851   1.709   6.626   1.852
 3984SOL    HW212852   1.576   6.699   1.914
 3985SOL     OW12853   1.724   3.031   1.355
 3985SOL    HW112854   1.665   3.103   1.392
 3985SOL    HW212855   1.813   3.035   1.400
 3986SOL     OW12856   0.914   2.617   2.231
 3986SOL    HW112857   0.993   2.565   2.200
 3986SOL    HW212858   0.833   2.558   2.230
 3987SOL     OW12859   2.510   4.540   6.809
 3987SOL    HW112860   2.582   4.600   6.843
 3987SOL    HW212861   2.468   4.492   6.885
 3988SOL     OW12862   3.790   2.690   0.552
 3988SOL    HW112863   3.830   2.606   0.515
 3988SOL    HW212864   3.842   2.719   0.633
 3989SOL     OW12865   4.765   6.647   6.092
 3989SOL    HW112866   4.764   6.576   6.163
 3989SOL    HW212867   4.672   6.677   6.074
 3990SOL     OW12868   0.949   2.919   3.666
 3990SOL    HW112869   1.003   2.990   3.622
 3990SOL    HW212870   0.979   2.907   3.760
 3991SOL     OW12871   0.197   2.014   4.357
 3991SOL    HW112872   0.295   2.028   4.340
 3991SOL    HW212873   0.174   2.048   4.448
 3992SOL     OW12874   4.457   3.924   6.579
 3992SOL    HW112875   4.506   3.951   6.662
 3992SOL    HW212876   4.389   3.854   6.601
 3993SOL     OW12877   2.439   2.642   2.656
 3993SOL    HW112878   2.412   2.685   2.742
 3993SOL    HW212879   2.517   2.581   2.672
 3994SOL     OW12880   2.362   2.520   3.471
 3994SOL    HW112881   2.403   2.582   3.538
 3994SOL    HW212882   2.298   2.570   3.413
 3995SOL     OW12883   1.851   3.853   2.475
 3995SOL    HW112884   1.917   3.835   2.548
 3995SOL    HW212885   1.781   3.781   2.474
 3996SOL     OW12886   6.124   0.357   3.243
 3996SOL    HW112887   6.211   0.405   3.252
 3996SOL    HW212888   6.060   0.389   3.313
 3997SOL     OW12889   5.663   3.569   2.559
 3997SOL    HW112890   5.589   3.607   2.614
 3997SOL    HW212891   5.629   3.493   2.505
 3998SOL     OW12892   6.529   1.915   2.666
 3998SOL    HW112893   6.577   1.868   2.740
 3998SOL    HW212894   6.589   1.982   2.623
 3999SOL     OW12895   5.445   2.929   2.420
 3999SOL    HW112896   5.350   2.940   2.390
 3999SOL    HW212897   5.496   3.013   2.398
 4000SOL     OW12898   3.157   5.959   1.931
 4000SOL    HW112899   3.229   5.911   1.983
 4000SOL    HW212900   3.111   6.024   1.991
 4001SOL     OW12901   2.244   4.240   5.274
 4001SOL    HW112902   2.305   4.320   5.279
 4001SOL    HW212903   2.292   4.164   5.230
 4002SOL     OW12904   3.495   2.893   4.114
 4002SOL    HW112905   3.492   2.949   4.196
 4002SOL    HW212906   3.580   2.840   4.113
 4003SOL     OW12907   2.099   0.318   5.226
 4003SOL    HW112908   2.058   0.280   5.143
 4003SOL    HW212909   2.027   0.356   5.284
 4004SOL     OW12910   0.408   3.758   3.483
 4004SOL    HW112911   0.348   3.823   3.528
 4004SOL    HW212912   0.469   3.716   3.550
 4005SOL     OW12913   4.558   3.786   1.299
 4005SOL    HW112914   4.466   3.749   1.283
 4005SOL    HW212915   4.616   3.715   1.337
 4006SOL     OW12916   5.412   5.174   3.433
 4006SOL    HW112917   5.373   5.169   3.341
 4006SOL    HW212918   5.387   5.091   3.483
 4007SOL     OW12919   6.864   1.208   2.431
 4007SOL    HW112920   6.783   1.268   2.427
 4007SOL    HW212921   6.922   1.226   2.352
 4008SOL     OW12922   1.799   0.245   0.969
 4008SOL    HW112923   1.832   0.340   0.962
 4008SOL    HW212924   1.854   0.196   1.036
 4009SOL     OW12925   3.853   2.192   1.050
 4009SOL    HW112926   3.940   2.239   1.039
 4009SOL    HW212927   3.791   2.247   1.105
 4010SOL     OW12928   2.641   5.284   1.707
 4010SOL    HW112929   2.623   5.203   1.764
 4010SOL    HW212930   2.684   5.255   1.621
 4011SOL     OW12931   6.155   5.884   0.384
 4011SOL    HW112932   6.240   5.853   0.341
 4011SOL    HW212933   6.138   5.979   0.359
 4012SOL     OW12934   3.797   7.002   2.335
 4012SOL    HW112935   3.805   6.926   2.271
 4012SOL    HW212936   3.888   0.016   2.353
 4013SOL     OW12937   1.179   0.746   6.957
 4013SOL    HW112938   1.129   0.831   6.937
 4013SOL    HW212939   1.277   0.761   6.945
 4014SOL     OW12940   2.633   5.355   3.892
 4014SOL    HW112941   2.638   5.436   3.833
 4014SOL    HW212942   2.687   5.281   3.852
 4015SOL     OW12943   4.418   5.456   6.504
 4015SOL    HW112944   4.336   5.513   6.493
 4015SOL    HW212945   4.401   5.388   6.575
 4016SOL     OW12946   4.051   5.605   6.023
 4016SOL    HW112947   3.980   5.623   6.092
 4016SOL    HW212948   4.135   5.577   6.069
 4017SOL     OW12949   1.389   5.305   5.835
 4017SOL    HW112950   1.378   5.373   5.762
 4017SOL    HW212951   1.314   5.315   5.900
 4018SOL     OW12952   4.325   6.026   2.001
 4018SOL    HW112953   4.299   6.101   1.940
 4018SOL    HW212954   4.245   5.970   2.021
 4019SOL     OW12955   4.807   3.037   2.831
 4019SOL    HW112956   4.778   3.133   2.830
 4019SOL    HW212957   4.841   3.012   2.740
 4020SOL     OW12958   6.738   4.784   5.068
 4020SOL    HW112959   6.835   4.783   5.046
 4020SOL    HW212960   6.726   4.782   5.168
 4021SOL     OW12961   3.400   3.621   5.792
 4021SOL    HW112962   3.473   3.555   5.776
 4021SOL    HW212963   3.364   3.654   5.705
 4022SOL     OW12964   2.297   0.662   0.495
 4022SOL    HW112965   2.299   0.753   0.453
 4022SOL    HW212966   2.389   0.632   0.518
 4023SOL     OW12967   0.156   2.609   5.444
 4023SOL    HW112968   0.089   2.647   5.507
 4023SOL    HW212969   0.130   2.632   5.350
 4024SOL     OW12970   0.832   4.826   3.743
 4024SOL    HW112971   0.776   4.808   3.662
 4024SOL    HW212972   0.925   4.793   3.727
 4025SOL     OW12973   1.299   6.118   3.549
 4025SOL    HW112974   1.382   6.114   3.605
 4025SOL    HW212975   1.240   6.040   3.571
 4026SOL     OW12976   0.099   6.256   4.088
 4026SOL    HW112977   0.029   6.194   4.054
 4026SOL    HW212978   0.137   6.221   4.174
 4027SOL     OW12979   2.166   3.532   6.010
 4027SOL    HW112980   2.156   3.612   5.951
 4027SOL    HW212981   2.246   3.479   5.981
 4028SOL     OW12982   4.816   1.606   2.350
 4028SOL    HW112983   4.804   1.661   2.268
 4028SOL    HW212984   4.748   1.631   2.418
 4029SOL     OW12985   2.652   4.461   6.592
 4029SOL    HW112986   2.595   4.491   6.668
 4029SOL    HW212987   2.595   4.414   6.524
 4030SOL     OW12988   6.908   0.767   1.915
 4030SOL    HW112989   6.824   0.756   1.968
 4030SOL    HW212990   6.985   0.728   1.966
 4031SOL     OW12991   5.479   0.327   1.473
 4031SOL    HW112992   5.412   0.301   1.404
 4031SOL    HW212993   5.569   0.338   1.430
 4032SOL     OW12994   6.002   6.900   1.496
 4032SOL    HW112995   5.988   6.963   1.419
 4032SOL    HW212996   6.086   6.925   1.544
 4033SOL     OW12997   3.291   2.025   2.534
 4033SOL    HW112998   3.281   1.989   2.442
 4033SOL    HW212999   3.374   1.989   2.576
 4034SOL     OW13000   0.353   3.286   4.759
 4034SOL    HW113001   0.350   3.187   4.770
 4034SOL    HW213002   0.293   3.329   4.827
 4035SOL     OW13003   6.511   2.175   1.060
 4035SOL    HW113004   6.421   2.133   1.060
 4035SOL    HW213005   6.511   2.255   1.120
 4036SOL     OW13006   3.296   5.520   3.559
 4036SOL    HW113007   3.246   5.574   3.626
 4036SOL    HW213008   3.305   5.573   3.474
 4037SOL     OW13009   2.099   1.176   5.573
 4037SOL    HW113010   2.078   1.273   5.577
 4037SOL    HW213011   2.144   1.155   5.486
 4038SOL     OW13012   3.795   4.044   6.207
 4038SOL    HW113013   3.860   4.002   6.271
 4038SOL    HW213014   3.801   3.996   6.119
 4039SOL     OW13015   5.157   4.670   1.858
 4039SOL    HW113016   5.257   4.670   1.855
 4039SOL    HW213017   5.124   4.764   1.852
 4040SOL     OW13018   3.762   5.731   5.476
 4040SOL    HW113019   3.732   5.639   5.498
 4040SOL    HW213020   3.851   5.749   5.517
 4041SOL     OW13021   2.076   6.737   1.603
 4041SOL    HW113022   2.099   6.655   1.552
 4041SOL    HW213023   2.132   6.814   1.570
 4042SOL     OW13024   6.306   0.383   2.977
 4042SOL    HW113025   6.266   0.474   2.986
 4042SOL    HW213026   6.273   0.324   3.051
 4043SOL     OW13027   5.806   3.703   6.669
 4043SOL    HW113028   5.847   3.792   6.649
 4043SOL    HW213029   5.747   3.712   6.750
 4044SOL     OW13030   4.115   4.995   3.012
 4044SOL    HW113031   4.184   5.049   2.964
 4044SOL    HW213032   4.111   5.023   3.108
 4045SOL     OW13033   4.923   6.803   6.269
 4045SOL    HW113034   4.857   6.771   6.201
 4045SOL    HW213035   5.014   6.808   6.227
 4046SOL     OW13036   0.688   1.447   3.294
 4046SOL    HW113037   0.630   1.528   3.288
 4046SOL    HW213038   0.632   1.368   3.321
 4047SOL     OW13039   2.612   3.105   6.498
 4047SOL    HW113040   2.530   3.122   6.554
 4047SOL    HW213041   2.588   3.044   6.422
 4048SOL     OW13042   4.824   0.950   2.103
 4048SOL    HW113043   4.879   0.917   2.180
 4048SOL    HW213044   4.875   0.935   2.018
 4049SOL     OW13045   3.683   5.982   6.809
 4049SOL    HW113046   3.647   5.907   6.864
 4049SOL    HW213047   3.772   6.010   6.845
 4050SOL     OW13048   0.701   5.901   2.439
 4050SOL    HW113049   0.632   5.829   2.444
 4050SOL    HW213050   0.666   5.977   2.385
 4051SOL     OW13051   5.380   1.098   6.075
 4051SOL    HW113052   5.468   1.114   6.031
 4051SOL    HW213053   5.307   1.130   6.015
 4052SOL     OW13054   6.740   1.427   2.902
 4052SOL    HW113055   6.647   1.408   2.872
 4052SOL    HW213056   6.738   1.475   2.989
 4053SOL     OW13057   1.290   5.637   4.662
 4053SOL    HW113058   1.291   5.548   4.615
 4053SOL    HW213059   1.382   5.656   4.697
 4054SOL     OW13060   4.555   4.030   1.058
 4054SOL    HW113061   4.591   4.060   0.969
 4054SOL    HW213062   4.600   4.082   1.131
 4055SOL     OW13063   1.662   4.007   2.041
 4055SOL    HW113064   1.675   4.041   1.948
 4055SOL    HW213065   1.567   4.022   2.069
 4056SOL     OW13066   5.573   3.633   1.070
 4056SOL    HW113067   5.554   3.535   1.060
 4056SOL    HW213068   5.665   3.645   1.107
 4057SOL     OW13069   6.518   3.202   6.559
 4057SOL    HW113070   6.465   3.221   6.476
 4057SOL    HW213071   6.459   3.213   6.639
 4058SOL     OW13072   2.331   5.531   5.064
 4058SOL    HW113073   2.380   5.618   5.068
 4058SOL    HW213074   2.397   5.456   5.060
 4059SOL     OW13075   1.018   2.575   4.114
 4059SOL    HW113076   1.008   2.659   4.166
 4059SOL    HW213077   1.032   2.498   4.176
 4060SOL     OW13078   6.284   5.883   4.736
 4060SOL    HW113079   6.305   5.839   4.824
 4060SOL    HW213080   6.302   5.819   4.662
 4061SOL     OW13081   2.597   5.060   1.840
 4061SOL    HW113082   2.583   4.962   1.852
 4061SOL    HW213083   2.642   5.098   1.921
 4062SOL     OW13084   2.249   1.274   1.863
 4062SOL    HW113085   2.272   1.179   1.881
 4062SOL    HW213086   2.328   1.332   1.883
 4063SOL     OW13087   5.686   0.075   1.328
 4063SOL    HW113088   5.604   0.081   1.271
 4063SOL    HW213089   5.684   0.148   1.397
 4064SOL     OW13090   1.966   2.006   4.672
 4064SOL    HW113091   1.879   2.055   4.674
 4064SOL    HW213092   1.965   1.935   4.742
 4065SOL     OW13093   1.422   6.717   0.204
 4065SOL    HW113094   1.508   6.736   0.250
 4065SOL    HW213095   1.348   6.710   0.272
 4066SOL     OW13096   6.508   4.023   2.725
 4066SOL    HW113097   6.448   4.082   2.779
 4066SOL    HW213098   6.479   4.024   2.629
 4067SOL     OW13099   5.976   3.932   2.595
 4067SOL    HW113100   5.967   4.004   2.664
 4067SOL    HW213101   5.902   3.940   2.528
 4068SOL     OW13102   1.777   2.776   4.624
 4068SOL    HW113103   1.836   2.838   4.675
 4068SOL    HW213104   1.682   2.804   4.635
 4069SOL     OW13105   3.606   6.503   6.797
 4069SOL    HW113106   3.676   6.499   6.726
 4069SOL    HW213107   3.521   6.463   6.763
 4070SOL     OW13108   1.187   3.044   2.960
 4070SOL    HW113109   1.163   3.128   2.911
 4070SOL    HW213110   1.160   3.052   3.056
 4071SOL     OW13111   1.418   0.412   4.108
 4071SOL    HW113112   1.353   0.393   4.035
 4071SOL    HW213113   1.383   0.377   4.195
 4072SOL     OW13114   1.536   5.242   4.126
 4072SOL    HW113115   1.525   5.321   4.065
 4072SOL    HW213116   1.579   5.167   4.076
 4073SOL     OW13117   2.210   5.207   0.189
 4073SOL    HW113118   2.183   5.284   0.132
 4073SOL    HW213119   2.305   5.182   0.170
 4074SOL     OW13120   1.181   4.933   1.447
 4074SOL    HW113121   1.220   4.978   1.367
 4074SOL    HW213122   1.219   4.840   1.454
 4075SOL     OW13123   5.456   1.406   0.519
 4075SOL    HW113124   5.371   1.384   0.470
 4075SOL    HW213125   5.442   1.393   0.617
 4076SOL     OW13126   3.630   3.520   5.496
 4076SOL    HW113127   3.540   3.520   5.453
 4076SOL    HW213128   3.699   3.549   5.430
 4077SOL     OW13129   4.423   1.425   1.353
 4077SOL    HW113130   4.368   1.490   1.300
 4077SOL    HW213131   4.362   1.363   1.403
 4078SOL     OW13132   3.105   4.984   2.804
 4078SOL    HW113133   3.161   4.957   2.725
 4078SOL    HW213134   3.127   4.926   2.882
 4079SOL     OW13135   1.787   1.840   4.076
 4079SOL    HW113136   1.713   1.903   4.097
 4079SOL    HW213137   1.816   1.794   4.160
 4080SOL     OW13138   4.977   2.214   4.906
 4080SOL    HW113139   4.925   2.294   4.876
 4080SOL    HW213140   5.073   2.238   4.915
 4081SOL     OW13141   1.804   3.007   4.186
 4081SOL    HW113142   1.708   2.979   4.186
 4081SOL    HW213143   1.810   3.106   4.180
 4082SOL     OW13144   1.096   3.354   0.828
 4082SOL    HW113145   1.054   3.376   0.916
 4082SOL    HW213146   1.050   3.274   0.788
 4083SOL     OW13147   6.022   2.782   3.222
 4083SOL    HW113148   6.009   2.687   3.193
 4083SOL    HW213149   5.938   2.816   3.264
 4084SOL     OW13150   6.250   1.945   3.901
 4084SOL    HW113151   6.175   1.952   3.837
 4084SOL    HW213152   6.250   2.025   3.962
 4085SOL     OW13153   4.087   6.251   0.772
 4085SOL    HW113154   4.005   6.258   0.714
 4085SOL    HW213155   4.078   6.313   0.850
 4086SOL     OW13156   1.882   5.553   1.248
 4086SOL    HW113157   1.855   5.459   1.270
 4086SOL    HW213158   1.979   5.555   1.224
 4087SOL     OW13159   2.394   2.632   3.120
 4087SOL    HW113160   2.472   2.620   3.181
 4087SOL    HW213161   2.310   2.639   3.174
 4088SOL     OW13162   6.728   1.968   1.318
 4088SOL    HW113163   6.764   1.937   1.230
 4088SOL    HW213164   6.628   1.978   1.311
 4089SOL     OW13165   0.532   6.673   3.246
 4089SOL    HW113166   0.514   6.749   3.309
 4089SOL    HW213167   0.622   6.683   3.205
 4090SOL     OW13168   2.774   4.436   5.942
 4090SOL    HW113169   2.862   4.388   5.937
 4090SOL    HW213170   2.773   4.495   6.023
 4091SOL     OW13171   5.701   6.416   6.912
 4091SOL    HW113172   5.754   6.463   6.982
 4091SOL    HW213173   5.642   6.347   6.955
 4092SOL     OW13174   0.060   2.655   5.207
 4092SOL    HW113175   0.125   2.677   5.134
 4092SOL    HW213176   7.011   2.724   5.208
 4093SOL     OW13177   4.763   0.251   3.692
 4093SOL    HW113178   4.806   0.184   3.631
 4093SOL    HW213179   4.727   0.327   3.637
 4094SOL     OW13180   2.160   4.853   5.207
 4094SOL    HW113181   2.062   4.844   5.187
 4094SOL    HW213182   2.213   4.805   5.137
 4095SOL     OW13183   1.181   3.777   6.024
 4095SOL    HW113184   1.132   3.774   5.937
 4095SOL    HW213185   1.251   3.705   6.025
 4096SOL     OW13186   4.772   5.678   1.147
 4096SOL    HW113187   4.853   5.638   1.191
 4096SOL    HW213188   4.697   5.682   1.213
 4097SOL     OW13189   2.942   4.224   5.838
 4097SOL    HW113190   2.889   4.168   5.774
 4097SOL    HW213191   2.999   4.165   5.895
 4098SOL     OW13192   0.429   2.749   2.444
 4098SOL    HW113193   0.351   2.807   2.465
 4098SOL    HW213194   0.514   2.802   2.453
 4099SOL     OW13195   3.116   5.212   1.944
 4099SOL    HW113196   3.077   5.272   1.875
 4099SOL    HW213197   3.179   5.264   2.002
 4100SOL     OW13198   5.457   5.592   3.965
 4100SOL    HW113199   5.556   5.602   3.966
 4100SOL    HW213200   5.418   5.640   4.044
 4101SOL     OW13201   5.503   0.864   0.222
 4101SOL    HW113202   5.475   0.952   0.261
 4101SOL    HW213203   5.489   0.865   0.123
 4102SOL     OW13204   6.476   0.391   1.396
 4102SOL    HW113205   6.540   0.400   1.473
 4102SOL    HW213206   6.524   0.410   1.310
 4103SOL     OW13207   0.777   0.988   1.810
 4103SOL    HW113208   0.709   1.058   1.833
 4103SOL    HW213209   0.867   1.030   1.804
 4104SOL     OW13210   1.563   4.370   2.412
 4104SOL    HW113211   1.649   4.364   2.462
 4104SOL    HW213212   1.488   4.383   2.477
 4105SOL     OW13213   3.814   5.940   1.004
 4105SOL    HW113214   3.910   5.966   0.993
 4105SOL    HW213215   3.808   5.857   1.059
 4106SOL     OW13216   0.351   3.927   5.058
 4106SOL    HW113217   0.310   4.004   5.107
 4106SOL    HW213218   0.423   3.887   5.114
 4107SOL     OW13219   0.739   6.122   0.634
 4107SOL    HW113220   0.784   6.151   0.718
 4107SOL    HW213221   0.743   6.197   0.567
 4108SOL     OW13222   6.716   4.938   5.988
 4108SOL    HW113223   6.683   5.029   6.014
 4108SOL    HW213224   6.813   4.943   5.965
 4109SOL     OW13225   4.298   6.568   4.491
 4109SOL    HW113226   4.391   6.606   4.495
 4109SOL    HW213227   4.239   6.616   4.556
 4110SOL     OW13228   4.230   4.053   6.752
 4110SOL    HW113229   4.240   3.953   6.752
 4110SOL    HW213230   4.252   4.089   6.662
 4111SOL     OW13231   3.473   2.942   0.218
 4111SOL    HW113232   3.441   3.009   0.284
 4111SOL    HW213233   3.497   2.857   0.265
 4112SOL     OW13234   5.034   1.724   5.353
 4112SOL    HW113235   4.975   1.645   5.337
 4112SOL    HW213236   5.089   1.708   5.435
 4113SOL     OW13237   3.986   6.001   4.896
 4113SOL    HW113238   3.933   5.937   4.840
 4113SOL    HW213239   4.084   5.987   4.879
 4114SOL     OW13240   3.185   2.180   3.567
 4114SOL    HW113241   3.280   2.185   3.537
 4114SOL    HW213242   3.141   2.100   3.526
 4115SOL     OW13243   5.340   6.241   2.522
 4115SOL    HW113244   5.246   6.274   2.517
 4115SOL    HW213245   5.389   6.291   2.593
 4116SOL     OW13246   4.046   2.160   1.430
 4116SOL    HW113247   4.026   2.258   1.441
 4116SOL    HW213248   4.089   2.145   1.341
 4117SOL     OW13249   0.598   5.099   1.494
 4117SOL    HW113250   0.687   5.130   1.461
 4117SOL    HW213251   0.528   5.167   1.472
 4118SOL     OW13252   1.263   6.551   1.038
 4118SOL    HW113253   1.189   6.491   1.068
 4118SOL    HW213254   1.348   6.499   1.029
 4119SOL     OW13255   4.075   1.301   4.324
 4119SOL    HW113256   4.031   1.318   4.237
 4119SOL    HW213257   4.038   1.218   4.365
 4120SOL     OW13258   4.591   6.646   1.650
 4120SOL    HW113259   4.537   6.730   1.644
 4120SOL    HW213260   4.660   6.655   1.723
 4121SOL     OW13261   6.281   2.029   4.636
 4121SOL    HW113262   6.233   2.086   4.703
 4121SOL    HW213263   6.241   2.044   4.545
 4122SOL     OW13264   0.682   6.534   5.362
 4122SOL    HW113265   0.699   6.455   5.303
 4122SOL    HW213266   0.596   6.578   5.335
 4123SOL     OW13267   5.752   4.596   5.876
 4123SOL    HW113268   5.802   4.654   5.812
 4123SOL    HW213269   5.673   4.646   5.911
 4124SOL     OW13270   5.861   5.799   4.955
 4124SOL    HW113271   5.874   5.753   4.867
 4124SOL    HW213272   5.851   5.730   5.027
 4125SOL     OW13273   4.720   0.513   1.463
 4125SOL    HW113274   4.797   0.531   1.525
 4125SOL    HW213275   4.712   0.415   1.447
 4126SOL     OW13276   1.056   3.922   4.267
 4126SOL    HW113277   0.963   3.885   4.256
 4126SOL    HW213278   1.093   3.944   4.177
 4127SOL     OW13279   5.329   3.968   4.101
 4127SOL    HW113280   5.244   3.958   4.048
 4127SOL    HW213281   5.307   3.971   4.198
 4128SOL     OW13282   1.939   4.240   2.313
 4128SOL    HW113283   1.983   4.152   2.330
 4128SOL    HW213284   1.840   4.229   2.312
 4129SOL     OW13285   5.089   1.778   6.032
 4129SOL    HW113286   5.135   1.844   6.091
 4129SOL    HW213287   5.124   1.686   6.050
 4130SOL     OW13288   6.904   3.479   5.646
 4130SOL    HW113289   6.996   3.441   5.631
 4130SOL    HW213290   6.836   3.415   5.611
 4131SOL     OW13291   0.910   5.704   3.892
 4131SOL    HW113292   0.935   5.608   3.901
 4131SOL    HW213293   0.978   5.761   3.937
 4132SOL     OW13294   6.025   3.615   3.885
 4132SOL    HW113295   6.017   3.541   3.819
 4132SOL    HW213296   5.937   3.660   3.897
 4133SOL     OW13297   3.019   0.074   0.945
 4133SOL    HW113298   3.058   0.135   0.875
 4133SOL    HW213299   2.992   7.012   0.902
 4134SOL     OW13300   1.411   2.359   0.320
 4134SOL    HW113301   1.333   2.332   0.264
 4134SOL    HW213302   1.487   2.296   0.304
 4135SOL     OW13303   2.230   0.789   2.234
 4135SOL    HW113304   2.174   0.871   2.248
 4135SOL    HW213305   2.192   0.714   2.287
 4136SOL     OW13306   0.461   2.069   4.241
 4136SOL    HW113307   0.433   2.165   4.248
 4136SOL    HW213308   0.436   2.034   4.151
 4137SOL     OW13309   2.502   3.814   0.736
 4137SOL    HW113310   2.489   3.715   0.728
 4137SOL    HW213311   2.450   3.860   0.664
 4138SOL     OW13312   3.715   4.952   3.908
 4138SOL    HW113313   3.774   4.917   3.981
 4138SOL    HW213314   3.620   4.952   3.940
 4139SOL     OW13315   2.429   2.191   6.016
 4139SOL    HW113316   2.372   2.197   5.933
 4139SOL    HW213317   2.382   2.135   6.084
 4140SOL     OW13318   3.762   0.426   5.151
 4140SOL    HW113319   3.703   0.430   5.070
 4140SOL    HW213320   3.842   0.371   5.130
 4141SOL     OW13321   5.002   4.927   1.528
 4141SOL    HW113322   5.064   4.938   1.606
 4141SOL    HW213323   4.995   5.014   1.479
 4142SOL     OW13324   6.768   5.392   1.203
 4142SOL    HW113325   6.813   5.356   1.122
 4142SOL    HW213326   6.671   5.368   1.201
 4143SOL     OW13327   6.850   3.414   0.462
 4143SOL    HW113328   6.904   3.384   0.541
 4143SOL    HW213329   6.871   3.357   0.383
 4144SOL     OW13330   5.791   2.163   0.702
 4144SOL    HW113331   5.831   2.211   0.625
 4144SOL    HW213332   5.707   2.210   0.731
 4145SOL     OW13333   6.766   6.441   1.890
 4145SOL    HW113334   6.762   6.341   1.887
 4145SOL    HW213335   6.754   6.473   1.984
 4146SOL     OW13336   5.941   0.570   5.843
 4146SOL    HW113337   6.029   0.531   5.816
 4146SOL    HW213338   5.900   0.511   5.913
 4147SOL     OW13339   3.376   1.938   5.579
 4147SOL    HW113340   3.389   2.026   5.625
 4147SOL    HW213341   3.368   1.865   5.646
 4148SOL     OW13342   0.336   0.432   3.936
 4148SOL    HW113343   0.365   0.406   3.844
 4148SOL    HW213344   0.414   0.429   3.998
 4149SOL     OW13345   0.406   3.329   6.862
 4149SOL    HW113346   0.341   3.325   6.938
 4149SOL    HW213347   0.357   3.350   6.777
 4150SOL     OW13348   5.659   0.812   6.152
 4150SOL    HW113349   5.642   0.899   6.198
 4150SOL    HW213350   5.757   0.800   6.137
 4151SOL     OW13351   5.629   5.914   6.905
 4151SOL    HW113352   5.703   5.959   6.954
 4151SOL    HW213353   5.587   5.980   6.842
 4152SOL     OW13354   3.544   5.288   1.932
 4152SOL    HW113355   3.547   5.216   2.001
 4152SOL    HW213356   3.625   5.282   1.874
 4153SOL     OW13357   5.380   5.420   5.562
 4153SOL    HW113358   5.375   5.497   5.627
 4153SOL    HW213359   5.324   5.440   5.483
 4154SOL     OW13360   6.794   3.936   5.338
 4154SOL    HW113361   6.783   3.985   5.424
 4154SOL    HW213362   6.729   3.972   5.271
 4155SOL     OW13363   0.238   3.324   3.248
 4155SOL    HW113364   0.141   3.304   3.259
 4155SOL    HW213365   0.264   3.311   3.152
 4156SOL     OW13366   5.728   0.293   5.186
 4156SOL    HW113367   5.812   0.265   5.140
 4156SOL    HW213368   5.653   0.233   5.159
 4157SOL     OW13369   3.532   0.312   3.972
 4157SOL    HW113370   3.560   0.390   3.916
 4157SOL    HW213371   3.492   0.241   3.914
 4158SOL     OW13372   1.134   4.977   4.093
 4158SOL    HW113373   1.204   4.999   4.160
 4158SOL    HW213374   1.176   4.958   4.005
 4159SOL     OW13375   1.667   3.128   3.739
 4159SOL    HW113376   1.750   3.109   3.792
 4159SOL    HW213377   1.635   3.044   3.697
 4160SOL     OW13378   6.004   0.350   1.314
 4160SOL    HW113379   6.100   0.324   1.329
 4160SOL    HW213380   5.994   0.388   1.222
 4161SOL     OW13381   2.062   0.447   6.488
 4161SOL    HW113382   2.062   0.538   6.446
 4161SOL    HW213383   2.001   0.386   6.438
 4162SOL     OW13384   6.040   0.287   4.773
 4162SOL    HW113385   6.054   0.383   4.749
 4162SOL    HW213386   6.128   0.244   4.792
 4163SOL     OW13387   6.014   1.524   3.206
 4163SOL    HW113388   5.917   1.515   3.227
 4163SOL    HW213389   6.039   1.462   3.131
 4164SOL     OW13390   1.549   0.608   6.838
 4164SOL    HW113391   1.587   0.615   6.745
 4164SOL    HW213392   1.587   0.528   6.883
 4165SOL     OW13393   4.325   6.363   1.461
 4165SOL    HW113394   4.259   6.431   1.490
 4165SOL    HW213395   4.313   6.344   1.364
 4166SOL     OW13396   3.905   2.535   1.181
 4166SOL    HW113397   3.812   2.508   1.207
 4166SOL    HW213398   3.907   2.634   1.165
 4167SOL     OW13399   2.259   2.802   0.850
 4167SOL    HW113400   2.179   2.745   0.830
 4167SOL    HW213401   2.267   2.874   0.781
 4168SOL     OW13402   0.085   4.853   1.088
 4168SOL    HW113403   0.151   4.779   1.082
 4168SOL    HW213404   0.056   4.880   0.997
 4169SOL     OW13405   5.482   3.893   4.355
 4169SOL    HW113406   5.562   3.856   4.307
 4169SOL    HW213407   5.452   3.828   4.424
 4170SOL     OW13408   3.990   2.746   5.569
 4170SOL    HW113409   3.944   2.755   5.481
 4170SOL    HW213410   4.002   2.836   5.610
 4171SOL     OW13411   5.006   3.954   0.976
 4171SOL    HW113412   4.959   3.994   1.055
 4171SOL    HW213413   5.060   3.875   1.006
 4172SOL     OW13414   0.112   2.567   6.793
 4172SOL    HW113415   0.090   2.489   6.734
 4172SOL    HW213416   0.191   2.545   6.849
 4173SOL     OW13417   5.384   3.220   5.160
 4173SOL    HW113418   5.483   3.212   5.147
 4173SOL    HW213419   5.360   3.194   5.253
 4174SOL     OW13420   4.774   1.022   4.066
 4174SOL    HW113421   4.758   1.090   4.137
 4174SOL    HW213422   4.865   0.981   4.079
 4175SOL     OW13423   3.267   6.943   4.149
 4175SOL    HW113424   3.228   6.922   4.238
 4175SOL    HW213425   3.193   6.965   4.085
 4176SOL     OW13426   4.240   0.019   2.513
 4176SOL    HW113427   4.157   0.068   2.487
 4176SOL    HW213428   4.236   7.019   2.611
 4177SOL     OW13429   0.562   5.103   5.055
 4177SOL    HW113430   0.517   5.156   5.127
 4177SOL    HW213431   0.539   5.142   4.966
 4178SOL     OW13432   3.376   1.061   5.606
 4178SOL    HW113433   3.420   1.042   5.518
 4178SOL    HW213434   3.305   0.993   5.623
 4179SOL     OW13435   6.171   2.942   4.238
 4179SOL    HW113436   6.088   2.906   4.281
 4179SOL    HW213437   6.158   2.946   4.139
 4180SOL     OW13438   5.544   4.281   2.293
 4180SOL    HW113439   5.458   4.329   2.278
 4180SOL    HW213440   5.618   4.347   2.305
 4181SOL     OW13441   1.316   2.114   6.198
 4181SOL    HW113442   1.275   2.026   6.224
 4181SOL    HW213443   1.391   2.135   6.261
 4182SOL     OW13444   0.580   0.398   2.594
 4182SOL    HW113445   0.507   0.452   2.636
 4182SOL    HW213446   0.573   0.303   2.625
 4183SOL     OW13447   2.501   2.018   1.476
 4183SOL    HW113448   2.598   2.027   1.454
 4183SOL    HW213449   2.466   1.934   1.436
 4184SOL     OW13450   3.801   5.395   1.275
 4184SOL    HW113451   3.738   5.388   1.353
 4184SOL    HW213452   3.887   5.351   1.299
 4185SOL     OW13453   0.800   5.850   3.479
 4185SOL    HW113454   0.834   5.756   3.479
 4185SOL    HW213455   0.844   5.901   3.405
 4186SOL     OW13456   2.025   4.085   6.856
 4186SOL    HW113457   2.107   4.032   6.880
 4186SOL    HW213458   2.012   4.158   6.923
 4187SOL     OW13459   3.606   3.415   5.735
 4187SOL    HW113460   3.574   3.320   5.730
 4187SOL    HW213461   3.622   3.450   5.643
 4188SOL     OW13462   4.551   0.606   4.538
 4188SOL    HW113463   4.518   0.699   4.521
 4188SOL    HW213464   4.616   0.580   4.467
 4189SOL     OW13465   3.184   1.693   4.270
 4189SOL    HW113466   3.137   1.780   4.282
 4189SOL    HW213467   3.200   1.651   4.360
 4190SOL     OW13468   2.349   0.444   6.443
 4190SOL    HW113469   2.332   0.423   6.347
 4190SOL    HW213470   2.263   0.442   6.494
 4191SOL     OW13471   5.825   3.120   2.954
 4191SOL    HW113472   5.814   3.119   2.854
 4191SOL    HW213473   5.907   3.069   2.979
 4192SOL     OW13474   6.107   1.273   3.071
 4192SOL    HW113475   6.188   1.218   3.053
 4192SOL    HW213476   6.033   1.246   3.010
 4193SOL     OW13477   2.416   6.777   2.093
 4193SOL    HW113478   2.456   6.848   2.152
 4193SOL    HW213479   2.317   6.783   2.097
 4194SOL     OW13480   6.807   1.982   4.467
 4194SOL    HW113481   6.873   2.056   4.479
 4194SOL    HW213482   6.720   2.020   4.433
 4195SOL     OW13483   4.268   0.573   1.367
 4195SOL    HW113484   4.262   0.488   1.420
 4195SOL    HW213485   4.303   0.553   1.276
 4196SOL     OW13486   5.875   2.460   3.896
 4196SOL    HW113487   5.799   2.448   3.831
 4196SOL    HW213488   5.847   2.526   3.967
 4197SOL     OW13489   5.266   4.304   4.620
 4197SOL    HW113490   5.262   4.401   4.644
 4197SOL    HW213491   5.280   4.295   4.521
 4198SOL     OW13492   5.732   3.434   0.175
 4198SOL    HW113493   5.708   3.519   0.127
 4198SOL    HW213494   5.766   3.367   0.109
 4199SOL     OW13495   3.130   3.011   5.159
 4199SOL    HW113496   3.058   3.058   5.107
 4199SOL    HW213497   3.209   2.997   5.100
 4200SOL     OW13498   2.403   6.731   6.060
 4200SOL    HW113499   2.474   6.793   6.092
 4200SOL    HW213500   2.443   6.641   6.043
 4201SOL     OW13501   6.221   6.656   3.081
 4201SOL    HW113502   6.144   6.701   3.127
 4201SOL    HW213503   6.238   6.567   3.124
 4202SOL     OW13504   5.103   4.808   5.632
 4202SOL    HW113505   5.013   4.779   5.599
 4202SOL    HW213506   5.173   4.748   5.594
 4203SOL     OW13507   4.852   6.088   2.908
 4203SOL    HW113508   4.760   6.122   2.928
 4203SOL    HW213509   4.881   6.122   2.819
 4204SOL     OW13510   3.097   3.011   1.885
 4204SOL    HW113511   3.142   2.948   1.821
 4204SOL    HW213512   3.156   3.026   1.964
 4205SOL     OW13513   3.409   4.934   4.386
 4205SOL    HW113514   3.501   4.915   4.420
 4205SOL    HW213515   3.413   4.950   4.287
 4206SOL     OW13516   4.542   0.225   5.605
 4206SOL    HW113517   4.598   0.305   5.582
 4206SOL    HW213518   4.448   0.254   5.623
 4207SOL     OW13519   1.769   1.188   1.891
 4207SOL    HW113520   1.851   1.220   1.938
 4207SOL    HW213521   1.758   1.237   1.805
 4208SOL     OW13522   1.760   2.575   1.407
 4208SOL    HW113523   1.683   2.529   1.450
 4208SOL    HW213524   1.754   2.566   1.308
 4209SOL     OW13525   1.282   6.942   5.032
 4209SOL    HW113526   1.346   6.954   5.108
 4209SOL    HW213527   1.288   7.021   4.971
 4210SOL     OW13528   3.820   3.610   1.660
 4210SOL    HW113529   3.894   3.588   1.724
 4210SOL    HW213530   3.743   3.548   1.676
 4211SOL     OW13531   4.891   4.969   5.238
 4211SOL    HW113532   4.840   4.907   5.179
 4211SOL    HW213533   4.977   4.926   5.265
 4212SOL     OW13534   6.349   1.440   2.743
 4212SOL    HW113535   6.406   1.360   2.726
 4212SOL    HW213536   6.346   1.497   2.660
 4213SOL     OW13537   1.987   0.693   1.902
 4213SOL    HW113538   1.972   0.791   1.898
 4213SOL    HW213539   1.956   0.658   1.991
 4214SOL     OW13540   0.991   3.570   5.866
 4214SOL    HW113541   1.078   3.525   5.844
 4214SOL    HW213542   0.919   3.502   5.873
 4215SOL     OW13543   0.594   5.948   4.555
 4215SOL    HW113544   0.558   5.902   4.636
 4215SOL    HW213545   0.655   5.885   4.506
 4216SOL     OW13546   1.079   2.046   3.854
 4216SOL    HW113547   1.164   2.002   3.824
 4216SOL    HW213548   1.006   1.978   3.855
 4217SOL     OW13549   0.438   0.019   2.452
 4217SOL    HW113550   0.340   0.022   2.474
 4217SOL    HW213551   0.456   0.081   2.376
 4218SOL     OW13552   4.963   0.343   1.831
 4218SOL    HW113553   5.061   0.332   1.815
 4218SOL    HW213554   4.942   0.440   1.843
 4219SOL     OW13555   3.608   4.896   5.172
 4219SOL    HW113556   3.547   4.825   5.207
 4219SOL    HW213557   3.580   4.922   5.079
 4220SOL     OW13558   6.179   3.613   3.396
 4220SOL    HW113559   6.256   3.664   3.435
 4220SOL    HW213560   6.169   3.636   3.299
 4221SOL     OW13561   5.382   5.456   6.158
 4221SOL    HW113562   5.405   5.540   6.207
 4221SOL    HW213563   5.382   5.379   6.221
 4222SOL     OW13564   5.905   2.386   1.901
 4222SOL    HW113565   5.943   2.468   1.859
 4222SOL    HW213566   5.860   2.411   1.987
 4223SOL     OW13567   3.451   3.953   2.584
 4223SOL    HW113568   3.410   4.040   2.554
 4223SOL    HW213569   3.410   3.924   2.670
 4224SOL     OW13570   4.967   2.630   4.804
 4224SOL    HW113571   5.004   2.656   4.893
 4224SOL    HW213572   4.894   2.563   4.817
 4225SOL     OW13573   6.154   0.901   4.740
 4225SOL    HW113574   6.143   0.989   4.786
 4225SOL    HW213575   6.082   0.838   4.770
 4226SOL     OW13576   1.196   1.116   3.762
 4226SOL    HW113577   1.102   1.081   3.762
 4226SOL    HW213578   1.237   1.099   3.852
 4227SOL     OW13579   3.949   4.832   0.365
 4227SOL    HW113580   3.912   4.769   0.297
 4227SOL    HW213581   3.931   4.796   0.456
 4228SOL     OW13582   5.804   6.282   3.942
 4228SOL    HW113583   5.842   6.193   3.914
 4228SOL    HW213584   5.705   6.281   3.930
 4229SOL     OW13585   4.309   5.286   6.726
 4229SOL    HW113586   4.332   5.282   6.823
 4229SOL    HW213587   4.220   5.329   6.714
 4230SOL     OW13588   2.921   0.226   4.914
 4230SOL    HW113589   2.926   0.244   4.816
 4230SOL    HW213590   2.924   0.127   4.930
 4231SOL     OW13591   5.107   6.425   5.227
 4231SOL    HW113592   5.110   6.383   5.136
 4231SOL    HW213593   5.175   6.383   5.286
 4232SOL     OW13594   1.015   5.348   2.169
 4232SOL    HW113595   0.994   5.375   2.075
 4232SOL    HW213596   0.968   5.409   2.233
 4233SOL     OW13597   5.726   0.188   6.718
 4233SOL    HW113598   5.764   0.182   6.625
 4233SOL    HW213599   5.738   0.281   6.753
 4234SOL     OW13600   2.973   5.281   6.249
 4234SOL    HW113601   2.916   5.270   6.168
 4234SOL    HW213602   3.009   5.192   6.277
 4235SOL     OW13603   6.135   4.465   6.104
 4235SOL    HW113604   6.217   4.468   6.161
 4235SOL    HW213605   6.160   4.440   6.010
 4236SOL     OW13606   0.378   2.499   3.492
 4236SOL    HW113607   0.301   2.548   3.451
 4236SOL    HW213608   0.406   2.546   3.576
 4237SOL     OW13609   5.194   4.089   4.793
 4237SOL    HW113610   5.216   4.172   4.741
 4237SOL    HW213611   5.097   4.090   4.817
 4238SOL     OW13612   3.960   5.091   3.804
 4238SOL    HW113613   3.978   4.992   3.803
 4238SOL    HW213614   3.863   5.107   3.820
 4239SOL     OW13615   4.804   6.328   5.012
 4239SOL    HW113616   4.897   6.357   5.032
 4239SOL    HW213617   4.748   6.408   4.987
 4240SOL     OW13618   3.085   5.038   0.030
 4240SOL    HW113619   3.140   5.023   6.971
 4240SOL    HW213620   3.052   4.950   0.064
 4241SOL     OW13621   5.212   6.958   1.261
 4241SOL    HW113622   5.175   6.944   1.169
 4241SOL    HW213623   5.136   6.966   1.326
 4242SOL     OW13624   2.478   6.763   2.759
 4242SOL    HW113625   2.506   6.840   2.702
 4242SOL    HW213626   2.476   6.680   2.704
 4243SOL     OW13627   0.730   3.416   2.215
 4243SOL    HW113628   0.779   3.485   2.162
 4243SOL    HW213629   0.635   3.411   2.184
 4244SOL     OW13630   4.922   6.186   1.221
 4244SOL    HW113631   4.907   6.088   1.204
 4244SOL    HW213632   4.840   6.226   1.261
 4245SOL     OW13633   6.379   2.665   0.277
 4245SOL    HW113634   6.296   2.717   0.290
 4245SOL    HW213635   6.424   2.650   0.366
 4246SOL     OW13636   5.159   2.356   2.900
 4246SOL    HW113637   5.072   2.360   2.852
 4246SOL    HW213638   5.234   2.361   2.834
 4247SOL     OW13639   2.269   4.937   4.625
 4247SOL    HW113640   2.176   4.952   4.591
 4247SOL    HW213641   2.285   4.839   4.636
 4248SOL     OW13642   1.857   0.961   2.663
 4248SOL    HW113643   1.866   1.019   2.582
 4248SOL    HW213644   1.782   0.994   2.720
 4249SOL     OW13645   0.111   0.937   4.309
 4249SOL    HW113646   0.074   1.027   4.331
 4249SOL    HW213647   0.104   0.877   4.389
 4250SOL     OW13648   0.369   6.100   4.516
 4250SOL    HW113649   0.281   6.053   4.520
 4250SOL    HW213650   0.442   6.038   4.545
 4251SOL     OW13651   5.747   2.420   6.226
 4251SOL    HW113652   5.649   2.405   6.240
 4251SOL    HW213653   5.796   2.334   6.235
 4252SOL     OW13654   6.493   6.448   5.461
 4252SOL    HW113655   6.419   6.450   5.529
 4252SOL    HW213656   6.567   6.508   5.491
 4253SOL     OW13657   4.281   6.107   2.635
 4253SOL    HW113658   4.194   6.154   2.621
 4253SOL    HW213659   4.356   6.171   2.619
 4254SOL     OW13660   2.212   3.309   6.772
 4254SOL    HW113661   2.130   3.261   6.741
 4254SOL    HW213662   2.268   3.247   6.828
 4255SOL     OW13663   0.471   4.049   2.772
 4255SOL    HW113664   0.552   4.057   2.714
 4255SOL    HW213665   0.492   3.990   2.850
 4256SOL     OW13666   0.398   4.979   2.164
 4256SOL    HW113667   0.399   4.999   2.262
 4256SOL    HW213668   0.454   5.046   2.116
 4257SOL     OW13669   6.235   1.056   5.187
 4257SOL    HW113670   6.282   1.123   5.129
 4257SOL    HW213671   6.157   1.100   5.233
 4258SOL     OW13672   3.621   5.703   0.652
 4258SOL    HW113673   3.679   5.683   0.573
 4258SOL    HW213674   3.535   5.743   0.620
 4259SOL     OW13675   1.082   6.585   1.642
 4259SOL    HW113676   1.118   6.674   1.671
 4259SOL    HW213677   1.053   6.590   1.547
 4260SOL     OW13678   5.142   6.784   5.011
 4260SOL    HW113679   5.058   6.764   4.960
 4260SOL    HW213680   5.152   6.719   5.086
 4261SOL     OW13681   1.884   0.008   4.626
 4261SOL    HW113682   1.899   0.104   4.602
 4261SOL    HW213683   1.805   0.001   4.686
 4262SOL     OW13684   1.410   4.672   6.544
 4262SOL    HW113685   1.449   4.655   6.453
 4262SOL    HW213686   1.344   4.746   6.539
 4263SOL     OW13687   2.782   2.291   3.472
 4263SOL    HW113688   2.714   2.239   3.420
 4263SOL    HW213689   2.872   2.282   3.428
 4264SOL     OW13690   5.568   1.375   4.229
 4264SOL    HW113691   5.654   1.389   4.277
 4264SOL    HW213692   5.558   1.278   4.207
 4265SOL     OW13693   2.413   0.525   0.810
 4265SOL    HW113694   2.422   0.439   0.760
 4265SOL    HW213695   2.402   0.507   0.907
 4266SOL     OW13696   1.195   6.610   0.311
 4266SOL    HW113697   1.219   6.552   0.234
 4266SOL    HW213698   1.123   6.675   0.284
 4267SOL     OW13699   1.639   4.059   4.309
 4267SOL    HW113700   1.730   4.073   4.271
 4267SOL    HW213701   1.571   4.098   4.247
 4268SOL     OW13702   1.463   4.964   6.347
 4268SOL    HW113703   1.534   4.908   6.387
 4268SOL    HW213704   1.377   4.913   6.346
 4269SOL     OW13705   3.430   1.812   4.247
 4269SOL    HW113706   3.421   1.910   4.263
 4269SOL    HW213707   3.339   1.770   4.245
 4270SOL     OW13708   3.896   2.905   0.322
 4270SOL    HW113709   3.849   2.856   0.396
 4270SOL    HW213710   3.834   2.972   0.282
 4271SOL     OW13711   6.309   0.286   0.796
 4271SOL    HW113712   6.288   0.380   0.820
 4271SOL    HW213713   6.268   0.224   0.863
 4272SOL     OW13714   6.342   2.946   5.558
 4272SOL    HW113715   6.347   2.942   5.458
 4272SOL    HW213716   6.253   2.984   5.585
 4273SOL     OW13717   4.485   5.791   4.467
 4273SOL    HW113718   4.545   5.861   4.505
 4273SOL    HW213719   4.391   5.808   4.497
 4274SOL     OW13720   6.339   6.914   1.860
 4274SOL    HW113721   6.376   6.984   1.921
 4274SOL    HW213722   6.256   6.875   1.900
 4275SOL     OW13723   0.777   2.604   3.629
 4275SOL    HW113724   0.832   2.563   3.701
 4275SOL    HW213725   0.836   2.634   3.554
 4276SOL     OW13726   2.871   5.732   4.133
 4276SOL    HW113727   2.825   5.736   4.044
 4276SOL    HW213728   2.814   5.681   4.197
 4277SOL     OW13729   6.024   5.717   4.363
 4277SOL    HW113730   6.017   5.763   4.275
 4277SOL    HW213731   6.020   5.618   4.351
 4278SOL     OW13732   0.817   6.960   1.812
 4278SOL    HW113733   0.807   6.949   1.911
 4278SOL    HW213734   0.731   6.990   1.772
 4279SOL     OW13735   1.439   2.340   2.559
 4279SOL    HW113736   1.470   2.246   2.576
 4279SOL    HW213737   1.518   2.401   2.558
 4280SOL     OW13738   6.776   6.687   6.332
 4280SOL    HW113739   6.725   6.772   6.349
 4280SOL    HW213740   6.765   6.626   6.411
 4281SOL     OW13741   4.556   5.388   3.863
 4281SOL    HW113742   4.644   5.421   3.898
 4281SOL    HW213743   4.571   5.312   3.800
 4282SOL     OW13744   3.459   4.242   0.722
 4282SOL    HW113745   3.553   4.264   0.749
 4282SOL    HW213746   3.395   4.298   0.775
 4283SOL     OW13747   4.809   0.966   3.539
 4283SOL    HW113748   4.718   0.960   3.581
 4283SOL    HW213749   4.802   1.020   3.454
 4284SOL     OW13750   5.156   5.981   6.761
 4284SOL    HW113751   5.092   5.956   6.834
 4284SOL    HW213752   5.158   5.908   6.692
 4285SOL     OW13753   2.942   0.639   6.073
 4285SOL    HW113754   2.853   0.605   6.043
 4285SOL    HW213755   3.011   0.619   6.004
 4286SOL     OW13756   6.716   0.839   6.407
 4286SOL    HW113757   6.768   0.855   6.323
 4286SOL    HW213758   6.675   0.924   6.438
 4287SOL     OW13759   4.627   0.746   0.191
 4287SOL    HW113760   4.620   0.757   0.290
 4287SOL    HW213761   4.538   0.763   0.150
 4288SOL     OW13762   6.800   6.143   2.385
 4288SOL    HW113763   6.895   6.174   2.383
 4288SOL    HW213764   6.740   6.218   2.355
 4289SOL     OW13765   0.812   2.796   4.820
 4289SOL    HW113766   0.772   2.705   4.808
 4289SOL    HW213767   0.911   2.790   4.810
 4290SOL     OW13768   0.312   0.864   3.141
 4290SOL    HW113769   0.352   0.956   3.142
 4290SOL    HW213770   0.371   0.802   3.193
 4291SOL     OW13771   4.945   3.297   5.892
 4291SOL    HW113772   4.910   3.322   5.983
 4291SOL    HW213773   4.876   3.243   5.843
 4292SOL     OW13774   5.412   1.745   0.398
 4292SOL    HW113775   5.446   1.832   0.362
 4292SOL    HW213776   5.443   1.670   0.338
 4293SOL     OW13777   4.843   3.628   6.517
 4293SOL    HW113778   4.909   3.644   6.590
 4293SOL    HW213779   4.794   3.713   6.497
 4294SOL     OW13780   3.162   1.925   6.150
 4294SOL    HW113781   3.107   1.857   6.102
 4294SOL    HW213782   3.235   1.958   6.090
 4295SOL     OW13783   4.294   6.593   2.681
 4295SOL    HW113784   4.347   6.548   2.753
 4295SOL    HW213785   4.233   6.526   2.638
 4296SOL     OW13786   2.405   6.759   0.853
 4296SOL    HW113787   2.414   6.679   0.913
 4296SOL    HW213788   2.401   6.842   0.909
 4297SOL     OW13789   5.931   5.515   0.958
 4297SOL    HW113790   6.019   5.483   0.993
 4297SOL    HW213791   5.930   5.615   0.955
 4298SOL     OW13792   3.387   6.449   1.225
 4298SOL    HW113793   3.332   6.366   1.212
 4298SOL    HW213794   3.327   6.525   1.250
 4299SOL     OW13795   0.718   2.765   0.013
 4299SOL    HW113796   0.716   2.846   6.978
 4299SOL    HW213797   0.778   2.695   6.996
 4300SOL     OW13798   4.239   0.479   0.845
 4300SOL    HW113799   4.197   0.410   0.786
 4300SOL    HW213800   4.334   0.495   0.816
 4301SOL     OW13801   3.164   6.696   2.227
 4301SOL    HW113802   3.089   6.632   2.241
 4301SOL    HW213803   3.128   6.784   2.196
 4302SOL     OW13804   1.872   6.243   6.293
 4302SOL    HW113805   1.812   6.248   6.373
 4302SOL    HW213806   1.849   6.318   6.230
 4303SOL     OW13807   6.096   4.328   4.493
 4303SOL    HW113808   6.143   4.296   4.575
 4303SOL    HW213809   6.022   4.265   4.469
 4304SOL     OW13810   3.411   3.716   1.569
 4304SOL    HW113811   3.383   3.788   1.632
 4304SOL    HW213812   3.365   3.631   1.594
 4305SOL     OW13813   0.154   0.116   5.485
 4305SOL    HW113814   0.216   0.061   5.429
 4305SOL    HW213815   0.182   0.212   5.481
 4306SOL     OW13816   4.946   3.831   4.514
 4306SOL    HW113817   4.959   3.930   4.525
 4306SOL    HW213818   4.910   3.813   4.423
 4307SOL     OW13819   6.021   2.156   5.281
 4307SOL    HW113820   6.064   2.077   5.324
 4307SOL    HW213821   5.927   2.165   5.314
 4308SOL     OW13822   4.765   4.666   1.673
 4308SOL    HW113823   4.667   4.662   1.693
 4308SOL    HW213824   4.778   4.692   1.577
 4309SOL     OW13825   0.941   3.228   0.591
 4309SOL    HW113826   0.946   3.132   0.621
 4309SOL    HW213827   0.873   3.276   0.647
 4310SOL     OW13828   0.175   1.635   2.115
 4310SOL    HW113829   0.174   1.536   2.128
 4310SOL    HW213830   0.194   1.680   2.202
 4311SOL     OW13831   1.367   6.416   2.472
 4311SOL    HW113832   1.301   6.343   2.482
 4311SOL    HW213833   1.394   6.424   2.376
 4312SOL     OW13834   0.514   4.931   2.402
 4312SOL    HW113835   0.554   4.872   2.333
 4312SOL    HW213836   0.435   4.886   2.444
 4313SOL     OW13837   6.310   1.538   6.780
 4313SOL    HW113838   6.402   1.574   6.797
 4313SOL    HW213839   6.261   1.600   6.718
 4314SOL     OW13840   6.789   2.947   4.866
 4314SOL    HW113841   6.758   2.889   4.941
 4314SOL    HW213842   6.771   2.903   4.779
 4315SOL     OW13843   2.534   1.221   4.335
 4315SOL    HW113844   2.613   1.272   4.300
 4315SOL    HW213845   2.508   1.151   4.268
 4316SOL     OW13846   5.830   0.148   2.300
 4316SOL    HW113847   5.835   0.241   2.337
 4316SOL    HW213848   5.860   0.149   2.204
 4317SOL     OW13849   4.989   0.954   5.619
 4317SOL    HW113850   4.935   0.931   5.538
 4317SOL    HW213851   4.935   1.013   5.680
 4318SOL     OW13852   0.708   1.435   3.793
 4318SOL    HW113853   0.797   1.393   3.810
 4318SOL    HW213854   0.652   1.431   3.875
 4319SOL     OW13855   1.022   3.800   1.953
 4319SOL    HW113856   1.094   3.733   1.937
 4319SOL    HW213857   0.949   3.787   1.886
 4320SOL     OW13858   3.528   6.537   0.444
 4320SOL    HW113859   3.605   6.598   0.465
 4320SOL    HW213860   3.547   6.445   0.478
 4321SOL     OW13861   6.468   6.636   2.484
 4321SOL    HW113862   6.524   6.703   2.533
 4321SOL    HW213863   6.429   6.679   2.402
 4322SOL     OW13864   0.446   2.789   5.398
 4322SOL    HW113865   0.477   2.775   5.303
 4322SOL    HW213866   0.526   2.803   5.457
 4323SOL     OW13867   4.323   5.576   0.256
 4323SOL    HW113868   4.417   5.606   0.271
 4323SOL    HW213869   4.307   5.491   0.305
 4324SOL     OW13870   0.033   3.389   6.007
 4324SOL    HW113871   6.966   3.431   6.005
 4324SOL    HW213872   0.093   3.442   6.067
 4325SOL     OW13873   3.055   0.739   2.627
 4325SOL    HW113874   3.082   0.695   2.713
 4325SOL    HW213875   2.959   0.765   2.632
 4326SOL     OW13876   5.166   2.655   2.171
 4326SOL    HW113877   5.130   2.579   2.117
 4326SOL    HW213878   5.174   2.736   2.113
 4327SOL     OW13879   3.604   5.665   4.429
 4327SOL    HW113880   3.689   5.614   4.410
 4327SOL    HW213881   3.552   5.617   4.499
 4328SOL     OW13882   5.944   5.478   5.383
 4328SOL    HW113883   5.974   5.528   5.464
 4328SOL    HW213884   5.895   5.540   5.321
 4329SOL     OW13885   5.799   3.221   5.960
 4329SOL    HW113886   5.771   3.206   5.866
 4329SOL    HW213887   5.740   3.168   6.022
 4330SOL     OW13888   2.579   5.104   5.329
 4330SOL    HW113889   2.645   5.050   5.382
 4330SOL    HW213890   2.574   5.196   5.366
 4331SOL     OW13891   6.448   0.648   1.779
 4331SOL    HW113892   6.405   0.590   1.710
 4331SOL    HW213893   6.522   0.599   1.824
 4332SOL     OW13894   6.988   4.512   2.637
 4332SOL    HW113895   6.923   4.440   2.663
 4332SOL    HW213896   6.979   4.531   2.539
 4333SOL     OW13897   4.242   2.136   4.991
 4333SOL    HW113898   4.211   2.202   4.922
 4333SOL    HW213899   4.224   2.043   4.960
 4334SOL     OW13900   1.300   2.994   3.533
 4334SOL    HW113901   1.335   3.067   3.474
 4334SOL    HW213902   1.246   3.034   3.606
 4335SOL     OW13903   3.225   3.483   1.322
 4335SOL    HW113904   3.185   3.503   1.412
 4335SOL    HW213905   3.284   3.559   1.295
 4336SOL     OW13906   2.137   5.610   6.350
 4336SOL    HW113907   2.195   5.691   6.351
 4336SOL    HW213908   2.171   5.545   6.282
 4337SOL     OW13909   1.537   5.537   2.509
 4337SOL    HW113910   1.446   5.525   2.550
 4337SOL    HW213911   1.606   5.540   2.581
 4338SOL     OW13912   5.143   0.573   5.453
 4338SOL    HW113913   5.189   0.574   5.541
 4338SOL    HW213914   5.188   0.507   5.392
 4339SOL     OW13915   4.233   2.700   5.804
 4339SOL    HW113916   4.174   2.776   5.773
 4339SOL    HW213917   4.300   2.735   5.868
 4340SOL     OW13918   6.529   4.155   1.086
 4340SOL    HW113919   6.449   4.205   1.119
 4340SOL    HW213920   6.500   4.080   1.027
 4341SOL     OW13921   1.174   6.230   2.500
 4341SOL    HW113922   1.188   6.191   2.409
 4341SOL    HW213923   1.082   6.207   2.532
 4342SOL     OW13924   4.897   3.901   2.768
 4342SOL    HW113925   4.872   3.837   2.841
 4342SOL    HW213926   4.833   3.891   2.692
 4343SOL     OW13927   3.894   0.422   6.173
 4343SOL    HW113928   3.935   0.473   6.098
 4343SOL    HW213929   3.958   0.352   6.205
 4344SOL     OW13930   0.222   2.468   3.761
 4344SOL    HW113931   0.134   2.435   3.726
 4344SOL    HW213932   0.288   2.473   3.686
 4345SOL     OW13933   2.842   3.450   2.422
 4345SOL    HW113934   2.918   3.390   2.446
 4345SOL    HW213935   2.759   3.422   2.472
 4346SOL     OW13936   2.137   3.071   1.974
 4346SOL    HW113937   2.205   3.002   2.001
 4346SOL    HW213938   2.118   3.132   2.051
 4347SOL     OW13939   5.528   4.939   1.897
 4347SOL    HW113940   5.614   4.897   1.925
 4347SOL    HW213941   5.542   5.036   1.881
 4348SOL     OW13942   6.607   5.932   4.083
 4348SOL    HW113943   6.648   6.020   4.104
 4348SOL    HW213944   6.564   5.894   4.165
 4349SOL     OW13945   0.255   3.958   3.605
 4349SOL    HW113946   0.310   4.007   3.672
 4349SOL    HW213947   0.179   4.015   3.575
 4350SOL     OW13948   5.009   1.300   4.985
 4350SOL    HW113949   5.092   1.258   4.947
 4350SOL    HW213950   5.034   1.379   5.041
 4351SOL     OW13951   1.087   6.735   0.951
 4351SOL    HW113952   1.167   6.676   0.959
 4351SOL    HW213953   1.095   6.791   0.868
 4352SOL     OW13954   3.947   3.875   0.720
 4352SOL    HW113955   4.006   3.801   0.687
 4352SOL    HW213956   4.001   3.940   0.773
 4353SOL     OW13957   3.151   3.410   6.997
 4353SOL    HW113958   3.092   3.418   6.917
 4353SOL    HW213959   3.108   3.349   0.040
 4354SOL     OW13960   6.258   0.296   4.105
 4354SOL    HW113961   6.194   0.235   4.153
 4354SOL    HW213962   6.224   0.390   4.110
 4355SOL     OW13963   1.774   6.785   3.378
 4355SOL    HW113964   1.846   6.845   3.415
 4355SOL    HW213965   1.772   6.700   3.431
 4356SOL     OW13966   5.212   2.581   6.381
 4356SOL    HW113967   5.241   2.669   6.345
 4356SOL    HW213968   5.253   2.567   6.471
 4357SOL     OW13969   6.621   0.465   1.903
 4357SOL    HW113970   6.719   0.456   1.917
 4357SOL    HW213971   6.575   0.476   1.992
 4358SOL     OW13972   0.765   0.648   0.173
 4358SOL    HW113973   0.767   0.714   0.098
 4358SOL    HW213974   0.839   0.582   0.161
 4359SOL     OW13975   2.339   0.758   0.022
 4359SOL    HW113976   2.315   0.670   0.062
 4359SOL    HW213977   2.362   0.745   6.949
 4360SOL     OW13978   1.525   2.815   3.573
 4360SOL    HW113979   1.606   2.868   3.547
 4360SOL    HW213980   1.443   2.870   3.558
 4361SOL     OW13981   1.214   2.040   0.732
 4361SOL    HW113982   1.164   1.957   0.708
 4361SOL    HW213983   1.197   2.111   0.664
 4362SOL     OW13984   1.427   6.048   4.144
 4362SOL    HW113985   1.397   6.076   4.053
 4362SOL    HW213986   1.496   6.112   4.177
 4363SOL     OW13987   4.350   0.750   2.735
 4363SOL    HW113988   4.333   0.832   2.681
 4363SOL    HW213989   4.448   0.744   2.755
 4364SOL     OW13990   3.429   3.681   2.977
 4364SOL    HW113991   3.473   3.616   3.039
 4364SOL    HW213992   3.442   3.652   2.882
 4365SOL     OW13993   3.007   2.223   1.779
 4365SOL    HW113994   2.983   2.304   1.831
 4365SOL    HW213995   2.934   2.155   1.787
 4366SOL     OW13996   5.150   6.091   4.940
 4366SOL    HW113997   5.224   6.062   5.000
 4366SOL    HW213998   5.117   6.013   4.888
 4367SOL     OW13999   3.066   5.576   3.757
 4367SOL    HW114000   3.014   5.494   3.735
 4367SOL    HW214001   3.074   5.585   3.856
 4368SOL     OW14002   5.128   4.506   2.403
 4368SOL    HW114003   5.092   4.482   2.493
 4368SOL    HW214004   5.052   4.530   2.342
 4369SOL     OW14005   4.786   5.027   2.810
 4369SOL    HW114006   4.769   5.015   2.712
 4369SOL    HW214007   4.819   5.120   2.827
 4370SOL     OW14008   3.972   4.784   1.888
 4370SOL    HW114009   3.889   4.732   1.905
 4370SOL    HW214010   4.004   4.825   1.974
 4371SOL     OW14011   2.316   0.531   1.288
 4371SOL    HW114012   2.368   0.476   1.354
 4371SOL    HW214013   2.221   0.536   1.317
 4372SOL     OW14014   1.950   2.972   4.699
 4372SOL    HW114015   2.005   2.993   4.619
 4372SOL    HW214016   2.002   2.913   4.761
 4373SOL     OW14017   4.301   1.043   6.097
 4373SOL    HW114018   4.306   0.960   6.042
 4373SOL    HW214019   4.310   1.020   6.194
 4374SOL     OW14020   2.579   1.432   1.164
 4374SOL    HW114021   2.617   1.517   1.128
 4374SOL    HW214022   2.480   1.439   1.169
 4375SOL     OW14023   3.448   0.730   3.407
 4375SOL    HW114024   3.407   0.801   3.351
 4375SOL    HW214025   3.392   0.715   3.488
 4376SOL     OW14026   6.562   6.624   1.356
 4376SOL    HW114027   6.497   6.682   1.406
 4376SOL    HW214028   6.646   6.674   1.339
 4377SOL     OW14029   6.291   6.318   6.766
 4377SOL    HW114030   6.244   6.237   6.732
 4377SOL    HW214031   6.389   6.311   6.746
 4378SOL     OW14032   1.943   5.931   2.632
 4378SOL    HW114033   1.990   5.987   2.564
 4378SOL    HW214034   1.897   5.855   2.587
 4379SOL     OW14035   1.270   1.242   1.408
 4379SOL    HW114036   1.341   1.176   1.384
 4379SOL    HW214037   1.182   1.211   1.371
 4380SOL     OW14038   1.661   5.959   5.321
 4380SOL    HW114039   1.565   5.933   5.322
 4380SOL    HW214040   1.712   5.902   5.386
 4381SOL     OW14041   3.467   0.251   4.753
 4381SOL    HW114042   3.531   0.177   4.735
 4381SOL    HW214043   3.482   0.286   4.846
 4382SOL     OW14044   5.282   3.933   4.591
 4382SOL    HW114045   5.236   3.965   4.509
 4382SOL    HW214046   5.251   3.986   4.670
 4383SOL     OW14047   1.190   2.826   5.928
 4383SOL    HW114048   1.198   2.812   6.026
 4383SOL    HW214049   1.251   2.763   5.880
 4384SOL     OW14050   3.706   6.734   1.177
 4384SOL    HW114051   3.752   6.648   1.201
 4384SOL    HW214052   3.643   6.719   1.101
 4385SOL     OW14053   0.295   1.376   3.311
 4385SOL    HW114054   0.242   1.300   3.273
 4385SOL    HW214055   0.283   1.457   3.252
 4386SOL     OW14056   0.847   3.803   6.686
 4386SOL    HW114057   0.806   3.712   6.679
 4386SOL    HW214058   0.926   3.800   6.748
 4387SOL     OW14059   6.843   3.224   1.312
 4387SOL    HW114060   6.914   3.286   1.347
 4387SOL    HW214061   6.754   3.268   1.318
 4388SOL     OW14062   3.297   0.576   5.716
 4388SOL    HW114063   3.397   0.564   5.719
 4388SOL    HW214064   3.263   0.588   5.809
 4389SOL     OW14065   5.823   3.015   1.866
 4389SOL    HW114066   5.903   3.010   1.806
 4389SOL    HW214067   5.818   2.933   1.922
 4390SOL     OW14068   4.649   2.095   1.812
 4390SOL    HW114069   4.664   2.103   1.911
 4390SOL    HW214070   4.630   2.000   1.789
 4391SOL     OW14071   0.872   5.787   0.317
 4391SOL    HW114072   0.923   5.710   0.279
 4391SOL    HW214073   0.786   5.797   0.268
 4392SOL     OW14074   5.137   3.056   4.145
 4392SOL    HW114075   5.178   3.066   4.235
 4392SOL    HW214076   5.205   3.016   4.082
 4393SOL     OW14077   5.025   7.011   3.304
 4393SOL    HW114078   5.013   0.006   3.402
 4393SOL    HW214079   4.936   6.993   3.263
 4394SOL     OW14080   5.697   6.504   2.583
 4394SOL    HW114081   5.678   6.563   2.661
 4394SOL    HW214082   5.627   6.519   2.512
 4395SOL     OW14083   4.166   1.441   1.694
 4395SOL    HW114084   4.085   1.427   1.751
 4395SOL    HW214085   4.207   1.530   1.716
 4396SOL     OW14086   0.765   0.950   4.256
 4396SOL    HW114087   0.690   0.884   4.251
 4396SOL    HW214088   0.740   1.026   4.316
 4397SOL     OW14089   6.730   0.912   5.098
 4397SOL    HW114090   6.738   0.961   5.184
 4397SOL    HW214091   6.741   0.977   5.022
 4398SOL     OW14092   0.791   4.178   4.571
 4398SOL    HW114093   0.871   4.172   4.510
 4398SOL    HW214094   0.708   4.161   4.518
 4399SOL     OW14095   1.706   1.503   0.589
 4399SOL    HW114096   1.716   1.520   0.491
 4399SOL    HW214097   1.788   1.455   0.623
 4400SOL     OW14098   2.435   6.787   4.203
 4400SOL    HW114099   2.395   6.742   4.123
 4400SOL    HW214100   2.362   6.818   4.264
 4401SOL     OW14101   5.871   6.073   4.218
 4401SOL    HW114102   5.831   6.143   4.278
 4401SOL    HW214103   5.798   6.017   4.180
 4402SOL     OW14104   1.188   5.811   2.879
 4402SOL    HW114105   1.133   5.837   2.799
 4402SOL    HW214106   1.285   5.820   2.857
 4403SOL     OW14107   0.126   0.168   3.228
 4403SOL    HW114108   0.152   0.264   3.220
 4403SOL    HW214109   0.166   0.129   3.311
 4404SOL     OW14110   0.574   4.166   3.353
 4404SOL    HW114111   0.601   4.153   3.258
 4404SOL    HW214112   0.625   4.103   3.411
 4405SOL     OW14113   2.984   4.768   5.865
 4405SOL    HW114114   3.067   4.817   5.838
 4405SOL    HW214115   2.912   4.784   5.797
 4406SOL     OW14116   5.080   4.236   1.778
 4406SOL    HW114117   5.171   4.196   1.760
 4406SOL    HW214118   5.073   4.261   1.875
 4407SOL     OW14119   6.802   6.137   0.257
 4407SOL    HW114120   6.728   6.182   0.208
 4407SOL    HW214121   6.772   6.047   0.287
 4408SOL     OW14122   4.971   0.331   0.701
 4408SOL    HW114123   4.933   0.406   0.755
 4408SOL    HW214124   4.922   0.324   0.614
 4409SOL     OW14125   3.479   1.338   1.975
 4409SOL    HW114126   3.397   1.294   1.937
 4409SOL    HW214127   3.456   1.383   2.061
 4410SOL     OW14128   2.273   5.540   1.193
 4410SOL    HW114129   2.208   5.493   1.133
 4410SOL    HW214130   2.337   5.593   1.138
 4411SOL     OW14131   3.714   3.015   2.890
 4411SOL    HW114132   3.715   2.970   2.801
 4411SOL    HW214133   3.635   2.982   2.943
 4412SOL     OW14134   3.838   1.080   6.346
 4412SOL    HW114135   3.783   1.164   6.343
 4412SOL    HW214136   3.779   1.000   6.337
 4413SOL     OW14137   4.029   5.442   4.218
 4413SOL    HW114138   4.015   5.356   4.169
 4413SOL    HW214139   3.989   5.435   4.310
 4414SOL     OW14140   4.207   4.808   2.319
 4414SOL    HW114141   4.283   4.867   2.347
 4414SOL    HW214142   4.147   4.790   2.397
 4415SOL     OW14143   5.114   3.948   6.444
 4415SOL    HW114144   5.158   3.996   6.367
 4415SOL    HW214145   5.106   3.851   6.422
 4416SOL     OW14146   2.917   1.343   4.734
 4416SOL    HW114147   2.878   1.261   4.692
 4416SOL    HW214148   2.952   1.404   4.663
 4417SOL     OW14149   0.308   5.064   1.833
 4417SOL    HW114150   0.272   5.154   1.809
 4417SOL    HW214151   0.391   5.074   1.888
 4418SOL     OW14152   4.343   6.022   4.397
 4418SOL    HW114153   4.437   6.039   4.368
 4418SOL    HW214154   4.290   5.985   4.321
 4419SOL     OW14155   6.392   5.149   0.638
 4419SOL    HW114156   6.470   5.116   0.585
 4419SOL    HW214157   6.308   5.140   0.583
 4420SOL     OW14158   4.555   0.785   0.468
 4420SOL    HW114159   4.621   0.856   0.492
 4420SOL    HW214160   4.469   0.802   0.517
 4421SOL     OW14161   2.051   1.536   2.876
 4421SOL    HW114162   1.991   1.458   2.859
 4421SOL    HW214163   2.123   1.538   2.807
 4422SOL     OW14164   2.689   4.013   6.539
 4422SOL    HW114165   2.603   3.971   6.512
 4422SOL    HW214166   2.732   4.056   6.459
 4423SOL     OW14167   1.195   2.484   6.398
 4423SOL    HW114168   1.243   2.452   6.316
 4423SOL    HW214169   1.246   2.459   6.480
 4424SOL     OW14170   5.606   6.270   3.283
 4424SOL    HW114171   5.550   6.339   3.237
 4424SOL    HW214172   5.702   6.287   3.265
 4425SOL     OW14173   3.794   5.577   6.199
 4425SOL    HW114174   3.757   5.670   6.208
 4425SOL    HW214175   3.720   5.515   6.170
 4426SOL     OW14176   0.129   0.776   5.396
 4426SOL    HW114177   0.145   0.825   5.481
 4426SOL    HW214178   0.193   0.808   5.326
 4427SOL     OW14179   0.482   0.595   3.159
 4427SOL    HW114180   0.542   0.662   3.203
 4427SOL    HW214181   0.537   0.532   3.105
 4428SOL     OW14182   2.039   5.236   4.479
 4428SOL    HW114183   1.993   5.201   4.398
 4428SOL    HW214184   2.114   5.296   4.452
 4429SOL     OW14185   2.697   6.626   3.447
 4429SOL    HW114186   2.714   6.573   3.530
 4429SOL    HW214187   2.705   6.724   3.468
 4430SOL     OW14188   3.563   1.831   2.685
 4430SOL    HW114189   3.639   1.773   2.715
 4430SOL    HW214190   3.555   1.910   2.745
 4431SOL     OW14191   2.825   1.537   3.856
 4431SOL    HW114192   2.877   1.518   3.939
 4431SOL    HW214193   2.743   1.590   3.879
 4432SOL     OW14194   3.386   3.561   2.716
 4432SOL    HW114195   3.461   3.560   2.650
 4432SOL    HW214196   3.318   3.628   2.687
 4433SOL     OW14197   5.959   6.342   2.950
 4433SOL    HW114198   6.053   6.335   2.917
 4433SOL    HW214199   5.900   6.278   2.901
 4434SOL     OW14200   5.120   1.335   3.686
 4434SOL    HW114201   5.077   1.263   3.740
 4434SOL    HW214202   5.054   1.407   3.667
 4435SOL     OW14203   3.427   2.784   1.351
 4435SOL    HW114204   3.411   2.686   1.360
 4435SOL    HW214205   3.437   2.825   1.442
 4436SOL     OW14206   3.375   1.786   0.389
 4436SOL    HW114207   3.452   1.764   0.330
 4436SOL    HW214208   3.393   1.872   0.437
 4437SOL     OW14209   4.134   0.695   4.623
 4437SOL    HW114210   4.120   0.626   4.694
 4437SOL    HW214211   4.050   0.747   4.611
 4438SOL     OW14212   4.365   2.362   7.009
 4438SOL    HW114213   4.313   2.443   0.011
 4438SOL    HW214214   4.341   2.335   6.915
 4439SOL     OW14215   0.535   5.207   2.014
 4439SOL    HW114216   0.565   5.225   1.920
 4439SOL    HW214217   0.587   5.266   2.077
 4440SOL     OW14218   1.673   6.150   6.971
 4440SOL    HW114219   1.699   6.244   6.994
 4440SOL    HW214220   1.598   6.121   0.006
 4441SOL     OW14221   5.946   2.615   2.465
 4441SOL    HW114222   5.966   2.693   2.406
 4441SOL    HW214223   6.001   2.537   2.436
 4442SOL     OW14224   4.016   6.003   3.846
 4442SOL    HW114225   3.987   6.069   3.777
 4442SOL    HW214226   3.935   5.959   3.886
 4443SOL     OW14227   2.596   2.403   5.997
 4443SOL    HW114228   2.624   2.397   5.901
 4443SOL    HW214229   2.540   2.324   6.021
 4444SOL     OW14230   4.688   6.238   1.364
 4444SOL    HW114231   4.634   6.295   1.426
 4444SOL    HW214232   4.631   6.163   1.330
 4445SOL     OW14233   1.252   0.763   6.213
 4445SOL    HW114234   1.326   0.721   6.160
 4445SOL    HW214235   1.288   0.841   6.264
 4446SOL     OW14236   6.025   6.979   2.731
 4446SOL    HW114237   5.977   0.016   2.795
 4446SOL    HW214238   6.111   7.021   2.704
 4447SOL     OW14239   5.365   2.933   6.112
 4447SOL    HW114240   5.367   3.029   6.082
 4447SOL    HW214241   5.363   2.873   6.032
 4448SOL     OW14242   2.503   3.513   0.700
 4448SOL    HW114243   2.470   3.430   0.745
 4448SOL    HW214244   2.514   3.496   0.602
 4449SOL     OW14245   2.475   0.486   5.190
 4449SOL    HW114246   2.425   0.562   5.150
 4449SOL    HW214247   2.524   0.436   5.119
 4450SOL     OW14248   3.290   3.016   3.232
 4450SOL    HW114249   3.264   2.996   3.327
 4450SOL    HW214250   3.332   3.107   3.228
 4451SOL     OW14251   6.264   4.524   2.586
 4451SOL    HW114252   6.277   4.536   2.487
 4451SOL    HW214253   6.200   4.593   2.619
 4452SOL     OW14254   6.278   6.101   5.728
 4452SOL    HW114255   6.273   6.077   5.824
 4452SOL    HW214256   6.243   6.026   5.672
 4453SOL     OW14257   5.533   2.711   1.723
 4453SOL    HW114258   5.466   2.657   1.774
 4453SOL    HW214259   5.625   2.689   1.754
 4454SOL     OW14260   5.148   3.096   0.742
 4454SOL    HW114261   5.118   3.031   0.812
 4454SOL    HW214262   5.247   3.088   0.729
 4455SOL     OW14263   3.652   0.160   2.445
 4455SOL    HW114264   3.707   0.095   2.394
 4455SOL    HW214265   3.684   0.165   2.540
 4456SOL     OW14266   1.917   5.013   2.469
 4456SOL    HW114267   1.970   5.078   2.524
 4456SOL    HW214268   1.866   5.063   2.399
 4457SOL     OW14269   4.315   2.384   6.147
 4457SOL    HW114270   4.378   2.448   6.103
 4457SOL    HW214271   4.348   2.362   6.239
 4458SOL     OW14272   2.565   1.952   6.347
 4458SOL    HW114273   2.628   1.920   6.417
 4458SOL    HW214274   2.617   1.983   6.267
 4459SOL     OW14275   4.708   6.582   4.907
 4459SOL    HW114276   4.657   6.577   4.820
 4459SOL    HW214277   4.647   6.616   4.979
 4460SOL     OW14278   2.691   3.590   6.589
 4460SOL    HW114279   2.598   3.602   6.625
 4460SOL    HW214280   2.687   3.553   6.497
 4461SOL     OW14281   1.131   6.972   2.483
 4461SOL    HW114282   1.132   6.985   2.582
 4461SOL    HW214283   1.099   0.032   2.439
 4462SOL     OW14284   6.149   5.132   0.878
 4462SOL    HW114285   6.203   5.101   0.799
 4462SOL    HW214286   6.165   5.230   0.892
 4463SOL     OW14287   1.988   3.626   6.447
 4463SOL    HW114288   2.031   3.716   6.461
 4463SOL    HW214289   2.059   3.560   6.420
 4464SOL     OW14290   5.419   3.977   6.013
 4464SOL    HW114291   5.512   3.998   5.983
 4464SOL    HW214292   5.354   4.025   5.955
 4465SOL     OW14293   2.062   6.433   2.094
 4465SOL    HW114294   1.990   6.502   2.088
 4465SOL    HW214295   2.024   6.344   2.066
 4466SOL     OW14296   0.875   1.797   2.376
 4466SOL    HW114297   0.794   1.794   2.435
 4466SOL    HW214298   0.957   1.810   2.432
 4467SOL     OW14299   1.461   0.144   3.133
 4467SOL    HW114300   1.459   0.235   3.090
 4467SOL    HW214301   1.523   0.146   3.211
 4468SOL     OW14302   1.179   2.655   6.896
 4468SOL    HW114303   1.146   2.561   6.904
 4468SOL    HW214304   1.164   2.703   6.983
 4469SOL     OW14305   3.223   0.398   1.219
 4469SOL    HW114306   3.192   0.477   1.271
 4469SOL    HW214307   3.152   0.328   1.218
 4470SOL     OW14308   4.918   3.652   1.481
 4470SOL    HW114309   4.965   3.736   1.507
 4470SOL    HW214310   4.982   3.591   1.433
 4471SOL     OW14311   0.253   2.475   1.335
 4471SOL    HW114312   0.206   2.410   1.395
 4471SOL    HW214313   0.327   2.519   1.385
 4472SOL     OW14314   2.109   4.264   2.128
 4472SOL    HW114315   2.193   4.313   2.154
 4472SOL    HW214316   2.041   4.273   2.201
 4473SOL     OW14317   0.200   6.998   4.588
 4473SOL    HW114318   0.271   6.948   4.639
 4473SOL    HW214319   0.243   0.035   4.521
 4474SOL     OW14320   3.935   6.883   2.836
 4474SOL    HW114321   3.922   6.812   2.905
 4474SOL    HW214322   3.860   6.879   2.770
 4475SOL     OW14323   1.860   4.040   1.170
 4475SOL    HW114324   1.787   4.077   1.112
 4475SOL    HW214325   1.896   4.113   1.228
 4476SOL     OW14326   4.992   6.334   1.969
 4476SOL    HW114327   4.911   6.386   1.941
 4476SOL    HW214328   5.023   6.278   1.892
 4477SOL     OW14329   1.534   1.276   6.548
 4477SOL    HW114330   1.605   1.272   6.478
 4477SOL    HW214331   1.554   1.210   6.621
 4478SOL     OW14332   2.571   6.951   2.590
 4478SOL    HW114333   2.545   7.019   2.521
 4478SOL    HW214334   2.670   6.953   2.603
 4479SOL     OW14335   1.010   0.243   5.652
 4479SOL    HW114336   1.010   0.306   5.575
 4479SOL    HW214337   0.930   0.182   5.646
 4480SOL     OW14338   1.221   4.645   4.628
 4480SOL    HW114339   1.307   4.684   4.659
 4480SOL    HW214340   1.174   4.602   4.705
 4481SOL     OW14341   1.143   6.308   3.957
 4481SOL    HW114342   1.184   6.319   4.048
 4481SOL    HW214343   1.044   6.298   3.966
 4482SOL     OW14344   0.734   4.732   4.292
 4482SOL    HW114345   0.824   4.723   4.249
 4482SOL    HW214346   0.737   4.695   4.385
 4483SOL     OW14347   6.372   2.802   1.323
 4483SOL    HW114348   6.443   2.777   1.388
 4483SOL    HW214349   6.347   2.721   1.269
 4484SOL     OW14350   3.926   2.704   5.304
 4484SOL    HW114351   3.837   2.657   5.311
 4484SOL    HW214352   3.995   2.639   5.272
 4485SOL     OW14353   5.028   1.841   6.912
 4485SOL    HW114354   5.077   1.923   6.944
 4485SOL    HW214355   5.049   1.765   6.974
 4486SOL     OW14356   6.880   4.275   5.428
 4486SOL    HW114357   6.851   4.219   5.506
 4486SOL    HW214358   6.979   4.266   5.416
 4487SOL     OW14359   2.878   3.788   6.590
 4487SOL    HW114360   2.828   3.702   6.593
 4487SOL    HW214361   2.813   3.864   6.598
 4488SOL     OW14362   6.227   1.919   5.331
 4488SOL    HW114363   6.291   1.918   5.254
 4488SOL    HW214364   6.275   1.896   5.415
 4489SOL     OW14365   5.586   5.275   4.810
 4489SOL    HW114366   5.684   5.292   4.817
 4489SOL    HW214367   5.554   5.303   4.719
 4490SOL     OW14368   5.931   1.177   2.257
 4490SOL    HW114369   5.911   1.080   2.243
 4490SOL    HW214370   5.952   1.193   2.353
 4491SOL     OW14371   1.457   3.912   2.886
 4491SOL    HW114372   1.529   3.970   2.847
 4491SOL    HW214373   1.471   3.903   2.984
 4492SOL     OW14374   4.861   2.363   0.244
 4492SOL    HW114375   4.941   2.370   0.304
 4492SOL    HW214376   4.827   2.455   0.223
 4493SOL     OW14377   4.787   5.191   4.937
 4493SOL    HW114378   4.702   5.196   4.989
 4493SOL    HW214379   4.865   5.204   4.998
 4494SOL     OW14380   0.176   3.882   5.534
 4494SOL    HW114381   0.093   3.850   5.579
 4494SOL    HW214382   0.172   3.859   5.437
 4495SOL     OW14383   5.246   6.554   2.155
 4495SOL    HW114384   5.245   6.457   2.177
 4495SOL    HW214385   5.306   6.602   2.220
 4496SOL     OW14386   5.741   4.025   6.502
 4496SOL    HW114387   5.758   4.066   6.592
 4496SOL    HW214388   5.652   3.979   6.503
 4497SOL     OW14389   5.149   5.524   6.449
 4497SOL    HW114390   5.160   5.566   6.359
 4497SOL    HW214391   5.052   5.521   6.473
 4498SOL     OW14392   0.462   4.011   6.504
 4498SOL    HW114393   0.544   3.956   6.489
 4498SOL    HW214394   0.484   4.108   6.494
 4499SOL     OW14395   0.178   3.438   4.919
 4499SOL    HW114396   0.082   3.416   4.937
 4499SOL    HW214397   0.200   3.527   4.959
 4500SOL     OW14398   3.005   3.957   4.242
 4500SOL    HW114399   2.950   3.994   4.317
 4500SOL    HW214400   3.023   4.030   4.175
 4501SOL     OW14401   0.860   4.248   5.475
 4501SOL    HW114402   0.947   4.297   5.486
 4501SOL    HW214403   0.784   4.310   5.497
 4502SOL     OW14404   1.540   2.542   6.668
 4502SOL    HW114405   1.494   2.467   6.620
 4502SOL    HW214406   1.587   2.506   6.749
 4503SOL     OW14407   2.276   1.494   3.508
 4503SOL    HW114408   2.296   1.501   3.606
 4503SOL    HW214409   2.177   1.493   3.494
 4504SOL     OW14410   5.970   2.536   5.333
 4504SOL    HW114411   6.049   2.509   5.277
 4504SOL    HW214412   5.908   2.591   5.277
 4505SOL     OW14413   0.958   6.284   5.450
 4505SOL    HW114414   1.038   6.305   5.394
 4505SOL    HW214415   0.880   6.264   5.390
 4506SOL     OW14416   3.972   1.346   5.163
 4506SOL    HW114417   4.006   1.419   5.221
 4506SOL    HW214418   3.992   1.257   5.205
 4507SOL     OW14419   4.850   4.870   1.130
 4507SOL    HW114420   4.799   4.784   1.127
 4507SOL    HW214421   4.946   4.851   1.151
 4508SOL     OW14422   1.647   3.753   0.331
 4508SOL    HW114423   1.606   3.665   0.356
 4508SOL    HW214424   1.659   3.809   0.413
 4509SOL     OW14425   4.366   2.156   4.723
 4509SOL    HW114426   4.444   2.094   4.710
 4509SOL    HW214427   4.282   2.110   4.696
 4510SOL     OW14428   5.697   0.809   4.984
 4510SOL    HW114429   5.681   0.735   4.919
 4510SOL    HW214430   5.618   0.820   5.044
 4511SOL     OW14431   6.739   3.008   0.447
 4511SOL    HW114432   6.701   2.934   0.392
 4511SOL    HW214433   6.665   3.059   0.491
 4512SOL     OW14434   2.674   6.674   0.017
 4512SOL    HW114435   2.669   6.588   0.068
 4512SOL    HW214436   2.707   6.747   0.078
 4513SOL     OW14437   4.578   6.387   1.560
 4513SOL    HW114438   4.596   6.480   1.592
 4513SOL    HW214439   4.490   6.384   1.514
 4514SOL     OW14440   3.745   0.992   4.445
 4514SOL    HW114441   3.694   1.072   4.478
 4514SOL    HW214442   3.692   0.945   4.376
 4515SOL     OW14443   6.728   4.879   0.326
 4515SOL    HW114444   6.808   4.875   0.386
 4515SOL    HW214445   6.735   4.809   0.255
 4516SOL     OW14446   1.151   1.649   5.262
 4516SOL    HW114447   1.127   1.593   5.341
 4516SOL    HW214448   1.156   1.591   5.181
 4517SOL     OW14449   3.359   6.942   6.642
 4517SOL    HW114450   3.403   6.991   6.718
 4517SOL    HW214451   3.425   6.930   6.568
 4518SOL     OW14452   0.974   1.764   3.943
 4518SOL    HW114453   0.936   1.848   3.981
 4518SOL    HW214454   1.046   1.729   4.004
 4519SOL     OW14455   0.182   2.351   3.296
 4519SOL    HW114456   0.240   2.417   3.343
 4519SOL    HW214457   0.092   2.393   3.278
 4520SOL     OW14458   6.058   4.703   2.243
 4520SOL    HW114459   6.130   4.633   2.238
 4520SOL    HW214460   5.993   4.690   2.168
 4521SOL     OW14461   4.956   2.279   6.218
 4521SOL    HW114462   5.048   2.300   6.184
 4521SOL    HW214463   4.961   2.207   6.287
 4522SOL     OW14464   5.477   6.574   3.758
 4522SOL    HW114465   5.445   6.607   3.669
 4522SOL    HW214466   5.548   6.634   3.793
 4523SOL     OW14467   3.054   4.844   0.549
 4523SOL    HW114468   2.982   4.779   0.527
 4523SOL    HW214469   3.102   4.871   0.466
 4524SOL     OW14470   5.532   1.443   5.462
 4524SOL    HW114471   5.463   1.389   5.511
 4524SOL    HW214472   5.622   1.402   5.476
 4525SOL     OW14473   6.448   1.804   4.288
 4525SOL    HW114474   6.543   1.793   4.316
 4525SOL    HW214475   6.390   1.738   4.336
 4526SOL     OW14476   4.635   6.569   0.970
 4526SOL    HW114477   4.540   6.538   0.977
 4526SOL    HW214478   4.672   6.544   0.881
 4527SOL     OW14479   5.001   0.993   3.179
 4527SOL    HW114480   5.093   1.029   3.162
 4527SOL    HW214481   4.962   0.959   3.093
 4528SOL     OW14482   5.415   0.151   0.405
 4528SOL    HW114483   5.370   0.078   0.352
 4528SOL    HW214484   5.348   0.222   0.426
 4529SOL     OW14485   2.777   0.675   2.764
 4529SOL    HW114486   2.729   0.763   2.761
 4529SOL    HW214487   2.833   0.671   2.847
 4530SOL     OW14488   0.854   3.244   5.586
 4530SOL    HW114489   0.920   3.300   5.636
 4530SOL    HW214490   0.763   3.282   5.597
 4531SOL     OW14491   1.140   3.425   3.518
 4531SOL    HW114492   1.239   3.435   3.508
 4531SOL    HW214493   1.095   3.506   3.481
 4532SOL     OW14494   6.538   1.606   1.220
 4532SOL    HW114495   6.515   1.526   1.165
 4532SOL    HW214496   6.636   1.623   1.214
 4533SOL     OW14497   1.804   5.934   2.872
 4533SOL    HW114498   1.840   5.950   2.780
 4533SOL    HW214499   1.718   5.985   2.882
 4534SOL     OW14500   5.522   3.927   5.150
 4534SOL    HW114501   5.512   3.922   5.051
 4534SOL    HW214502   5.518   3.834   5.188
 4535SOL     OW14503   4.994   2.990   1.910
 4535SOL    HW114504   5.048   2.909   1.932
 4535SOL    HW214505   4.901   2.978   1.947
 4536SOL     OW14506   5.559   0.718   4.624
 4536SOL    HW114507   5.585   0.810   4.654
 4536SOL    HW214508   5.510   0.671   4.698
 4537SOL     OW14509   3.910   3.374   6.708
 4537SOL    HW114510   3.850   3.442   6.752
 4537SOL    HW214511   3.879   3.282   6.733
 4538SOL     OW14512   3.330   1.656   3.254
 4538SOL    HW114513   3.398   1.668   3.182
 4538SOL    HW214514   3.371   1.610   3.333
 4539SOL     OW14515   2.461   2.001   3.575
 4539SOL    HW114516   2.515   1.923   3.607
 4539SOL    HW214517   2.364   1.978   3.581
 4540SOL     OW14518   3.617   3.364   4.776
 4540SOL    HW114519   3.653   3.389   4.686
 4540SOL    HW214520   3.520   3.388   4.781
 4541SOL     OW14521   5.283   1.241   0.130
 4541SOL    HW114522   5.350   1.174   0.163
 4541SOL    HW214523   5.191   1.210   0.151
 4542SOL     OW14524   6.018   5.915   1.732
 4542SOL    HW114525   5.954   5.861   1.677
 4542SOL    HW214526   6.078   5.854   1.783
 4543SOL     OW14527   5.098   1.972   0.841
 4543SOL    HW114528   5.096   1.874   0.859
 4543SOL    HW214529   5.014   2.000   0.796
 4544SOL     OW14530   2.538   5.900   6.775
 4544SOL    HW114531   2.481   5.919   6.695
 4544SOL    HW214532   2.483   5.859   6.847
 4545SOL     OW14533   4.326   1.994   5.320
 4545SOL    HW114534   4.346   1.896   5.320
 4545SOL    HW214535   4.228   2.008   5.303
 4546SOL     OW14536   1.267   6.279   6.326
 4546SOL    HW114537   1.265   6.311   6.421
 4546SOL    HW214538   1.362   6.262   6.299
 4547SOL     OW14539   5.579   2.601   1.308
 4547SOL    HW114540   5.626   2.515   1.284
 4547SOL    HW214541   5.540   2.641   1.225
 4548SOL     OW14542   0.528   4.762   3.661
 4548SOL    HW114543   0.519   4.766   3.761
 4548SOL    HW214544   0.589   4.687   3.636
 4549SOL     OW14545   6.749   3.450   2.728
 4549SOL    HW114546   6.796   3.490   2.806
 4549SOL    HW214547   6.754   3.513   2.650
 4550SOL     OW14548   1.114   5.917   3.599
 4550SOL    HW114549   1.186   5.854   3.627
 4550SOL    HW214550   1.025   5.882   3.630
 4551SOL     OW14551   0.443   2.411   4.996
 4551SOL    HW114552   0.444   2.492   4.937
 4551SOL    HW214553   0.519   2.417   5.061
 4552SOL     OW14554   0.608   3.318   4.869
 4552SOL    HW114555   0.700   3.299   4.835
 4552SOL    HW214556   0.541   3.296   4.798
 4553SOL     OW14557   4.668   5.335   0.243
 4553SOL    HW114558   4.765   5.358   0.253
 4553SOL    HW214559   4.639   5.354   0.149
 4554SOL     OW14560   4.203   6.863   2.765
 4554SOL    HW114561   4.105   6.864   2.782
 4554SOL    HW214562   4.237   6.769   2.767
 4555SOL     OW14563   4.451   2.079   6.700
 4555SOL    HW114564   4.452   2.067   6.800
 4555SOL    HW214565   4.500   2.004   6.657
 4556SOL     OW14566   4.007   0.869   3.852
 4556SOL    HW114567   4.095   0.868   3.803
 4556SOL    HW214568   4.020   0.908   3.943
 4557SOL     OW14569   5.402   0.016   5.632
 4557SOL    HW114570   5.431   0.053   5.545
 4557SOL    HW214571   5.389   0.090   5.698
 4558SOL     OW14572   5.895   3.503   6.472
 4558SOL    HW114573   5.953   3.527   6.394
 4558SOL    HW214574   5.890   3.580   6.535
 4559SOL     OW14575   1.145   6.326   1.168
 4559SOL    HW114576   1.084   6.302   1.243
 4559SOL    HW214577   1.209   6.251   1.151
 4560SOL     OW14578   4.958   2.950   3.056
 4560SOL    HW114579   5.055   2.975   3.056
 4560SOL    HW214580   4.912   2.994   2.979
 4561SOL     OW14581   3.194   1.437   0.224
 4561SOL    HW114582   3.111   1.409   0.176
 4561SOL    HW214583   3.173   1.516   0.282
 4562SOL     OW14584   3.503   5.743   6.001
 4562SOL    HW114585   3.423   5.684   5.999
 4562SOL    HW214586   3.571   5.710   5.937
 4563SOL     OW14587   5.862   1.984   0.378
 4563SOL    HW114588   5.795   1.966   0.450
 4563SOL    HW214589   5.823   1.957   0.290
 4564SOL     OW14590   0.886   5.134   0.787
 4564SOL    HW114591   0.939   5.172   0.711
 4564SOL    HW214592   0.881   5.035   0.778
 4565SOL     OW14593   0.663   1.439   5.228
 4565SOL    HW114594   0.579   1.485   5.199
 4565SOL    HW214595   0.742   1.498   5.210
 4566SOL     OW14596   0.255   6.777   6.824
 4566SOL    HW114597   0.224   6.814   6.737
 4566SOL    HW214598   0.218   6.684   6.835
 4567SOL     OW14599   6.938   1.061   0.428
 4567SOL    HW114600   7.009   1.128   0.450
 4567SOL    HW214601   6.974   0.992   0.366
 4568SOL     OW14602   3.195   4.594   5.600
 4568SOL    HW114603   3.198   4.659   5.524
 4568SOL    HW214604   3.105   4.549   5.603
 4569SOL     OW14605   0.866   1.766   4.386
 4569SOL    HW114606   0.938   1.706   4.351
 4569SOL    HW214607   0.814   1.804   4.310
 4570SOL     OW14608   0.137   5.628   3.210
 4570SOL    HW114609   0.158   5.538   3.172
 4570SOL    HW214610   0.217   5.664   3.257
 4571SOL     OW14611   2.928   3.347   4.699
 4571SOL    HW114612   2.985   3.396   4.633
 4571SOL    HW214613   2.838   3.391   4.704
 4572SOL     OW14614   0.441   6.993   1.318
 4572SOL    HW114615   0.508   6.922   1.338
 4572SOL    HW214616   0.370   6.992   1.388
 4573SOL     OW14617   6.066   6.139   1.285
 4573SOL    HW114618   5.972   6.171   1.274
 4573SOL    HW214619   6.123   6.215   1.316
 4574SOL     OW14620   6.794   4.575   1.399
 4574SOL    HW114621   6.876   4.528   1.368
 4574SOL    HW214622   6.807   4.674   1.388
 4575SOL     OW14623   6.358   1.757   0.860
 4575SOL    HW114624   6.318   1.735   0.949
 4575SOL    HW214625   6.291   1.742   0.788
 4576SOL     OW14626   2.710   5.675   6.757
 4576SOL    HW114627   2.643   5.749   6.760
 4576SOL    HW214628   2.667   5.589   6.785
 4577SOL     OW14629   0.819   3.415   2.994
 4577SOL    HW114630   0.732   3.420   3.044
 4577SOL    HW214631   0.895   3.421   3.059
 4578SOL     OW14632   0.354   3.619   3.781
 4578SOL    HW114633   0.359   3.696   3.845
 4578SOL    HW214634   0.259   3.600   3.759
 4579SOL     OW14635   4.663   1.695   2.542
 4579SOL    HW114636   4.665   1.671   2.639
 4579SOL    HW214637   4.697   1.789   2.530
 4580SOL     OW14638   5.905   5.297   0.789
 4580SOL    HW114639   5.922   5.375   0.849
 4580SOL    HW214640   5.962   5.220   0.817
 4581SOL     OW14641   3.284   4.889   3.050
 4581SOL    HW114642   3.357   4.822   3.055
 4581SOL    HW214643   3.323   4.980   3.033
 4582SOL     OW14644   4.969   0.069   3.562
 4582SOL    HW114645   5.019   0.110   3.639
 4582SOL    HW214646   4.921   7.011   3.593
 4583SOL     OW14647   2.780   1.908   5.088
 4583SOL    HW114648   2.796   1.896   5.186
 4583SOL    HW214649   2.807   1.824   5.040
 4584SOL     OW14650   6.840   5.890   6.068
 4584SOL    HW114651   6.869   5.879   5.973
 4584SOL    HW214652   6.920   5.885   6.128
 4585SOL     OW14653   2.910   6.397   3.069
 4585SOL    HW114654   2.951   6.456   3.139
 4585SOL    HW214655   2.815   6.377   3.094
 4586SOL     OW14656   3.223   5.538   1.794
 4586SOL    HW114657   3.133   5.494   1.803
 4586SOL    HW214658   3.284   5.504   1.865
 4587SOL     OW14659   3.985   3.255   1.401
 4587SOL    HW114660   3.972   3.354   1.399
 4587SOL    HW214661   4.039   3.230   1.481
 4588SOL     OW14662   3.868   3.918   4.928
 4588SOL    HW114663   3.770   3.918   4.947
 4588SOL    HW214664   3.901   3.824   4.921
 4589SOL     OW14665   6.382   2.210   2.886
 4589SOL    HW114666   6.298   2.257   2.860
 4589SOL    HW214667   6.434   2.268   2.949
 4590SOL     OW14668   3.880   5.405   2.714
 4590SOL    HW114669   3.818   5.350   2.657
 4590SOL    HW214670   3.955   5.348   2.745
 4591SOL     OW14671   6.315   5.651   5.803
 4591SOL    HW114672   6.403   5.683   5.839
 4591SOL    HW214673   6.267   5.601   5.875
 4592SOL     OW14674   4.125   2.796   0.614
 4592SOL    HW114675   4.059   2.871   0.622
 4592SOL    HW214676   4.172   2.802   0.526
 4593SOL     OW14677   3.941   5.567   2.962
 4593SOL    HW114678   3.923   5.507   2.884
 4593SOL    HW214679   3.991   5.516   3.032
 4594SOL     OW14680   3.384   1.661   1.905
 4594SOL    HW114681   3.416   1.674   1.998
 4594SOL    HW214682   3.318   1.585   1.903
 4595SOL     OW14683   3.642   3.071   6.241
 4595SOL    HW114684   3.702   2.997   6.272
 4595SOL    HW214685   3.622   3.059   6.143
 4596SOL     OW14686   6.127   6.269   2.562
 4596SOL    HW114687   6.111   6.174   2.538
 4596SOL    HW214688   6.099   6.328   2.487
 4597SOL     OW14689   5.139   4.789   6.307
 4597SOL    HW114690   5.225   4.754   6.344
 4597SOL    HW214691   5.154   4.823   6.214
 4598SOL     OW14692   2.018   5.156   6.704
 4598SOL    HW114693   2.009   5.225   6.776
 4598SOL    HW214694   1.976   5.070   6.734
 4599SOL     OW14695   1.467   4.273   1.489
 4599SOL    HW114696   1.554   4.259   1.442
 4599SOL    HW214697   1.396   4.218   1.444
 4600SOL     OW14698   3.132   5.565   6.589
 4600SOL    HW114699   3.113   5.580   6.686
 4600SOL    HW214700   3.228   5.541   6.577
 4601SOL     OW14701   1.857   1.177   5.207
 4601SOL    HW114702   1.854   1.100   5.271
 4601SOL    HW214703   1.918   1.248   5.243
 4602SOL     OW14704   1.664   6.920   1.530
 4602SOL    HW114705   1.742   6.945   1.588
 4602SOL    HW214706   1.676   6.959   1.439
 4603SOL     OW14707   3.281   6.510   2.000
 4603SOL    HW114708   3.343   6.440   1.965
 4603SOL    HW214709   3.286   6.512   2.100
 4604SOL     OW14710   4.136   0.271   2.257
 4604SOL    HW114711   4.108   0.319   2.174
 4604SOL    HW214712   4.228   0.301   2.284
 4605SOL     OW14713   4.676   0.765   4.202
 4605SOL    HW114714   4.584   0.730   4.186
 4605SOL    HW214715   4.732   0.752   4.120
 4606SOL     OW14716   6.806   6.618   4.351
 4606SOL    HW114717   6.904   6.628   4.334
 4606SOL    HW214718   6.791   6.556   4.428
 4607SOL     OW14719   2.695   1.940   1.187
 4607SOL    HW114720   2.791   1.959   1.209
 4607SOL    HW214721   2.643   2.025   1.191
 4608SOL     OW14722   1.461   4.950   5.075
 4608SOL    HW114723   1.513   4.893   5.010
 4608SOL    HW214724   1.512   5.033   5.093
 4609SOL     OW14725   4.284   5.880   6.890
 4609SOL    HW114726   4.363   5.824   6.912
 4609SOL    HW214727   4.301   5.974   6.920
 4610SOL     OW14728   6.707   2.777   7.020
 4610SOL    HW114729   6.753   2.854   6.977
 4610SOL    HW214730   6.743   2.691   6.983
 4611SOL     OW14731   0.313   3.812   7.022
 4611SOL    HW114732   0.383   3.759   6.974
 4611SOL    HW214733   0.265   3.752   0.062
 4612SOL     OW14734   1.862   5.955   6.889
 4612SOL    HW114735   1.789   6.004   6.937
 4612SOL    HW214736   1.914   6.020   6.833
 4613SOL     OW14737   2.727   5.611   2.957
 4613SOL    HW114738   2.663   5.680   2.923
 4613SOL    HW214739   2.819   5.632   2.923
 4614SOL     OW14740   1.928   5.780   0.250
 4614SOL    HW114741   1.834   5.814   0.246
 4614SOL    HW214742   1.933   5.704   0.315
 4615SOL     OW14743   1.332   1.742   6.997
 4615SOL    HW114744   1.274   1.820   7.022
 4615SOL    HW214745   1.302   1.705   6.908
 4616SOL     OW14746   6.136   0.138   6.486
 4616SOL    HW114747   6.226   0.148   6.528
 4616SOL    HW214748   6.073   0.204   6.526
 4617SOL     OW14749   0.823   2.440   2.858
 4617SOL    HW114750   0.775   2.408   2.940
 4617SOL    HW214751   0.761   2.496   2.803
 4618SOL     OW14752   0.960   2.642   5.728
 4618SOL    HW114753   0.878   2.635   5.785
 4618SOL    HW214754   1.024   2.570   5.754
 4619SOL     OW14755   4.350   0.437   3.728
 4619SOL    HW114756   4.358   0.396   3.819
 4619SOL    HW214757   4.312   0.369   3.665
 4620SOL     OW14758   3.645   4.598   6.874
 4620SOL    HW114759   3.568   4.615   6.935
 4620SOL    HW214760   3.684   4.508   6.893
 4621SOL     OW14761   6.644   1.689   4.695
 4621SOL    HW114762   6.562   1.732   4.657
 4621SOL    HW214763   6.693   1.755   4.753
 4622SOL     OW14764   1.544   3.163   0.848
 4622SOL    HW114765   1.479   3.099   0.892
 4622SOL    HW214766   1.499   3.251   0.835
 4623SOL     OW14767   0.059   4.953   0.830
 4623SOL    HW114768   0.040   5.052   0.826
 4623SOL    HW214769   0.039   4.912   0.741
 4624SOL     OW14770   4.561   1.023   3.645
 4624SOL    HW114771   4.519   1.114   3.650
 4624SOL    HW214772   4.562   0.981   3.735
 4625SOL     OW14773   1.344   4.404   0.067
 4625SOL    HW114774   1.353   4.477   0.135
 4625SOL    HW214775   1.323   4.444   7.002
 4626SOL     OW14776   6.353   4.707   1.845
 4626SOL    HW114777   6.372   4.804   1.830
 4626SOL    HW214778   6.273   4.680   1.792
 4627SOL     OW14779   3.724   6.191   5.628
 4627SOL    HW114780   3.760   6.152   5.714
 4627SOL    HW214781   3.682   6.118   5.574
 4628SOL     OW14782   6.136   4.988   2.200
 4628SOL    HW114783   6.103   4.901   2.238
 4628SOL    HW214784   6.218   5.017   2.249
 4629SOL     OW14785   2.094   4.997   5.884
 4629SOL    HW114786   2.026   4.923   5.881
 4629SOL    HW214787   2.182   4.962   5.852
 4630SOL     OW14788   2.609   5.929   3.305
 4630SOL    HW114789   2.637   5.937   3.400
 4630SOL    HW214790   2.578   5.836   3.287
 4631SOL     OW14791   2.179   6.301   3.575
 4631SOL    HW114792   2.114   6.377   3.574
 4631SOL    HW214793   2.130   6.214   3.566
 4632SOL     OW14794   4.567   5.218   4.402
 4632SOL    HW114795   4.492   5.221   4.335
 4632SOL    HW214796   4.591   5.311   4.430
 4633SOL     OW14797   6.419   1.941   5.101
 4633SOL    HW114798   6.517   1.943   5.120
 4633SOL    HW214799   6.400   1.881   5.024
 4634SOL     OW14800   2.852   4.652   0.474
 4634SOL    HW114801   2.865   4.560   0.436
 4634SOL    HW214802   2.790   4.703   0.415
 4635SOL     OW14803   5.827   3.151   2.677
 4635SOL    HW114804   5.855   3.128   2.584
 4635SOL    HW214805   5.859   3.243   2.700
 4636SOL     OW14806   3.097   5.333   0.396
 4636SOL    HW114807   3.008   5.352   0.354
 4636SOL    HW214808   3.090   5.253   0.455
 4637SOL     OW14809   1.082   0.508   5.879
 4637SOL    HW114810   1.052   0.495   5.784
 4637SOL    HW214811   1.097   0.418   5.921
 4638SOL     OW14812   4.037   3.160   6.330
 4638SOL    HW114813   3.983   3.210   6.262
 4638SOL    HW214814   3.978   3.132   6.405
 4639SOL     OW14815   0.708   4.139   5.814
 4639SOL    HW114816   0.785   4.095   5.861
 4639SOL    HW214817   0.646   4.069   5.779
 4640SOL     OW14818   4.834   4.668   4.131
 4640SOL    HW114819   4.758   4.606   4.150
 4640SOL    HW214820   4.826   4.748   4.190
 4641SOL     OW14821   2.638   4.913   4.244
 4641SOL    HW114822   2.652   4.822   4.283
 4641SOL    HW214823   2.540   4.931   4.235
 4642SOL     OW14824   6.373   5.311   4.639
 4642SOL    HW114825   6.338   5.297   4.547
 4642SOL    HW214826   6.301   5.292   4.706
 4643SOL     OW14827   4.060   2.355   1.051
 4643SOL    HW114828   4.008   2.429   1.094
 4643SOL    HW214829   4.069   2.372   0.953
 4644SOL     OW14830   1.545   5.709   4.717
 4644SOL    HW114831   1.542   5.795   4.768
 4644SOL    HW214832   1.619   5.652   4.752
 4645SOL     OW14833   2.096   6.425   4.322
 4645SOL    HW114834   2.052   6.509   4.290
 4645SOL    HW214835   2.140   6.441   4.410
 4646SOL     OW14836   2.811   0.227   2.155
 4646SOL    HW114837   2.805   0.321   2.120
 4646SOL    HW214838   2.832   0.229   2.252
 4647SOL     OW14839   0.687   6.866   3.398
 4647SOL    HW114840   0.708   6.813   3.316
 4647SOL    HW214841   0.770   6.906   3.435
 4648SOL     OW14842   3.046   6.515   2.809
 4648SOL    HW114843   2.976   6.586   2.802
 4648SOL    HW214844   3.041   6.471   2.899
 4649SOL     OW14845   5.224   0.857   5.591
 4649SOL    HW114846   5.219   0.762   5.622
 4649SOL    HW214847   5.133   0.890   5.568
 4650SOL     OW14848   4.309   6.200   3.387
 4650SOL    HW114849   4.326   6.245   3.299
 4650SOL    HW214850   4.374   6.233   3.455
 4651SOL     OW14851   0.042   2.193   1.987
 4651SOL    HW114852   0.114   2.140   1.944
 4651SOL    HW214853   0.003   2.257   1.921
 4652SOL     OW14854   0.637   0.476   3.782
 4652SOL    HW114855   0.589   0.531   3.850
 4652SOL    HW214856   0.588   0.480   3.695
 4653SOL     OW14857   6.812   6.388   0.370
 4653SOL    HW114858   6.727   6.433   0.398
 4653SOL    HW214859   6.796   6.290   0.359
 4654SOL     OW14860   0.815   6.884   0.460
 4654SOL    HW114861   0.829   6.792   0.495
 4654SOL    HW214862   0.756   6.881   0.380
 4655SOL     OW14863   0.615   4.469   3.074
 4655SOL    HW114864   0.564   4.540   3.123
 4655SOL    HW214865   0.553   4.394   3.051
 4656SOL     OW14866   0.854   0.750   2.924
 4656SOL    HW114867   0.798   0.826   2.955
 4656SOL    HW214868   0.911   0.717   3.000
 4657SOL     OW14869   4.546   6.815   1.330
 4657SOL    HW114870   4.643   6.796   1.345
 4657SOL    HW214871   4.502   6.833   1.418
 4658SOL     OW14872   4.314   0.222   3.019
 4658SOL    HW114873   4.347   0.130   3.042
 4658SOL    HW214874   4.392   0.283   3.005
 4659SOL     OW14875   1.414   3.097   5.185
 4659SOL    HW114876   1.392   3.178   5.130
 4659SOL    HW214877   1.436   3.021   5.124
 4660SOL     OW14878   0.420   1.572   5.295
 4660SOL    HW114879   0.377   1.482   5.301
 4660SOL    HW214880   0.472   1.589   5.379
 4661SOL     OW14881   3.611   4.116   4.571
 4661SOL    HW114882   3.535   4.162   4.617
 4661SOL    HW214883   3.693   4.122   4.627
 4662SOL     OW14884   5.200   0.217   5.410
 4662SOL    HW114885   5.273   0.154   5.381
 4662SOL    HW214886   5.116   0.165   5.427
 4663SOL     OW14887   6.983   1.802   2.133
 4663SOL    HW114888   6.908   1.736   2.141
 4663SOL    HW214889   0.044   1.753   2.113
 4664SOL     OW14890   2.171   2.923   6.454
 4664SOL    HW114891   2.195   3.008   6.408
 4664SOL    HW214892   2.228   2.849   6.419
 4665SOL     OW14893   5.217   6.830   6.133
 4665SOL    HW114894   5.232   6.772   6.213
 4665SOL    HW214895   5.202   6.924   6.162
 4666SOL     OW14896   2.274   2.129   6.929
 4666SOL    HW114897   2.176   2.142   6.944
 4666SOL    HW214898   2.324   2.209   6.962
 4667SOL     OW14899   6.506   5.098   6.405
 4667SOL    HW114900   6.509   5.092   6.504
 4667SOL    HW214901   6.552   5.019   6.365
 4668SOL     OW14902   6.725   1.712   4.410
 4668SOL    HW114903   6.720   1.682   4.505
 4668SOL    HW214904   6.779   1.796   4.404
 4669SOL     OW14905   1.670   5.984   0.511
 4669SOL    HW114906   1.664   5.966   0.412
 4669SOL    HW214907   1.584   5.957   0.555
 4670SOL     OW14908   2.828   1.242   5.030
 4670SOL    HW114909   2.862   1.327   5.068
 4670SOL    HW214910   2.764   1.262   4.955
 4671SOL     OW14911   6.059   3.377   1.587
 4671SOL    HW114912   5.987   3.325   1.541
 4671SOL    HW214913   6.147   3.332   1.573
 4672SOL     OW14914   2.017   4.521   6.384
 4672SOL    HW114915   1.991   4.435   6.429
 4672SOL    HW214916   1.944   4.550   6.323
 4673SOL     OW14917   3.818   0.263   1.751
 4673SOL    HW114918   3.909   0.267   1.709
 4673SOL    HW214919   3.773   0.177   1.726
 4674SOL     OW14920   5.140   5.476   5.363
 4674SOL    HW114921   5.098   5.558   5.325
 4674SOL    HW214922   5.094   5.452   5.449
 4675SOL     OW14923   1.313   4.108   1.285
 4675SOL    HW114924   1.372   4.135   1.210
 4675SOL    HW214925   1.301   4.008   1.284
 4676SOL     OW14926   1.757   6.170   3.575
 4676SOL    HW114927   1.843   6.166   3.525
 4676SOL    HW214928   1.694   6.232   3.529
 4677SOL     OW14929   1.481   1.665   0.369
 4677SOL    HW114930   1.511   1.721   0.446
 4677SOL    HW214931   1.488   1.568   0.394
 4678SOL     OW14932   1.859   4.060   2.725
 4678SOL    HW114933   1.884   4.009   2.808
 4678SOL    HW214934   1.900   4.016   2.645
 4679SOL     OW14935   5.410   6.148   1.848
 4679SOL    HW114936   5.487   6.087   1.828
 4679SOL    HW214937   5.414   6.227   1.787
 4680SOL     OW14938   2.964   1.901   1.588
 4680SOL    HW114939   2.952   1.802   1.578
 4680SOL    HW214940   3.033   1.919   1.659
 4681SOL     OW14941   5.119   4.575   0.645
 4681SOL    HW114942   5.024   4.607   0.636
 4681SOL    HW214943   5.147   4.581   0.740
 4682SOL     OW14944   4.621   3.334   6.530
 4682SOL    HW114945   4.561   3.254   6.541
 4682SOL    HW214946   4.715   3.308   6.551
 4683SOL     OW14947   6.061   4.228   3.565
 4683SOL    HW114948   6.145   4.281   3.563
 4683SOL    HW214949   6.082   4.132   3.543
 4684SOL     OW14950   4.128   6.144   0.496
 4684SOL    HW114951   4.046   6.144   0.554
 4684SOL    HW214952   4.177   6.231   0.509
 4685SOL     OW14953   2.492   3.978   6.149
 4685SOL    HW114954   2.532   3.971   6.058
 4685SOL    HW214955   2.437   4.061   6.156
 4686SOL     OW14956   2.845   6.080   0.889
 4686SOL    HW114957   2.813   6.088   0.795
 4686SOL    HW214958   2.874   5.987   0.907
 4687SOL     OW14959   3.101   1.543   3.228
 4687SOL    HW114960   3.124   1.452   3.194
 4687SOL    HW214961   3.183   1.599   3.232
 4688SOL     OW14962   5.625   2.338   5.884
 4688SOL    HW114963   5.692   2.293   5.826
 4688SOL    HW214964   5.624   2.436   5.864
 4689SOL     OW14965   5.205   0.563   0.959
 4689SOL    HW114966   5.238   0.503   0.886
 4689SOL    HW214967   5.257   0.649   0.958
 4690SOL     OW14968   2.148   1.555   0.626
 4690SOL    HW114969   2.107   1.646   0.621
 4690SOL    HW214970   2.076   1.487   0.636
 4691SOL     OW14971   5.150   4.503   0.179
 4691SOL    HW114972   5.151   4.425   0.117
 4691SOL    HW214973   5.056   4.525   0.205
 4692SOL     OW14974   6.791   4.307   2.658
 4692SOL    HW114975   6.699   4.332   2.629
 4692SOL    HW214976   6.786   4.260   2.747
 4693SOL     OW14977   1.767   0.898   3.972
 4693SOL    HW114978   1.774   0.879   3.874
 4693SOL    HW214979   1.670   0.906   3.997
 4694SOL     OW14980   1.899   1.327   0.691
 4694SOL    HW114981   1.936   1.303   0.781
 4694SOL    HW214982   1.954   1.284   0.620
 4695SOL     OW14983   1.538   5.979   1.157
 4695SOL    HW114984   1.624   6.022   1.132
 4695SOL    HW214985   1.487   5.956   1.074
 4696SOL     OW14986   1.235   5.356   6.066
 4696SOL    HW114987   1.327   5.353   6.106
 4696SOL    HW214988   1.168   5.378   6.137
 4697SOL     OW14989   1.875   3.925   1.613
 4697SOL    HW114990   1.865   3.890   1.520
 4697SOL    HW214991   1.972   3.937   1.634
 4698SOL     OW14992   4.665   0.250   3.167
 4698SOL    HW114993   4.708   0.272   3.255
 4698SOL    HW214994   4.597   0.178   3.180
 4699SOL     OW14995   0.410   0.734   1.942
 4699SOL    HW114996   0.510   0.746   1.941
 4699SOL    HW214997   0.388   0.643   1.907
 4700SOL     OW14998   6.756   2.144   2.549
 4700SOL    HW114999   6.785   2.096   2.466
 4700SOL    HW215000   6.814   2.117   2.625
 4701SOL     OW15001   3.006   1.743   1.987
 4701SOL    HW115002   2.962   1.691   1.913
 4701SOL    HW215003   3.027   1.835   1.955
 4702SOL     OW15004   4.791   5.133   6.947
 4702SOL    HW115005   4.750   5.042   6.941
 4702SOL    HW215006   4.886   5.125   6.978
 4703SOL     OW15007   0.830   4.909   2.694
 4703SOL    HW115008   0.890   4.906   2.614
 4703SOL    HW215009   0.749   4.853   2.677
 4704SOL     OW15010   0.106   6.101   5.878
 4704SOL    HW115011   0.052   6.174   5.838
 4704SOL    HW215012   0.182   6.078   5.817
 4705SOL     OW15013   2.987   2.448   1.129
 4705SOL    HW115014   2.978   2.537   1.172
 4705SOL    HW215015   2.900   2.424   1.085
 4706SOL     OW15016   1.152   0.004   0.854
 4706SOL    HW115017   1.122   6.976   0.774
 4706SOL    HW215018   1.231   0.061   0.829
 4707SOL     OW15019   1.657   6.723   1.199
 4707SOL    HW115020   1.643   6.660   1.276
 4707SOL    HW215021   1.569   6.750   1.161
 4708SOL     OW15022   1.400   1.888   5.202
 4708SOL    HW115023   1.306   1.870   5.173
 4708SOL    HW215024   1.423   1.830   5.280
 4709SOL     OW15025   4.949   5.009   4.792
 4709SOL    HW115026   4.889   5.076   4.835
 4709SOL    HW215027   5.005   5.055   4.723
 4710SOL     OW15028   5.470   6.768   4.584
 4710SOL    HW115029   5.486   6.866   4.569
 4710SOL    HW215030   5.423   6.730   4.504
 4711SOL     OW15031   6.257   2.831   3.404
 4711SOL    HW115032   6.174   2.853   3.455
 4711SOL    HW215033   6.244   2.745   3.354
 4712SOL     OW15034   4.564   4.500   5.645
 4712SOL    HW115035   4.655   4.459   5.641
 4712SOL    HW215036   4.511   4.456   5.718
 4713SOL     OW15037   5.464   4.612   1.366
 4713SOL    HW115038   5.435   4.530   1.318
 4713SOL    HW215039   5.400   4.633   1.440
 4714SOL     OW15040   6.570   1.795   6.574
 4714SOL    HW115041   6.487   1.811   6.627
 4714SOL    HW215042   6.561   1.837   6.484
 4715SOL     OW15043   6.550   1.722   1.697
 4715SOL    HW115044   6.467   1.759   1.738
 4715SOL    HW215045   6.526   1.655   1.627
 4716SOL     OW15046   4.085   5.545   5.353
 4716SOL    HW115047   4.130   5.464   5.390
 4716SOL    HW215048   4.052   5.602   5.428
 4717SOL     OW15049   2.843   5.441   5.452
 4717SOL    HW115050   2.911   5.390   5.399
 4717SOL    HW215051   2.777   5.483   5.390
 4718SOL     OW15052   5.427   3.127   0.701
 4718SOL    HW115053   5.503   3.124   0.766
 4718SOL    HW215054   5.463   3.133   0.608
 4719SOL     OW15055   5.813   3.171   3.318
 4719SOL    HW115056   5.737   3.222   3.358
 4719SOL    HW215057   5.778   3.111   3.246
 4720SOL     OW15058   3.212   4.918   0.318
 4720SOL    HW115059   3.231   4.940   0.222
 4720SOL    HW215060   3.281   4.959   0.377
 4721SOL     OW15061   6.252   3.641   1.871
 4721SOL    HW115062   6.155   3.618   1.881
 4721SOL    HW215063   6.260   3.731   1.829
 4722SOL     OW15064   1.089   4.751   6.771
 4722SOL    HW115065   1.040   4.707   6.846
 4722SOL    HW215066   1.078   4.696   6.688
 4723SOL     OW15067   3.644   5.010   5.997
 4723SOL    HW115068   3.635   5.107   6.021
 4723SOL    HW215069   3.640   4.955   6.081
 4724SOL     OW15070   0.238   6.596   3.964
 4724SOL    HW115071   0.165   6.549   4.012
 4724SOL    HW215072   0.202   6.634   3.878
 4725SOL     OW15073   5.509   5.150   0.644
 4725SOL    HW115074   5.499   5.051   0.629
 4725SOL    HW215075   5.556   5.166   0.730
 4726SOL     OW15076   1.609   2.967   5.559
 4726SOL    HW115077   1.603   3.052   5.507
 4726SOL    HW215078   1.672   2.979   5.636
 4727SOL     OW15079   1.018   5.488   0.638
 4727SOL    HW115080   0.951   5.550   0.597
 4727SOL    HW215081   1.092   5.542   0.678
 4728SOL     OW15082   6.257   1.078   3.272
 4728SOL    HW115083   6.302   1.113   3.355
 4728SOL    HW215084   6.309   1.105   3.192
 4729SOL     OW15085   5.071   0.516   0.121
 4729SOL    HW115086   5.088   0.580   0.196
 4729SOL    HW215087   5.142   0.446   0.119
 4730SOL     OW15088   3.757   0.243   4.850
 4730SOL    HW115089   3.739   0.330   4.804
 4730SOL    HW215090   3.830   0.256   4.917
 4731SOL     OW15091   2.576   0.597   0.532
 4731SOL    HW115092   2.578   0.502   0.503
 4731SOL    HW215093   2.615   0.606   0.623
 4732SOL     OW15094   0.699   3.535   5.272
 4732SOL    HW115095   0.719   3.447   5.316
 4732SOL    HW215096   0.738   3.536   5.180
 4733SOL     OW15097   2.265   4.163   3.223
 4733SOL    HW115098   2.347   4.198   3.269
 4733SOL    HW215099   2.273   4.179   3.125
 4734SOL     OW15100   5.182   3.277   5.772
 4734SOL    HW115101   5.198   3.180   5.793
 4734SOL    HW215102   5.086   3.299   5.790
 4735SOL     OW15103   0.532   6.221   4.142
 4735SOL    HW115104   0.614   6.169   4.165
 4735SOL    HW215105   0.538   6.254   4.048
 4736SOL     OW15106   6.964   2.100   3.524
 4736SOL    HW115107   6.907   2.091   3.606
 4736SOL    HW215108   6.953   2.018   3.467
 4737SOL     OW15109   1.840   4.952   0.939
 4737SOL    HW115110   1.882   4.983   1.023
 4737SOL    HW215111   1.838   4.852   0.938
 4738SOL     OW15112   2.676   0.160   3.991
 4738SOL    HW115113   2.766   0.198   4.014
 4738SOL    HW215114   2.655   0.086   4.055
 4739SOL     OW15115   6.332   2.877   5.133
 4739SOL    HW115116   6.248   2.870   5.186
 4739SOL    HW215117   6.332   2.965   5.084
 4740SOL     OW15118   0.780   1.053   1.339
 4740SOL    HW115119   0.775   1.151   1.325
 4740SOL    HW215120   0.687   1.016   1.353
 4741SOL     OW15121   4.241   4.545   0.790
 4741SOL    HW115122   4.265   4.568   0.884
 4741SOL    HW215123   4.142   4.554   0.778
 4742SOL     OW15124   2.614   5.677   1.595
 4742SOL    HW115125   2.701   5.654   1.549
 4742SOL    HW215126   2.627   5.673   1.694
 4743SOL     OW15127   2.598   1.331   5.890
 4743SOL    HW115128   2.604   1.363   5.984
 4743SOL    HW215129   2.675   1.270   5.871
 4744SOL     OW15130   1.708   3.424   5.203
 4744SOL    HW115131   1.782   3.357   5.203
 4744SOL    HW215132   1.693   3.457   5.110
 4745SOL     OW15133   3.320   5.394   5.420
 4745SOL    HW115134   3.405   5.435   5.454
 4745SOL    HW215135   3.308   5.304   5.461
 4746SOL     OW15136   5.916   5.730   0.428
 4746SOL    HW115137   5.897   5.730   0.527
 4746SOL    HW215138   5.987   5.798   0.407
 4747SOL     OW15139   0.060   2.815   0.173
 4747SOL    HW115140   0.046   2.879   0.097
 4747SOL    HW215141   0.041   2.861   0.260
 4748SOL     OW15142   1.039   1.065   1.396
 4748SOL    HW115143   0.940   1.054   1.395
 4748SOL    HW215144   1.072   1.062   1.491
 4749SOL     OW15145   2.176   6.488   0.221
 4749SOL    HW115146   2.248   6.486   0.152
 4749SOL    HW215147   2.216   6.488   0.312
 4750SOL     OW15148   0.275   1.538   4.045
 4750SOL    HW115149   0.263   1.438   4.042
 4750SOL    HW215150   0.205   1.577   4.104
 4751SOL     OW15151   1.670   4.376   0.040
 4751SOL    HW115152   1.736   4.450   0.027
 4751SOL    HW215153   1.578   4.413   0.042
 4752SOL     OW15154   2.326   6.226   1.092
 4752SOL    HW115155   2.283   6.312   1.064
 4752SOL    HW215156   2.295   6.201   1.183
 4753SOL     OW15157   5.568   0.047   5.145
 4753SOL    HW115158   5.543   6.975   5.158
 4753SOL    HW215159   5.553   0.073   5.049
 4754SOL     OW15160   6.455   0.141   6.343
 4754SOL    HW115161   6.550   0.129   6.314
 4754SOL    HW215162   6.394   0.120   6.267
 4755SOL     OW15163   2.159   1.091   6.238
 4755SOL    HW115164   2.204   1.177   6.260
 4755SOL    HW215165   2.224   1.028   6.195
 4756SOL     OW15166   5.309   2.116   1.701
 4756SOL    HW115167   5.394   2.167   1.688
 4756SOL    HW215168   5.231   2.178   1.698
 4757SOL     OW15169   2.447   2.610   2.158
 4757SOL    HW115170   2.495   2.525   2.142
 4757SOL    HW215171   2.513   2.683   2.177
 4758SOL     OW15172   4.365   5.647   5.603
 4758SOL    HW115173   4.369   5.670   5.506
 4758SOL    HW215174   4.328   5.555   5.614
 4759SOL     OW15175   5.348   5.831   4.886
 4759SOL    HW115176   5.414   5.832   4.811
 4759SOL    HW215177   5.351   5.919   4.934
 4760SOL     OW15178   1.926   1.072   1.638
 4760SOL    HW115179   1.996   1.031   1.580
 4760SOL    HW215180   1.884   1.002   1.695
 4761SOL     OW15181   6.507   0.268   6.861
 4761SOL    HW115182   6.585   0.264   6.924
 4761SOL    HW215183   6.464   0.358   6.868
 4762SOL     OW15184   2.468   4.766   2.160
 4762SOL    HW115185   2.386   4.748   2.214
 4762SOL    HW215186   2.504   4.679   2.126
 4763SOL     OW15187   6.389   5.947   2.913
 4763SOL    HW115188   6.461   5.947   2.982
 4763SOL    HW215189   6.314   6.006   2.943
 4764SOL     OW15190   4.572   3.842   5.317
 4764SOL    HW115191   4.620   3.758   5.293
 4764SOL    HW215192   4.612   3.919   5.266
 4765SOL     OW15193   4.610   6.118   5.102
 4765SOL    HW115194   4.687   6.179   5.082
 4765SOL    HW215195   4.551   6.161   5.170
 4766SOL     OW15196   3.358   0.972   3.363
 4766SOL    HW115197   3.403   1.060   3.377
 4766SOL    HW215198   3.274   0.969   3.418
 4767SOL     OW15199   4.182   6.633   1.037
 4767SOL    HW115200   4.138   6.683   1.112
 4767SOL    HW215201   4.194   6.694   0.959
 4768SOL     OW15202   4.893   1.428   4.753
 4768SOL    HW115203   4.897   1.375   4.669
 4768SOL    HW215204   4.907   1.368   4.831
 4769SOL     OW15205   3.925   5.621   1.509
 4769SOL    HW115206   3.932   5.719   1.489
 4769SOL    HW215207   3.829   5.593   1.504
 4770SOL     OW15208   2.631   0.502   2.907
 4770SOL    HW115209   2.660   0.516   3.002
 4770SOL    HW215210   2.678   0.568   2.849
 4771SOL     OW15211   3.286   5.212   6.109
 4771SOL    HW115212   3.223   5.144   6.145
 4771SOL    HW215213   3.234   5.287   6.068
 4772SOL     OW15214   2.767   0.019   1.147
 4772SOL    HW115215   2.758   6.947   1.121
 4772SOL    HW215216   2.752   0.077   1.066
 4773SOL     OW15217   0.086   5.256   4.173
 4773SOL    HW115218   0.009   5.305   4.212
 4773SOL    HW215219   0.052   5.181   4.116
 4774SOL     OW15220   0.906   3.222   2.220
 4774SOL    HW115221   0.842   3.299   2.224
 4774SOL    HW215222   0.988   3.244   2.273
 4775SOL     OW15223   4.939   0.655   2.545
 4775SOL    HW115224   4.915   0.626   2.638
 4775SOL    HW215225   4.976   0.577   2.495
 4776SOL     OW15226   2.499   5.880   2.515
 4776SOL    HW115227   2.420   5.857   2.459
 4776SOL    HW215228   2.477   5.958   2.573
 4777SOL     OW15229   2.397   4.609   1.087
 4777SOL    HW115230   2.376   4.514   1.110
 4777SOL    HW215231   2.320   4.667   1.115
 4778SOL     OW15232   5.233   3.119   1.853
 4778SOL    HW115233   5.289   3.058   1.797
 4778SOL    HW215234   5.143   3.079   1.867
 4779SOL     OW15235   6.464   0.076   2.927
 4779SOL    HW115236   6.457   7.000   2.925
 4779SOL    HW215237   6.422   0.109   3.012
 4780SOL     OW15238   0.852   0.907   5.976
 4780SOL    HW115239   0.944   0.874   5.956
 4780SOL    HW215240   0.801   0.836   6.025
 4781SOL     OW15241   2.189   6.091   1.317
 4781SOL    HW115242   2.176   6.071   1.414
 4781SOL    HW215243   2.243   6.018   1.276
 4782SOL     OW15244   5.054   0.051   0.061
 4782SOL    HW115245   4.999   0.129   0.029
 4782SOL    HW215246   5.081   7.019   7.006
 4783SOL     OW15247   4.428   4.474   0.575
 4783SOL    HW115248   4.351   4.482   0.638
 4783SOL    HW215249   4.394   4.452   0.483
 4784SOL     OW15250   6.142   4.617   5.660
 4784SOL    HW115251   6.110   4.701   5.703
 4784SOL    HW215252   6.238   4.603   5.683
 4785SOL     OW15253   6.712   6.591   0.892
 4785SOL    HW115254   6.734   6.501   0.931
 4785SOL    HW215255   6.748   6.596   0.799
 4786SOL     OW15256   1.960   2.783   2.574
 4786SOL    HW115257   1.961   2.696   2.624
 4786SOL    HW215258   2.054   2.808   2.549
 4787SOL     OW15259   3.000   2.222   3.320
 4787SOL    HW115260   3.037   2.238   3.229
 4787SOL    HW215261   2.998   2.124   3.340
 4788SOL     OW15262   1.360   5.817   5.914
 4788SOL    HW115263   1.442   5.763   5.931
 4788SOL    HW215264   1.387   5.906   5.875
 4789SOL     OW15265   4.959   0.653   0.430
 4789SOL    HW115266   4.864   0.623   0.438
 4789SOL    HW215267   5.018   0.587   0.477
 4790SOL     OW15268   5.260   2.839   6.337
 4790SOL    HW115269   5.239   2.916   6.398
 4790SOL    HW215270   5.302   2.873   6.253
 4791SOL     OW15271   5.930   0.415   2.087
 4791SOL    HW115272   5.919   0.324   2.046
 4791SOL    HW215273   5.921   0.485   2.016
 4792SOL     OW15274   2.142   3.349   2.627
 4792SOL    HW115275   2.189   3.325   2.712
 4792SOL    HW215276   2.153   3.276   2.560
 4793SOL     OW15277   1.433   0.459   5.786
 4793SOL    HW115278   1.530   0.454   5.763
 4793SOL    HW215279   1.409   0.382   5.846
 4794SOL     OW15280   3.682   6.790   2.679
 4794SOL    HW115281   3.638   6.770   2.766
 4794SOL    HW215282   3.612   6.806   2.609
 4795SOL     OW15283   6.758   3.105   4.561
 4795SOL    HW115284   6.679   3.101   4.622
 4795SOL    HW215285   6.728   3.089   4.467
 4796SOL     OW15286   4.933   2.784   0.289
 4796SOL    HW115287   4.951   2.859   0.352
 4796SOL    HW215288   4.846   2.740   0.313
 4797SOL     OW15289   1.543   5.649   6.165
 4797SOL    HW115290   1.641   5.652   6.146
 4797SOL    HW215291   1.511   5.742   6.185
 4798SOL     OW15292   0.125   4.531   5.499
 4798SOL    HW115293   0.106   4.609   5.440
 4798SOL    HW215294   0.181   4.560   5.576
 4799SOL     OW15295   5.588   1.378   4.828
 4799SOL    HW115296   5.548   1.432   4.754
 4799SOL    HW215297   5.688   1.378   4.820
 4800SOL     OW15298   2.905   2.880   6.357
 4800SOL    HW115299   2.834   2.929   6.307
 4800SOL    HW215300   2.892   2.895   6.455
 4801SOL     OW15301   1.750   2.160   0.083
 4801SOL    HW115302   1.769   2.158   0.181
 4801SOL    HW215303   1.671   2.102   0.063
 4802SOL     OW15304   1.913   6.793   2.262
 4802SOL    HW115305   1.828   6.777   2.313
 4802SOL    HW215306   1.984   6.823   2.325
 4803SOL     OW15307   0.738   6.896   1.194
 4803SOL    HW115308   0.673   6.833   1.237
 4803SOL    HW215309   0.761   6.969   1.258
 4804SOL     OW15310   4.131   5.922   6.668
 4804SOL    HW115311   4.185   5.882   6.742
 4804SOL    HW215312   4.048   5.964   6.706
 4805SOL     OW15313   6.726   0.157   0.575
 4805SOL    HW115314   6.712   0.175   0.673
 4805SOL    HW215315   6.644   0.183   0.525
 4806SOL     OW15316   0.002   3.821   3.256
 4806SOL    HW115317   0.073   3.766   3.302
 4806SOL    HW215318   6.959   3.851   3.324
 4807SOL     OW15319   0.795   6.013   1.718
 4807SOL    HW115320   0.892   6.007   1.741
 4807SOL    HW215321   0.744   6.046   1.797
 4808SOL     OW15322   5.776   3.405   0.921
 4808SOL    HW115323   5.697   3.385   0.978
 4808SOL    HW215324   5.857   3.414   0.978
 4809SOL     OW15325   3.447   4.587   0.054
 4809SOL    HW115326   3.408   4.542   6.997
 4809SOL    HW215327   3.376   4.594   0.125
 4810SOL     OW15328   0.859   5.222   1.240
 4810SOL    HW115329   0.829   5.315   1.218
 4810SOL    HW215330   0.880   5.216   1.338
 4811SOL     OW15331   2.805   5.110   2.054
 4811SOL    HW115332   2.816   5.205   2.084
 4811SOL    HW215333   2.824   5.049   2.131
 4812SOL     OW15334   6.613   5.381   4.799
 4812SOL    HW115335   6.524   5.361   4.759
 4812SOL    HW215336   6.666   5.296   4.807
 4813SOL     OW15337   5.075   1.509   2.986
 4813SOL    HW115338   5.143   1.574   3.020
 4813SOL    HW215339   4.998   1.504   3.050
 4814SOL     OW15340   6.331   4.808   0.910
 4814SOL    HW115341   6.330   4.721   0.861
 4814SOL    HW215342   6.254   4.812   0.973
 4815SOL     OW15343   5.007   4.933   2.534
 4815SOL    HW115344   5.066   4.870   2.584
 4815SOL    HW215345   5.032   5.027   2.558
 4816SOL     OW15346   5.588   5.273   3.158
 4816SOL    HW115347   5.654   5.278   3.083
 4816SOL    HW215348   5.524   5.197   3.141
 4817SOL     OW15349   0.972   2.063   5.791
 4817SOL    HW115350   0.939   1.970   5.779
 4817SOL    HW215351   1.029   2.069   5.872
 4818SOL     OW15352   0.718   6.682   3.595
 4818SOL    HW115353   0.623   6.670   3.625
 4818SOL    HW215354   0.722   6.752   3.524
 4819SOL     OW15355   1.426   3.322   0.261
 4819SOL    HW115356   1.357   3.394   0.254
 4819SOL    HW215357   1.435   3.276   0.173
 4820SOL     OW15358   6.840   3.007   1.546
 4820SOL    HW115359   6.855   3.065   1.625
 4820SOL    HW215360   6.827   3.063   1.464
 4821SOL     OW15361   0.202   6.324   1.739
 4821SOL    HW115362   0.219   6.398   1.804
 4821SOL    HW215363   0.236   6.238   1.777
 4822SOL     OW15364   1.243   3.813   4.427
 4822SOL    HW115365   1.188   3.754   4.486
 4822SOL    HW215366   1.185   3.853   4.356
 4823SOL     OW15367   1.020   2.294   2.341
 4823SOL    HW115368   1.070   2.342   2.413
 4823SOL    HW215369   1.041   2.338   2.253
 4824SOL     OW15370   5.014   1.149   5.270
 4824SOL    HW115371   4.915   1.163   5.280
 4824SOL    HW215372   5.062   1.230   5.303
 4825SOL     OW15373   1.109   0.591   4.419
 4825SOL    HW115374   1.079   0.519   4.481
 4825SOL    HW215375   1.034   0.656   4.405
 4826SOL     OW15376   4.516   0.190   1.573
 4826SOL    HW115377   4.572   0.206   1.655
 4826SOL    HW215378   4.558   0.236   1.495
 4827SOL     OW15379   6.768   1.799   0.198
 4827SOL    HW115380   6.816   1.882   0.227
 4827SOL    HW215381   6.730   1.812   0.107
 4828SOL     OW15382   4.651   0.028   2.104
 4828SOL    HW115383   4.723   6.990   2.073
 4828SOL    HW215384   4.573   6.999   2.136
 4829SOL     OW15385   4.425   0.099   6.261
 4829SOL    HW115386   4.436   0.180   6.204
 4829SOL    HW215387   4.430   0.125   6.357
 4830SOL     OW15388   4.177   5.609   3.943
 4830SOL    HW115389   4.118   5.639   4.017
 4830SOL    HW215390   4.175   5.676   3.869
 4831SOL     OW15391   3.257   5.634   6.046
 4831SOL    HW115392   3.217   5.673   6.128
 4831SOL    HW215393   3.206   5.665   5.966
 4832SOL     OW15394   3.144   3.691   5.012
 4832SOL    HW115395   3.055   3.736   5.009
 4832SOL    HW215396   3.186   3.694   4.921
 4833SOL     OW15397   5.937   2.368   4.480
 4833SOL    HW115398   6.030   2.348   4.451
 4833SOL    HW215399   5.888   2.282   4.496
 4834SOL     OW15400   2.591   5.315   2.485
 4834SOL    HW115401   2.634   5.248   2.546
 4834SOL    HW215402   2.494   5.322   2.508
 4835SOL     OW15403   6.807   3.703   6.001
 4835SOL    HW115404   6.901   3.726   6.029
 4835SOL    HW215405   6.806   3.610   5.964
 4836SOL     OW15406   4.844   0.762   4.991
 4836SOL    HW115407   4.894   0.676   4.987
 4836SOL    HW215408   4.896   0.829   5.045
 4837SOL     OW15409   6.878   3.328   3.801
 4837SOL    HW115410   6.960   3.325   3.745
 4837SOL    HW215411   6.815   3.255   3.773
 4838SOL     OW15412   1.201   4.594   6.181
 4838SOL    HW115413   1.243   4.506   6.161
 4838SOL    HW215414   1.242   4.664   6.123
 4839SOL     OW15415   1.445   2.553   0.033
 4839SOL    HW115416   1.395   2.639   0.029
 4839SOL    HW215417   1.517   2.559   0.102
 4840SOL     OW15418   4.993   3.973   5.345
 4840SOL    HW115419   4.934   4.054   5.342
 4840SOL    HW215420   4.957   3.908   5.412
 4841SOL     OW15421   2.883   5.288   3.598
 4841SOL    HW115422   2.788   5.264   3.622
 4841SOL    HW215423   2.936   5.298   3.682
 4842SOL     OW15424   2.256   5.236   2.702
 4842SOL    HW115425   2.215   5.291   2.775
 4842SOL    HW215426   2.299   5.155   2.741
 4843SOL     OW15427   0.434   2.946   2.192
 4843SOL    HW115428   0.530   2.933   2.218
 4843SOL    HW215429   0.389   3.003   2.261
 4844SOL     OW15430   1.339   4.983   5.333
 4844SOL    HW115431   1.356   4.978   5.235
 4844SOL    HW215432   1.417   4.944   5.382
 4845SOL     OW15433   4.435   4.232   5.318
 4845SOL    HW115434   4.460   4.312   5.263
 4845SOL    HW215435   4.505   4.216   5.387
 4846SOL     OW15436   0.629   2.695   4.093
 4846SOL    HW115437   0.574   2.617   4.063
 4846SOL    HW215438   0.651   2.752   4.014
 4847SOL     OW15439   2.689   6.793   5.734
 4847SOL    HW115440   2.765   6.856   5.749
 4847SOL    HW215441   2.673   6.740   5.817
 4848SOL     OW15442   2.503   1.393   4.076
 4848SOL    HW115443   2.583   1.358   4.124
 4848SOL    HW215444   2.434   1.424   4.142
 4849SOL     OW15445   2.260   0.536   0.170
 4849SOL    HW115446   2.326   0.508   0.239
 4849SOL    HW215447   2.170   0.547   0.212
 4850SOL     OW15448   4.506   1.075   1.176
 4850SOL    HW115449   4.441   1.046   1.246
 4850SOL    HW215450   4.583   1.011   1.172
 4851SOL     OW15451   3.367   6.069   0.165
 4851SOL    HW115452   3.369   6.147   0.102
 4851SOL    HW215453   3.438   6.004   0.139
 4852SOL     OW15454   4.093   5.392   5.065
 4852SOL    HW115455   4.171   5.331   5.054
 4852SOL    HW215456   4.057   5.383   5.158
 4853SOL     OW15457   3.589   0.556   3.290
 4853SOL    HW115458   3.522   0.616   3.334
 4853SOL    HW215459   3.680   0.597   3.298
 4854SOL     OW15460   5.868   5.735   1.584
 4854SOL    HW115461   5.892   5.659   1.523
 4854SOL    HW215462   5.777   5.769   1.561
 4855SOL     OW15463   6.917   4.491   5.238
 4855SOL    HW115464   6.875   4.441   5.162
 4855SOL    HW215465   6.925   4.430   5.317
 4856SOL     OW15466   0.625   3.676   2.553
 4856SOL    HW115467   0.650   3.723   2.468
 4856SOL    HW215468   0.706   3.665   2.610
 4857SOL     OW15469   3.182   2.134   4.494
 4857SOL    HW115470   3.143   2.045   4.520
 4857SOL    HW215471   3.130   2.171   4.417
 4858SOL     OW15472   0.784   6.953   5.011
 4858SOL    HW115473   0.744   6.866   5.039
 4858SOL    HW215474   0.884   6.943   5.005
 4859SOL     OW15475   0.914   5.832   2.003
 4859SOL    HW115476   1.011   5.844   1.982
 4859SOL    HW215477   0.893   5.735   2.013
 4860SOL     OW15478   5.026   5.399   0.707
 4860SOL    HW115479   5.087   5.432   0.779
 4860SOL    HW215480   4.986   5.477   0.659
 4861SOL     OW15481   6.486   4.909   5.787
 4861SOL    HW115482   6.547   4.947   5.717
 4861SOL    HW215483   6.540   4.881   5.866
 4862SOL     OW15484   2.729   4.802   4.854
 4862SOL    HW115485   2.646   4.840   4.895
 4862SOL    HW215486   2.776   4.745   4.920
 4863SOL     OW15487   4.713   2.714   2.616
 4863SOL    HW115488   4.686   2.662   2.535
 4863SOL    HW215489   4.776   2.787   2.590
 4864SOL     OW15490   3.176   1.473   1.925
 4864SOL    HW115491   3.082   1.504   1.912
 4864SOL    HW215492   3.177   1.396   1.988
 4865SOL     OW15493   3.770   5.155   5.527
 4865SOL    HW115494   3.697   5.168   5.594
 4865SOL    HW215495   3.770   5.060   5.496
 4866SOL     OW15496   5.819   4.941   1.737
 4866SOL    HW115497   5.879   4.951   1.816
 4866SOL    HW215498   5.780   5.030   1.713
 4867SOL     OW15499   5.086   5.211   2.526
 4867SOL    HW115500   5.058   5.270   2.602
 4867SOL    HW215501   5.162   5.254   2.477
 4868SOL     OW15502   0.427   5.528   1.185
 4868SOL    HW115503   0.453   5.546   1.090
 4868SOL    HW215504   0.348   5.467   1.186
 4869SOL     OW15505   6.732   1.547   0.112
 4869SOL    HW115506   6.791   1.475   0.148
 4869SOL    HW215507   6.748   1.631   0.164
 4870SOL     OW15508   4.481   6.351   1.820
 4870SOL    HW115509   4.522   6.376   1.733
 4870SOL    HW215510   4.383   6.337   1.808
 4871SOL     OW15511   1.085   2.297   3.486
 4871SOL    HW115512   1.100   2.393   3.464
 4871SOL    HW215513   1.160   2.242   3.451
 4872SOL     OW15514   1.073   7.014   2.739
 4872SOL    HW115515   1.152   0.016   2.793
 4872SOL    HW215516   0.991   7.016   2.796
 4873SOL     OW15517   0.194   5.292   4.423
 4873SOL    HW115518   0.292   5.313   4.422
 4873SOL    HW215519   0.161   5.281   4.329
 4874SOL     OW15520   5.231   3.722   3.702
 4874SOL    HW115521   5.274   3.812   3.698
 4874SOL    HW215522   5.239   3.677   3.613
 4875SOL     OW15523   5.479   1.795   0.659
 4875SOL    HW115524   5.436   1.764   0.574
 4875SOL    HW215525   5.431   1.756   0.737
 4876SOL     OW15526   6.383   0.916   6.315
 4876SOL    HW115527   6.304   0.890   6.371
 4876SOL    HW215528   6.351   0.952   6.227
 4877SOL     OW15529   6.154   1.463   1.258
 4877SOL    HW115530   6.165   1.561   1.277
 4877SOL    HW215531   6.068   1.432   1.298
 4878SOL     OW15532   7.016   1.501   1.881
 4878SOL    HW115533   0.050   1.446   1.941
 4878SOL    HW215534   0.048   1.570   1.835
 4879SOL     OW15535   4.319   4.764   3.525
 4879SOL    HW115536   4.359   4.673   3.517
 4879SOL    HW215537   4.374   4.819   3.588
 4880SOL     OW15538   5.837   1.135   0.314
 4880SOL    HW115539   5.856   1.189   0.396
 4880SOL    HW215540   5.757   1.078   0.329
 4881SOL     OW15541   3.125   6.672   6.178
 4881SOL    HW115542   3.099   6.654   6.273
 4881SOL    HW215543   3.176   6.594   6.142
 4882SOL     OW15544   6.041   1.201   5.323
 4882SOL    HW115545   6.041   1.299   5.343
 4882SOL    HW215546   5.947   1.167   5.323
 4883SOL     OW15547   5.932   4.675   1.967
 4883SOL    HW115548   5.913   4.580   1.943
 4883SOL    HW215549   6.014   4.706   1.918
 4884SOL     OW15550   3.803   6.349   1.839
 4884SOL    HW115551   3.817   6.297   1.923
 4884SOL    HW215552   3.867   6.317   1.769
 4885SOL     OW15553   1.884   0.082   1.215
 4885SOL    HW115554   1.810   0.102   1.279
 4885SOL    HW215555   1.961   0.042   1.264
 4886SOL     OW15556   6.336   0.712   0.313
 4886SOL    HW115557   6.316   0.720   0.410
 4886SOL    HW215558   6.433   0.692   0.301
 4887SOL     OW15559   0.363   2.194   3.808
 4887SOL    HW115560   0.390   2.167   3.716
 4887SOL    HW215561   0.425   2.265   3.841
 4888SOL     OW15562   1.616   5.935   2.651
 4888SOL    HW115563   1.700   5.912   2.602
 4888SOL    HW215564   1.623   6.028   2.688
 4889SOL     OW15565   0.911   1.866   6.952
 4889SOL    HW115566   0.932   1.769   6.958
 4889SOL    HW215567   0.977   1.917   7.008
 4890SOL     OW15568   0.895   0.751   4.383
 4890SOL    HW115569   0.827   0.693   4.427
 4890SOL    HW215570   0.849   0.822   4.330
 4891SOL     OW15571   0.820   4.835   0.967
 4891SOL    HW115572   0.787   4.930   0.972
 4891SOL    HW215573   0.795   4.796   0.878
 4892SOL     OW15574   1.116   5.664   1.603
 4892SOL    HW115575   1.018   5.660   1.623
 4892SOL    HW215576   1.130   5.693   1.509
 4893SOL     OW15577   0.020   3.680   6.424
 4893SOL    HW115578   0.105   3.730   6.441
 4893SOL    HW215579   6.968   3.745   6.417
 4894SOL     OW15580   1.706   0.608   2.838
 4894SOL    HW115581   1.680   0.607   2.742
 4894SOL    HW215582   1.648   0.673   2.887
 4895SOL     OW15583   0.720   3.061   0.456
 4895SOL    HW115584   0.739   3.134   0.392
 4895SOL    HW215585   0.661   3.095   0.530
 4896SOL     OW15586   3.551   4.956   4.926
 4896SOL    HW115587   3.454   4.958   4.902
 4896SOL    HW215588   3.605   4.939   4.844
 4897SOL     OW15589   3.501   5.575   0.237
 4897SOL    HW115590   3.583   5.557   0.291
 4897SOL    HW215591   3.420   5.565   0.295
 4898SOL     OW15592   5.367   1.983   5.426
 4898SOL    HW115593   5.392   1.918   5.499
 4898SOL    HW215594   5.358   2.074   5.465
 4899SOL     OW15595   6.237   4.423   3.515
 4899SOL    HW115596   6.312   4.388   3.459
 4899SOL    HW215597   6.273   4.480   3.589
 4900SOL     OW15598   0.391   6.326   5.853
 4900SOL    HW115599   0.483   6.361   5.835
 4900SOL    HW215600   0.367   6.342   5.949
 4901SOL     OW15601   0.868   6.312   3.982
 4901SOL    HW115602   0.843   6.233   3.927
 4901SOL    HW215603   0.814   6.391   3.953
 4902SOL     OW15604   2.915   4.954   1.842
 4902SOL    HW115605   2.969   4.902   1.908
 4902SOL    HW215606   2.843   5.005   1.891
 4903SOL     OW15607   4.160   0.219   6.706
 4903SOL    HW115608   4.133   0.137   6.655
 4903SOL    HW215609   4.153   0.201   6.804
 4904SOL     OW15610   1.935   6.089   4.131
 4904SOL    HW115611   1.841   6.125   4.132
 4904SOL    HW215612   1.977   6.105   4.221
 4905SOL     OW15613   4.879   2.925   1.589
 4905SOL    HW115614   4.833   2.894   1.673
 4905SOL    HW215615   4.810   2.952   1.522
 4906SOL     OW15616   4.985   0.055   0.605
 4906SOL    HW115617   4.950   0.129   0.663
 4906SOL    HW215618   4.974   0.081   0.509
 4907SOL     OW15619   3.920   0.144   3.718
 4907SOL    HW115620   3.885   0.108   3.632
 4907SOL    HW215621   4.010   0.104   3.736
 4908SOL     OW15622   3.364   6.367   6.712
 4908SOL    HW115623   3.377   6.269   6.695
 4908SOL    HW215624   3.267   6.389   6.711
 4909SOL     OW15625   6.456   6.631   5.234
 4909SOL    HW115626   6.546   6.602   5.266
 4909SOL    HW215627   6.386   6.593   5.294
 4910SOL     OW15628   5.200   0.690   5.181
 4910SOL    HW115629   5.138   0.757   5.141
 4910SOL    HW215630   5.193   0.694   5.280
 4911SOL     OW15631   0.191   2.414   5.628
 4911SOL    HW115632   0.287   2.414   5.655
 4911SOL    HW215633   0.176   2.484   5.558
 4912SOL     OW15634   3.587   1.922   2.311
 4912SOL    HW115635   3.526   1.869   2.370
 4912SOL    HW215636   3.534   1.969   2.241
 4913SOL     OW15637   3.407   3.655   3.495
 4913SOL    HW115638   3.400   3.560   3.525
 4913SOL    HW215639   3.346   3.670   3.417
 4914SOL     OW15640   1.985   6.936   3.457
 4914SOL    HW115641   1.930   6.988   3.523
 4914SOL    HW215642   2.012   6.996   3.382
 4915SOL     OW15643   4.015   6.600   3.990
 4915SOL    HW115644   4.061   6.579   4.076
 4915SOL    HW215645   3.969   6.518   3.956
 4916SOL     OW15646   3.054   2.229   3.054
 4916SOL    HW115647   2.966   2.182   3.050
 4916SOL    HW215648   3.088   2.243   2.961
 4917SOL     OW15649   2.064   4.290   0.941
 4917SOL    HW115650   2.006   4.225   0.891
 4917SOL    HW215651   2.043   4.383   0.910
 4918SOL     OW15652   2.529   0.338   1.872
 4918SOL    HW115653   2.573   0.407   1.928
 4918SOL    HW215654   2.573   0.336   1.782
 4919SOL     OW15655   1.665   2.514   2.604
 4919SOL    HW115656   1.682   2.508   2.702
 4919SOL    HW215657   1.692   2.605   2.571
 4920SOL     OW15658   4.292   0.830   0.580
 4920SOL    HW115659   4.234   0.795   0.653
 4920SOL    HW215660   4.282   0.929   0.573
 4921SOL     OW15661   2.294   4.031   1.641
 4921SOL    HW115662   2.362   3.967   1.605
 4921SOL    HW215663   2.274   4.008   1.736
 4922SOL     OW15664   1.457   3.315   5.585
 4922SOL    HW115665   1.508   3.268   5.656
 4922SOL    HW215666   1.469   3.268   5.498
 4923SOL     OW15667   4.958   0.669   1.590
 4923SOL    HW115668   5.009   0.755   1.586
 4923SOL    HW215669   4.877   0.682   1.648
 4924SOL     OW15670   0.842   3.773   4.377
 4924SOL    HW115671   0.916   3.718   4.417
 4924SOL    HW215672   0.761   3.716   4.366
 4925SOL     OW15673   4.896   6.432   0.850
 4925SOL    HW115674   4.830   6.360   0.874
 4925SOL    HW215675   4.951   6.453   0.931
 4926SOL     OW15676   5.074   2.394   1.952
 4926SOL    HW115677   5.102   2.330   2.024
 4926SOL    HW215678   5.055   2.344   1.868
 4927SOL     OW15679   3.226   2.952   2.968
 4927SOL    HW115680   3.191   3.040   2.935
 4927SOL    HW215681   3.235   2.955   3.068
 4928SOL     OW15682   0.763   6.648   6.979
 4928SOL    HW115683   0.687   6.709   6.956
 4928SOL    HW215684   0.742   6.556   6.947
 4929SOL     OW15685   1.225   4.958   4.675
 4929SOL    HW115686   1.127   4.960   4.659
 4929SOL    HW215687   1.244   4.933   4.770
 4930SOL     OW15688   0.375   1.851   0.326
 4930SOL    HW115689   0.294   1.908   0.314
 4930SOL    HW215690   0.410   1.825   0.236
 4931SOL     OW15691   0.399   0.055   0.679
 4931SOL    HW115692   0.439   7.012   0.742
 4931SOL    HW215693   0.382   0.141   0.728
 4932SOL     OW15694   2.407   2.287   1.461
 4932SOL    HW115695   2.425   2.189   1.456
 4932SOL    HW215696   2.433   2.330   1.375
 4933SOL     OW15697   2.741   1.276   4.144
 4933SOL    HW115698   2.826   1.323   4.165
 4933SOL    HW215699   2.760   1.197   4.086
 4934SOL     OW15700   0.341   5.215   4.137
 4934SOL    HW115701   0.241   5.219   4.148
 4934SOL    HW215702   0.376   5.306   4.114
 4935SOL     OW15703   1.956   1.649   0.019
 4935SOL    HW115704   1.939   1.702   6.960
 4935SOL    HW215705   1.911   1.560   0.012
 4936SOL     OW15706   3.747   6.152   1.525
 4936SOL    HW115707   3.685   6.219   1.484
 4936SOL    HW215708   3.831   6.197   1.554
 4937SOL     OW15709   1.108   3.195   6.011
 4937SOL    HW115710   1.038   3.186   5.940
 4937SOL    HW215711   1.080   3.144   6.092
 4938SOL     OW15712   3.215   4.750   1.214
 4938SOL    HW115713   3.143   4.746   1.144
 4938SOL    HW215714   3.189   4.692   1.291
 4939SOL     OW15715   1.057   1.606   1.670
 4939SOL    HW115716   0.969   1.637   1.706
 4939SOL    HW215717   1.052   1.508   1.648
 4940SOL     OW15718   0.192   2.738   3.870
 4940SOL    HW115719   0.108   2.745   3.923
 4940SOL    HW215720   0.214   2.642   3.855
 4941SOL     OW15721   4.105   2.267   5.308
 4941SOL    HW115722   4.111   2.271   5.408
 4941SOL    HW215723   4.099   2.360   5.271
 4942SOL     OW15724   5.468   2.901   3.741
 4942SOL    HW115725   5.403   2.921   3.668
 4942SOL    HW215726   5.505   2.809   3.729
 4943SOL     OW15727   5.204   3.075   6.477
 4943SOL    HW115728   5.130   3.125   6.432
 4943SOL    HW215729   5.193   3.081   6.576
 4944SOL     OW15730   1.495   4.854   1.487
 4944SOL    HW115731   1.432   4.777   1.477
 4944SOL    HW215732   1.585   4.821   1.515
 4945SOL     OW15733   1.829   0.584   4.918
 4945SOL    HW115734   1.789   0.675   4.905
 4945SOL    HW215735   1.774   0.534   4.985
 4946SOL     OW15736   1.382   4.669   0.844
 4946SOL    HW115737   1.288   4.641   0.827
 4946SOL    HW215738   1.383   4.751   0.902
 4947SOL     OW15739   1.756   0.887   1.752
 4947SOL    HW115740   1.705   0.931   1.826
 4947SOL    HW215741   1.788   0.797   1.783
 4948SOL     OW15742   1.461   2.354   1.301
 4948SOL    HW115743   1.391   2.284   1.288
 4948SOL    HW215744   1.423   2.430   1.353
 4949SOL     OW15745   6.423   2.901   6.241
 4949SOL    HW115746   6.496   2.965   6.218
 4949SOL    HW215747   6.455   2.807   6.225
 4950SOL     OW15748   2.550   4.516   5.482
 4950SOL    HW115749   2.639   4.541   5.443
 4950SOL    HW215750   2.553   4.528   5.581
 4951SOL     OW15751   5.403   6.141   3.791
 4951SOL    HW115752   5.441   6.147   3.698
 4951SOL    HW215753   5.456   6.199   3.852
 4952SOL     OW15754   0.155   0.070   6.015
 4952SOL    HW115755   0.211   0.103   5.939
 4952SOL    HW215756   0.116   0.148   6.064
 4953SOL     OW15757   1.338   2.067   5.455
 4953SOL    HW115758   1.389   2.094   5.373
 4953SOL    HW215759   1.402   2.050   5.530
 4954SOL     OW15760   2.837   3.874   5.150
 4954SOL    HW115761   2.848   3.855   5.053
 4954SOL    HW215762   2.741   3.863   5.175
 4955SOL     OW15763   3.076   5.964   0.116
 4955SOL    HW115764   3.156   6.024   0.111
 4955SOL    HW215765   3.096   5.889   0.179
 4956SOL     OW15766   2.373   0.370   4.774
 4956SOL    HW115767   2.331   0.310   4.842
 4956SOL    HW215768   2.418   0.314   4.704
 4957SOL     OW15769   6.501   4.082   6.657
 4957SOL    HW115770   6.545   4.168   6.630
 4957SOL    HW215771   6.538   4.052   6.745
 4958SOL     OW15772   2.553   0.277   6.285
 4958SOL    HW115773   2.565   0.270   6.384
 4958SOL    HW215774   2.643   0.283   6.241
 4959SOL     OW15775   0.218   2.822   1.686
 4959SOL    HW115776   0.177   2.816   1.777
 4959SOL    HW215777   0.315   2.843   1.694
 4960SOL     OW15778   4.071   4.829   3.830
 4960SOL    HW115779   4.134   4.751   3.836
 4960SOL    HW215780   4.071   4.864   3.737
 4961SOL     OW15781   3.091   0.714   6.757
 4961SOL    HW115782   3.059   0.778   6.826
 4961SOL    HW215783   3.021   0.705   6.685
 4962SOL     OW15784   6.574   3.676   0.996
 4962SOL    HW115785   6.553   3.606   1.064
 4962SOL    HW215786   6.570   3.636   0.905
 4963SOL     OW15787   0.520   4.274   0.177
 4963SOL    HW115788   0.477   4.210   0.113
 4963SOL    HW215789   0.614   4.293   0.148
 4964SOL     OW15790   2.665   6.802   4.588
 4964SOL    HW115791   2.761   6.827   4.591
 4964SOL    HW215792   2.645   6.760   4.499
 4965SOL     OW15793   1.218   6.567   2.944
 4965SOL    HW115794   1.215   6.535   3.039
 4965SOL    HW215795   1.298   6.626   2.932
 4966SOL     OW15796   3.035   6.306   4.525
 4966SOL    HW115797   2.967   6.365   4.569
 4966SOL    HW215798   2.999   6.272   4.438
 4967SOL     OW15799   4.327   4.751   5.491
 4967SOL    HW115800   4.415   4.790   5.519
 4967SOL    HW215801   4.288   4.698   5.566
 4968SOL     OW15802   0.612   1.206   3.646
 4968SOL    HW115803   0.637   1.294   3.687
 4968SOL    HW215804   0.580   1.144   3.718
 4969SOL     OW15805   0.734   6.518   2.229
 4969SOL    HW115806   0.679   6.442   2.195
 4969SOL    HW215807   0.771   6.494   2.319
 4970SOL     OW15808   1.712   1.368   1.682
 4970SOL    HW115809   1.691   1.341   1.588
 4970SOL    HW215810   1.669   1.457   1.701
 4971SOL     OW15811   6.832   5.885   2.998
 4971SOL    HW115812   6.826   5.974   2.953
 4971SOL    HW215813   6.867   5.897   3.091
 4972SOL     OW15814   1.716   4.235   1.395
 4972SOL    HW115815   1.802   4.188   1.419
 4972SOL    HW215816   1.721   4.265   1.299
 4973SOL     OW15817   0.080   0.834   0.808
 4973SOL    HW115818   0.056   0.785   0.892
 4973SOL    HW215819   0.174   0.811   0.782
 4974SOL     OW15820   3.728   4.315   6.146
 4974SOL    HW115821   3.641   4.358   6.168
 4974SOL    HW215822   3.743   4.236   6.205
 4975SOL     OW15823   5.703   3.650   0.340
 4975SOL    HW115824   5.720   3.651   0.439
 4975SOL    HW215825   5.741   3.567   0.300
 4976SOL     OW15826   1.056   0.092   4.462
 4976SOL    HW115827   1.029   0.091   4.365
 4976SOL    HW215828   1.013   0.016   4.510
 4977SOL     OW15829   2.843   5.222   6.003
 4977SOL    HW115830   2.773   5.152   6.012
 4977SOL    HW215831   2.853   5.248   5.907
 4978SOL     OW15832   5.059   4.505   5.436
 4978SOL    HW115833   5.125   4.576   5.459
 4978SOL    HW215834   5.093   4.453   5.357
 4979SOL     OW15835   1.668   0.112   6.492
 4979SOL    HW115836   1.590   0.115   6.555
 4979SOL    HW215837   1.750   0.088   6.542
 4980SOL     OW15838   6.621   3.780   3.311
 4980SOL    HW115839   6.684   3.855   3.292
 4980SOL    HW215840   6.582   3.746   3.226
 4981SOL     OW15841   3.483   5.020   2.055
 4981SOL    HW115842   3.387   5.026   2.029
 4981SOL    HW215843   3.535   4.975   1.982
 4982SOL     OW15844   4.703   1.351   6.964
 4982SOL    HW115845   4.647   1.268   6.964
 4982SOL    HW215846   4.653   1.425   6.919
 4983SOL     OW15847   6.699   5.237   4.056
 4983SOL    HW115848   6.736   5.166   4.115
 4983SOL    HW215849   6.663   5.195   3.972
 4984SOL     OW15850   5.018   4.450   3.151
 4984SOL    HW115851   4.971   4.512   3.213
 4984SOL    HW215852   4.967   4.364   3.145
 4985SOL     OW15853   5.915   5.947   2.574
 4985SOL    HW115854   5.909   5.852   2.605
 4985SOL    HW215855   6.006   5.963   2.535
 4986SOL     OW15856   0.373   4.700   1.955
 4986SOL    HW115857   0.454   4.756   1.939
 4986SOL    HW215858   0.305   4.717   1.883
 4987SOL     OW15859   0.779   0.120   2.299
 4987SOL    HW115860   0.803   0.213   2.271
 4987SOL    HW215861   0.755   0.121   2.396
 4988SOL     OW15862   5.659   0.432   3.486
 4988SOL    HW115863   5.681   0.396   3.577
 4988SOL    HW215864   5.742   0.469   3.444
 4989SOL     OW15865   5.209   1.080   2.216
 4989SOL    HW115866   5.149   1.139   2.162
 4989SOL    HW215867   5.191   1.095   2.314
 4990SOL     OW15868   4.117   1.489   6.509
 4990SOL    HW115869   4.098   1.400   6.549
 4990SOL    HW215870   4.115   1.560   6.580
 4991SOL     OW15871   0.856   6.042   4.685
 4991SOL    HW115872   0.786   5.972   4.678
 4991SOL    HW215873   0.851   6.104   4.607
 4992SOL     OW15874   6.731   0.804   3.520
 4992SOL    HW115875   6.732   0.766   3.613
 4992SOL    HW215876   6.803   0.761   3.466
 4993SOL     OW15877   4.438   6.221   5.294
 4993SOL    HW115878   4.467   6.317   5.297
 4993SOL    HW215879   4.343   6.214   5.324
 4994SOL     OW15880   2.911   5.126   5.430
 4994SOL    HW115881   2.995   5.115   5.482
 4994SOL    HW215882   2.833   5.134   5.492
 4995SOL     OW15883   0.663   0.631   4.513
 4995SOL    HW115884   0.568   0.600   4.510
 4995SOL    HW215885   0.715   0.574   4.576
 4996SOL     OW15886   0.052   1.943   4.061
 4996SOL    HW115887   6.989   1.963   4.108
 4996SOL    HW215888   0.075   2.020   4.001
 4997SOL     OW15889   3.336   2.173   1.361
 4997SOL    HW115890   3.249   2.178   1.410
 4997SOL    HW215891   3.342   2.249   1.296
 4998SOL     OW15892   1.448   3.221   3.348
 4998SOL    HW115893   1.468   3.156   3.275
 4998SOL    HW215894   1.530   3.236   3.403
 4999SOL     OW15895   1.083   3.381   4.955
 4999SOL    HW115896   1.053   3.388   5.051
 4999SOL    HW215897   1.122   3.469   4.927
 5000SOL     OW15898   2.993   5.971   3.329
 5000SOL    HW115899   3.002   6.006   3.236
 5000SOL    HW215900   2.964   5.876   3.327
 5001SOL     OW15901   0.688   5.415   2.883
 5001SOL    HW115902   0.736   5.444   2.966
 5001SOL    HW215903   0.648   5.325   2.897
 5002SOL     OW15904   0.591   4.731   2.661
 5002SOL    HW115905   0.549   4.653   2.615
 5002SOL    HW215906   0.519   4.791   2.696
 5003SOL     OW15907   3.936   5.764   3.253
 5003SOL    HW115908   3.999   5.733   3.182
 5003SOL    HW215909   3.843   5.740   3.228
 5004SOL     OW15910   3.342   6.007   6.212
 5004SOL    HW115911   3.261   6.060   6.190
 5004SOL    HW215912   3.400   5.998   6.131
 5005SOL     OW15913   2.835   3.276   6.621
 5005SOL    HW115914   2.859   3.180   6.610
 5005SOL    HW215915   2.776   3.305   6.547
 5006SOL     OW15916   5.521   1.486   2.104
 5006SOL    HW115917   5.621   1.490   2.108
 5006SOL    HW215918   5.483   1.571   2.141
 5007SOL     OW15919   6.231   0.575   0.830
 5007SOL    HW115920   6.267   0.626   0.909
 5007SOL    HW215921   6.255   0.622   0.746
 5008SOL     OW15922   6.468   6.565   1.689
 5008SOL    HW115923   6.511   6.653   1.710
 5008SOL    HW215924   6.539   6.496   1.678
 5009SOL     OW15925   0.950   2.930   0.535
 5009SOL    HW115926   0.923   2.889   0.623
 5009SOL    HW215927   0.879   2.994   0.505
 5010SOL     OW15928   3.587   2.719   0.358
 5010SOL    HW115929   3.557   2.656   0.285
 5010SOL    HW215930   3.638   2.667   0.427
 5011SOL     OW15931   1.909   3.640   0.276
 5011SOL    HW115932   1.978   3.669   0.343
 5011SOL    HW215933   1.821   3.630   0.322
 5012SOL     OW15934   5.745   2.375   5.386
 5012SOL    HW115935   5.805   2.453   5.402
 5012SOL    HW215936   5.754   2.310   5.462
 5013SOL     OW15937   6.157   0.469   5.713
 5013SOL    HW115938   6.137   0.454   5.616
 5013SOL    HW215939   6.249   0.507   5.723
 5014SOL     OW15940   6.686   4.475   0.441
 5014SOL    HW115941   6.616   4.525   0.491
 5014SOL    HW215942   6.770   4.472   0.495
 5015SOL     OW15943   5.778   0.557   4.671
 5015SOL    HW115944   5.768   0.526   4.765
 5015SOL    HW215945   5.697   0.609   4.644
 5016SOL     OW15946   0.935   3.152   4.896
 5016SOL    HW115947   0.892   3.175   4.809
 5016SOL    HW215948   0.979   3.233   4.934
 5017SOL     OW15949   0.713   2.729   0.921
 5017SOL    HW115950   0.766   2.653   0.958
 5017SOL    HW215951   0.714   2.805   0.985
 5018SOL     OW15952   0.301   5.327   2.067
 5018SOL    HW115953   0.332   5.411   2.112
 5018SOL    HW215954   0.380   5.269   2.048
 5019SOL     OW15955   1.828   5.642   5.310
 5019SOL    HW115956   1.873   5.669   5.395
 5019SOL    HW215957   1.881   5.674   5.232
 5020SOL     OW15958   0.316   6.968   5.041
 5020SOL    HW115959   0.247   0.013   5.019
 5020SOL    HW215960   0.289   6.880   5.002
 5021SOL     OW15961   1.476   0.296   1.096
 5021SOL    HW115962   1.408   0.224   1.088
 5021SOL    HW215963   1.568   0.257   1.089
 5022SOL     OW15964   0.416   2.624   1.497
 5022SOL    HW115965   0.346   2.617   1.568
 5022SOL    HW215966   0.440   2.720   1.483
 5023SOL     OW15967   0.035   3.864   1.704
 5023SOL    HW115968   0.063   3.913   1.621
 5023SOL    HW215969   6.970   3.820   1.689
 5024SOL     OW15970   5.335   4.283   0.886
 5024SOL    HW115971   5.243   4.279   0.925
 5024SOL    HW215972   5.392   4.345   0.939
 5025SOL     OW15973   4.151   1.562   4.349
 5025SOL    HW115974   4.138   1.466   4.371
 5025SOL    HW215975   4.108   1.619   4.419
 5026SOL     OW15976   6.353   5.424   5.072
 5026SOL    HW115977   6.438   5.411   5.021
 5026SOL    HW215978   6.280   5.455   5.011
 5027SOL     OW15979   5.344   1.072   1.019
 5027SOL    HW115980   5.426   1.018   1.039
 5027SOL    HW215981   5.349   1.159   1.069
 5028SOL     OW15982   0.264   1.821   3.020
 5028SOL    HW115983   0.180   1.868   3.046
 5028SOL    HW215984   0.341   1.858   3.072
 5029SOL     OW15985   6.768   3.067   2.352
 5029SOL    HW115986   6.752   3.090   2.448
 5029SOL    HW215987   6.829   3.134   2.311
 5030SOL     OW15988   6.918   5.597   6.193
 5030SOL    HW115989   6.947   5.625   6.284
 5030SOL    HW215990   6.864   5.514   6.199
 5031SOL     OW15991   0.032   1.336   4.935
 5031SOL    HW115992   0.033   1.407   4.864
 5031SOL    HW215993   0.061   1.375   5.022
 5032SOL     OW15994   3.153   2.402   6.373
 5032SOL    HW115995   3.097   2.483   6.388
 5032SOL    HW215996   3.235   2.427   6.322
 5033SOL     OW15997   1.928   1.346   0.273
 5033SOL    HW115998   1.999   1.399   0.226
 5033SOL    HW215999   1.968   1.297   0.350
 5034SOL     OW16000   4.677   6.895   4.053
 5034SOL    HW116001   4.703   6.889   4.149
 5034SOL    HW216002   4.595   6.951   4.044
 5035SOL     OW16003   0.128   4.260   5.433
 5035SOL    HW116004   0.147   4.356   5.456
 5035SOL    HW216005   0.194   4.201   5.480
 5036SOL     OW16006   6.798   4.653   5.692
 5036SOL    HW116007   6.721   4.588   5.688
 5036SOL    HW216008   6.878   4.607   5.730
 5037SOL     OW16009   4.453   4.629   1.375
 5037SOL    HW116010   4.532   4.568   1.385
 5037SOL    HW216011   4.375   4.577   1.341
 5038SOL     OW16012   3.767   3.572   4.245
 5038SOL    HW116013   3.859   3.613   4.239
 5038SOL    HW216014   3.699   3.641   4.221
 5039SOL     OW16015   1.920   3.419   5.935
 5039SOL    HW116016   1.999   3.456   5.984
 5039SOL    HW216017   1.949   3.343   5.877
 5040SOL     OW16018   1.354   5.529   5.665
 5040SOL    HW116019   1.327   5.618   5.628
 5040SOL    HW216020   1.361   5.463   5.590
 5041SOL     OW16021   1.182   3.000   2.137
 5041SOL    HW116022   1.082   3.006   2.137
 5041SOL    HW216023   1.220   3.069   2.199
 5042SOL     OW16024   6.861   3.662   6.758
 5042SOL    HW116025   6.846   3.606   6.677
 5042SOL    HW216026   6.938   3.626   6.811
 5043SOL     OW16027   4.283   1.019   0.235
 5043SOL    HW116028   4.220   1.052   0.305
 5043SOL    HW216029   4.309   0.925   0.256
 5044SOL     OW16030   0.111   6.261   1.490
 5044SOL    HW116031   0.022   6.304   1.475
 5044SOL    HW216032   0.151   6.295   1.576
 5045SOL     OW16033   6.049   4.915   5.931
 5045SOL    HW116034   5.979   4.984   5.952
 5045SOL    HW216035   6.139   4.959   5.926
 5046SOL     OW16036   3.905   4.020   3.812
 5046SOL    HW116037   3.877   4.012   3.908
 5046SOL    HW216038   3.944   3.934   3.782
 5047SOL     OW16039   2.125   3.648   2.916
 5047SOL    HW116040   2.060   3.622   2.988
 5047SOL    HW216041   2.154   3.742   2.930
 5048SOL     OW16042   1.562   1.123   4.987
 5048SOL    HW116043   1.620   1.161   5.059
 5048SOL    HW216044   1.480   1.180   4.977
 5049SOL     OW16045   5.931   1.269   6.392
 5049SOL    HW116046   5.879   1.255   6.476
 5049SOL    HW216047   6.027   1.284   6.414
 5050SOL     OW16048   1.491   1.617   6.726
 5050SOL    HW116049   1.394   1.602   6.706
 5050SOL    HW216050   1.531   1.533   6.761
 5051SOL     OW16051   4.176   4.606   1.291
 5051SOL    HW116052   4.203   4.699   1.268
 5051SOL    HW216053   4.085   4.607   1.333
 5052SOL     OW16054   3.713   2.024   6.218
 5052SOL    HW116055   3.674   2.025   6.310
 5052SOL    HW216056   3.810   2.003   6.223
 5053SOL     OW16057   1.039   5.120   3.230
 5053SOL    HW116058   1.071   5.180   3.156
 5053SOL    HW216059   0.953   5.156   3.267
 5054SOL     OW16060   3.924   4.894   5.683
 5054SOL    HW116061   3.938   4.803   5.722
 5054SOL    HW216062   4.004   4.922   5.630
 5055SOL     OW16063   0.904   2.865   5.978
 5055SOL    HW116064   0.989   2.826   5.941
 5055SOL    HW216065   0.831   2.797   5.970
 5056SOL     OW16066   5.232   4.134   5.445
 5056SOL    HW116067   5.223   4.064   5.374
 5056SOL    HW216068   5.142   4.152   5.485
 5057SOL     OW16069   0.789   6.947   2.094
 5057SOL    HW116070   0.837   6.864   2.123
 5057SOL    HW216071   0.785   7.011   2.171
 5058SOL     OW16072   3.417   4.607   6.639
 5058SOL    HW116073   3.420   4.571   6.546
 5058SOL    HW216074   3.503   4.655   6.660
 5059SOL     OW16075   6.949   0.142   3.504
 5059SOL    HW116076   6.914   0.081   3.432
 5059SOL    HW216077   0.021   0.122   3.520
 5060SOL     OW16078   6.726   2.139   6.564
 5060SOL    HW116079   6.772   2.051   6.578
 5060SOL    HW216080   6.745   2.200   6.641
 5061SOL     OW16081   4.619   2.191   6.954
 5061SOL    HW116082   4.573   2.104   6.935
 5061SOL    HW216083   4.696   2.176   7.015
 5062SOL     OW16084   0.421   0.207   2.089
 5062SOL    HW116085   0.415   0.109   2.074
 5062SOL    HW216086   0.479   0.225   2.169
 5063SOL     OW16087   0.369   6.674   1.487
 5063SOL    HW116088   0.432   6.658   1.564
 5063SOL    HW216089   0.325   6.763   1.499
 5064SOL     OW16090   4.641   2.964   0.315
 5064SOL    HW116091   4.588   2.997   0.237
 5064SOL    HW216092   4.739   2.978   0.297
 5065SOL     OW16093   3.252   0.423   5.500
 5065SOL    HW116094   3.257   0.485   5.578
 5065SOL    HW216095   3.324   0.354   5.508
 5066SOL     OW16096   5.526   3.797   1.874
 5066SOL    HW116097   5.600   3.788   1.941
 5066SOL    HW216098   5.445   3.748   1.908
 5067SOL     OW16099   5.636   1.390   0.015
 5067SOL    HW116100   5.607   1.416   0.107
 5067SOL    HW216101   5.629   1.470   6.978
 5068SOL     OW16102   2.928   4.241   1.094
 5068SOL    HW116103   2.964   4.219   1.185
 5068SOL    HW216104   2.933   4.340   1.080
 5069SOL     OW16105   1.270   4.355   2.620
 5069SOL    HW116106   1.172   4.351   2.641
 5069SOL    HW216107   1.323   4.326   2.700
 5070SOL     OW16108   4.982   3.525   4.161
 5070SOL    HW116109   4.944   3.435   4.183
 5070SOL    HW216110   5.081   3.522   4.170
 5071SOL     OW16111   4.386   2.406   4.838
 5071SOL    HW116112   4.398   2.316   4.795
 5071SOL    HW216113   4.305   2.405   4.896
 5072SOL     OW16114   0.657   5.380   0.464
 5072SOL    HW116115   0.718   5.446   0.508
 5072SOL    HW216116   0.694   5.356   0.374
 5073SOL     OW16117   6.686   6.441   2.666
 5073SOL    HW116118   6.653   6.348   2.680
 5073SOL    HW216119   6.754   6.442   2.593
 5074SOL     OW16120   3.057   3.947   6.963
 5074SOL    HW116121   3.072   4.045   6.980
 5074SOL    HW216122   3.068   3.928   6.865
 5075SOL     OW16123   0.105   0.925   5.624
 5075SOL    HW116124   0.034   0.990   5.650
 5075SOL    HW216125   0.149   0.888   5.706
 5076SOL     OW16126   3.441   0.877   0.721
 5076SOL    HW116127   3.435   0.953   0.656
 5076SOL    HW216128   3.370   0.886   0.790
 5077SOL     OW16129   1.407   2.276   3.706
 5077SOL    HW116130   1.363   2.360   3.675
 5077SOL    HW216131   1.481   2.297   3.769
 5078SOL     OW16132   1.296   2.116   3.427
 5078SOL    HW116133   1.356   2.114   3.507
 5078SOL    HW216134   1.350   2.096   3.345
 5079SOL     OW16135   2.755   5.533   5.943
 5079SOL    HW116136   2.764   5.448   5.892
 5079SOL    HW216137   2.818   5.533   6.021
 5080SOL     OW16138   5.671   6.484   4.997
 5080SOL    HW116139   5.700   6.478   5.093
 5080SOL    HW216140   5.630   6.574   4.981
 5081SOL     OW16141   2.984   3.943   2.879
 5081SOL    HW116142   2.889   3.924   2.854
 5081SOL    HW216143   3.000   3.912   2.973
 5082SOL     OW16144   6.211   6.779   5.743
 5082SOL    HW116145   6.186   6.840   5.668
 5082SOL    HW216146   6.166   6.809   5.827
 5083SOL     OW16147   1.530   6.840   2.142
 5083SOL    HW116148   1.436   6.812   2.162
 5083SOL    HW216149   1.568   6.780   2.071
 5084SOL     OW16150   1.358   4.515   4.320
 5084SOL    HW116151   1.432   4.449   4.302
 5084SOL    HW216152   1.293   4.475   4.384
 5085SOL     OW16153   5.790   1.225   6.668
 5085SOL    HW116154   5.724   1.225   6.743
 5085SOL    HW216155   5.883   1.216   6.704
 5086SOL     OW16156   6.203   4.740   4.388
 5086SOL    HW116157   6.254   4.688   4.457
 5086SOL    HW216158   6.248   4.828   4.373
 5087SOL     OW16159   6.699   6.177   4.192
 5087SOL    HW116160   6.721   6.269   4.158
 5087SOL    HW216161   6.634   6.184   4.268
 5088SOL     OW16162   6.299   1.034   6.088
 5088SOL    HW116163   6.220   1.095   6.082
 5088SOL    HW216164   6.372   1.070   6.030
 5089SOL     OW16165   6.586   3.653   3.059
 5089SOL    HW116166   6.492   3.620   3.061
 5089SOL    HW216167   6.601   3.707   2.976
 5090SOL     OW16168   2.190   4.778   1.166
 5090SOL    HW116169   2.221   4.789   1.260
 5090SOL    HW216170   2.143   4.861   1.136
 5091SOL     OW16171   1.148   6.090   2.953
 5091SOL    HW116172   1.215   6.127   2.889
 5091SOL    HW216173   1.136   5.992   2.936
 5092SOL     OW16174   3.532   2.612   1.766
 5092SOL    HW116175   3.454   2.551   1.774
 5092SOL    HW216176   3.616   2.562   1.785
 5093SOL     OW16177   0.891   2.504   1.939
 5093SOL    HW116178   0.880   2.447   1.858
 5093SOL    HW216179   0.905   2.599   1.911
 5094SOL     OW16180   0.861   6.933   6.091
 5094SOL    HW116181   0.872   6.836   6.068
 5094SOL    HW216182   0.780   6.970   6.045
 5095SOL     OW16183   1.419   0.767   4.855
 5095SOL    HW116184   1.369   0.776   4.769
 5095SOL    HW216185   1.468   0.853   4.874
 5096SOL     OW16186   4.893   3.191   0.826
 5096SOL    HW116187   4.964   3.163   0.761
 5096SOL    HW216188   4.922   3.276   0.871
 5097SOL     OW16189   1.611   0.749   5.885
 5097SOL    HW116190   1.632   0.844   5.908
 5097SOL    HW216191   1.654   0.726   5.798
 5098SOL     OW16192   1.031   1.059   1.737
 5098SOL    HW116193   1.112   1.117   1.743
 5098SOL    HW216194   0.958   1.108   1.690
 5099SOL     OW16195   1.380   0.619   5.412
 5099SOL    HW116196   1.355   0.533   5.367
 5099SOL    HW216197   1.317   0.637   5.488
 5100SOL     OW16198   5.225   0.049   6.483
 5100SOL    HW116199   5.239   0.147   6.468
 5100SOL    HW216200   5.132   0.033   6.516
 5101SOL     OW16201   4.788   6.483   6.936
 5101SOL    HW116202   4.867   6.499   6.995
 5101SOL    HW216203   4.760   6.387   6.944
 5102SOL     OW16204   5.403   0.760   5.936
 5102SOL    HW116205   5.471   0.832   5.930
 5102SOL    HW216206   5.312   0.800   5.949
 5103SOL     OW16207   0.214   0.569   4.230
 5103SOL    HW116208   0.187   0.476   4.202
 5103SOL    HW216209   0.140   0.632   4.211
 5104SOL     OW16210   1.704   0.543   1.490
 5104SOL    HW116211   1.774   0.597   1.444
 5104SOL    HW216212   1.617   0.552   1.441
 5105SOL     OW16213   4.263   4.178   6.505
 5105SOL    HW116214   4.353   4.175   6.463
 5105SOL    HW216215   4.213   4.258   6.473
 5106SOL     OW16216   3.447   0.274   2.626
 5106SOL    HW116217   3.485   0.271   2.719
 5106SOL    HW216218   3.515   0.240   2.561
 5107SOL     OW16219   2.700   0.602   6.960
 5107SOL    HW116220   2.691   0.502   6.964
 5107SOL    HW216221   2.628   0.639   6.902
 5108SOL     OW16222   2.920   3.618   4.028
 5108SOL    HW116223   2.887   3.568   3.948
 5108SOL    HW216224   2.957   3.707   3.998
 5109SOL     OW16225   0.440   1.403   1.256
 5109SOL    HW116226   0.517   1.346   1.283
 5109SOL    HW216227   0.472   1.477   1.196
 5110SOL     OW16228   2.186   6.426   6.144
 5110SOL    HW116229   2.166   6.336   6.106
 5110SOL    HW216230   2.116   6.491   6.113
 5111SOL     OW16231   1.078   1.091   6.277
 5111SOL    HW116232   1.060   1.073   6.180
 5111SOL    HW216233   0.996   1.068   6.330
 5112SOL     OW16234   0.213   6.566   3.648
 5112SOL    HW116235   0.158   6.483   3.648
 5112SOL    HW216236   0.279   6.563   3.573
 5113SOL     OW16237   0.802   0.657   0.474
 5113SOL    HW116238   0.771   0.739   0.522
 5113SOL    HW216239   0.789   0.669   0.375
 5114SOL     OW16240   3.402   4.547   0.499
 5114SOL    HW116241   3.445   4.457   0.495
 5114SOL    HW216242   3.459   4.610   0.552
 5115SOL     OW16243   1.423   4.133   6.479
 5115SOL    HW116244   1.503   4.074   6.490
 5115SOL    HW216245   1.390   4.128   6.385
 5116SOL     OW16246   4.847   4.791   6.414
 5116SOL    HW116247   4.940   4.828   6.418
 5116SOL    HW216248   4.848   4.704   6.364
 5117SOL     OW16249   2.740   4.726   3.938
 5117SOL    HW116250   2.667   4.744   3.872
 5117SOL    HW216251   2.702   4.681   4.019
 5118SOL     OW16252   4.776   6.383   0.359
 5118SOL    HW116253   4.789   6.429   0.447
 5118SOL    HW216254   4.681   6.391   0.330
 5119SOL     OW16255   5.260   0.938   1.693
 5119SOL    HW116256   5.231   0.996   1.770
 5119SOL    HW216257   5.350   0.967   1.662
 5120SOL     OW16258   5.963   0.905   3.055
 5120SOL    HW116259   5.888   0.839   3.061
 5120SOL    HW216260   5.998   0.924   3.147
 5121SOL     OW16261   0.194   3.449   5.779
 5121SOL    HW116262   0.260   3.524   5.789
 5121SOL    HW216263   0.147   3.434   5.865
 5122SOL     OW16264   2.453   0.638   3.256
 5122SOL    HW116265   2.399   0.676   3.331
 5122SOL    HW216266   2.421   0.675   3.169
 5123SOL     OW16267   5.408   3.950   3.666
 5123SOL    HW116268   5.440   3.976   3.575
 5123SOL    HW216269   5.460   3.870   3.697
 5124SOL     OW16270   2.609   6.546   6.579
 5124SOL    HW116271   2.616   6.451   6.609
 5124SOL    HW216272   2.539   6.593   6.633
 5125SOL     OW16273   0.109   3.843   3.996
 5125SOL    HW116274   0.094   3.749   4.027
 5125SOL    HW216275   0.202   3.853   3.961
 5126SOL     OW16276   5.948   4.948   6.612
 5126SOL    HW116277   6.046   4.946   6.589
 5126SOL    HW216278   5.897   4.905   6.538
 5127SOL     OW16279   5.718   3.785   0.127
 5127SOL    HW116280   5.793   3.850   0.132
 5127SOL    HW216281   5.705   3.743   0.217
 5128SOL     OW16282   1.159   0.524   6.792
 5128SOL    HW116283   1.241   0.499   6.741
 5128SOL    HW216284   1.184   0.585   6.868
 5129SOL     OW16285   5.306   0.161   2.132
 5129SOL    HW116286   5.226   0.163   2.192
 5129SOL    HW216287   5.297   0.085   2.067
 5130SOL     OW16288   1.304   5.242   4.699
 5130SOL    HW116289   1.274   5.296   4.621
 5130SOL    HW216290   1.295   5.144   4.677
 5131SOL     OW16291   3.373   4.948   3.377
 5131SOL    HW116292   3.304   4.897   3.327
 5131SOL    HW216293   3.464   4.914   3.354
 5132SOL     OW16294   3.452   1.585   6.613
 5132SOL    HW116295   3.453   1.491   6.578
 5132SOL    HW216296   3.442   1.648   6.536
 5133SOL     OW16297   3.707   5.984   6.539
 5133SOL    HW116298   3.675   5.982   6.634
 5133SOL    HW216299   3.792   5.933   6.532
 5134SOL     OW16300   6.382   6.821   1.411
 5134SOL    HW116301   6.315   6.802   1.340
 5134SOL    HW216302   6.339   6.874   1.485
 5135SOL     OW16303   6.451   3.112   2.251
 5135SOL    HW116304   6.460   3.113   2.151
 5135SOL    HW216305   6.468   3.020   2.286
 5136SOL     OW16306   0.716   0.722   6.115
 5136SOL    HW116307   0.759   0.633   6.129
 5136SOL    HW216308   0.731   0.780   6.195
 5137SOL     OW16309   5.026   2.425   5.239
 5137SOL    HW116310   4.958   2.404   5.169
 5137SOL    HW216311   5.027   2.352   5.307
 5138SOL     OW16312   3.657   3.880   4.436
 5138SOL    HW116313   3.756   3.892   4.443
 5138SOL    HW216314   3.612   3.943   4.499
 5139SOL     OW16315   1.483   6.931   5.376
 5139SOL    HW116316   1.515   6.941   5.281
 5139SOL    HW216317   1.406   6.867   5.378
 5140SOL     OW16318   4.034   2.040   5.682
 5140SOL    HW116319   3.938   2.020   5.702
 5140SOL    HW216320   4.087   1.955   5.687
 5141SOL     OW16321   0.031   2.786   1.957
 5141SOL    HW116322   0.034   2.884   1.936
 5141SOL    HW216323   6.974   2.745   1.913
 5142SOL     OW16324   0.071   6.769   3.529
 5142SOL    HW116325   0.116   6.698   3.584
 5142SOL    HW216326   0.011   6.823   3.588
 5143SOL     OW16327   0.802   4.689   4.538
 5143SOL    HW116328   0.778   4.757   4.607
 5143SOL    HW216329   0.894   4.707   4.504
 5144SOL     OW16330   1.820   3.526   6.660
 5144SOL    HW116331   1.867   3.566   6.581
 5144SOL    HW216332   1.871   3.548   6.743
 5145SOL     OW16333   2.893   6.563   6.619
 5145SOL    HW116334   2.810   6.542   6.568
 5145SOL    HW216335   2.893   6.660   6.644
 5146SOL     OW16336   4.525   4.783   5.702
 5146SOL    HW116337   4.479   4.783   5.791
 5146SOL    HW216338   4.565   4.693   5.685
 5147SOL     OW16339   5.000   3.180   3.260
 5147SOL    HW116340   5.076   3.126   3.298
 5147SOL    HW216341   4.919   3.122   3.252
 5148SOL     OW16342   0.563   0.892   1.633
 5148SOL    HW116343   0.648   0.934   1.664
 5148SOL    HW216344   0.488   0.920   1.694
 5149SOL     OW16345   5.804   4.410   3.723
 5149SOL    HW116346   5.856   4.480   3.674
 5149SOL    HW216347   5.866   4.355   3.779
 5150SOL     OW16348   1.295   4.596   4.058
 5150SOL    HW116349   1.302   4.571   4.154
 5150SOL    HW216350   1.354   4.674   4.039
 5151SOL     OW16351   5.695   4.741   2.062
 5151SOL    HW116352   5.790   4.734   2.030
 5151SOL    HW216353   5.670   4.657   2.111
 5152SOL     OW16354   1.451   0.467   6.276
 5152SOL    HW116355   1.435   0.516   6.191
 5152SOL    HW216356   1.443   0.369   6.261
 5153SOL     OW16357   1.306   1.611   0.621
 5153SOL    HW116358   1.279   1.590   0.715
 5153SOL    HW216359   1.363   1.693   0.620
 5154SOL     OW16360   0.831   2.929   6.573
 5154SOL    HW116361   0.920   2.952   6.533
 5154SOL    HW216362   0.816   2.830   6.566
 5155SOL     OW16363   2.038   1.806   0.595
 5155SOL    HW116364   2.103   1.814   0.519
 5155SOL    HW216365   1.954   1.857   0.572
 5156SOL     OW16366   5.647   5.103   5.826
 5156SOL    HW116367   5.575   5.094   5.894
 5156SOL    HW216368   5.613   5.153   5.746
 5157SOL     OW16369   3.550   0.905   2.188
 5157SOL    HW116370   3.613   0.909   2.111
 5157SOL    HW216371   3.461   0.940   2.160
 5158SOL     OW16372   4.139   1.217   2.773
 5158SOL    HW116373   4.122   1.187   2.867
 5158SOL    HW216374   4.051   1.228   2.726
 5159SOL     OW16375   5.550   3.762   6.179
 5159SOL    HW116376   5.639   3.808   6.174
 5159SOL    HW216377   5.478   3.827   6.155
 5160SOL     OW16378   0.194   5.981   3.170
 5160SOL    HW116379   0.197   5.987   3.070
 5160SOL    HW216380   0.109   6.020   3.203
 5161SOL     OW16381   0.455   2.926   0.332
 5161SOL    HW116382   0.494   2.877   0.410
 5161SOL    HW216383   0.526   2.980   0.288
 5162SOL     OW16384   0.033   6.391   2.781
 5162SOL    HW116385   7.010   6.433   2.859
 5162SOL    HW216386   7.008   6.413   2.697
 5163SOL     OW16387   3.592   6.365   1.411
 5163SOL    HW116388   3.534   6.392   1.489
 5163SOL    HW216389   3.537   6.365   1.328
 5164SOL     OW16390   3.005   3.804   1.305
 5164SOL    HW116391   3.016   3.770   1.212
 5164SOL    HW216392   2.908   3.812   1.327
 5165SOL     OW16393   1.576   5.021   0.052
 5165SOL    HW116394   1.538   5.062   6.993
 5165SOL    HW216395   1.597   4.925   0.035
 5166SOL     OW16396   1.980   5.461   1.609
 5166SOL    HW116397   1.968   5.452   1.510
 5166SOL    HW216398   2.076   5.479   1.629
 5167SOL     OW16399   5.344   3.076   5.466
 5167SOL    HW116400   5.329   3.174   5.466
 5167SOL    HW216401   5.264   3.029   5.428
 5168SOL     OW16402   4.125   1.939   2.074
 5168SOL    HW116403   4.126   1.961   1.976
 5168SOL    HW216404   4.043   1.979   2.115
 5169SOL     OW16405   4.033   0.573   3.946
 5169SOL    HW116406   4.075   0.606   4.030
 5169SOL    HW216407   4.023   0.649   3.882
 5170SOL     OW16408   1.388   3.757   6.463
 5170SOL    HW116409   1.441   3.833   6.501
 5170SOL    HW216410   1.447   3.676   6.456
 5171SOL     OW16411   1.879   5.881   5.505
 5171SOL    HW116412   1.847   5.863   5.598
 5171SOL    HW216413   1.958   5.823   5.485
 5172SOL     OW16414   0.762   5.078   3.815
 5172SOL    HW116415   0.794   4.987   3.790
 5172SOL    HW216416   0.691   5.069   3.886
 5173SOL     OW16417   4.497   3.739   5.839
 5173SOL    HW116418   4.521   3.753   5.743
 5173SOL    HW216419   4.431   3.665   5.847
 5174SOL     OW16420   2.046   6.634   3.346
 5174SOL    HW116421   2.103   6.712   3.371
 5174SOL    HW216422   1.977   6.662   3.280
 5175SOL     OW16423   2.994   4.476   6.919
 5175SOL    HW116424   3.016   4.463   7.016
 5175SOL    HW216425   3.070   4.445   6.863
 5176SOL     OW16426   5.478   5.320   6.803
 5176SOL    HW116427   5.518   5.406   6.835
 5176SOL    HW216428   5.550   5.252   6.788
 5177SOL     OW16429   4.923   0.890   0.966
 5177SOL    HW116430   4.844   0.902   0.906
 5177SOL    HW216431   4.901   0.925   1.057
 5178SOL     OW16432   0.878   3.402   1.751
 5178SOL    HW116433   0.795   3.454   1.773
 5178SOL    HW216434   0.935   3.456   1.689
 5179SOL     OW16435   6.087   4.632   3.405
 5179SOL    HW116436   6.122   4.552   3.453
 5179SOL    HW216437   6.071   4.609   3.309
 5180SOL     OW16438   2.775   6.968   1.518
 5180SOL    HW116439   2.824   0.018   1.472
 5180SOL    HW216440   2.786   6.883   1.467
 5181SOL     OW16441   0.388   0.704   6.649
 5181SOL    HW116442   0.293   0.670   6.646
 5181SOL    HW216443   0.401   0.771   6.576
 5182SOL     OW16444   4.291   5.161   2.893
 5182SOL    HW116445   4.353   5.094   2.935
 5182SOL    HW216446   4.310   5.252   2.931
 5183SOL     OW16447   4.344   1.936   3.661
 5183SOL    HW116448   4.291   1.908   3.581
 5183SOL    HW216449   4.441   1.923   3.643
 5184SOL     OW16450   2.031   1.589   4.178
 5184SOL    HW116451   1.956   1.538   4.136
 5184SOL    HW216452   2.072   1.650   4.111
 5185SOL     OW16453   5.305   0.694   1.782
 5185SOL    HW116454   5.279   0.788   1.765
 5185SOL    HW216455   5.354   0.658   1.703
 5186SOL     OW16456   6.885   3.096   5.976
 5186SOL    HW116457   6.972   3.123   5.934
 5186SOL    HW216458   6.809   3.137   5.926
 5187SOL     OW16459   2.304   4.718   5.012
 5187SOL    HW116460   2.236   4.645   5.001
 5187SOL    HW216461   2.389   4.692   4.967
 5188SOL     OW16462   6.593   6.811   1.780
 5188SOL    HW116463   6.619   6.817   1.876
 5188SOL    HW216464   6.498   6.840   1.769
 5189SOL     OW16465   5.836   0.530   6.331
 5189SOL    HW116466   5.851   0.526   6.232
 5189SOL    HW216467   5.739   0.522   6.350
 5190SOL     OW16468   1.724   2.841   1.822
 5190SOL    HW116469   1.712   2.940   1.808
 5190SOL    HW216470   1.817   2.823   1.853
 5191SOL     OW16471   2.872   6.031   2.104
 5191SOL    HW116472   2.885   6.041   2.203
 5191SOL    HW216473   2.832   5.941   2.084
 5192SOL     OW16474   2.220   5.527   1.619
 5192SOL    HW116475   2.290   5.458   1.600
 5192SOL    HW216476   2.241   5.571   1.706
 5193SOL     OW16477   5.448   0.569   0.024
 5193SOL    HW116478   5.365   0.522   7.019
 5193SOL    HW216479   5.470   0.641   6.981
 5194SOL     OW16480   4.162   1.790   0.093
 5194SOL    HW116481   4.190   1.816   0.185
 5194SOL    HW216482   4.215   1.710   0.064
 5195SOL     OW16483   0.339   0.949   4.151
 5195SOL    HW116484   0.249   0.964   4.191
 5195SOL    HW216485   0.333   0.878   4.081
 5196SOL     OW16486   4.543   6.821   3.501
 5196SOL    HW116487   4.523   6.899   3.561
 5196SOL    HW216488   4.624   6.773   3.534
 5197SOL     OW16489   1.560   4.355   6.355
 5197SOL    HW116490   1.464   4.336   6.374
 5197SOL    HW216491   1.603   4.274   6.316
 5198SOL     OW16492   5.369   5.718   3.046
 5198SOL    HW116493   5.325   5.780   3.111
 5198SOL    HW216494   5.444   5.765   3.000
 5199SOL     OW16495   6.768   5.411   1.474
 5199SOL    HW116496   6.777   5.409   1.375
 5199SOL    HW216497   6.808   5.328   1.513
 5200SOL     OW16498   0.143   3.953   5.808
 5200SOL    HW116499   0.069   3.902   5.764
 5200SOL    HW216500   0.153   3.924   5.903
 5201SOL     OW16501   1.640   5.820   3.776
 5201SOL    HW116502   1.587   5.808   3.861
 5201SOL    HW216503   1.734   5.843   3.799
 5202SOL     OW16504   6.528   3.475   6.868
 5202SOL    HW116505   6.598   3.531   6.823
 5202SOL    HW216506   6.564   3.442   6.955
 5203SOL     OW16507   0.497   2.628   6.763
 5203SOL    HW116508   0.541   2.714   6.788
 5203SOL    HW216509   0.435   2.599   6.836
 5204SOL     OW16510   4.623   5.075   0.352
 5204SOL    HW116511   4.719   5.050   0.340
 5204SOL    HW216512   4.603   5.158   0.300
 5205SOL     OW16513   1.621   0.914   2.003
 5205SOL    HW116514   1.632   0.921   2.102
 5205SOL    HW216515   1.525   0.896   1.981
 5206SOL     OW16516   0.373   4.431   6.852
 5206SOL    HW116517   0.294   4.488   6.876
 5206SOL    HW216518   0.441   4.436   6.924
 5207SOL     OW16519   1.745   5.438   4.473
 5207SOL    HW116520   1.791   5.431   4.562
 5207SOL    HW216521   1.803   5.491   4.410
 5208SOL     OW16522   4.279   0.620   0.360
 5208SOL    HW116523   4.183   0.595   0.375
 5208SOL    HW216524   4.305   0.693   0.422
 5209SOL     OW16525   6.034   6.122   3.586
 5209SOL    HW116526   5.962   6.191   3.575
 5209SOL    HW216527   6.098   6.152   3.657
 5210SOL     OW16528   4.946   3.810   4.235
 5210SOL    HW116529   4.872   3.854   4.184
 5210SOL    HW216530   4.960   3.718   4.199
 5211SOL     OW16531   3.136   3.565   3.703
 5211SOL    HW116532   3.128   3.510   3.619
 5211SOL    HW216533   3.055   3.621   3.714
 5212SOL     OW16534   0.585   2.360   0.229
 5212SOL    HW116535   0.551   2.429   0.166
 5212SOL    HW216536   0.508   2.321   0.280
 5213SOL     OW16537   5.002   2.650   5.397
 5213SOL    HW116538   5.087   2.701   5.400
 5213SOL    HW216539   5.018   2.560   5.358
 5214SOL     OW16540   5.466   1.691   5.092
 5214SOL    HW116541   5.491   1.783   5.121
 5214SOL    HW216542   5.493   1.677   4.997
 5215SOL     OW16543   5.501   4.681   3.566
 5215SOL    HW116544   5.473   4.588   3.588
 5215SOL    HW216545   5.601   4.685   3.558
 5216SOL     OW16546   5.032   4.466   1.648
 5216SOL    HW116547   4.972   4.538   1.683
 5216SOL    HW216548   5.049   4.398   1.720
 5217SOL     OW16549   3.403   5.326   3.909
 5217SOL    HW116550   3.354   5.323   3.996
 5217SOL    HW216551   3.499   5.303   3.924
 5218SOL     OW16552   1.834   6.708   3.795
 5218SOL    HW116553   1.903   6.677   3.861
 5218SOL    HW216554   1.791   6.792   3.829
 5219SOL     OW16555   3.350   0.249   6.472
 5219SOL    HW116556   3.389   0.199   6.395
 5219SOL    HW216557   3.421   0.262   6.542
 5220SOL     OW16558   1.174   5.758   1.963
 5220SOL    HW116559   1.211   5.786   2.052
 5220SOL    HW216560   1.208   5.667   1.939
 5221SOL     OW16561   5.289   1.340   4.572
 5221SOL    HW116562   5.215   1.354   4.507
 5221SOL    HW216563   5.333   1.252   4.555
 5222SOL     OW16564   2.363   0.633   4.240
 5222SOL    HW116565   2.306   0.579   4.302
 5222SOL    HW216566   2.418   0.698   4.294
 5223SOL     OW16567   4.703   0.247   1.397
 5223SOL    HW116568   4.667   0.209   1.312
 5223SOL    HW216569   4.744   0.174   1.452
 5224SOL     OW16570   6.825   2.347   2.385
 5224SOL    HW116571   6.920   2.323   2.365
 5224SOL    HW216572   6.792   2.292   2.461
 5225SOL     OW16573   6.758   0.309   3.571
 5225SOL    HW116574   6.690   0.238   3.584
 5225SOL    HW216575   6.844   0.269   3.538
 5226SOL     OW16576   1.126   6.364   4.423
 5226SOL    HW116577   1.040   6.341   4.377
 5226SOL    HW216578   1.113   6.359   4.522
 5227SOL     OW16579   6.847   4.986   3.607
 5227SOL    HW116580   6.797   4.903   3.582
 5227SOL    HW216581   6.881   5.030   3.524
 5228SOL     OW16582   5.713   1.916   0.623
 5228SOL    HW116583   5.618   1.887   0.634
 5228SOL    HW216584   5.723   2.008   0.659
 5229SOL     OW16585   0.777   4.358   6.537
 5229SOL    HW116586   0.780   4.404   6.626
 5229SOL    HW216587   0.864   4.312   6.520
 5230SOL     OW16588   0.008   0.821   1.074
 5230SOL    HW116589   0.094   0.856   1.112
 5230SOL    HW216590   6.956   0.877   1.105
 5231SOL     OW16591   3.779   2.941   4.212
 5231SOL    HW116592   3.709   3.006   4.243
 5231SOL    HW216593   3.852   2.935   4.280
 5232SOL     OW16594   4.338   2.015   6.371
 5232SOL    HW116595   4.371   1.994   6.279
 5232SOL    HW216596   4.370   2.106   6.398
 5233SOL     OW16597   6.187   6.499   1.655
 5233SOL    HW116598   6.282   6.524   1.673
 5233SOL    HW216599   6.184   6.427   1.585
 5234SOL     OW16600   3.237   0.616   0.662
 5234SOL    HW116601   3.189   0.702   0.646
 5234SOL    HW216602   3.279   0.617   0.753
 5235SOL     OW16603   1.373   3.380   0.849
 5235SOL    HW116604   1.280   3.372   0.886
 5235SOL    HW216605   1.372   3.363   0.751
 5236SOL     OW16606   5.698   2.841   1.421
 5236SOL    HW116607   5.652   2.757   1.391
 5236SOL    HW216608   5.630   2.906   1.455
 5237SOL     OW16609   2.672   2.091   5.571
 5237SOL    HW116610   2.645   2.137   5.487
 5237SOL    HW216611   2.640   2.144   5.650
 5238SOL     OW16612   1.108   5.247   0.592
 5238SOL    HW116613   1.049   5.326   0.609
 5238SOL    HW216614   1.139   5.248   0.497
 5239SOL     OW16615   3.165   3.442   4.208
 5239SOL    HW116616   3.163   3.541   4.221
 5239SOL    HW216617   3.073   3.409   4.188
 5240SOL     OW16618   2.998   2.414   5.332
 5240SOL    HW116619   2.950   2.331   5.305
 5240SOL    HW216620   3.084   2.421   5.282
 5241SOL     OW16621   0.815   5.976   6.722
 5241SOL    HW116622   0.721   6.011   6.726
 5241SOL    HW216623   0.838   5.952   6.627
 5242SOL     OW16624   6.282   1.345   5.572
 5242SOL    HW116625   6.242   1.414   5.632
 5242SOL    HW216626   6.250   1.254   5.599
 5243SOL     OW16627   1.103   6.006   1.110
 5243SOL    HW116628   1.142   6.059   1.034
 5243SOL    HW216629   1.160   6.018   1.191
 5244SOL     OW16630   3.752   4.082   5.756
 5244SOL    HW116631   3.768   4.065   5.853
 5244SOL    HW216632   3.746   4.180   5.740
 5245SOL     OW16633   4.250   4.254   5.812
 5245SOL    HW116634   4.186   4.283   5.884
 5245SOL    HW216635   4.324   4.321   5.805
 5246SOL     OW16636   0.223   4.145   2.859
 5246SOL    HW116637   0.293   4.109   2.799
 5246SOL    HW216638   0.133   4.135   2.816
 5247SOL     OW16639   0.216   5.584   0.403
 5247SOL    HW116640   0.304   5.622   0.373
 5247SOL    HW216641   0.178   5.642   0.475
 5248SOL     OW16642   5.243   0.605   5.717
 5248SOL    HW116643   5.309   0.643   5.782
 5248SOL    HW216644   5.212   0.515   5.748
 5249SOL     OW16645   1.099   5.304   4.134
 5249SOL    HW116646   1.150   5.240   4.193
 5249SOL    HW216647   1.094   5.267   4.041
 5250SOL     OW16648   0.307   1.460   6.040
 5250SOL    HW116649   0.380   1.496   5.981
 5250SOL    HW216650   0.230   1.523   6.040
 5251SOL     OW16651   6.914   3.395   0.927
 5251SOL    HW116652   6.894   3.453   1.006
 5251SOL    HW216653   6.965   3.447   0.859
 5252SOL     OW16654   2.544   6.144   0.952
 5252SOL    HW116655   2.610   6.219   0.953
 5252SOL    HW216656   2.469   6.166   1.014
 5253SOL     OW16657   5.884   3.488   4.501
 5253SOL    HW116658   5.947   3.504   4.425
 5253SOL    HW216659   5.856   3.575   4.540
 5254SOL     OW16660   4.790   1.285   3.948
 5254SOL    HW116661   4.861   1.221   3.978
 5254SOL    HW216662   4.701   1.252   3.980
 5255SOL     OW16663   3.781   0.513   4.748
 5255SOL    HW116664   3.728   0.523   4.664
 5255SOL    HW216665   3.764   0.592   4.808
 5256SOL     OW16666   4.821   1.704   3.256
 5256SOL    HW116667   4.809   1.803   3.262
 5256SOL    HW216668   4.775   1.670   3.174
 5257SOL     OW16669   4.050   6.758   1.228
 5257SOL    HW116670   3.967   6.722   1.270
 5257SOL    HW216671   4.080   6.839   1.279
 5258SOL     OW16672   5.005   3.890   1.851
 5258SOL    HW116673   5.004   3.809   1.908
 5258SOL    HW216674   4.916   3.936   1.856
 5259SOL     OW16675   4.748   6.021   2.536
 5259SOL    HW116676   4.746   6.076   2.453
 5259SOL    HW216677   4.655   5.995   2.561
 5260SOL     OW16678   5.337   3.373   0.783
 5260SOL    HW116679   5.366   3.278   0.776
 5260SOL    HW216680   5.285   3.386   0.867
 5261SOL     OW16681   0.097   1.990   5.083
 5261SOL    HW116682   0.049   1.979   4.995
 5261SOL    HW216683   0.196   1.990   5.067
 5262SOL     OW16684   2.819   6.957   2.625
 5262SOL    HW116685   2.867   6.975   2.540
 5262SOL    HW216686   2.876   6.985   2.702
 5263SOL     OW16687   1.760   0.340   5.994
 5263SOL    HW116688   1.709   0.254   5.996
 5263SOL    HW216689   1.752   0.387   6.082
 5264SOL     OW16690   6.509   1.556   1.479
 5264SOL    HW116691   6.509   1.592   1.386
 5264SOL    HW216692   6.490   1.458   1.477
 5265SOL     OW16693   5.518   4.034   2.427
 5265SOL    HW116694   5.547   4.115   2.377
 5265SOL    HW216695   5.443   3.989   2.377
 5266SOL     OW16696   2.531   6.430   1.842
 5266SOL    HW116697   2.455   6.462   1.899
 5266SOL    HW216698   2.606   6.496   1.847
 5267SOL     OW16699   4.747   4.953   6.154
 5267SOL    HW116700   4.679   4.930   6.084
 5267SOL    HW216701   4.701   4.984   6.237
 5268SOL     OW16702   6.570   5.765   5.303
 5268SOL    HW116703   6.511   5.829   5.253
 5268SOL    HW216704   6.663   5.771   5.267
 5269SOL     OW16705   2.004   5.376   3.597
 5269SOL    HW116706   1.982   5.465   3.558
 5269SOL    HW216707   2.088   5.383   3.652
 5270SOL     OW16708   5.312   2.290   1.025
 5270SOL    HW116709   5.252   2.343   1.086
 5270SOL    HW216710   5.328   2.199   1.064
 5271SOL     OW16711   4.374   5.046   5.401
 5271SOL    HW116712   4.379   5.125   5.462
 5271SOL    HW216713   4.316   4.976   5.442
 5272SOL     OW16714   0.829   5.651   4.956
 5272SOL    HW116715   0.769   5.572   4.970
 5272SOL    HW216716   0.854   5.690   5.045
 5273SOL     OW16717   0.768   2.185   3.862
 5273SOL    HW116718   0.741   2.099   3.820
 5273SOL    HW216719   0.864   2.204   3.839
 5274SOL     OW16720   6.649   5.078   3.837
 5274SOL    HW116721   6.666   5.101   3.741
 5274SOL    HW216722   6.677   4.983   3.852
 5275SOL     OW16723   3.189   0.014   6.301
 5275SOL    HW116724   3.200   6.987   6.386
 5275SOL    HW216725   3.098   0.055   6.298
 5276SOL     OW16726   6.977   6.785   0.861
 5276SOL    HW116727   6.886   6.825   0.847
 5276SOL    HW216728   0.002   6.837   0.930
 5277SOL     OW16729   1.682   1.930   3.552
 5277SOL    HW116730   1.696   1.857   3.485
 5277SOL    HW216731   1.591   1.921   3.592
 5278SOL     OW16732   6.385   6.405   6.045
 5278SOL    HW116733   6.390   6.505   6.053
 5278SOL    HW216734   6.474   6.365   6.065
 5279SOL     OW16735   1.358   5.574   6.381
 5279SOL    HW116736   1.408   5.555   6.297
 5279SOL    HW216737   1.301   5.656   6.369
 5280SOL     OW16738   3.908   6.326   5.071
 5280SOL    HW116739   3.826   6.341   5.016
 5280SOL    HW216740   3.903   6.237   5.116
 5281SOL     OW16741   1.345   0.461   4.796
 5281SOL    HW116742   1.373   0.546   4.752
 5281SOL    HW216743   1.426   0.406   4.817
 5282SOL     OW16744   2.271   0.240   2.549
 5282SOL    HW116745   2.190   0.231   2.491
 5282SOL    HW216746   2.248   0.293   2.631
 5283SOL     OW16747   1.419   0.641   3.919
 5283SOL    HW116748   1.510   0.675   3.943
 5283SOL    HW216749   1.380   0.593   3.997
 5284SOL     OW16750   4.964   2.381   2.706
 5284SOL    HW116751   4.870   2.405   2.729
 5284SOL    HW216752   4.969   2.354   2.610
 5285SOL     OW16753   0.732   3.095   3.428
 5285SOL    HW116754   0.705   3.143   3.344
 5285SOL    HW216755   0.710   3.152   3.507
 5286SOL     OW16756   6.456   3.965   0.928
 5286SOL    HW116757   6.515   3.885   0.939
 5286SOL    HW216758   6.465   4.000   0.834
 5287SOL     OW16759   3.266   5.337   2.161
 5287SOL    HW116760   3.190   5.381   2.209
 5287SOL    HW216761   3.324   5.407   2.119
 5288SOL     OW16762   4.822   0.232   2.190
 5288SOL    HW116763   4.751   0.181   2.143
 5288SOL    HW216764   4.824   0.326   2.156
 5289SOL     OW16765   2.256   5.172   6.869
 5289SOL    HW116766   2.174   5.178   6.812
 5289SOL    HW216767   2.238   5.211   6.959
 5290SOL     OW16768   1.717   4.255   5.476
 5290SOL    HW116769   1.639   4.285   5.531
 5290SOL    HW216770   1.708   4.290   5.383
 5291SOL     OW16771   2.579   4.579   5.765
 5291SOL    HW116772   2.507   4.539   5.822
 5291SOL    HW216773   2.668   4.546   5.796
 5292SOL     OW16774   6.217   3.920   6.174
 5292SOL    HW116775   6.147   3.989   6.192
 5292SOL    HW216776   6.173   3.832   6.153
 5293SOL     OW16777   2.226   5.514   4.719
 5293SOL    HW116778   2.289   5.585   4.688
 5293SOL    HW216779   2.273   5.425   4.718
 5294SOL     OW16780   4.546   0.941   5.722
 5294SOL    HW116781   4.601   0.933   5.639
 5294SOL    HW216782   4.482   1.018   5.712
 5295SOL     OW16783   3.972   1.032   3.383
 5295SOL    HW116784   3.944   0.980   3.463
 5295SOL    HW216785   4.008   1.121   3.411
 5296SOL     OW16786   3.798   3.770   0.367
 5296SOL    HW116787   3.819   3.686   0.318
 5296SOL    HW216788   3.882   3.815   0.395
 5297SOL     OW16789   2.275   3.077   0.735
 5297SOL    HW116790   2.345   3.023   0.688
 5297SOL    HW216791   2.319   3.142   0.796
 5298SOL     OW16792   2.303   6.124   6.850
 5298SOL    HW116793   2.315   6.184   6.929
 5298SOL    HW216794   2.328   6.031   6.876
 5299SOL     OW16795   3.093   2.479   0.750
 5299SOL    HW116796   3.155   2.447   0.821
 5299SOL    HW216797   3.051   2.401   0.704
 5300SOL     OW16798   0.731   5.098   1.027
 5300SOL    HW116799   0.766   5.121   1.118
 5300SOL    HW216800   0.793   5.133   0.957
 5301SOL     OW16801   4.289   0.436   6.630
 5301SOL    HW116802   4.246   0.353   6.665
 5301SOL    HW216803   4.385   0.439   6.660
 5302SOL     OW16804   5.235   6.537   3.906
 5302SOL    HW116805   5.314   6.562   3.850
 5302SOL    HW216806   5.211   6.441   3.888
 5303SOL     OW16807   0.399   5.132   5.287
 5303SOL    HW116808   0.474   5.151   5.351
 5303SOL    HW216809   0.352   5.049   5.315
 5304SOL     OW16810   6.158   0.962   0.957
 5304SOL    HW116811   6.093   0.946   0.882
 5304SOL    HW216812   6.234   1.018   0.924
 5305SOL     OW16813   1.538   5.277   2.444
 5305SOL    HW116814   1.447   5.245   2.419
 5305SOL    HW216815   1.534   5.375   2.466
 5306SOL     OW16816   0.218   4.435   5.880
 5306SOL    HW116817   0.260   4.344   5.879
 5306SOL    HW216818   0.266   4.495   5.816
 5307SOL     OW16819   4.749   1.819   0.419
 5307SOL    HW116820   4.683   1.894   0.412
 5307SOL    HW216821   4.774   1.789   0.327
 5308SOL     OW16822   1.008   4.855   2.497
 5308SOL    HW116823   0.993   4.822   2.404
 5308SOL    HW216824   1.070   4.794   2.546
 5309SOL     OW16825   3.442   5.870   2.261
 5309SOL    HW116826   3.532   5.831   2.239
 5309SOL    HW216827   3.423   5.946   2.199
 5310SOL     OW16828   6.409   3.463   2.759
 5310SOL    HW116829   6.319   3.447   2.719
 5310SOL    HW216830   6.476   3.399   2.721
 5311SOL     OW16831   5.719   6.988   6.865
 5311SOL    HW116832   5.724   0.052   6.818
 5311SOL    HW216833   5.678   7.001   6.956
 5312SOL     OW16834   0.264   6.104   1.913
 5312SOL    HW116835   0.313   6.069   1.833
 5312SOL    HW216836   0.306   6.070   1.996
 5313SOL     OW16837   0.690   4.415   5.858
 5313SOL    HW116838   0.683   4.315   5.858
 5313SOL    HW216839   0.650   4.451   5.774
 5314SOL     OW16840   4.396   0.118   0.826
 5314SOL    HW116841   4.298   0.106   0.838
 5314SOL    HW216842   4.412   0.191   0.759
 5315SOL     OW16843   4.673   2.779   2.866
 5315SOL    HW116844   4.650   2.747   2.774
 5315SOL    HW216845   4.692   2.877   2.863
 5316SOL     OW16846   1.170   4.087   5.414
 5316SOL    HW116847   1.098   4.020   5.430
 5316SOL    HW216848   1.148   4.172   5.462
 5317SOL     OW16849   6.520   1.487   5.615
 5317SOL    HW116850   6.451   1.424   5.578
 5317SOL    HW216851   6.511   1.576   5.571
 5318SOL     OW16852   0.560   2.666   0.477
 5318SOL    HW116853   0.606   2.636   0.561
 5318SOL    HW216854   0.592   2.611   0.400
 5319SOL     OW16855   4.577   6.001   1.228
 5319SOL    HW116856   4.571   5.921   1.287
 5319SOL    HW216857   4.664   5.999   1.178
 5320SOL     OW16858   4.093   5.447   1.139
 5320SOL    HW116859   4.087   5.523   1.204
 5320SOL    HW216860   4.141   5.370   1.182
 5321SOL     OW16861   2.466   4.419   4.677
 5321SOL    HW116862   2.523   4.346   4.715
 5321SOL    HW216863   2.393   4.378   4.622
 5322SOL     OW16864   5.437   6.771   0.121
 5322SOL    HW116865   5.362   6.705   0.118
 5322SOL    HW216866   5.480   6.776   0.031
 5323SOL     OW16867   4.368   1.375   5.817
 5323SOL    HW116868   4.381   1.357   5.914
 5323SOL    HW216869   4.346   1.290   5.769
 5324SOL     OW16870   2.868   2.456   0.262
 5324SOL    HW116871   2.942   2.400   0.225
 5324SOL    HW216872   2.901   2.550   0.275
 5325SOL     OW16873   3.078   1.133   4.860
 5325SOL    HW116874   2.980   1.141   4.879
 5325SOL    HW216875   3.098   1.169   4.769
 5326SOL     OW16876   6.701   5.736   3.479
 5326SOL    HW116877   6.720   5.666   3.548
 5326SOL    HW216878   6.782   5.752   3.423
 5327SOL     OW16879   6.119   2.534   4.952
 5327SOL    HW116880   6.058   2.505   4.877
 5327SOL    HW216881   6.072   2.604   5.006
 5328SOL     OW16882   3.106   3.813   6.021
 5328SOL    HW116883   3.073   3.800   5.927
 5328SOL    HW216884   3.205   3.803   6.023
 5329SOL     OW16885   0.559   5.202   6.506
 5329SOL    HW116886   0.555   5.301   6.519
 5329SOL    HW216887   0.488   5.173   6.443
 5330SOL     OW16888   3.764   4.360   6.954
 5330SOL    HW116889   3.708   4.293   6.906
 5330SOL    HW216890   3.828   4.312   7.015
 5331SOL     OW16891   5.871   2.160   6.262
 5331SOL    HW116892   5.847   2.091   6.193
 5331SOL    HW216893   5.961   2.140   6.299
 5332SOL     OW16894   1.226   3.384   1.400
 5332SOL    HW116895   1.296   3.380   1.471
 5332SOL    HW216896   1.168   3.302   1.406
 5333SOL     OW16897   0.884   1.123   3.132
 5333SOL    HW116898   0.937   1.084   3.056
 5333SOL    HW216899   0.892   1.223   3.129
 5334SOL     OW16900   3.097   0.859   4.371
 5334SOL    HW116901   3.089   0.855   4.471
 5334SOL    HW216902   3.051   0.780   4.331
 5335SOL     OW16903   0.306   5.982   0.928
 5335SOL    HW116904   0.308   6.049   0.854
 5335SOL    HW216905   0.285   6.028   1.014
 5336SOL     OW16906   2.084   3.444   2.371
 5336SOL    HW116907   2.095   3.359   2.319
 5336SOL    HW216908   2.120   3.432   2.463
 5337SOL     OW16909   5.214   4.073   1.154
 5337SOL    HW116910   5.145   4.092   1.085
 5337SOL    HW216911   5.174   4.017   1.226
 5338SOL     OW16912   5.878   1.416   0.122
 5338SOL    HW116913   5.879   1.332   0.175
 5338SOL    HW216914   5.798   1.416   0.061
 5339SOL     OW16915   6.885   1.352   3.919
 5339SOL    HW116916   6.879   1.444   3.957
 5339SOL    HW216917   6.793   1.317   3.901
 5340SOL     OW16918   5.542   4.065   0.766
 5340SOL    HW116919   5.580   4.132   0.830
 5340SOL    HW216920   5.466   4.106   0.717
 5341SOL     OW16921   3.720   2.475   6.589
 5341SOL    HW116922   3.803   2.440   6.546
 5341SOL    HW216923   3.676   2.403   6.642
 5342SOL     OW16924   3.901   0.818   4.586
 5342SOL    HW116925   3.884   0.870   4.669
 5342SOL    HW216926   3.843   0.853   4.512
 5343SOL     OW16927   3.357   3.839   4.022
 5343SOL    HW116928   3.337   3.743   4.005
 5343SOL    HW216929   3.271   3.889   4.034
 5344SOL     OW16930   1.886   2.346   2.504
 5344SOL    HW116931   1.974   2.364   2.461
 5344SOL    HW216932   1.863   2.422   2.565
 5345SOL     OW16933   4.225   6.286   1.819
 5345SOL    HW116934   4.153   6.230   1.861
 5345SOL    HW216935   4.187   6.333   1.738
 5346SOL     OW16936   2.871   6.288   3.799
 5346SOL    HW116937   2.917   6.277   3.887
 5346SOL    HW216938   2.819   6.205   3.779
 5347SOL     OW16939   0.196   2.517   1.878
 5347SOL    HW116940   0.116   2.538   1.822
 5347SOL    HW216941   0.217   2.595   1.937
 5348SOL     OW16942   0.892   1.426   0.616
 5348SOL    HW116943   0.959   1.457   0.549
 5348SOL    HW216944   0.926   1.344   0.662
 5349SOL     OW16945   1.123   2.404   0.262
 5349SOL    HW116946   1.046   2.343   0.277
 5349SOL    HW216947   1.144   2.409   0.165
 5350SOL     OW16948   2.250   0.515   6.163
 5350SOL    HW116949   2.289   0.604   6.185
 5350SOL    HW216950   2.152   0.516   6.183
 5351SOL     OW16951   5.231   5.609   1.996
 5351SOL    HW116952   5.277   5.638   2.080
 5351SOL    HW216953   5.181   5.524   2.013
 5352SOL     OW16954   1.957   5.865   4.338
 5352SOL    HW116955   1.963   5.957   4.299
 5352SOL    HW216956   1.870   5.823   4.312
 5353SOL     OW16957   3.235   5.876   4.743
 5353SOL    HW116958   3.240   5.867   4.842
 5353SOL    HW216959   3.194   5.794   4.704
 5354SOL     OW16960   1.423   5.124   2.097
 5354SOL    HW116961   1.488   5.198   2.076
 5354SOL    HW216962   1.352   5.121   2.027
 5355SOL     OW16963   4.962   2.665   3.879
 5355SOL    HW116964   5.027   2.618   3.939
 5355SOL    HW216965   4.892   2.599   3.849
 5356SOL     OW16966   5.925   4.408   1.997
 5356SOL    HW116967   5.969   4.366   1.917
 5356SOL    HW216968   5.890   4.335   2.057
 5357SOL     OW16969   3.250   0.259   0.892
 5357SOL    HW116970   3.215   0.278   0.984
 5357SOL    HW216971   3.252   0.343   0.839
 5358SOL     OW16972   3.888   2.019   0.835
 5358SOL    HW116973   3.972   2.057   0.797
 5358SOL    HW216974   3.855   2.077   0.909
 5359SOL     OW16975   1.917   2.045   6.752
 5359SOL    HW116976   1.979   2.105   6.803
 5359SOL    HW216977   1.823   2.080   6.759
 5360SOL     OW16978   4.211   6.720   4.689
 5360SOL    HW116979   4.137   6.695   4.751
 5360SOL    HW216980   4.291   6.748   4.743
 5361SOL     OW16981   2.180   6.775   4.668
 5361SOL    HW116982   2.223   6.796   4.756
 5361SOL    HW216983   2.167   6.859   4.616
 5362SOL     OW16984   5.101   4.078   4.009
 5362SOL    HW116985   5.016   4.025   4.012
 5362SOL    HW216986   5.103   4.142   4.086
 5363SOL     OW16987   1.049   6.044   6.352
 5363SOL    HW116988   1.097   6.010   6.272
 5363SOL    HW216989   0.988   5.973   6.387
 5364SOL     OW16990   6.696   5.849   1.398
 5364SOL    HW116991   6.724   5.944   1.409
 5364SOL    HW216992   6.765   5.801   1.343
 5365SOL     OW16993   3.892   3.158   6.905
 5365SOL    HW116994   3.942   3.090   6.959
 5365SOL    HW216995   3.882   3.242   6.959
 5366SOL     OW16996   5.244   5.094   1.967
 5366SOL    HW116997   5.322   5.034   1.952
 5366SOL    HW216998   5.160   5.040   1.971
 5367SOL     OW16999   0.272   5.463   0.715
 5367SOL    HW117000   0.356   5.425   0.754
 5367SOL    HW217001   0.294   5.520   0.636
 5368SOL     OW17002   5.229   1.132   3.155
 5368SOL    HW117003   5.263   1.141   3.249
 5368SOL    HW217004   5.228   1.222   3.111
 5369SOL     OW17005   2.767   6.069   3.467
 5369SOL    HW117006   2.697   6.126   3.423
 5369SOL    HW217007   2.839   6.048   3.400
 5370SOL     OW17008   4.000   3.206   1.691
 5370SOL    HW117009   3.913   3.253   1.675
 5370SOL    HW217010   4.005   3.125   1.633
 5371SOL     OW17011   1.824   3.441   3.841
 5371SOL    HW117012   1.768   3.523   3.827
 5371SOL    HW217013   1.829   3.420   3.939
 5372SOL     OW17014   2.101   5.729   2.778
 5372SOL    HW117015   2.046   5.809   2.753
 5372SOL    HW217016   2.082   5.705   2.873
 5373SOL     OW17017   3.006   4.845   3.984
 5373SOL    HW117018   2.910   4.828   3.959
 5373SOL    HW217019   3.014   4.845   4.083
 5374SOL     OW17020   1.114   3.736   6.767
 5374SOL    HW117021   1.180   3.690   6.707
 5374SOL    HW217022   1.141   3.725   6.862
 5375SOL     OW17023   1.336   4.591   4.947
 5375SOL    HW117024   1.315   4.497   4.920
 5375SOL    HW217025   1.315   4.603   5.044
 5376SOL     OW17026   1.620   2.818   1.251
 5376SOL    HW117027   1.641   2.912   1.278
 5376SOL    HW217028   1.704   2.764   1.252
 5377SOL     OW17029   6.707   0.117   1.674
 5377SOL    HW117030   6.656   0.079   1.597
 5377SOL    HW217031   6.699   0.056   1.753
 5378SOL     OW17032   6.778   0.287   1.367
 5378SOL    HW117033   6.768   0.335   1.454
 5378SOL    HW217034   6.734   0.340   1.295
 5379SOL     OW17035   0.832   5.335   4.737
 5379SOL    HW117036   0.809   5.289   4.652
 5379SOL    HW217037   0.915   5.296   4.775
 5380SOL     OW17038   2.169   1.306   3.212
 5380SOL    HW117039   2.114   1.257   3.279
 5380SOL    HW217040   2.215   1.383   3.256
 5381SOL     OW17041   6.443   4.045   0.657
 5381SOL    HW117042   6.358   4.003   0.625
 5381SOL    HW217043   6.480   4.103   0.584
 5382SOL     OW17044   3.007   0.301   1.832
 5382SOL    HW117045   2.939   0.263   1.894
 5382SOL    HW217046   3.067   0.227   1.800
 5383SOL     OW17047   2.646   2.455   5.157
 5383SOL    HW117048   2.663   2.372   5.211
 5383SOL    HW217049   2.692   2.533   5.200
 5384SOL     OW17050   6.172   0.550   4.114
 5384SOL    HW117051   6.165   0.595   4.203
 5384SOL    HW217052   6.190   0.618   4.043
 5385SOL     OW17053   2.894   3.521   2.943
 5385SOL    HW117054   2.848   3.591   2.999
 5385SOL    HW217055   2.915   3.559   2.853
 5386SOL     OW17056   4.539   6.727   4.424
 5386SOL    HW117057   4.512   6.658   4.357
 5386SOL    HW217058   4.598   6.795   4.380
 5387SOL     OW17059   2.454   5.729   3.534
 5387SOL    HW117060   2.488   5.646   3.489
 5387SOL    HW217061   2.371   5.760   3.489
 5388SOL     OW17062   5.229   6.900   3.145
 5388SOL    HW117063   5.184   6.831   3.088
 5388SOL    HW217064   5.162   6.940   3.207
 5389SOL     OW17065   5.066   0.900   1.523
 5389SOL    HW117066   5.104   0.888   1.431
 5389SOL    HW217067   5.141   0.907   1.589
 5390SOL     OW17068   4.361   4.650   4.203
 5390SOL    HW117069   4.291   4.671   4.271
 5390SOL    HW217070   4.409   4.734   4.176
 5391SOL     OW17071   2.038   2.221   0.428
 5391SOL    HW117072   2.069   2.265   0.344
 5391SOL    HW217073   2.080   2.267   0.507
 5392SOL     OW17074   6.029   3.428   1.054
 5392SOL    HW117075   6.077   3.343   1.076
 5392SOL    HW217076   6.089   3.488   1.000
 5393SOL     OW17077   6.238   6.598   6.662
 5393SOL    HW117078   6.165   6.626   6.724
 5393SOL    HW217079   6.227   6.501   6.639
 5394SOL     OW17080   6.836   3.878   6.332
 5394SOL    HW117081   6.760   3.889   6.396
 5394SOL    HW217082   6.813   3.809   6.263
 5395SOL     OW17083   4.917   0.916   1.844
 5395SOL    HW117084   4.824   0.947   1.826
 5395SOL    HW217085   4.980   0.993   1.838
 5396SOL     OW17086   5.245   3.886   3.045
 5396SOL    HW117087   5.205   3.905   2.955
 5396SOL    HW217088   5.241   3.968   3.102
 5397SOL     OW17089   6.732   2.856   1.781
 5397SOL    HW117090   6.685   2.933   1.823
 5397SOL    HW217091   6.774   2.886   1.695
 5398SOL     OW17092   3.584   1.732   2.126
 5398SOL    HW117093   3.590   1.804   2.195
 5398SOL    HW217094   3.661   1.740   2.063
 5399SOL     OW17095   2.218   6.438   0.479
 5399SOL    HW117096   2.243   6.527   0.515
 5399SOL    HW217097   2.123   6.416   0.502
 5400SOL     OW17098   2.916   3.924   0.642
 5400SOL    HW117099   2.834   3.934   0.697
 5400SOL    HW217100   2.892   3.884   0.553
 5401SOL     OW17101   5.653   3.347   1.357
 5401SOL    HW117102   5.627   3.427   1.411
 5401SOL    HW217103   5.597   3.268   1.384
 5402SOL     OW17104   2.322   5.679   1.832
 5402SOL    HW117105   2.421   5.668   1.835
 5402SOL    HW217106   2.297   5.768   1.872
 5403SOL     OW17107   5.816   3.231   6.380
 5403SOL    HW117108   5.865   3.217   6.294
 5403SOL    HW217109   5.809   3.329   6.399
 5404SOL     OW17110   0.889   1.553   3.409
 5404SOL    HW117111   0.900   1.640   3.361
 5404SOL    HW217112   0.807   1.507   3.376
 5405SOL     OW17113   6.193   5.540   0.579
 5405SOL    HW117114   6.162   5.533   0.485
 5405SOL    HW217115   6.207   5.636   0.603
 5406SOL     OW17116   2.143   1.481   6.627
 5406SOL    HW117117   2.181   1.533   6.704
 5406SOL    HW217118   2.067   1.531   6.588
 5407SOL     OW17119   4.618   3.160   0.839
 5407SOL    HW117120   4.713   3.182   0.817
 5407SOL    HW217121   4.612   3.065   0.871
 5408SOL     OW17122   2.947   1.301   6.464
 5408SOL    HW117123   2.883   1.363   6.510
 5408SOL    HW217124   2.980   1.343   6.380
 5409SOL     OW17125   5.258   0.465   3.632
 5409SOL    HW117126   5.316   0.389   3.663
 5409SOL    HW217127   5.272   0.479   3.534
 5410SOL     OW17128   2.748   2.485   1.663
 5410SOL    HW117129   2.822   2.464   1.728
 5410SOL    HW217130   2.677   2.415   1.670
 5411SOL     OW17131   6.521   5.337   5.575
 5411SOL    HW117132   6.506   5.425   5.531
 5411SOL    HW217133   6.435   5.285   5.576
 5412SOL     OW17134   5.171   1.734   0.558
 5412SOL    HW117135   5.208   1.718   0.649
 5412SOL    HW217136   5.246   1.732   0.491
 5413SOL     OW17137   3.030   1.781   1.302
 5413SOL    HW117138   2.980   1.861   1.334
 5413SOL    HW217139   2.990   1.699   1.341
 5414SOL     OW17140   5.203   1.964   4.706
 5414SOL    HW117141   5.118   1.942   4.753
 5414SOL    HW217142   5.279   1.954   4.770
 5415SOL     OW17143   0.887   5.803   1.329
 5415SOL    HW117144   0.845   5.809   1.420
 5415SOL    HW217145   0.815   5.797   1.260
 5416SOL     OW17146   4.955   5.370   6.046
 5416SOL    HW117147   4.955   5.283   6.096
 5416SOL    HW217148   4.940   5.445   6.110
 5417SOL     OW17149   3.825   6.876   5.033
 5417SOL    HW117150   3.837   6.908   4.939
 5417SOL    HW217151   3.746   6.815   5.037
 5418SOL     OW17152   3.252   6.635   3.846
 5418SOL    HW117153   3.160   6.675   3.837
 5418SOL    HW217154   3.288   6.612   3.756
 5419SOL     OW17155   3.976   5.514   0.395
 5419SOL    HW117156   3.972   5.507   0.295
 5419SOL    HW217157   4.036   5.443   0.431
 5420SOL     OW17158   1.723   3.098   2.474
 5420SOL    HW117159   1.633   3.058   2.492
 5420SOL    HW217160   1.779   3.093   2.557
 5421SOL     OW17161   2.003   3.120   1.735
 5421SOL    HW117162   1.953   3.206   1.744
 5421SOL    HW217163   2.026   3.085   1.826
 5422SOL     OW17164   0.206   5.155   0.636
 5422SOL    HW117165   0.249   5.136   0.724
 5422SOL    HW217166   0.276   5.162   0.565
 5423SOL     OW17167   6.349   3.243   6.785
 5423SOL    HW117168   6.379   3.213   6.875
 5423SOL    HW217169   6.364   3.341   6.775
 5424SOL     OW17170   5.997   3.032   3.491
 5424SOL    HW117171   5.962   2.967   3.559
 5424SOL    HW217172   5.921   3.069   3.438
 5425SOL     OW17173   4.491   0.900   4.497
 5425SOL    HW117174   4.590   0.892   4.485
 5425SOL    HW217175   4.458   0.981   4.450
 5426SOL     OW17176   6.422   5.824   4.275
 5426SOL    HW117177   6.368   5.774   4.207
 5426SOL    HW217178   6.361   5.873   4.337
 5427SOL     OW17179   4.741   5.277   6.445
 5427SOL    HW117180   4.711   5.354   6.500
 5427SOL    HW217181   4.793   5.310   6.366
 5428SOL     OW17182   6.803   6.771   1.278
 5428SOL    HW117183   6.797   6.868   1.256
 5428SOL    HW217184   6.866   6.759   1.355
 5429SOL     OW17185   2.311   2.338   6.523
 5429SOL    HW117186   2.233   2.281   6.549
 5429SOL    HW217187   2.278   2.417   6.470
 5430SOL     OW17188   0.472   3.170   5.960
 5430SOL    HW117189   0.527   3.123   6.029
 5430SOL    HW217190   0.483   3.269   5.971
 5431SOL     OW17191   2.767   6.092   0.626
 5431SOL    HW117192   2.824   6.074   0.545
 5431SOL    HW217193   2.696   6.022   0.633
 5432SOL     OW17194   5.265   0.363   6.902
 5432SOL    HW117195   5.187   0.362   6.840
 5432SOL    HW217196   5.347   0.335   6.853
 5433SOL     OW17197   0.442   1.722   5.049
 5433SOL    HW117198   0.416   1.818   5.054
 5433SOL    HW217199   0.433   1.680   5.140
 5434SOL     OW17200   3.360   0.619   5.318
 5434SOL    HW117201   3.292   0.595   5.388
 5434SOL    HW217202   3.443   0.565   5.332
 5435SOL     OW17203   5.883   0.142   2.047
 5435SOL    HW117204   5.830   0.115   1.967
 5435SOL    HW217205   5.966   0.085   2.053
 5436SOL     OW17206   5.253   3.471   4.290
 5436SOL    HW117207   5.181   3.461   4.359
 5436SOL    HW217208   5.335   3.421   4.320
 5437SOL     OW17209   2.638   4.121   0.332
 5437SOL    HW117210   2.549   4.103   0.290
 5437SOL    HW217211   2.698   4.042   0.319
 5438SOL     OW17212   6.724   2.815   2.592
 5438SOL    HW117213   6.712   2.885   2.662
 5438SOL    HW217214   6.650   2.821   2.525
 5439SOL     OW17215   0.951   2.358   0.668
 5439SOL    HW117216   0.900   2.298   0.607
 5439SOL    HW217217   0.931   2.453   0.644
 5440SOL     OW17218   1.230   1.392   1.126
 5440SOL    HW117219   1.200   1.297   1.142
 5440SOL    HW217220   1.277   1.425   1.208
 5441SOL     OW17221   4.608   2.207   2.969
 5441SOL    HW117222   4.631   2.113   2.996
 5441SOL    HW217223   4.510   2.222   2.981
 5442SOL     OW17224   3.049   6.171   3.987
 5442SOL    HW117225   3.102   6.138   3.908
 5442SOL    HW217226   3.041   6.098   4.055
 5443SOL     OW17227   3.312   0.565   3.906
 5443SOL    HW117228   3.388   0.539   3.966
 5443SOL    HW217229   3.348   0.618   3.829
 5444SOL     OW17230   1.155   0.471   4.184
 5444SOL    HW117231   1.152   0.534   4.262
 5444SOL    HW217232   1.065   0.428   4.173
 5445SOL     OW17233   6.287   3.925   3.256
 5445SOL    HW117234   6.379   3.893   3.276
 5445SOL    HW217235   6.262   3.996   3.322
 5446SOL     OW17236   6.702   4.844   4.778
 5446SOL    HW117237   6.786   4.805   4.740
 5446SOL    HW217238   6.670   4.786   4.853
 5447SOL     OW17239   3.270   2.624   6.835
 5447SOL    HW117240   3.267   2.550   6.767
 5447SOL    HW217241   3.355   2.675   6.827
 5448SOL     OW17242   4.343   3.083   5.355
 5448SOL    HW117243   4.255   3.107   5.314
 5448SOL    HW217244   4.334   2.997   5.404
 5449SOL     OW17245   1.538   3.184   6.277
 5449SOL    HW117246   1.488   3.101   6.302
 5449SOL    HW217247   1.521   3.205   6.181
 5450SOL     OW17248   1.745   0.563   1.772
 5450SOL    HW117249   1.724   0.566   1.674
 5450SOL    HW217250   1.839   0.531   1.785
 5451SOL     OW17251   1.806   6.386   3.242
 5451SOL    HW117252   1.826   6.289   3.233
 5451SOL    HW217253   1.726   6.399   3.300
 5452SOL     OW17254   2.168   4.843   6.826
 5452SOL    HW117255   2.200   4.878   6.738
 5452SOL    HW217256   2.247   4.814   6.880
 5453SOL     OW17257   5.861   3.842   1.164
 5453SOL    HW117258   5.768   3.877   1.172
 5453SOL    HW217259   5.859   3.743   1.151
 5454SOL     OW17260   0.278   4.150   6.676
 5454SOL    HW117261   0.334   4.106   6.606
 5454SOL    HW217262   0.332   4.221   6.722
 5455SOL     OW17263   6.398   3.494   0.153
 5455SOL    HW117264   6.482   3.466   0.200
 5455SOL    HW217265   6.319   3.475   0.212
 5456SOL     OW17266   3.600   6.417   0.179
 5456SOL    HW117267   3.555   6.464   0.255
 5456SOL    HW217268   3.532   6.368   0.124
 5457SOL     OW17269   5.488   2.410   0.369
 5457SOL    HW117270   5.544   2.481   0.413
 5457SOL    HW217271   5.467   2.338   0.436
 5458SOL     OW17272   0.169   4.591   6.951
 5458SOL    HW117273   0.219   4.676   6.971
 5458SOL    HW217274   0.123   4.560   0.010
 5459SOL     OW17275   2.079   4.571   6.967
 5459SOL    HW117276   2.117   4.545   6.879
 5459SOL    HW217277   2.151   4.566   0.013
 5460SOL     OW17278   2.830   6.680   2.747
 5460SOL    HW117279   2.752   6.717   2.798
 5460SOL    HW217280   2.879   6.754   2.702
 5461SOL     OW17281   6.146   6.571   5.150
 5461SOL    HW117282   6.174   6.651   5.203
 5461SOL    HW217283   6.054   6.544   5.177
 5462SOL     OW17284   0.928   0.440   0.099
 5462SOL    HW117285   0.836   0.400   0.092
 5462SOL    HW217286   0.983   0.411   0.021
 5463SOL     OW17287   6.517   2.434   0.173
 5463SOL    HW117288   6.472   2.509   0.222
 5463SOL    HW217289   6.452   2.388   0.114
 5464SOL     OW17290   1.504   0.785   4.408
 5464SOL    HW117291   1.503   0.871   4.357
 5464SOL    HW217292   1.598   0.764   4.435
 5465SOL     OW17293   3.891   6.554   3.536
 5465SOL    HW117294   3.941   6.471   3.562
 5465SOL    HW217295   3.797   6.530   3.513
 5466SOL     OW17296   5.687   4.267   5.398
 5466SOL    HW117297   5.609   4.246   5.338
 5466SOL    HW217298   5.675   4.357   5.439
 5467SOL     OW17299   5.219   2.487   3.133
 5467SOL    HW117300   5.198   2.429   3.055
 5467SOL    HW217301   5.148   2.558   3.142
 5468SOL     OW17302   5.097   1.992   4.293
 5468SOL    HW117303   5.153   1.993   4.210
 5468SOL    HW217304   5.120   1.912   4.348
 5469SOL     OW17305   3.919   5.470   0.127
 5469SOL    HW117306   3.939   5.379   0.161
 5469SOL    HW217307   3.833   5.468   0.075
 5470SOL     OW17308   2.556   5.480   3.450
 5470SOL    HW117309   2.621   5.483   3.374
 5470SOL    HW217310   2.502   5.396   3.444
 5471SOL     OW17311   5.367   6.951   1.944
 5471SOL    HW117312   5.459   6.943   1.981
 5471SOL    HW217313   5.320   6.863   1.951
 5472SOL     OW17314   3.652   3.521   6.085
 5472SOL    HW117315   3.691   3.542   6.174
 5472SOL    HW217316   3.721   3.537   6.014
 5473SOL     OW17317   0.940   3.714   3.184
 5473SOL    HW117318   0.976   3.621   3.188
 5473SOL    HW217319   0.930   3.742   3.088
 5474SOL     OW17320   0.893   4.234   4.109
 5474SOL    HW117321   0.888   4.232   4.209
 5474SOL    HW217322   0.983   4.268   4.081
 5475SOL     OW17323   2.509   2.468   6.661
 5475SOL    HW117324   2.589   2.420   6.698
 5475SOL    HW217325   2.446   2.401   6.621
 5476SOL     OW17326   2.451   3.921   6.440
 5476SOL    HW117327   2.435   3.939   6.343
 5476SOL    HW217328   2.397   3.842   6.469
 5477SOL     OW17329   1.666   3.509   3.253
 5477SOL    HW117330   1.756   3.511   3.209
 5477SOL    HW217331   1.677   3.490   3.350
 5478SOL     OW17332   4.706   4.997   5.453
 5478SOL    HW117333   4.613   5.001   5.418
 5478SOL    HW217334   4.770   4.983   5.377
 5479SOL     OW17335   5.115   0.837   5.863
 5479SOL    HW117336   5.052   0.837   5.785
 5479SOL    HW217337   5.151   0.929   5.877
 5480SOL     OW17338   0.048   3.545   3.750
 5480SOL    HW117339   6.974   3.541   3.769
 5480SOL    HW217340   0.064   3.600   3.668
 5481SOL     OW17341   3.633   0.719   4.014
 5481SOL    HW117342   3.717   0.755   3.974
 5481SOL    HW217343   3.558   0.783   3.997
 5482SOL     OW17344   3.797   4.440   1.713
 5482SOL    HW117345   3.763   4.390   1.633
 5482SOL    HW217346   3.729   4.506   1.742
 5483SOL     OW17347   0.616   2.823   5.635
 5483SOL    HW117348   0.629   2.730   5.601
 5483SOL    HW217349   0.541   2.823   5.702
 5484SOL     OW17350   5.034   0.586   4.954
 5484SOL    HW117351   5.113   0.593   5.015
 5484SOL    HW217352   5.019   0.490   4.931
 5485SOL     OW17353   3.610   0.044   5.356
 5485SOL    HW117354   3.642   0.083   5.269
 5485SOL    HW217355   3.575   6.976   5.340
 5486SOL     OW17356   2.742   5.983   5.064
 5486SOL    HW117357   2.658   6.009   5.111
 5486SOL    HW217358   2.760   5.886   5.080
 5487SOL     OW17359   3.065   4.373   6.218
 5487SOL    HW117360   3.109   4.375   6.128
 5487SOL    HW217361   2.992   4.440   6.221
 5488SOL     OW17362   6.932   1.345   0.227
 5488SOL    HW117363   6.878   1.272   0.185
 5488SOL    HW217364   6.959   1.318   0.320
 5489SOL     OW17365   6.571   3.540   2.155
 5489SOL    HW117366   6.562   3.640   2.154
 5489SOL    HW217367   6.483   3.499   2.131
 5490SOL     OW17368   1.243   0.043   2.960
 5490SOL    HW117369   1.264   0.116   3.025
 5490SOL    HW217370   1.326   7.014   2.943
 5491SOL     OW17371   0.082   3.051   0.840
 5491SOL    HW117372   0.056   2.960   0.808
 5491SOL    HW217373   0.088   3.051   0.940
 5492SOL     OW17374   1.338   3.560   5.557
 5492SOL    HW117375   1.402   3.487   5.580
 5492SOL    HW217376   1.338   3.628   5.631
 5493SOL     OW17377   4.135   3.624   2.121
 5493SOL    HW117378   4.095   3.659   2.206
 5493SOL    HW217379   4.235   3.630   2.127
 5494SOL     OW17380   6.486   4.254   4.967
 5494SOL    HW117381   6.436   4.182   5.015
 5494SOL    HW217382   6.581   4.226   4.954
 5495SOL     OW17383   5.924   0.983   0.788
 5495SOL    HW117384   5.878   0.929   0.718
 5495SOL    HW217385   5.857   1.041   0.835
 5496SOL     OW17386   4.306   0.823   3.990
 5496SOL    HW117387   4.355   0.895   4.041
 5496SOL    HW217388   4.220   0.802   4.037
 5497SOL     OW17389   0.361   0.959   5.832
 5497SOL    HW117390   0.388   0.902   5.909
 5497SOL    HW217391   0.437   0.968   5.767
 5498SOL     OW17392   0.070   5.482   1.928
 5498SOL    HW117393   0.064   5.397   1.981
 5498SOL    HW217394   7.007   5.498   1.881
 5499SOL     OW17395   0.377   0.369   3.658
 5499SOL    HW117396   0.411   0.439   3.596
 5499SOL    HW217397   0.277   0.370   3.657
 5500SOL     OW17398   1.379   0.931   6.781
 5500SOL    HW117399   1.430   0.882   6.852
 5500SOL    HW217400   1.305   0.983   6.823
 5501SOL     OW17401   4.172   2.249   0.409
 5501SOL    HW117402   4.203   2.183   0.340
 5501SOL    HW217403   4.239   2.323   0.417
 5502SOL     OW17404   4.900   4.022   6.582
 5502SOL    HW117405   4.823   3.982   6.531
 5502SOL    HW217406   4.986   3.995   6.539
 5503SOL     OW17407   0.687   3.997   0.597
 5503SOL    HW117408   0.632   4.073   0.562
 5503SOL    HW217409   0.690   4.002   0.696
 5504SOL     OW17410   4.751   1.236   6.282
 5504SOL    HW117411   4.658   1.271   6.298
 5504SOL    HW217412   4.769   1.160   6.345
 5505SOL     OW17413   2.226   3.996   3.888
 5505SOL    HW117414   2.212   3.897   3.889
 5505SOL    HW217415   2.264   4.023   3.799
 5506SOL     OW17416   6.664   3.449   6.575
 5506SOL    HW117417   6.615   3.511   6.514
 5506SOL    HW217418   6.616   3.361   6.579
 5507SOL     OW17419   3.550   0.558   5.643
 5507SOL    HW117420   3.613   0.604   5.706
 5507SOL    HW217421   3.589   0.559   5.551
 5508SOL     OW17422   1.284   0.876   0.454
 5508SOL    HW117423   1.251   0.914   0.540
 5508SOL    HW217424   1.255   0.781   0.446
 5509SOL     OW17425   0.764   5.476   0.926
 5509SOL    HW117426   0.722   5.412   0.863
 5509SOL    HW217427   0.801   5.554   0.875
 5510SOL     OW17428   5.154   5.718   6.985
 5510SOL    HW117429   5.230   5.736   0.024
 5510SOL    HW217430   5.185   5.656   6.913
 5511SOL     OW17431   0.778   1.278   5.445
 5511SOL    HW117432   0.739   1.275   5.353
 5511SOL    HW217433   0.878   1.270   5.439
 5512SOL     OW17434   3.466   0.497   1.517
 5512SOL    HW117435   3.377   0.544   1.515
 5512SOL    HW217436   3.509   0.511   1.606
 5513SOL     OW17437   3.516   5.183   6.208
 5513SOL    HW117438   3.577   5.251   6.169
 5513SOL    HW217439   3.429   5.184   6.159
 5514SOL     OW17440   3.575   6.793   4.912
 5514SOL    HW117441   3.577   6.779   4.813
 5514SOL    HW217442   3.521   6.874   4.934
 5515SOL     OW17443   2.040   5.597   1.865
 5515SOL    HW117444   1.977   5.642   1.801
 5515SOL    HW217445   2.113   5.661   1.889
 5516SOL     OW17446   2.335   2.758   4.981
 5516SOL    HW117447   2.278   2.766   4.900
 5516SOL    HW217448   2.334   2.844   5.031
 5517SOL     OW17449   1.709   4.041   2.320
 5517SOL    HW117450   1.751   3.977   2.384
 5517SOL    HW217451   1.689   3.995   2.234
 5518SOL     OW17452   5.803   4.326   5.936
 5518SOL    HW117453   5.828   4.327   6.033
 5518SOL    HW217454   5.779   4.418   5.906
 5519SOL     OW17455   5.033   3.012   3.731
 5519SOL    HW117456   4.963   2.997   3.801
 5519SOL    HW217457   5.051   2.927   3.682
 5520SOL     OW17458   5.741   6.144   2.488
 5520SOL    HW117459   5.806   6.071   2.509
 5520SOL    HW217460   5.778   6.231   2.519
 5521SOL     OW17461   5.550   5.251   2.163
 5521SOL    HW117462   5.562   5.335   2.216
 5521SOL    HW217463   5.637   5.203   2.155
 5522SOL     OW17464   5.867   5.485   1.425
 5522SOL    HW117465   5.839   5.505   1.331
 5522SOL    HW217466   5.922   5.401   1.427
 5523SOL     OW17467   5.443   0.827   3.216
 5523SOL    HW117468   5.378   0.854   3.145
 5523SOL    HW217469   5.395   0.784   3.292
 5524SOL     OW17470   3.627   0.505   5.378
 5524SOL    HW117471   3.703   0.563   5.407
 5524SOL    HW217472   3.656   0.448   5.300
 5525SOL     OW17473   6.611   2.774   0.773
 5525SOL    HW117474   6.518   2.776   0.737
 5525SOL    HW217475   6.625   2.854   0.833
 5526SOL     OW17476   4.832   3.947   3.278
 5526SOL    HW117477   4.752   3.889   3.297
 5526SOL    HW217478   4.884   3.959   3.363
 5527SOL     OW17479   4.809   2.988   4.291
 5527SOL    HW117480   4.789   3.078   4.252
 5527SOL    HW217481   4.804   2.919   4.219
 5528SOL     OW17482   0.901   2.268   1.737
 5528SOL    HW117483   0.933   2.199   1.803
 5528SOL    HW217484   0.802   2.277   1.743
 5529SOL     OW17485   2.402   0.788   3.017
 5529SOL    HW117486   2.331   0.857   3.005
 5529SOL    HW217487   2.453   0.777   2.932
 5530SOL     OW17488   6.712   2.581   1.892
 5530SOL    HW117489   6.619   2.545   1.885
 5530SOL    HW217490   6.713   2.676   1.862
 5531SOL     OW17491   3.838   3.998   1.481
 5531SOL    HW117492   3.903   3.961   1.415
 5531SOL    HW217493   3.791   3.923   1.528
 5532SOL     OW17494   1.814   2.490   0.499
 5532SOL    HW117495   1.787   2.510   0.594
 5532SOL    HW217496   1.838   2.393   0.492
 5533SOL     OW17497   4.756   1.195   4.250
 5533SOL    HW117498   4.716   1.282   4.277
 5533SOL    HW217499   4.820   1.164   4.321
 5534SOL     OW17500   1.046   1.210   5.444
 5534SOL    HW117501   1.086   1.199   5.535
 5534SOL    HW217502   1.117   1.195   5.375
 5535SOL     OW17503   0.601   1.363   2.636
 5535SOL    HW117504   0.620   1.316   2.722
 5535SOL    HW217505   0.664   1.440   2.626
 5536SOL     OW17506   3.532   0.964   4.766
 5536SOL    HW117507   3.469   1.019   4.711
 5536SOL    HW217508   3.545   0.875   4.723
 5537SOL     OW17509   3.808   1.471   2.803
 5537SOL    HW117510   3.871   1.435   2.872
 5537SOL    HW217511   3.810   1.413   2.722
 5538SOL     OW17512   4.341   5.399   4.729
 5538SOL    HW117513   4.348   5.472   4.797
 5538SOL    HW217514   4.379   5.431   4.642
 5539SOL     OW17515   2.054   2.651   0.645
 5539SOL    HW117516   2.011   2.698   0.722
 5539SOL    HW217517   2.101   2.718   0.588
 5540SOL     OW17518   5.051   4.752   3.315
 5540SOL    HW117519   4.961   4.777   3.352
 5540SOL    HW217520   5.119   4.758   3.388
 5541SOL     OW17521   4.918   1.752   6.476
 5541SOL    HW117522   4.933   1.659   6.444
 5541SOL    HW217523   4.926   1.815   6.398
 5542SOL     OW17524   3.766   4.539   5.951
 5542SOL    HW117525   3.697   4.506   5.887
 5542SOL    HW217526   3.764   4.484   6.034
 5543SOL     OW17527   6.369   3.746   6.797
 5543SOL    HW117528   6.387   3.811   6.723
 5543SOL    HW217529   6.455   3.704   6.826
 5544SOL     OW17530   5.747   1.285   5.570
 5544SOL    HW117531   5.697   1.243   5.646
 5544SOL    HW217532   5.789   1.214   5.514
 5545SOL     OW17533   4.199   1.930   2.608
 5545SOL    HW117534   4.256   1.983   2.671
 5545SOL    HW217535   4.188   1.980   2.523
 5546SOL     OW17536   2.230   5.225   6.028
 5546SOL    HW117537   2.295   5.217   5.953
 5546SOL    HW217538   2.160   5.154   6.020
 5547SOL     OW17539   3.390   5.097   5.396
 5547SOL    HW117540   3.395   5.144   5.308
 5547SOL    HW217541   3.437   5.009   5.389
 5548SOL     OW17542   6.075   3.544   5.233
 5548SOL    HW117543   6.023   3.627   5.255
 5548SOL    HW217544   6.137   3.562   5.157
 5549SOL     OW17545   2.757   4.704   6.865
 5549SOL    HW117546   2.828   4.650   6.910
 5549SOL    HW217547   2.800   4.764   6.798
 5550SOL     OW17548   2.662   6.130   1.382
 5550SOL    HW117549   2.613   6.211   1.416
 5550SOL    HW217550   2.637   6.050   1.437
 5551SOL     OW17551   1.418   1.798   3.225
 5551SOL    HW117552   1.402   1.896   3.214
 5551SOL    HW217553   1.453   1.780   3.317
 5552SOL     OW17554   6.805   2.349   1.336
 5552SOL    HW117555   6.746   2.317   1.410
 5552SOL    HW217556   6.758   2.340   1.248
 5553SOL     OW17557   4.436   5.930   0.327
 5553SOL    HW117558   4.380   6.012   0.323
 5553SOL    HW217559   4.470   5.917   0.420
 5554SOL     OW17560   2.926   2.166   5.203
 5554SOL    HW117561   3.014   2.208   5.179
 5554SOL    HW217562   2.891   2.116   5.124
 5555SOL     OW17563   0.272   4.850   3.557
 5555SOL    HW117564   0.244   4.806   3.472
 5555SOL    HW217565   0.343   4.795   3.601
 5556SOL     OW17566   0.425   2.027   5.356
 5556SOL    HW117567   0.524   2.036   5.371
 5556SOL    HW217568   0.381   1.999   5.441
 5557SOL     OW17569   1.979   6.206   3.860
 5557SOL    HW117570   2.004   6.146   3.936
 5557SOL    HW217571   2.047   6.197   3.787
 5558SOL     OW17572   5.220   3.100   4.948
 5558SOL    HW117573   5.297   3.105   5.011
 5558SOL    HW217574   5.134   3.102   4.999
 5559SOL     OW17575   1.685   0.602   1.121
 5559SOL    HW117576   1.669   0.528   1.187
 5559SOL    HW217577   1.606   0.611   1.061
 5560SOL     OW17578   0.186   1.216   3.619
 5560SOL    HW117579   0.161   1.225   3.523
 5560SOL    HW217580   0.199   1.308   3.658
 5561SOL     OW17581   1.629   3.310   3.075
 5561SOL    HW117582   1.613   3.396   3.123
 5561SOL    HW217583   1.573   3.238   3.115
 5562SOL     OW17584   2.185   3.493   6.287
 5562SOL    HW117585   2.173   3.479   6.188
 5562SOL    HW217586   2.278   3.467   6.312
 5563SOL     OW17587   4.505   5.931   2.688
 5563SOL    HW117588   4.424   5.990   2.694
 5563SOL    HW217589   4.506   5.867   2.765
 5564SOL     OW17590   5.129   3.504   1.750
 5564SOL    HW117591   5.051   3.482   1.810
 5564SOL    HW217592   5.147   3.426   1.690
 5565SOL     OW17593   3.560   2.423   5.559
 5565SOL    HW117594   3.651   2.465   5.562
 5565SOL    HW217595   3.505   2.467   5.489
 5566SOL     OW17596   1.992   4.955   1.439
 5566SOL    HW117597   2.078   4.904   1.449
 5566SOL    HW217598   1.988   5.027   1.508
 5567SOL     OW17599   1.499   5.493   1.540
 5567SOL    HW117600   1.486   5.589   1.519
 5567SOL    HW217601   1.483   5.477   1.638
 5568SOL     OW17602   3.888   1.250   1.503
 5568SOL    HW117603   3.918   1.312   1.431
 5568SOL    HW217604   3.859   1.163   1.462
 5569SOL     OW17605   3.993   1.719   0.310
 5569SOL    HW117606   3.905   1.767   0.312
 5569SOL    HW217607   4.033   1.726   0.219
 5570SOL     OW17608   6.493   4.049   5.560
 5570SOL    HW117609   6.446   4.081   5.478
 5570SOL    HW217610   6.583   4.013   5.535
 5571SOL     OW17611   6.706   5.865   0.257
 5571SOL    HW117612   6.630   5.800   0.255
 5571SOL    HW217613   6.785   5.822   0.300
 5572SOL     OW17614   4.747   2.659   6.454
 5572SOL    HW117615   4.677   2.688   6.390
 5572SOL    HW217616   4.827   2.625   6.403
 5573SOL     OW17617   1.272   3.832   1.195
 5573SOL    HW117618   1.256   3.735   1.208
 5573SOL    HW217619   1.259   3.856   1.098
 5574SOL     OW17620   0.842   5.973   5.305
 5574SOL    HW117621   0.904   6.036   5.258
 5574SOL    HW217622   0.834   5.888   5.252
 5575SOL     OW17623   1.345   1.634   0.951
 5575SOL    HW117624   1.421   1.587   0.905
 5575SOL    HW217625   1.381   1.687   1.028
 5576SOL     OW17626   5.978   6.324   0.704
 5576SOL    HW117627   6.022   6.372   0.780
 5576SOL    HW217628   6.007   6.365   0.617
 5577SOL     OW17629   1.932   3.779   5.329
 5577SOL    HW117630   2.000   3.832   5.278
 5577SOL    HW217631   1.965   3.685   5.341
 5578SOL     OW17632   4.222   2.587   6.981
 5578SOL    HW117633   4.183   2.667   0.002
 5578SOL    HW217634   4.154   2.548   6.919
 5579SOL     OW17635   4.925   3.981   6.868
 5579SOL    HW117636   4.896   3.973   6.773
 5579SOL    HW217637   4.994   3.911   6.887
 5580SOL     OW17638   5.832   1.554   0.362
 5580SOL    HW117639   5.898   1.625   0.387
 5580SOL    HW217640   5.861   1.510   0.277
 5581SOL     OW17641   2.195   1.698   6.786
 5581SOL    HW117642   2.227   1.774   6.730
 5581SOL    HW217643   2.102   1.718   6.819
 5582SOL     OW17644   3.618   3.319   3.506
 5582SOL    HW117645   3.659   3.410   3.497
 5582SOL    HW217646   3.640   3.282   3.596
 5583SOL     OW17647   3.808   0.141   1.209
 5583SOL    HW117648   3.783   0.233   1.240
 5583SOL    HW217649   3.841   0.145   1.115
 5584SOL     OW17650   6.303   3.303   3.288
 5584SOL    HW117651   6.320   3.206   3.271
 5584SOL    HW217652   6.204   3.320   3.286
 5585SOL     OW17653   5.912   0.417   4.478
 5585SOL    HW117654   5.844   0.343   4.473
 5585SOL    HW217655   5.884   0.482   4.548
 5586SOL     OW17656   1.768   1.425   5.478
 5586SOL    HW117657   1.790   1.374   5.395
 5586SOL    HW217658   1.834   1.400   5.550
 5587SOL     OW17659   3.447   0.453   4.211
 5587SOL    HW117660   3.494   0.400   4.141
 5587SOL    HW217661   3.484   0.546   4.212
 5588SOL     OW17662   2.665   0.037   5.919
 5588SOL    HW117663   2.716   0.035   5.833
 5588SOL    HW217664   2.574   7.021   5.904
 5589SOL     OW17665   4.515   2.719   6.315
 5589SOL    HW117666   4.505   2.626   6.279
 5589SOL    HW217667   4.505   2.785   6.241
 5590SOL     OW17668   0.360   5.915   4.117
 5590SOL    HW117669   0.267   5.882   4.127
 5590SOL    HW217670   0.370   6.003   4.164
 5591SOL     OW17671   5.587   0.531   0.696
 5591SOL    HW117672   5.547   0.619   0.672
 5591SOL    HW217673   5.547   0.499   0.782
 5592SOL     OW17674   1.892   3.426   2.786
 5592SOL    HW117675   1.989   3.424   2.760
 5592SOL    HW217676   1.855   3.334   2.781
 5593SOL     OW17677   1.272   3.101   5.789
 5593SOL    HW117678   1.232   3.040   5.857
 5593SOL    HW217679   1.224   3.091   5.702
 5594SOL     OW17680   1.738   0.648   0.123
 5594SOL    HW117681   1.663   0.713   0.134
 5594SOL    HW217682   1.781   0.631   0.211
 5595SOL     OW17683   0.189   2.355   6.045
 5595SOL    HW117684   0.147   2.436   6.084
 5595SOL    HW217685   0.188   2.281   6.112
 5596SOL     OW17686   4.876   0.502   2.786
 5596SOL    HW117687   4.843   0.585   2.831
 5596SOL    HW217688   4.875   0.426   2.851
 5597SOL     OW17689   6.838   0.476   6.258
 5597SOL    HW117690   6.840   0.516   6.167
 5597SOL    HW217691   6.744   0.448   6.280
 5598SOL     OW17692   6.662   1.557   3.885
 5598SOL    HW117693   6.578   1.534   3.935
 5598SOL    HW217694   6.662   1.512   3.796
 5599SOL     OW17695   5.066   3.346   3.061
 5599SOL    HW117696   5.163   3.365   3.074
 5599SOL    HW217697   5.038   3.272   3.122
 5600SOL     OW17698   2.281   1.482   2.321
 5600SOL    HW117699   2.196   1.445   2.283
 5600SOL    HW217700   2.333   1.527   2.249
 5601SOL     OW17701   5.595   2.721   5.354
 5601SOL    HW117702   5.650   2.689   5.432
 5601SOL    HW217703   5.578   2.819   5.363
 5602SOL     OW17704   0.452   2.017   2.831
 5602SOL    HW117705   0.394   2.098   2.821
 5602SOL    HW217706   0.396   1.935   2.818
 5603SOL     OW17707   4.162   2.060   4.558
 5603SOL    HW117708   4.107   2.034   4.638
 5603SOL    HW217709   4.114   2.033   4.475
 5604SOL     OW17710   0.779   0.235   4.172
 5604SOL    HW117711   0.719   0.166   4.212
 5604SOL    HW217712   0.776   0.228   4.072
 5605SOL     OW17713   2.992   5.954   4.239
 5605SOL    HW117714   2.966   5.875   4.184
 5605SOL    HW217715   3.046   5.924   4.318
 5606SOL     OW17716   4.596   2.116   0.831
 5606SOL    HW117717   4.544   2.080   0.754
 5606SOL    HW217718   4.693   2.117   0.808
 5607SOL     OW17719   6.058   2.832   2.355
 5607SOL    HW117720   6.074   2.860   2.261
 5607SOL    HW217721   6.127   2.874   2.414
 5608SOL     OW17722   4.410   0.974   3.388
 5608SOL    HW117723   4.440   0.957   3.482
 5608SOL    HW217724   4.451   1.059   3.355
 5609SOL     OW17725   6.681   6.875   0.913
 5609SOL    HW117726   6.615   6.910   0.980
 5609SOL    HW217727   6.698   6.778   0.931
 5610SOL     OW17728   4.931   4.628   7.015
 5610SOL    HW117729   4.854   4.564   7.011
 5610SOL    HW217730   4.908   4.702   0.056
 5611SOL     OW17731   6.861   4.836   1.278
 5611SOL    HW117732   6.810   4.919   1.253
 5611SOL    HW217733   6.952   4.839   1.236
 5612SOL     OW17734   2.600   1.399   0.694
 5612SOL    HW117735   2.678   1.380   0.753
 5612SOL    HW217736   2.619   1.479   0.638
 5613SOL     OW17737   6.956   5.608   5.690
 5613SOL    HW117738   6.911   5.599   5.779
 5613SOL    HW217739   6.910   5.680   5.638
 5614SOL     OW17740   5.731   2.396   3.652
 5614SOL    HW117741   5.657   2.329   3.657
 5614SOL    HW217742   5.815   2.352   3.622
 5615SOL     OW17743   0.450   3.350   3.429
 5615SOL    HW117744   0.520   3.321   3.363
 5615SOL    HW217745   0.360   3.347   3.387
 5616SOL     OW17746   1.878   3.575   2.473
 5616SOL    HW117747   1.924   3.610   2.554
 5616SOL    HW217748   1.943   3.524   2.417
 5617SOL     OW17749   1.771   5.450   6.492
 5617SOL    HW117750   1.801   5.453   6.397
 5617SOL    HW217751   1.723   5.364   6.509
 5618SOL     OW17752   0.000   6.009   3.426
 5618SOL    HW117753   7.009   6.103   3.395
 5618SOL    HW217754   0.041   6.011   3.517
 5619SOL     OW17755   3.856   3.036   3.981
 5619SOL    HW117756   3.819   2.984   4.059
 5619SOL    HW217757   3.809   3.124   3.976
 5620SOL     OW17758   4.826   4.684   5.830
 5620SOL    HW117759   4.806   4.591   5.800
 5620SOL    HW217760   4.831   4.745   5.750
 5621SOL     OW17761   1.142   2.428   5.827
 5621SOL    HW117762   1.153   2.363   5.902
 5621SOL    HW217763   1.230   2.470   5.806
 5622SOL     OW17764   4.903   5.967   4.371
 5622SOL    HW117765   4.941   6.050   4.411
 5622SOL    HW217766   4.962   5.889   4.395
 5623SOL     OW17767   5.160   5.794   3.658
 5623SOL    HW117768   5.258   5.778   3.661
 5623SOL    HW217769   5.122   5.784   3.750
 5624SOL     OW17770   6.714   4.502   4.640
 5624SOL    HW117771   6.729   4.577   4.576
 5624SOL    HW217772   6.797   4.486   4.693
 5625SOL     OW17773   1.009   5.862   5.505
 5625SOL    HW117774   0.945   5.924   5.552
 5625SOL    HW217775   0.978   5.849   5.411
 5626SOL     OW17776   1.270   4.313   4.981
 5626SOL    HW117777   1.252   4.217   5.005
 5626SOL    HW217778   1.365   4.335   5.000
 5627SOL     OW17779   1.171   5.662   6.824
 5627SOL    HW117780   1.143   5.589   6.887
 5627SOL    HW217781   1.269   5.680   6.835
 5628SOL     OW17782   2.456   2.498   1.223
 5628SOL    HW117783   2.413   2.555   1.153
 5628SOL    HW217784   2.539   2.544   1.256
 5629SOL     OW17785   5.243   3.669   1.576
 5629SOL    HW117786   5.219   3.765   1.588
 5629SOL    HW217787   5.202   3.615   1.650
 5630SOL     OW17788   2.013   4.290   0.059
 5630SOL    HW117789   2.019   4.385   0.090
 5630SOL    HW217790   2.020   4.229   0.138
 5631SOL     OW17791   4.258   1.245   1.521
 5631SOL    HW117792   4.213   1.308   1.585
 5631SOL    HW217793   4.315   1.181   1.573
 5632SOL     OW17794   5.699   0.148   5.955
 5632SOL    HW117795   5.758   0.068   5.945
 5632SOL    HW217796   5.607   0.126   5.922
 5633SOL     OW17797   1.000   5.596   5.632
 5633SOL    HW117798   1.005   5.496   5.627
 5633SOL    HW217799   1.072   5.635   5.574
 5634SOL     OW17800   2.420   0.021   0.250
 5634SOL    HW117801   2.457   6.959   0.287
 5634SOL    HW217802   2.372   0.002   0.165
 5635SOL     OW17803   2.195   0.714   6.686
 5635SOL    HW117804   2.176   0.729   6.589
 5635SOL    HW217805   2.154   0.628   6.714
 5636SOL     OW17806   6.242   2.021   5.657
 5636SOL    HW117807   6.292   2.060   5.580
 5636SOL    HW217808   6.253   1.922   5.657
 5637SOL     OW17809   4.931   6.713   4.856
 5637SOL    HW117810   4.909   6.809   4.868
 5637SOL    HW217811   4.862   6.657   4.901
 5638SOL     OW17812   5.627   5.184   0.875
 5638SOL    HW117813   5.715   5.138   0.871
 5638SOL    HW217814   5.642   5.283   0.880
 5639SOL     OW17815   0.990   0.515   1.047
 5639SOL    HW117816   1.034   0.460   0.976
 5639SOL    HW217817   0.942   0.454   1.111
 5640SOL     OW17818   2.522   5.478   2.750
 5640SOL    HW117819   2.454   5.432   2.693
 5640SOL    HW217820   2.490   5.570   2.773
 5641SOL     OW17821   0.753   4.084   3.893
 5641SOL    HW117822   0.799   3.996   3.880
 5641SOL    HW217823   0.809   4.142   3.952
 5642SOL     OW17824   1.494   4.980   0.484
 5642SOL    HW117825   1.547   4.909   0.530
 5642SOL    HW217826   1.420   5.010   0.544
 5643SOL     OW17827   4.614   2.054   4.697
 5643SOL    HW117828   4.674   1.982   4.663
 5643SOL    HW217829   4.633   2.140   4.649
 5644SOL     OW17830   4.331   0.976   4.997
 5644SOL    HW117831   4.253   0.913   4.998
 5644SOL    HW217832   4.373   0.974   4.906
 5645SOL     OW17833   5.830   5.654   3.701
 5645SOL    HW117834   5.923   5.621   3.686
 5645SOL    HW217835   5.814   5.735   3.644
 5646SOL     OW17836   0.740   6.541   3.868
 5646SOL    HW117837   0.744   6.611   3.797
 5646SOL    HW217838   0.659   6.484   3.854
 5647SOL     OW17839   5.584   5.426   5.908
 5647SOL    HW117840   5.550   5.347   5.960
 5647SOL    HW217841   5.606   5.500   5.971
 5648SOL     OW17842   1.921   1.773   3.859
 5648SOL    HW117843   2.017   1.761   3.886
 5648SOL    HW217844   1.866   1.794   3.940
 5649SOL     OW17845   0.820   1.004   5.479
 5649SOL    HW117846   0.830   1.104   5.477
 5649SOL    HW217847   0.906   0.961   5.452
 5650SOL     OW17848   6.822   4.716   0.037
 5650SOL    HW117849   6.739   4.768   0.016
 5650SOL    HW217850   6.854   4.669   6.978
 5651SOL     OW17851   6.680   0.791   2.113
 5651SOL    HW117852   6.761   0.790   2.172
 5651SOL    HW217853   6.613   0.725   2.148
 5652SOL     OW17854   4.965   5.260   1.043
 5652SOL    HW117855   4.916   5.189   0.992
 5652SOL    HW217856   5.008   5.323   0.978
 5653SOL     OW17857   0.201   5.935   6.101
 5653SOL    HW117858   0.200   6.006   6.031
 5653SOL    HW217859   0.198   5.845   6.058
 5654SOL     OW17860   6.885   0.212   5.047
 5654SOL    HW117861   6.836   0.128   5.028
 5654SOL    HW217862   6.861   0.281   4.979
 5655SOL     OW17863   6.953   3.637   4.332
 5655SOL    HW117864   6.939   3.541   4.306
 5655SOL    HW217865   6.959   3.693   4.250
 5656SOL     OW17866   3.488   4.233   0.141
 5656SOL    HW117867   3.456   4.298   0.072
 5656SOL    HW217868   3.558   4.174   0.102
 5657SOL     OW17869   3.701   0.031   1.710
 5657SOL    HW117870   3.603   0.050   1.708
 5657SOL    HW217871   3.716   6.961   1.740
 5658SOL     OW17872   3.651   7.011   5.690
 5658SOL    HW117873   3.739   6.963   5.700
 5658SOL    HW217874   3.665   0.072   5.638
 5659SOL     OW17875   3.147   3.702   2.579
 5659SOL    HW117876   3.093   3.786   2.568
 5659SOL    HW217877   3.170   3.666   2.489
 5660SOL     OW17878   4.646   6.974   6.480
 5660SOL    HW117879   4.709   7.000   6.408
 5660SOL    HW217880   4.621   6.877   6.470
 5661SOL     OW17881   6.668   5.582   4.341
 5661SOL    HW117882   6.584   5.546   4.301
 5661SOL    HW217883   6.658   5.680   4.358
 5662SOL     OW17884   1.933   4.373   4.079
 5662SOL    HW117885   1.901   4.289   4.036
 5662SOL    HW217886   2.007   4.412   4.024
 5663SOL     OW17887   1.546   3.732   0.800
 5663SOL    HW117888   1.564   3.712   0.896
 5663SOL    HW217889   1.493   3.817   0.794
 5664SOL     OW17890   6.969   4.565   1.979
 5664SOL    HW117891   6.890   4.568   2.041
 5664SOL    HW217892   0.021   4.617   2.020
 5665SOL     OW17893   2.246   3.351   5.611
 5665SOL    HW117894   2.168   3.298   5.643
 5665SOL    HW217895   2.227   3.387   5.520
 5666SOL     OW17896   5.263   4.459   1.165
 5666SOL    HW117897   5.228   4.446   1.258
 5666SOL    HW217898   5.343   4.401   1.150
 5667SOL     OW17899   6.321   5.262   3.088
 5667SOL    HW117900   6.353   5.309   3.170
 5667SOL    HW217901   6.245   5.202   3.112
 5668SOL     OW17902   5.559   2.011   6.562
 5668SOL    HW117903   5.639   1.980   6.612
 5668SOL    HW217904   5.580   2.012   6.464
 5669SOL     OW17905   0.820   4.957   6.246
 5669SOL    HW117906   0.868   4.869   6.242
 5669SOL    HW217907   0.791   4.983   6.154
 5670SOL     OW17908   0.440   3.520   4.592
 5670SOL    HW117909   0.348   3.549   4.564
 5670SOL    HW217910   0.455   3.545   4.688
 5671SOL     OW17911   1.699   0.825   6.250
 5671SOL    HW117912   1.626   0.886   6.219
 5671SOL    HW217913   1.780   0.879   6.274
 5672SOL     OW17914   5.087   4.533   5.864
 5672SOL    HW117915   5.020   4.607   5.869
 5672SOL    HW217916   5.168   4.558   5.917
 5673SOL     OW17917   0.274   0.498   1.756
 5673SOL    HW117918   0.311   0.410   1.787
 5673SOL    HW217919   0.308   0.517   1.664
 5674SOL     OW17920   6.654   3.636   1.461
 5674SOL    HW117921   6.699   3.694   1.529
 5674SOL    HW217922   6.674   3.669   1.369
 5675SOL     OW17923   4.421   2.381   5.343
 5675SOL    HW117924   4.491   2.427   5.288
 5675SOL    HW217925   4.396   2.440   5.420
 5676SOL     OW17926   2.140   0.136   1.747
 5676SOL    HW117927   2.080   0.124   1.668
 5676SOL    HW217928   2.175   0.230   1.748
 5677SOL     OW17929   6.179   0.681   3.873
 5677SOL    HW117930   6.139   0.603   3.826
 5677SOL    HW217931   6.114   0.757   3.873
 5678SOL     OW17932   3.013   6.856   3.099
 5678SOL    HW117933   2.994   6.898   3.010
 5678SOL    HW217934   2.963   6.905   3.170
 5679SOL     OW17935   1.959   6.619   5.198
 5679SOL    HW117936   1.973   6.526   5.233
 5679SOL    HW217937   1.864   6.629   5.168
 5680SOL     OW17938   2.083   5.865   6.617
 5680SOL    HW117939   2.099   5.872   6.518
 5680SOL    HW217940   2.071   5.769   6.642
 5681SOL     OW17941   1.028   2.900   6.862
 5681SOL    HW117942   1.064   2.808   6.845
 5681SOL    HW217943   1.078   2.966   6.805
 5682SOL     OW17944   0.899   2.915   5.662
 5682SOL    HW117945   0.799   2.914   5.666
 5682SOL    HW217946   0.935   2.824   5.680
 5683SOL     OW17947   3.356   2.821   6.318
 5683SOL    HW117948   3.275   2.799   6.263
 5683SOL    HW217949   3.434   2.769   6.285
 5684SOL     OW17950   3.645   4.144   4.084
 5684SOL    HW117951   3.718   4.088   4.124
 5684SOL    HW217952   3.675   4.177   3.994
 5685SOL     OW17953   0.143   4.775   2.066
 5685SOL    HW117954   0.240   4.758   2.047
 5685SOL    HW217955   0.107   4.841   2.000
 5686SOL     OW17956   3.870   0.139   0.661
 5686SOL    HW117957   3.926   0.080   0.602
 5686SOL    HW217958   3.773   0.122   0.643
 5687SOL     OW17959   5.415   5.039   5.547
 5687SOL    HW117960   5.472   5.090   5.482
 5687SOL    HW217961   5.385   4.953   5.505
 5688SOL     OW17962   5.723   2.340   1.363
 5688SOL    HW117963   5.791   2.303   1.427
 5688SOL    HW217964   5.650   2.272   1.349
 5689SOL     OW17965   4.369   1.798   0.837
 5689SOL    HW117966   4.415   1.709   0.843
 5689SOL    HW217967   4.343   1.815   0.742
 5690SOL     OW17968   4.279   5.906   0.901
 5690SOL    HW117969   4.221   5.899   0.820
 5690SOL    HW217970   4.222   5.910   0.983
 5691SOL     OW17971   2.268   6.979   1.570
 5691SOL    HW117972   2.363   6.953   1.585
 5691SOL    HW217973   2.237   0.014   1.644
 5692SOL     OW17974   6.160   3.451   5.855
 5692SOL    HW117975   6.148   3.460   5.954
 5692SOL    HW217976   6.257   3.443   5.834
 5693SOL     OW17977   4.650   2.605   2.391
 5693SOL    HW117978   4.597   2.538   2.338
 5693SOL    HW217979   4.683   2.676   2.330
 5694SOL     OW17980   0.235   0.938   3.594
 5694SOL    HW117981   0.326   0.920   3.555
 5694SOL    HW217982   0.229   1.035   3.617
 5695SOL     OW17983   1.747   3.015   3.459
 5695SOL    HW117984   1.842   3.040   3.441
 5695SOL    HW217985   1.687   3.091   3.434
 5696SOL     OW17986   2.659   0.993   4.996
 5696SOL    HW117987   2.656   0.893   4.995
 5696SOL    HW217988   2.755   1.023   4.998
 5697SOL     OW17989   0.048   2.538   0.246
 5697SOL    HW117990   0.082   2.622   0.204
 5697SOL    HW217991   0.047   2.548   0.345
 5698SOL     OW17992   0.965   3.038   1.745
 5698SOL    HW117993   0.890   3.082   1.794
 5698SOL    HW217994   1.043   3.099   1.740
 5699SOL     OW17995   6.326   1.262   4.970
 5699SOL    HW117996   6.335   1.355   4.936
 5699SOL    HW217997   6.229   1.237   4.975
 5700SOL     OW17998   1.391   5.849   5.356
 5700SOL    HW117999   1.312   5.831   5.298
 5700SOL    HW218000   1.365   5.840   5.452
 5701SOL     OW18001   6.899   5.795   2.230
 5701SOL    HW118002   6.937   5.842   2.310
 5701SOL    HW218003   6.972   5.747   2.182
 5702SOL     OW18004   2.195   6.458   6.618
 5702SOL    HW118005   2.108   6.434   6.576
 5702SOL    HW218006   2.268   6.457   6.549
 5703SOL     OW18007   4.692   4.772   0.430
 5703SOL    HW118008   4.708   4.674   0.446
 5703SOL    HW218009   4.680   4.818   0.518
 5704SOL     OW18010   4.667   5.204   3.689
 5704SOL    HW118011   4.760   5.216   3.723
 5704SOL    HW218012   4.667   5.149   3.606
 5705SOL     OW18013   5.943   0.051   1.308
 5705SOL    HW118014   5.844   0.063   1.305
 5705SOL    HW218015   5.987   0.133   1.270
 5706SOL     OW18016   1.272   1.309   6.874
 5706SOL    HW118017   1.273   1.210   6.865
 5706SOL    HW218018   1.242   1.334   6.966
 5707SOL     OW18019   1.913   1.161   5.971
 5707SOL    HW118020   1.967   1.124   6.047
 5707SOL    HW218021   1.974   1.196   5.900
 5708SOL     OW18022   5.079   0.181   2.310
 5708SOL    HW118023   4.991   0.193   2.264
 5708SOL    HW218024   5.106   0.266   2.354
 5709SOL     OW18025   0.539   6.217   3.019
 5709SOL    HW118026   0.525   6.314   2.995
 5709SOL    HW218027   0.490   6.197   3.103
 5710SOL     OW18028   2.964   3.359   6.039
 5710SOL    HW118029   2.954   3.442   6.095
 5710SOL    HW218030   3.054   3.359   5.995
 5711SOL     OW18031   4.931   1.105   3.745
 5711SOL    HW118032   4.857   1.149   3.796
 5711SOL    HW218033   4.893   1.040   3.679
 5712SOL     OW18034   6.966   6.335   5.799
 5712SOL    HW118035   6.915   6.383   5.869
 5712SOL    HW218036   6.904   6.308   5.725
 5713SOL     OW18037   0.257   2.936   2.451
 5713SOL    HW118038   0.250   3.031   2.421
 5713SOL    HW218039   0.165   2.900   2.468
 5714SOL     OW18040   1.425   0.624   6.048
 5714SOL    HW118041   1.382   0.557   5.987
 5714SOL    HW218042   1.487   0.683   5.996
 5715SOL     OW18043   1.674   6.442   2.274
 5715SOL    HW118044   1.580   6.474   2.261
 5715SOL    HW218045   1.736   6.495   2.217
 5716SOL     OW18046   1.640   3.906   6.456
 5716SOL    HW118047   1.646   3.807   6.445
 5716SOL    HW218048   1.730   3.943   6.480
 5717SOL     OW18049   1.160   4.452   1.477
 5717SOL    HW118050   1.156   4.360   1.437
 5717SOL    HW218051   1.180   4.445   1.575
 5718SOL     OW18052   2.194   4.916   6.505
 5718SOL    HW118053   2.129   4.840   6.515
 5718SOL    HW218054   2.157   4.983   6.440
 5719SOL     OW18055   3.186   0.458   6.519
 5719SOL    HW118056   3.161   0.466   6.616
 5719SOL    HW218057   3.270   0.404   6.511
 5720SOL     OW18058   1.211   5.539   5.176
 5720SOL    HW118059   1.151   5.493   5.241
 5720SOL    HW218060   1.234   5.476   5.102
 5721SOL     OW18061   0.320   3.074   0.694
 5721SOL    HW118062   0.380   2.995   0.707
 5721SOL    HW218063   0.250   3.074   0.766
 5722SOL     OW18064   5.752   0.487   4.942
 5722SOL    HW118065   5.832   0.438   4.977
 5722SOL    HW218066   5.675   0.473   5.004
 5723SOL     OW18067   3.996   5.796   0.363
 5723SOL    HW118068   4.054   5.814   0.284
 5723SOL    HW218069   3.972   5.699   0.365
 5724SOL     OW18070   5.609   1.975   5.950
 5724SOL    HW118071   5.594   1.901   6.016
 5724SOL    HW218072   5.569   2.060   5.986
 5725SOL     OW18073   4.977   5.081   4.345
 5725SOL    HW118074   5.023   5.008   4.396
 5725SOL    HW218075   4.922   5.136   4.408
 5726SOL     OW18076   5.455   3.580   5.602
 5726SOL    HW118077   5.411   3.669   5.614
 5726SOL    HW218078   5.473   3.540   5.691
 5727SOL     OW18079   5.681   1.855   3.173
 5727SOL    HW118080   5.758   1.836   3.111
 5727SOL    HW218081   5.659   1.772   3.224
 5728SOL     OW18082   6.254   0.934   5.428
 5728SOL    HW118083   6.263   0.983   5.342
 5728SOL    HW218084   6.341   0.891   5.451
 5729SOL     OW18085   6.944   1.281   6.402
 5729SOL    HW118086   6.924   1.274   6.304
 5729SOL    HW218087   6.993   1.199   6.432
 5730SOL     OW18088   3.963   5.539   5.745
 5730SOL    HW118089   4.012   5.579   5.668
 5730SOL    HW218090   3.996   5.579   5.830
 5731SOL     OW18091   2.146   0.840   3.996
 5731SOL    HW118092   2.232   0.791   4.013
 5731SOL    HW218093   2.166   0.937   3.982
 5732SOL     OW18094   6.214   5.183   4.813
 5732SOL    HW118095   6.206   5.173   4.912
 5732SOL    HW218096   6.147   5.124   4.768
 5733SOL     OW18097   3.379   0.676   6.913
 5733SOL    HW118098   3.305   0.735   6.945
 5733SOL    HW218099   3.387   0.597   6.974
 5734SOL     OW18100   1.751   6.886   5.688
 5734SOL    HW118101   1.716   6.980   5.683
 5734SOL    HW218102   1.738   6.851   5.781
 5735SOL     OW18103   4.228   0.893   2.236
 5735SOL    HW118104   4.315   0.856   2.204
 5735SOL    HW218105   4.196   0.963   2.171
 5736SOL     OW18106   4.656   4.471   6.806
 5736SOL    HW118107   4.690   4.439   6.895
 5736SOL    HW218108   4.733   4.482   6.743
 5737SOL     OW18109   4.928   5.201   1.483
 5737SOL    HW118110   4.985   5.253   1.419
 5737SOL    HW218111   4.855   5.260   1.517
 5738SOL     OW18112   3.451   1.326   6.511
 5738SOL    HW118113   3.547   1.304   6.493
 5738SOL    HW218114   3.406   1.246   6.550
 5739SOL     OW18115   2.618   0.486   6.000
 5739SOL    HW118116   2.524   0.459   5.974
 5739SOL    HW218117   2.669   0.404   6.026
 5740SOL     OW18118   5.561   3.348   1.103
 5740SOL    HW118119   5.612   3.356   1.188
 5740SOL    HW218120   5.505   3.265   1.105
 5741SOL     OW18121   0.638   3.601   4.404
 5741SOL    HW118122   0.565   3.668   4.393
 5741SOL    HW218123   0.605   3.525   4.460
 5742SOL     OW18124   4.235   0.202   3.324
 5742SOL    HW118125   4.199   0.115   3.292
 5742SOL    HW218126   4.216   0.273   3.256
 5743SOL     OW18127   3.705   4.329   5.530
 5743SOL    HW118128   3.752   4.390   5.466
 5743SOL    HW218129   3.637   4.275   5.480
 5744SOL     OW18130   5.626   6.934   2.774
 5744SOL    HW118131   5.601   6.991   2.696
 5744SOL    HW218132   5.591   6.975   2.858
 5745SOL     OW18133   2.424   2.694   3.671
 5745SOL    HW118134   2.356   2.753   3.714
 5745SOL    HW218135   2.500   2.678   3.734
 5746SOL     OW18136   3.890   0.224   3.313
 5746SOL    HW118137   3.971   0.273   3.345
 5746SOL    HW218138   3.837   0.283   3.253
 5747SOL     OW18139   1.200   6.106   2.261
 5747SOL    HW118140   1.146   6.119   2.178
 5747SOL    HW218141   1.222   6.009   2.271
 5748SOL     OW18142   0.266   5.905   0.554
 5748SOL    HW118143   0.263   5.997   0.595
 5748SOL    HW218144   0.226   5.840   0.618
 5749SOL     OW18145   1.936   6.402   5.348
 5749SOL    HW118146   1.907   6.308   5.330
 5749SOL    HW218147   1.983   6.406   5.436
 5750SOL     OW18148   0.278   4.101   4.187
 5750SOL    HW118149   0.192   4.089   4.138
 5750SOL    HW218150   0.260   4.113   4.284
 5751SOL     OW18151   2.167   3.874   4.229
 5751SOL    HW118152   2.232   3.798   4.224
 5751SOL    HW218153   2.092   3.850   4.291
 5752SOL     OW18154   5.507   0.228   0.740
 5752SOL    HW118155   5.412   0.210   0.716
 5752SOL    HW218156   5.561   0.234   0.656
 5753SOL     OW18157   3.109   4.051   5.024
 5753SOL    HW118158   3.027   4.073   5.077
 5753SOL    HW218159   3.191   4.073   5.078
 5754SOL     OW18160   1.032   6.063   1.824
 5754SOL    HW118161   1.009   6.157   1.799
 5754SOL    HW218162   1.013   6.048   1.921
 5755SOL     OW18163   2.037   2.417   6.803
 5755SOL    HW118164   2.131   2.444   6.821
 5755SOL    HW218165   1.977   2.496   6.812
 5756SOL     OW18166   6.293   6.190   1.859
 5756SOL    HW118167   6.331   6.193   1.766
 5756SOL    HW218168   6.312   6.101   1.899
 5757SOL     OW18169   0.034   6.307   3.618
 5757SOL    HW118170   0.043   6.209   3.636
 5757SOL    HW218171   6.979   6.324   3.559
 5758SOL     OW18172   1.527   6.387   2.991
 5758SOL    HW118173   1.622   6.369   3.015
 5758SOL    HW218174   1.508   6.352   2.899
 5759SOL     OW18175   4.492   6.922   1.590
 5759SOL    HW118176   4.588   6.926   1.617
 5759SOL    HW218177   4.462   7.012   1.558
 5760SOL     OW18178   6.703   3.291   2.083
 5760SOL    HW118179   6.653   3.362   2.134
 5760SOL    HW218180   6.696   3.310   1.985
 5761SOL     OW18181   5.489   6.128   4.693
 5761SOL    HW118182   5.483   6.117   4.594
 5761SOL    HW218183   5.510   6.223   4.714
 5762SOL     OW18184   5.361   4.230   0.202
 5762SOL    HW118185   5.444   4.280   0.179
 5762SOL    HW218186   5.373   4.185   0.291
 5763SOL     OW18187   5.267   0.473   0.695
 5763SOL    HW118188   5.264   0.449   0.598
 5763SOL    HW218189   5.359   0.505   0.718
 5764SOL     OW18190   4.287   5.152   3.771
 5764SOL    HW118191   4.217   5.100   3.821
 5764SOL    HW218192   4.290   5.246   3.805
 5765SOL     OW18193   6.606   5.203   1.047
 5765SOL    HW118194   6.519   5.200   1.096
 5765SOL    HW218195   6.613   5.124   0.986
 5766SOL     OW18196   1.255   2.012   4.494
 5766SOL    HW118197   1.165   1.991   4.530
 5766SOL    HW218198   1.314   1.931   4.501
 5767SOL     OW18199   1.760   0.647   0.648
 5767SOL    HW118200   1.832   0.673   0.712
 5767SOL    HW218201   1.711   0.728   0.617
 5768SOL     OW18202   6.989   6.698   3.894
 5768SOL    HW118203   6.963   6.745   3.979
 5768SOL    HW218204   6.984   6.599   3.908
 5769SOL     OW18205   1.984   5.588   6.574
 5769SOL    HW118206   2.042   5.590   6.493
 5769SOL    HW218207   1.924   5.508   6.570
 5770SOL     OW18208   0.859   5.881   0.615
 5770SOL    HW118209   0.817   5.972   0.621
 5770SOL    HW218210   0.846   5.845   0.523
 5771SOL     OW18211   1.887   5.586   4.014
 5771SOL    HW118212   1.882   5.685   4.030
 5771SOL    HW218213   1.963   5.567   3.951
 5772SOL     OW18214   4.627   0.956   1.767
 5772SOL    HW118215   4.610   0.867   1.724
 5772SOL    HW218216   4.612   1.028   1.699
 5773SOL     OW18217   4.375   1.867   2.188
 5773SOL    HW118218   4.295   1.906   2.143
 5773SOL    HW218219   4.358   1.771   2.210
 5774SOL     OW18220   1.272   6.734   3.829
 5774SOL    HW118221   1.318   6.659   3.877
 5774SOL    HW218222   1.338   6.782   3.771
 5775SOL     OW18223   0.466   5.635   3.114
 5775SOL    HW118224   0.506   5.723   3.091
 5775SOL    HW218225   0.440   5.634   3.211
 5776SOL     OW18226   1.828   0.704   3.210
 5776SOL    HW118227   1.799   0.658   3.127
 5776SOL    HW218228   1.777   0.667   3.288
 5777SOL     OW18229   1.456   0.424   3.038
 5777SOL    HW118230   1.384   0.419   2.969
 5777SOL    HW218231   1.442   0.505   3.095
 5778SOL     OW18232   1.251   1.192   6.523
 5778SOL    HW118233   1.205   1.103   6.528
 5778SOL    HW218234   1.348   1.181   6.547
 5779SOL     OW18235   4.611   2.272   6.548
 5779SOL    HW118236   4.565   2.207   6.609
 5779SOL    HW218237   4.709   2.254   6.549
 5780SOL     OW18238   5.946   5.451   4.316
 5780SOL    HW118239   5.858   5.447   4.268
 5780SOL    HW218240   6.018   5.417   4.256
 5781SOL     OW18241   6.800   4.865   5.517
 5781SOL    HW118242   6.772   4.807   5.441
 5781SOL    HW218243   6.810   4.809   5.600
 5782SOL     OW18244   0.952   1.233   6.923
 5782SOL    HW118245   0.862   1.191   6.933
 5782SOL    HW218246   0.964   1.304   6.993
 5783SOL     OW18247   1.224   1.739   1.838
 5783SOL    HW118248   1.170   1.683   1.775
 5783SOL    HW218249   1.320   1.708   1.837
 5784SOL     OW18250   0.555   6.031   6.595
 5784SOL    HW118251   0.484   6.083   6.642
 5784SOL    HW218252   0.556   6.055   6.498
 5785SOL     OW18253   2.754   2.014   0.363
 5785SOL    HW118254   2.667   2.060   0.379
 5785SOL    HW218255   2.802   2.057   0.287
 5786SOL     OW18256   6.948   4.119   0.200
 5786SOL    HW118257   6.941   4.216   0.221
 5786SOL    HW218258   6.941   4.105   0.101
 5787SOL     OW18259   1.755   2.109   5.531
 5787SOL    HW118260   1.690   2.095   5.456
 5787SOL    HW218261   1.771   2.206   5.544
 5788SOL     OW18262   2.625   1.564   2.701
 5788SOL    HW118263   2.701   1.623   2.728
 5788SOL    HW218264   2.604   1.578   2.604
 5789SOL     OW18265   3.354   5.057   6.480
 5789SOL    HW118266   3.359   5.021   6.386
 5789SOL    HW218267   3.271   5.022   6.524
 5790SOL     OW18268   0.146   3.371   4.384
 5790SOL    HW118269   0.229   3.421   4.357
 5790SOL    HW218270   0.120   3.398   4.476
 5791SOL     OW18271   3.341   0.213   2.341
 5791SOL    HW118272   3.430   0.204   2.298
 5791SOL    HW218273   3.294   0.124   2.341
 5792SOL     OW18274   0.615   2.272   3.075
 5792SOL    HW118275   0.548   2.304   3.008
 5792SOL    HW218276   0.648   2.350   3.129
 5793SOL     OW18277   6.421   1.117   3.488
 5793SOL    HW118278   6.520   1.111   3.477
 5793SOL    HW218279   6.396   1.084   3.579
 5794SOL     OW18280   3.934   2.385   0.070
 5794SOL    HW118281   3.917   2.287   0.079
 5794SOL    HW218282   3.941   2.426   0.161
 5795SOL     OW18283   5.829   5.215   5.500
 5795SOL    HW118284   5.868   5.294   5.455
 5795SOL    HW218285   5.751   5.243   5.555
 5796SOL     OW18286   3.562   0.867   0.010
 5796SOL    HW118287   3.502   0.897   0.084
 5796SOL    HW218288   3.524   0.785   6.992
 5797SOL     OW18289   3.761   1.703   4.950
 5797SOL    HW118290   3.799   1.781   4.999
 5797SOL    HW218291   3.831   1.632   4.942
 5798SOL     OW18292   0.620   3.801   5.633
 5798SOL    HW118293   0.529   3.784   5.595
 5798SOL    HW218294   0.686   3.808   5.559
 5799SOL     OW18295   5.355   0.596   4.027
 5799SOL    HW118296   5.443   0.601   4.073
 5799SOL    HW218297   5.360   0.530   3.952
 5800SOL     OW18298   5.462   6.080   1.319
 5800SOL    HW118299   5.364   6.100   1.330
 5800SOL    HW218300   5.484   6.077   1.221
 5801SOL     OW18301   0.675   2.065   4.399
 5801SOL    HW118302   0.635   1.996   4.459
 5801SOL    HW218303   0.609   2.089   4.327
 5802SOL     OW18304   0.753   4.620   6.700
 5802SOL    HW118305   0.749   4.703   6.644
 5802SOL    HW218306   0.841   4.616   6.747
 5803SOL     OW18307   1.255   5.144   1.633
 5803SOL    HW118308   1.252   5.057   1.584
 5803SOL    HW218309   1.207   5.214   1.581
 5804SOL     OW18310   6.226   4.198   3.932
 5804SOL    HW118311   6.286   4.278   3.927
 5804SOL    HW218312   6.253   4.140   4.009
 5805SOL     OW18313   3.686   4.136   6.757
 5805SOL    HW118314   3.786   4.136   6.748
 5805SOL    HW218315   3.646   4.088   6.678
 5806SOL     OW18316   0.440   6.426   6.783
 5806SOL    HW118317   0.540   6.430   6.787
 5806SOL    HW218318   0.410   6.443   6.689
 5807SOL     OW18319   1.331   3.879   1.791
 5807SOL    HW118320   1.258   3.826   1.833
 5807SOL    HW218321   1.327   3.973   1.822
 5808SOL     OW18322   5.480   3.704   2.737
 5808SOL    HW118323   5.382   3.683   2.747
 5808SOL    HW218324   5.533   3.649   2.801
 5809SOL     OW18325   6.620   2.474   4.106
 5809SOL    HW118326   6.686   2.526   4.161
 5809SOL    HW218327   6.651   2.471   4.011
 5810SOL     OW18328   3.163   0.959   4.013
 5810SOL    HW118329   3.145   0.977   3.916
 5810SOL    HW218330   3.108   0.881   4.043
 5811SOL     OW18331   2.972   0.682   4.929
 5811SOL    HW118332   3.058   0.734   4.924
 5811SOL    HW218333   2.983   0.605   4.991
 5812SOL     OW18334   5.217   0.290   4.383
 5812SOL    HW118335   5.149   0.235   4.432
 5812SOL    HW218336   5.170   0.349   4.317
 5813SOL     OW18337   1.355   1.038   6.301
 5813SOL    HW118338   1.399   1.013   6.387
 5813SOL    HW218339   1.263   1.072   6.319
 5814SOL     OW18340   6.475   4.443   0.820
 5814SOL    HW118341   6.517   4.446   0.730
 5814SOL    HW218342   6.387   4.489   0.818
 5815SOL     OW18343   4.600   2.602   3.528
 5815SOL    HW118344   4.676   2.621   3.467
 5815SOL    HW218345   4.585   2.681   3.588
 5816SOL     OW18346   5.587   6.514   0.564
 5816SOL    HW118347   5.508   6.543   0.618
 5816SOL    HW218348   5.587   6.415   0.553
 5817SOL     OW18349   5.743   2.940   5.703
 5817SOL    HW118350   5.759   2.916   5.607
 5817SOL    HW218351   5.726   3.039   5.710
 5818SOL     OW18352   0.111   5.976   4.486
 5818SOL    HW118353   0.023   5.941   4.453
 5818SOL    HW218354   0.107   5.986   4.586
 5819SOL     OW18355   4.253   0.364   0.443
 5819SOL    HW118356   4.268   0.463   0.436
 5819SOL    HW218357   4.205   0.333   0.361
 5820SOL     OW18358   4.313   0.143   3.821
 5820SOL    HW118359   4.254   0.193   3.884
 5820SOL    HW218360   4.270   0.139   3.730
 5821SOL     OW18361   1.798   0.524   2.289
 5821SOL    HW118362   1.794   0.539   2.190
 5821SOL    HW218363   1.780   0.610   2.337
 5822SOL     OW18364   0.520   2.038   1.858
 5822SOL    HW118365   0.572   1.961   1.897
 5822SOL    HW218366   0.422   2.021   1.868
 5823SOL     OW18367   1.065   0.878   5.442
 5823SOL    HW118368   1.160   0.905   5.456
 5823SOL    HW218369   1.051   0.851   5.347
 5824SOL     OW18370   6.881   6.456   2.962
 5824SOL    HW118371   6.798   6.498   2.925
 5824SOL    HW218372   6.865   6.426   3.056
 5825SOL     OW18373   2.074   2.330   5.659
 5825SOL    HW118374   2.025   2.348   5.574
 5825SOL    HW218375   2.165   2.370   5.655
 5826SOL     OW18376   6.910   5.908   5.806
 5826SOL    HW118377   6.965   5.833   5.768
 5826SOL    HW218378   6.967   5.990   5.813
 5827SOL     OW18379   1.507   5.501   4.364
 5827SOL    HW118380   1.571   5.485   4.439
 5827SOL    HW218381   1.422   5.451   4.382
 5828SOL     OW18382   0.257   3.032   1.953
 5828SOL    HW118383   0.319   2.958   1.926
 5828SOL    HW218384   0.297   3.083   2.029
 5829SOL     OW18385   2.781   1.309   2.712
 5829SOL    HW118386   2.863   1.345   2.757
 5829SOL    HW218387   2.710   1.379   2.712
 5830SOL     OW18388   4.060   0.550   5.584
 5830SOL    HW118389   4.108   0.463   5.570
 5830SOL    HW218390   4.048   0.566   5.682
 5831SOL     OW18391   6.400   6.881   4.161
 5831SOL    HW118392   6.401   6.963   4.103
 5831SOL    HW218393   6.342   6.897   4.241
 5832SOL     OW18394   4.120   3.772   5.468
 5832SOL    HW118395   4.051   3.808   5.531
 5832SOL    HW218396   4.198   3.835   5.465
 5833SOL     OW18397   3.301   3.182   4.314
 5833SOL    HW118398   3.202   3.173   4.319
 5833SOL    HW218399   3.325   3.242   4.238
 5834SOL     OW18400   6.029   1.868   0.542
 5834SOL    HW118401   5.979   1.875   0.628
 5834SOL    HW218402   5.973   1.907   0.468
 5835SOL     OW18403   4.992   2.682   3.118
 5835SOL    HW118404   4.978   2.775   3.083
 5835SOL    HW218405   4.928   2.620   3.074
 5836SOL     OW18406   2.516   6.253   3.420
 5836SOL    HW118407   2.490   6.196   3.498
 5836SOL    HW218408   2.466   6.339   3.424
 5837SOL     OW18409   4.014   4.685   6.473
 5837SOL    HW118410   3.929   4.737   6.484
 5837SOL    HW218411   4.084   4.745   6.433
 5838SOL     OW18412   2.098   1.377   6.162
 5838SOL    HW118413   2.182   1.399   6.211
 5838SOL    HW218414   2.019   1.395   6.221
 5839SOL     OW18415   0.456   2.557   2.184
 5839SOL    HW118416   0.392   2.626   2.153
 5839SOL    HW218417   0.418   2.509   2.264
 5840SOL     OW18418   1.565   5.356   6.890
 5840SOL    HW118419   1.533   5.355   6.985
 5840SOL    HW218420   1.634   5.284   6.878
 5841SOL     OW18421   5.693   2.840   2.344
 5841SOL    HW118422   5.603   2.876   2.366
 5841SOL    HW218423   5.699   2.744   2.373
 5842SOL     OW18424   3.713   3.268   0.796
 5842SOL    HW118425   3.781   3.245   0.866
 5842SOL    HW218426   3.713   3.367   0.782
 5843SOL     OW18427   2.113   4.032   2.389
 5843SOL    HW118428   2.116   3.980   2.474
 5843SOL    HW218429   2.135   3.972   2.312
 5844SOL     OW18430   0.313   6.750   5.971
 5844SOL    HW118431   0.225   6.708   5.989
 5844SOL    HW218432   0.302   6.823   5.903
 5845SOL     OW18433   0.711   0.900   3.120
 5845SOL    HW118434   0.769   0.977   3.146
 5845SOL    HW218435   0.620   0.933   3.098
 5846SOL     OW18436   6.588   3.162   4.908
 5846SOL    HW118437   6.633   3.246   4.939
 5846SOL    HW218438   6.656   3.101   4.868
 5847SOL     OW18439   1.935   1.548   2.068
 5847SOL    HW118440   2.008   1.611   2.094
 5847SOL    HW218441   1.866   1.545   2.140
 5848SOL     OW18442   2.488   4.734   3.746
 5848SOL    HW118443   2.396   4.772   3.745
 5848SOL    HW218444   2.511   4.700   3.655
 5849SOL     OW18445   0.217   0.458   6.050
 5849SOL    HW118446   0.187   0.533   5.991
 5849SOL    HW218447   0.138   0.415   6.093
 5850SOL     OW18448   1.182   3.198   1.683
 5850SOL    HW118449   1.223   3.156   1.764
 5850SOL    HW218450   1.249   3.260   1.641
 5851SOL     OW18451   5.220   3.018   3.015
 5851SOL    HW118452   5.306   3.023   3.066
 5851SOL    HW218453   5.239   3.030   2.917
 5852SOL     OW18454   4.686   6.731   2.827
 5852SOL    HW118455   4.595   6.707   2.793
 5852SOL    HW218456   4.737   6.777   2.754
 5853SOL     OW18457   3.314   6.007   5.684
 5853SOL    HW118458   3.413   5.999   5.674
 5853SOL    HW218459   3.269   5.943   5.622
 5854SOL     OW18460   6.436   3.369   5.813
 5854SOL    HW118461   6.467   3.404   5.902
 5854SOL    HW218462   6.489   3.288   5.789
 5855SOL     OW18463   0.619   0.964   5.034
 5855SOL    HW118464   0.610   0.921   5.123
 5855SOL    HW218465   0.597   0.898   4.962
 5856SOL     OW18466   2.147   5.289   3.386
 5856SOL    HW118467   2.094   5.337   3.456
 5856SOL    HW218468   2.208   5.353   3.340
 5857SOL     OW18469   5.537   2.639   4.995
 5857SOL    HW118470   5.452   2.588   4.986
 5857SOL    HW218471   5.518   2.737   4.985
 5858SOL     OW18472   2.624   2.419   2.000
 5858SOL    HW118473   2.628   2.502   1.943
 5858SOL    HW218474   2.717   2.391   2.023
 5859SOL     OW18475   5.551   6.112   1.062
 5859SOL    HW118476   5.555   6.202   1.018
 5859SOL    HW218477   5.627   6.056   1.032
 5860SOL     OW18478   2.231   3.739   1.791
 5860SOL    HW118479   2.230   3.660   1.851
 5860SOL    HW218480   2.258   3.820   1.843
 5861SOL     OW18481   5.608   1.462   3.877
 5861SOL    HW118482   5.562   1.506   3.954
 5861SOL    HW218483   5.565   1.375   3.857
 5862SOL     OW18484   4.337   5.299   3.148
 5862SOL    HW118485   4.437   5.295   3.144
 5862SOL    HW218486   4.309   5.394   3.163
 5863SOL     OW18487   2.845   0.722   5.232
 5863SOL    HW118488   2.803   0.713   5.141
 5863SOL    HW218489   2.774   0.733   5.301
 5864SOL     OW18490   4.156   4.105   1.647
 5864SOL    HW118491   4.243   4.104   1.696
 5864SOL    HW218492   4.121   4.011   1.640
 5865SOL     OW18493   5.088   0.667   4.125
 5865SOL    HW118494   5.035   0.582   4.118
 5865SOL    HW218495   5.182   0.651   4.094
 5866SOL     OW18496   3.973   6.182   6.573
 5866SOL    HW118497   3.920   6.165   6.490
 5866SOL    HW218498   4.070   6.175   6.551
 5867SOL     OW18499   0.322   3.359   0.761
 5867SOL    HW118500   0.325   3.265   0.728
 5867SOL    HW218501   0.407   3.406   0.737
 5868SOL     OW18502   0.044   0.525   4.925
 5868SOL    HW118503   6.970   0.510   4.912
 5868SOL    HW218504   0.058   0.600   4.989
 5869SOL     OW18505   1.936   4.857   3.649
 5869SOL    HW118506   1.914   4.935   3.591
 5869SOL    HW218507   1.944   4.774   3.592
 5870SOL     OW18508   4.845   5.452   4.813
 5870SOL    HW118509   4.943   5.448   4.796
 5870SOL    HW218510   4.814   5.367   4.856
 5871SOL     OW18511   4.240   3.770   0.149
 5871SOL    HW118512   4.335   3.757   0.120
 5871SOL    HW218513   4.184   3.696   0.113
 5872SOL     OW18514   3.973   5.874   6.909
 5872SOL    HW118515   3.963   5.781   6.874
 5872SOL    HW218516   4.066   5.888   6.943
 5873SOL     OW18517   1.917   2.677   0.356
 5873SOL    HW118518   1.878   2.596   0.399
 5873SOL    HW218519   1.905   2.757   0.415
 5874SOL     OW18520   2.759   2.959   1.373
 5874SOL    HW118521   2.749   3.034   1.438
 5874SOL    HW218522   2.846   2.968   1.325
 5875SOL     OW18523   3.884   1.246   0.323
 5875SOL    HW118524   3.866   1.214   0.230
 5875SOL    HW218525   3.891   1.167   0.384
 5876SOL     OW18526   3.485   2.957   6.514
 5876SOL    HW118527   3.566   2.913   6.553
 5876SOL    HW218528   3.466   2.918   6.424
 5877SOL     OW18529   6.103   6.500   1.277
 5877SOL    HW118530   6.163   6.499   1.197
 5877SOL    HW218531   6.149   6.458   1.355
 5878SOL     OW18532   5.574   5.849   2.948
 5878SOL    HW118533   5.564   5.877   2.852
 5878SOL    HW218534   5.573   5.930   3.007
 5879SOL     OW18535   3.825   2.946   5.921
 5879SOL    HW118536   3.756   3.017   5.932
 5879SOL    HW218537   3.781   2.862   5.887
 5880SOL     OW18538   4.569   3.726   5.566
 5880SOL    HW118539   4.594   3.632   5.544
 5880SOL    HW218540   4.551   3.777   5.481
 5881SOL     OW18541   1.337   6.829   2.750
 5881SOL    HW118542   1.395   6.906   2.776
 5881SOL    HW218543   1.371   6.788   2.665
 5882SOL     OW18544   1.485   6.482   5.833
 5882SOL    HW118545   1.577   6.446   5.818
 5882SOL    HW218546   1.464   6.479   5.931
 5883SOL     OW18547   0.024   2.617   0.493
 5883SOL    HW118548   6.990   2.697   0.481
 5883SOL    HW218549   0.110   2.644   0.536
 5884SOL     OW18550   6.688   0.857   3.973
 5884SOL    HW118551   6.725   0.773   4.012
 5884SOL    HW218552   6.677   0.847   3.874
 5885SOL     OW18553   0.696   5.627   0.607
 5885SOL    HW118554   0.634   5.656   0.534
 5885SOL    HW218555   0.747   5.706   0.641
 5886SOL     OW18556   1.490   3.084   3.133
 5886SOL    HW118557   1.521   3.011   3.072
 5886SOL    HW218558   1.396   3.108   3.111
 5887SOL     OW18559   2.413   1.937   2.152
 5887SOL    HW118560   2.334   1.988   2.119
 5887SOL    HW218561   2.392   1.896   2.241
 5888SOL     OW18562   2.731   0.291   0.856
 5888SOL    HW118563   2.739   0.384   0.821
 5888SOL    HW218564   2.654   0.286   0.920
 5889SOL     OW18565   6.983   1.679   1.432
 5889SOL    HW118566   0.055   1.707   1.441
 5889SOL    HW218567   6.925   1.744   1.481
 5890SOL     OW18568   1.843   6.386   2.520
 5890SOL    HW118569   1.913   6.315   2.514
 5890SOL    HW218570   1.786   6.384   2.438
 5891SOL     OW18571   2.761   3.472   0.395
 5891SOL    HW118572   2.664   3.498   0.393
 5891SOL    HW218573   2.799   3.477   0.303
 5892SOL     OW18574   0.436   4.172   0.801
 5892SOL    HW118575   0.433   4.079   0.839
 5892SOL    HW218576   0.485   4.170   0.714
 5893SOL     OW18577   0.886   5.186   1.507
 5893SOL    HW118578   0.936   5.253   1.562
 5893SOL    HW218579   0.910   5.093   1.538
 5894SOL     OW18580   0.778   5.649   6.011
 5894SOL    HW118581   0.780   5.677   5.915
 5894SOL    HW218582   0.729   5.563   6.020
 5895SOL     OW18583   6.379   3.436   4.666
 5895SOL    HW118584   6.338   3.372   4.601
 5895SOL    HW218585   6.333   3.429   4.755
 5896SOL     OW18586   5.556   1.684   1.830
 5896SOL    HW118587   5.466   1.673   1.788
 5896SOL    HW218588   5.546   1.685   1.929
 5897SOL     OW18589   3.801   1.607   1.719
 5897SOL    HW118590   3.702   1.622   1.721
 5897SOL    HW218591   3.844   1.674   1.658
 5898SOL     OW18592   2.116   1.873   5.732
 5898SOL    HW118593   2.039   1.836   5.784
 5898SOL    HW218594   2.194   1.811   5.741
 5899SOL     OW18595   6.685   5.208   6.068
 5899SOL    HW118596   6.694   5.284   6.134
 5899SOL    HW218597   6.671   5.245   5.977
 5900SOL     OW18598   0.383   5.381   2.974
 5900SOL    HW118599   0.454   5.315   2.949
 5900SOL    HW218600   0.424   5.458   3.023
 5901SOL     OW18601   0.866   0.491   6.837
 5901SOL    HW118602   0.823   0.554   6.773
 5901SOL    HW218603   0.964   0.483   6.816
 5902SOL     OW18604   5.542   3.449   4.846
 5902SOL    HW118605   5.487   3.446   4.930
 5902SOL    HW218606   5.509   3.521   4.787
 5903SOL     OW18607   5.550   2.983   6.828
 5903SOL    HW118608   5.598   2.898   6.850
 5903SOL    HW218609   5.580   3.017   6.739
 5904SOL     OW18610   0.942   4.947   1.603
 5904SOL    HW118611   1.036   4.931   1.571
 5904SOL    HW218612   0.891   4.861   1.599
 5905SOL     OW18613   5.159   0.923   3.719
 5905SOL    HW118614   5.126   0.852   3.657
 5905SOL    HW218615   5.090   0.994   3.728
 5906SOL     OW18616   5.883   1.541   5.658
 5906SOL    HW118617   5.879   1.554   5.757
 5906SOL    HW218618   5.845   1.452   5.634
 5907SOL     OW18619   1.594   1.236   0.259
 5907SOL    HW118620   1.684   1.275   0.241
 5907SOL    HW218621   1.541   1.300   0.314
 5908SOL     OW18622   4.797   3.283   0.182
 5908SOL    HW118623   4.874   3.248   0.129
 5908SOL    HW218624   4.711   3.251   0.142
 5909SOL     OW18625   0.667   4.505   5.588
 5909SOL    HW118626   0.740   4.559   5.546
 5909SOL    HW218627   0.610   4.465   5.517
 5910SOL     OW18628   1.725   4.162   1.751
 5910SOL    HW118629   1.751   4.111   1.669
 5910SOL    HW218630   1.807   4.178   1.807
 5911SOL     OW18631   0.139   5.289   6.223
 5911SOL    HW118632   0.061   5.232   6.196
 5911SOL    HW218633   0.171   5.260   6.313
 5912SOL     OW18634   6.005   3.339   6.925
 5912SOL    HW118635   6.073   3.402   6.888
 5912SOL    HW218636   6.047   3.286   6.999
 5913SOL     OW18637   2.557   2.859   5.643
 5913SOL    HW118638   2.557   2.779   5.702
 5913SOL    HW218639   2.523   2.834   5.552
 5914SOL     OW18640   2.494   6.107   0.362
 5914SOL    HW118641   2.517   6.202   0.379
 5914SOL    HW218642   2.431   6.075   0.433
 5915SOL     OW18643   5.634   2.776   2.981
 5915SOL    HW118644   5.566   2.703   2.988
 5915SOL    HW218645   5.642   2.805   2.886
 5916SOL     OW18646   4.386   0.185   5.924
 5916SOL    HW118647   4.364   0.089   5.907
 5916SOL    HW218648   4.354   0.240   5.847
 5917SOL     OW18649   3.856   2.952   3.534
 5917SOL    HW118650   3.886   2.998   3.451
 5917SOL    HW218651   3.773   2.899   3.516
 5918SOL     OW18652   1.389   3.560   4.418
 5918SOL    HW118653   1.339   3.646   4.410
 5918SOL    HW218654   1.465   3.571   4.482
 5919SOL     OW18655   2.703   2.426   0.813
 5919SOL    HW118656   2.611   2.466   0.812
 5919SOL    HW218657   2.746   2.440   0.724
 5920SOL     OW18658   2.973   6.605   6.966
 5920SOL    HW118659   3.033   6.679   6.999
 5920SOL    HW218660   2.879   6.637   6.965
 5921SOL     OW18661   3.910   5.328   5.930
 5921SOL    HW118662   4.000   5.303   5.965
 5921SOL    HW218663   3.920   5.384   5.848
 5922SOL     OW18664   6.577   4.880   2.912
 5922SOL    HW118665   6.676   4.871   2.903
 5922SOL    HW218666   6.541   4.801   2.962
 5923SOL     OW18667   6.121   0.380   3.851
 5923SOL    HW118668   6.090   0.285   3.855
 5923SOL    HW218669   6.159   0.406   3.940
 5924SOL     OW18670   5.469   2.568   4.631
 5924SOL    HW118671   5.380   2.612   4.631
 5924SOL    HW218672   5.462   2.477   4.591
 5925SOL     OW18673   4.784   5.819   2.893
 5925SOL    HW118674   4.693   5.777   2.891
 5925SOL    HW218675   4.776   5.919   2.888
 5926SOL     OW18676   3.618   5.626   1.611
 5926SOL    HW118677   3.585   5.680   1.534
 5926SOL    HW218678   3.659   5.686   1.680
 5927SOL     OW18679   2.463   6.048   1.690
 5927SOL    HW118680   2.509   5.998   1.763
 5927SOL    HW218681   2.437   5.984   1.617
 5928SOL     OW18682   2.088   0.598   2.366
 5928SOL    HW118683   2.142   0.527   2.412
 5928SOL    HW218684   1.996   0.600   2.404
 5929SOL     OW18685   1.174   6.569   6.082
 5929SOL    HW118686   1.198   6.571   5.985
 5929SOL    HW218687   1.075   6.572   6.092
 5930SOL     OW18688   6.124   1.772   4.101
 5930SOL    HW118689   6.194   1.833   4.063
 5930SOL    HW218690   6.067   1.737   4.028
 5931SOL     OW18691   5.849   5.331   1.908
 5931SOL    HW118692   5.868   5.426   1.881
 5931SOL    HW218693   5.917   5.300   1.974
 5932SOL     OW18694   2.488   6.560   1.040
 5932SOL    HW118695   2.565   6.498   1.030
 5932SOL    HW218696   2.403   6.508   1.049
 5933SOL     OW18697   0.458   4.042   2.178
 5933SOL    HW118698   0.376   4.098   2.188
 5933SOL    HW218699   0.461   4.004   2.086
 5934SOL     OW18700   3.625   3.497   3.075
 5934SOL    HW118701   3.631   3.408   3.121
 5934SOL    HW218702   3.662   3.567   3.135
 5935SOL     OW18703   3.857   4.133   4.748
 5935SOL    HW118704   3.862   4.060   4.816
 5935SOL    HW218705   3.895   4.217   4.786
 5936SOL     OW18706   4.461   4.647   6.718
 5936SOL    HW118707   4.513   4.574   6.762
 5936SOL    HW218708   4.484   4.651   6.621
 5937SOL     OW18709   0.637   3.727   1.534
 5937SOL    HW118710   0.667   3.784   1.457
 5937SOL    HW218711   0.539   3.712   1.528
 5938SOL     OW18712   1.774   4.670   3.429
 5938SOL    HW118713   1.690   4.691   3.480
 5938SOL    HW218714   1.750   4.649   3.334
 5939SOL     OW18715   3.378   0.632   3.007
 5939SOL    HW118716   3.385   0.559   3.075
 5939SOL    HW218717   3.386   0.721   3.052
 5940SOL     OW18718   3.780   6.799   2.172
 5940SOL    HW118719   3.819   6.740   2.101
 5940SOL    HW218720   3.825   6.779   2.259
 5941SOL     OW18721   6.034   5.001   1.899
 5941SOL    HW118722   6.019   5.087   1.948
 5941SOL    HW218723   6.050   4.927   1.966
 5942SOL     OW18724   4.166   2.985   6.558
 5942SOL    HW118725   4.161   2.946   6.466
 5942SOL    HW218726   4.222   2.927   6.617
 5943SOL     OW18727   2.092   6.187   0.888
 5943SOL    HW118728   2.176   6.161   0.936
 5943SOL    HW218729   2.116   6.243   0.809
 5944SOL     OW18730   5.295   1.409   1.795
 5944SOL    HW118731   5.303   1.500   1.753
 5944SOL    HW218732   5.356   1.345   1.748
 5945SOL     OW18733   6.921   5.099   5.445
 5945SOL    HW118734   6.898   5.008   5.480
 5945SOL    HW218735   6.955   5.091   5.352
 5946SOL     OW18736   3.454   4.237   5.882
 5946SOL    HW118737   3.454   4.187   5.969
 5946SOL    HW218738   3.412   4.181   5.812
 5947SOL     OW18739   4.231   3.135   1.791
 5947SOL    HW118740   4.137   3.159   1.768
 5947SOL    HW218741   4.245   3.147   1.890
 5948SOL     OW18742   3.887   4.842   2.897
 5948SOL    HW118743   3.923   4.749   2.892
 5948SOL    HW218744   3.949   4.899   2.951
 5949SOL     OW18745   3.826   4.707   1.048
 5949SOL    HW118746   3.815   4.649   0.968
 5949SOL    HW218747   3.917   4.747   1.048
 5950SOL     OW18748   5.645   1.888   4.523
 5950SOL    HW118749   5.720   1.834   4.486
 5950SOL    HW218750   5.581   1.911   4.449
 5951SOL     OW18751   1.579   6.625   4.654
 5951SOL    HW118752   1.508   6.618   4.584
 5951SOL    HW218753   1.665   6.655   4.612
 5952SOL     OW18754   6.716   5.724   3.929
 5952SOL    HW118755   6.683   5.789   3.997
 5952SOL    HW218756   6.755   5.644   3.975
 5953SOL     OW18757   6.927   3.114   5.046
 5953SOL    HW118758   7.024   3.093   5.057
 5953SOL    HW218759   6.888   3.055   4.976
 5954SOL     OW18760   6.816   4.594   6.027
 5954SOL    HW118761   6.908   4.633   6.037
 5954SOL    HW218762   6.811   4.540   5.943
 5955SOL     OW18763   5.534   5.507   2.227
 5955SOL    HW118764   5.582   5.518   2.141
 5955SOL    HW218765   5.466   5.580   2.237
 5956SOL     OW18766   4.027   1.920   6.908
 5956SOL    HW118767   3.943   1.866   6.899
 5956SOL    HW218768   4.084   1.881   6.980
 5957SOL     OW18769   5.050   6.279   6.365
 5957SOL    HW118770   5.052   6.188   6.323
 5957SOL    HW218771   5.074   6.271   6.461
 5958SOL     OW18772   6.598   6.362   2.264
 5958SOL    HW118773   6.563   6.396   2.352
 5958SOL    HW218774   6.523   6.319   2.213
 5959SOL     OW18775   3.015   1.882   5.674
 5959SOL    HW118776   2.956   1.941   5.729
 5959SOL    HW218777   3.029   1.923   5.584
 5960SOL     OW18778   3.162   0.136   3.821
 5960SOL    HW118779   3.257   0.126   3.850
 5960SOL    HW218780   3.102   0.104   3.895
 5961SOL     OW18781   3.996   1.051   4.434
 5961SOL    HW118782   4.032   1.015   4.519
 5961SOL    HW218783   3.896   1.055   4.439
 5962SOL     OW18784   5.141   5.375   2.803
 5962SOL    HW118785   5.241   5.381   2.812
 5962SOL    HW218786   5.106   5.460   2.763
 5963SOL     OW18787   3.526   3.904   3.582
 5963SOL    HW118788   3.542   3.879   3.677
 5963SOL    HW218789   3.484   3.827   3.534
 5964SOL     OW18790   6.509   5.018   6.756
 5964SOL    HW118791   6.599   5.056   6.735
 5964SOL    HW218792   6.448   5.091   6.786
 5965SOL     OW18793   1.685   2.306   6.517
 5965SOL    HW118794   1.768   2.334   6.468
 5965SOL    HW218795   1.710   2.244   6.592
 5966SOL     OW18796   3.232   5.859   5.015
 5966SOL    HW118797   3.192   5.817   5.096
 5966SOL    HW218798   3.203   5.955   5.009
 5967SOL     OW18799   4.506   6.280   2.598
 5967SOL    HW118800   4.575   6.288   2.670
 5967SOL    HW218801   4.547   6.239   2.517
 5968SOL     OW18802   6.268   1.973   2.964
 5968SOL    HW118803   6.318   2.055   2.936
 5968SOL    HW218804   6.304   1.894   2.915
 5969SOL     OW18805   6.132   2.978   4.759
 5969SOL    HW118806   6.193   3.003   4.835
 5969SOL    HW218807   6.040   2.965   4.794
 5970SOL     OW18808   0.952   3.881   2.565
 5970SOL    HW118809   1.014   3.943   2.614
 5970SOL    HW218810   0.859   3.916   2.572
 5971SOL     OW18811   1.933   0.463   2.904
 5971SOL    HW118812   1.883   0.547   2.880
 5971SOL    HW218813   1.873   0.402   2.956
 5972SOL     OW18814   4.831   6.496   0.595
 5972SOL    HW118815   4.899   6.564   0.566
 5972SOL    HW218816   4.844   6.476   0.692
 5973SOL     OW18817   2.155   4.856   2.516
 5973SOL    HW118818   2.087   4.927   2.497
 5973SOL    HW218819   2.152   4.833   2.614
 5974SOL     OW18820   6.499   3.959   6.104
 5974SOL    HW118821   6.501   4.032   6.173
 5974SOL    HW218822   6.405   3.932   6.087
 5975SOL     OW18823   3.812   2.285   0.627
 5975SOL    HW118824   3.750   2.212   0.657
 5975SOL    HW218825   3.787   2.370   0.672
 5976SOL     OW18826   3.475   2.899   4.734
 5976SOL    HW118827   3.420   2.930   4.657
 5976SOL    HW218828   3.420   2.903   4.818
 5977SOL     OW18829   1.185   4.838   1.925
 5977SOL    HW118830   1.263   4.790   1.964
 5977SOL    HW218831   1.128   4.773   1.874
 5978SOL     OW18832   5.166   3.930   2.804
 5978SOL    HW118833   5.070   3.913   2.779
 5978SOL    HW218834   5.223   3.922   2.722
 5979SOL     OW18835   6.072   0.050   3.519
 5979SOL    HW118836   6.133   0.120   3.483
 5979SOL    HW218837   6.124   6.990   3.538
 5980SOL     OW18838   4.231   4.429   6.851
 5980SOL    HW118839   4.268   4.521   6.843
 5980SOL    HW218840   4.232   4.385   6.761
 5981SOL     OW18841   6.779   1.823   1.836
 5981SOL    HW118842   6.706   1.771   1.792
 5981SOL    HW218843   6.817   1.769   1.912
 5982SOL     OW18844   6.235   2.103   6.618
 5982SOL    HW118845   6.334   2.118   6.618
 5982SOL    HW218846   6.212   2.032   6.552
 5983SOL     OW18847   2.136   1.925   4.345
 5983SOL    HW118848   2.115   2.012   4.390
 5983SOL    HW218849   2.068   1.856   4.372
 5984SOL     OW18850   0.615   6.513   4.651
 5984SOL    HW118851   0.547   6.456   4.604
 5984SOL    HW218852   0.661   6.460   4.721
 5985SOL     OW18853   5.355   2.016   3.519
 5985SOL    HW118854   5.288   2.078   3.478
 5985SOL    HW218855   5.309   1.933   3.551
 5986SOL     OW18856   3.260   3.094   3.520
 5986SOL    HW118857   3.314   3.020   3.561
 5986SOL    HW218858   3.175   3.106   3.572
 5987SOL     OW18859   4.716   0.599   5.296
 5987SOL    HW118860   4.771   0.543   5.234
 5987SOL    HW218861   4.647   0.649   5.244
 5988SOL     OW18862   3.896   6.984   4.781
 5988SOL    HW118863   3.962   0.035   4.783
 5988SOL    HW218864   3.942   6.901   4.751
 5989SOL     OW18865   2.358   6.834   6.435
 5989SOL    HW118866   2.372   6.930   6.412
 5989SOL    HW218867   2.261   6.818   6.454
 5990SOL     OW18868   3.621   4.722   0.263
 5990SOL    HW118869   3.570   4.686   0.185
 5990SOL    HW218870   3.719   4.706   0.250
 5991SOL     OW18871   4.071   4.948   5.394
 5991SOL    HW118872   3.972   4.957   5.385
 5991SOL    HW218873   4.098   4.854   5.374
 5992SOL     OW18874   3.568   1.130   3.888
 5992SOL    HW118875   3.588   1.213   3.837
 5992SOL    HW218876   3.650   1.099   3.937
 5993SOL     OW18877   3.069   6.555   5.401
 5993SOL    HW118878   3.133   6.484   5.432
 5993SOL    HW218879   2.987   6.554   5.459
 5994SOL     OW18880   6.264   2.340   1.732
 5994SOL    HW118881   6.282   2.320   1.829
 5994SOL    HW218882   6.299   2.265   1.676
 5995SOL     OW18883   0.060   5.127   1.174
 5995SOL    HW118884   0.060   5.124   1.274
 5995SOL    HW218885   0.079   5.035   1.139
 5996SOL     OW18886   0.445   5.439   6.594
 5996SOL    HW118887   0.482   5.531   6.583
 5996SOL    HW218888   0.376   5.440   6.667
 5997SOL     OW18889   0.428   0.293   1.834
 5997SOL    HW118890   0.396   0.229   1.903
 5997SOL    HW218891   0.516   0.331   1.862
 5998SOL     OW18892   5.427   2.148   2.446
 5998SOL    HW118893   5.453   2.244   2.454
 5998SOL    HW218894   5.435   2.103   2.535
 5999SOL     OW18895   1.064   1.928   3.438
 5999SOL    HW118896   1.070   1.855   3.507
 5999SOL    HW218897   1.137   1.995   3.454
 6000SOL     OW18898   4.082   5.139   2.376
 6000SOL    HW118899   4.107   5.208   2.444
 6000SOL    HW218900   4.144   5.146   2.298
 6001SOL     OW18901   6.922   3.203   6.617
 6001SOL    HW118902   6.906   3.238   6.709
 6001SOL    HW218903   6.941   3.279   6.555
 6002SOL     OW18904   0.562   6.721   1.291
 6002SOL    HW118905   0.540   6.673   1.376
 6002SOL    HW218906   0.478   6.730   1.236
 6003SOL     OW18907   5.453   3.875   4.896
 6003SOL    HW118908   5.489   3.798   4.843
 6003SOL    HW218909   5.356   3.861   4.912
 6004SOL     OW18910   0.556   3.839   3.266
 6004SOL    HW118911   0.625   3.894   3.314
 6004SOL    HW218912   0.478   3.824   3.327
 6005SOL     OW18913   3.944   5.222   4.070
 6005SOL    HW118914   3.878   5.294   4.048
 6005SOL    HW218915   3.992   5.195   3.986
 6006SOL     OW18916   3.157   0.095   6.608
 6006SOL    HW118917   3.219   0.017   6.622
 6006SOL    HW218918   3.202   0.161   6.548
 6007SOL     OW18919   5.615   3.182   3.717
 6007SOL    HW118920   5.562   3.099   3.734
 6007SOL    HW218921   5.644   3.183   3.621
 6008SOL     OW18922   3.383   5.706   5.350
 6008SOL    HW118923   3.467   5.752   5.320
 6008SOL    HW218924   3.407   5.619   5.394
 6009SOL     OW18925   2.805   1.773   4.697
 6009SOL    HW118926   2.827   1.842   4.628
 6009SOL    HW218927   2.707   1.778   4.718
 6010SOL     OW18928   2.304   4.294   2.419
 6010SOL    HW118929   2.331   4.321   2.326
 6010SOL    HW218930   2.263   4.203   2.416
 6011SOL     OW18931   5.157   2.785   1.640
 6011SOL    HW118932   5.079   2.841   1.610
 6011SOL    HW218933   5.207   2.753   1.559
 6012SOL     OW18934   6.841   2.231   6.788
 6012SOL    HW118935   6.794   2.155   6.832
 6012SOL    HW218936   6.822   2.316   6.838
 6013SOL     OW18937   6.487   1.349   1.979
 6013SOL    HW118938   6.543   1.288   1.924
 6013SOL    HW218939   6.544   1.421   2.019
 6014SOL     OW18940   5.898   1.731   0.787
 6014SOL    HW118941   5.848   1.651   0.818
 6014SOL    HW218942   5.840   1.785   0.726
 6015SOL     OW18943   5.712   2.016   5.176
 6015SOL    HW118944   5.772   1.994   5.253
 6015SOL    HW218945   5.707   2.116   5.165
 6016SOL     OW18946   0.793   1.110   5.794
 6016SOL    HW118947   0.707   1.158   5.810
 6016SOL    HW218948   0.795   1.025   5.847
 6017SOL     OW18949   6.097   5.566   3.626
 6017SOL    HW118950   6.164   5.640   3.622
 6017SOL    HW218951   6.098   5.515   3.540
 6018SOL     OW18952   3.135   3.176   0.150
 6018SOL    HW118953   3.039   3.149   0.155
 6018SOL    HW218954   3.177   3.166   0.241
 6019SOL     OW18955   4.584   1.297   3.097
 6019SOL    HW118956   4.655   1.246   3.048
 6019SOL    HW218957   4.494   1.261   3.073
 6020SOL     OW18958   3.273   6.963   2.329
 6020SOL    HW118959   3.291   6.939   2.234
 6020SOL    HW218960   3.185   6.923   2.357
 6021SOL     OW18961   4.616   0.713   2.782
 6021SOL    HW118962   4.661   0.687   2.868
 6021SOL    HW218963   4.665   0.790   2.741
 6022SOL     OW18964   4.941   1.174   3.355
 6022SOL    HW118965   4.967   1.116   3.278
 6022SOL    HW218966   4.917   1.265   3.322
 6023SOL     OW18967   6.205   0.817   3.593
 6023SOL    HW118968   6.244   0.904   3.624
 6023SOL    HW218969   6.255   0.741   3.636
 6024SOL     OW18970   0.647   4.695   2.259
 6024SOL    HW118971   0.718   4.737   2.316
 6024SOL    HW218972   0.608   4.617   2.307
 6025SOL     OW18973   4.353   0.752   1.802
 6025SOL    HW118974   4.342   0.786   1.709
 6025SOL    HW218975   4.357   0.830   1.865
 6026SOL     OW18976   0.506   5.239   4.836
 6026SOL    HW118977   0.415   5.268   4.806
 6026SOL    HW218978   0.551   5.187   4.763
 6027SOL     OW18979   2.445   4.318   6.461
 6027SOL    HW118980   2.507   4.283   6.390
 6027SOL    HW218981   2.351   4.295   6.437
 6028SOL     OW18982   1.496   4.124   0.439
 6028SOL    HW118983   1.443   4.042   0.464
 6028SOL    HW218984   1.533   4.166   0.521
 6029SOL     OW18985   1.935   6.345   0.477
 6029SOL    HW118986   1.838   6.322   0.480
 6029SOL    HW218987   1.989   6.264   0.501
 6030SOL     OW18988   2.669   0.928   2.690
 6030SOL    HW118989   2.571   0.948   2.689
 6030SOL    HW218990   2.705   0.932   2.597
 6031SOL     OW18991   4.993   6.036   5.331
 6031SOL    HW118992   4.925   6.003   5.397
 6031SOL    HW218993   4.985   6.136   5.323
 6032SOL     OW18994   1.764   3.661   2.804
 6032SOL    HW118995   1.795   3.566   2.793
 6032SOL    HW218996   1.729   3.694   2.716
 6033SOL     OW18997   2.342   2.349   2.971
 6033SOL    HW118998   2.285   2.305   3.041
 6033SOL    HW218999   2.432   2.305   2.971
 6034SOL     OW19000   2.736   4.672   4.346
 6034SOL    HW119001   2.830   4.703   4.362
 6034SOL    HW219002   2.693   4.649   4.433
 6035SOL     OW19003   5.043   1.042   4.375
 6035SOL    HW119004   5.089   1.027   4.463
 6035SOL    HW219005   5.073   1.130   4.338
 6036SOL     OW19006   0.114   6.555   5.121
 6036SOL    HW119007   0.095   6.610   5.202
 6036SOL    HW219008   0.120   6.458   5.148
 6037SOL     OW19009   4.873   4.687   6.134
 6037SOL    HW119010   4.847   4.777   6.169
 6037SOL    HW219011   4.867   4.687   6.034
 6038SOL     OW19012   0.614   3.269   6.251
 6038SOL    HW119013   0.643   3.174   6.235
 6038SOL    HW219014   0.695   3.328   6.251
 6039SOL     OW19015   3.223   3.603   2.343
 6039SOL    HW119016   3.268   3.690   2.324
 6039SOL    HW219017   3.282   3.547   2.401
 6040SOL     OW19018   0.808   1.502   6.345
 6040SOL    HW119019   0.896   1.505   6.392
 6040SOL    HW219020   0.778   1.407   6.336
 6041SOL     OW19021   0.910   2.264   6.874
 6041SOL    HW119022   0.984   2.197   6.862
 6041SOL    HW219023   0.851   2.236   6.949
 6042SOL     OW19024   5.490   5.178   2.577
 6042SOL    HW119025   5.466   5.085   2.603
 6042SOL    HW219026   5.489   5.186   2.477
 6043SOL     OW19027   1.500   4.966   4.569
 6043SOL    HW119028   1.407   4.996   4.592
 6043SOL    HW219029   1.497   4.872   4.537
 6044SOL     OW19030   0.217   1.861   1.397
 6044SOL    HW119031   0.262   1.950   1.388
 6044SOL    HW219032   0.265   1.806   1.465
 6045SOL     OW19033   5.573   5.809   0.795
 6045SOL    HW119034   5.660   5.775   0.760
 6045SOL    HW219035   5.500   5.747   0.769
 6046SOL     OW19036   2.589   2.384   0.283
 6046SOL    HW119037   2.590   2.359   0.380
 6046SOL    HW219038   2.683   2.397   0.251
 6047SOL     OW19039   6.202   0.953   4.154
 6047SOL    HW119040   6.216   0.875   4.215
 6047SOL    HW219041   6.127   0.932   4.091
 6048SOL     OW19042   3.820   0.898   3.612
 6048SOL    HW119043   3.850   0.818   3.560
 6048SOL    HW219044   3.838   0.883   3.709
 6049SOL     OW19045   4.400   3.246   6.285
 6049SOL    HW119046   4.379   3.344   6.279
 6049SOL    HW219047   4.321   3.198   6.324
 6050SOL     OW19048   3.923   4.617   5.747
 6050SOL    HW119049   4.009   4.571   5.772
 6050SOL    HW219050   3.849   4.582   5.803
 6051SOL     OW19051   1.970   2.538   2.694
 6051SOL    HW119052   1.922   2.491   2.768
 6051SOL    HW219053   2.069   2.534   2.710
 6052SOL     OW19054   6.744   0.538   0.460
 6052SOL    HW119055   6.688   0.517   0.380
 6052SOL    HW219056   6.698   0.505   0.542
 6053SOL     OW19057   3.655   0.513   6.989
 6053SOL    HW119058   3.705   0.544   6.909
 6053SOL    HW219059   3.606   0.429   6.968
 6054SOL     OW19060   2.089   4.328   1.223
 6054SOL    HW119061   2.055   4.311   1.131
 6054SOL    HW219062   2.189   4.316   1.225
 6055SOL     OW19063   5.500   1.105   5.446
 6055SOL    HW119064   5.436   1.104   5.369
 6055SOL    HW219065   5.587   1.065   5.417
 6056SOL     OW19066   4.390   1.659   5.802
 6056SOL    HW119067   4.354   1.672   5.894
 6056SOL    HW219068   4.396   1.562   5.782
 6057SOL     OW19069   4.718   0.859   4.749
 6057SOL    HW119070   4.724   0.813   4.838
 6057SOL    HW219071   4.623   0.880   4.728
 6058SOL     OW19072   5.795   3.244   3.910
 6058SOL    HW119073   5.893   3.226   3.904
 6058SOL    HW219074   5.748   3.199   3.835
 6059SOL     OW19075   4.600   5.631   6.118
 6059SOL    HW119076   4.579   5.709   6.178
 6059SOL    HW219077   4.597   5.662   6.023
 6060SOL     OW19078   3.969   4.304   5.967
 6060SOL    HW119079   4.021   4.272   6.046
 6060SOL    HW219080   3.871   4.300   5.987
 6061SOL     OW19081   3.250   2.299   6.689
 6061SOL    HW119082   3.170   2.274   6.742
 6061SOL    HW219083   3.227   2.296   6.591
 6062SOL     OW19084   2.221   1.255   4.644
 6062SOL    HW119085   2.261   1.173   4.685
 6062SOL    HW219086   2.213   1.242   4.545
 6063SOL     OW19087   4.358   0.938   6.357
 6063SOL    HW119088   4.417   0.857   6.354
 6063SOL    HW219089   4.363   0.979   6.448
 6064SOL     OW19090   1.603   5.787   3.081
 6064SOL    HW119091   1.572   5.846   3.155
 6064SOL    HW219092   1.592   5.834   2.993
 6065SOL     OW19093   6.402   6.565   0.827
 6065SOL    HW119094   6.342   6.599   0.755
 6065SOL    HW219095   6.494   6.601   0.813
 6066SOL     OW19096   4.325   1.651   1.220
 6066SOL    HW119097   4.413   1.699   1.224
 6066SOL    HW219098   4.278   1.675   1.135
 6067SOL     OW19099   6.302   1.895   6.190
 6067SOL    HW119100   6.385   1.917   6.242
 6067SOL    HW219101   6.247   1.978   6.179
 6068SOL     OW19102   4.975   3.105   5.063
 6068SOL    HW119103   4.921   3.178   5.106
 6068SOL    HW219104   4.913   3.039   5.021
 6069SOL     OW19105   6.984   3.763   5.682
 6069SOL    HW119106   6.894   3.792   5.647
 6069SOL    HW219107   6.986   3.663   5.688
 6070SOL     OW19108   3.778   1.773   6.435
 6070SOL    HW119109   3.701   1.768   6.373
 6070SOL    HW219110   3.854   1.717   6.399
 6071SOL     OW19111   4.298   6.067   5.944
 6071SOL    HW119112   4.347   6.144   5.985
 6071SOL    HW219113   4.215   6.101   5.900
 6072SOL     OW19114   0.834   1.762   1.654
 6072SOL    HW119115   0.886   1.830   1.603
 6072SOL    HW219116   0.788   1.806   1.731
 6073SOL     OW19117   6.236   3.347   0.348
 6073SOL    HW119118   6.179   3.347   0.431
 6073SOL    HW219119   6.189   3.297   0.276
 6074SOL     OW19120   0.963   6.732   4.816
 6074SOL    HW119121   0.906   6.685   4.883
 6074SOL    HW219122   0.906   6.787   4.756
 6075SOL     OW19123   6.671   3.289   0.016
 6075SOL    HW119124   6.649   3.194   7.018
 6075SOL    HW219125   6.716   3.292   0.105
 6076SOL     OW19126   2.601   6.644   4.780
 6076SOL    HW119127   2.649   6.690   4.855
 6076SOL    HW219128   2.616   6.694   4.695
 6077SOL     OW19129   5.257   5.746   2.811
 6077SOL    HW119130   5.256   5.846   2.819
 6077SOL    HW219131   5.312   5.707   2.884
 6078SOL     OW19132   3.272   5.242   3.686
 6078SOL    HW119133   3.329   5.259   3.766
 6078SOL    HW219134   3.278   5.320   3.623
 6079SOL     OW19135   2.553   3.305   7.012
 6079SOL    HW119136   2.629   3.324   6.950
 6079SOL    HW219137   2.564   3.213   0.027
 6080SOL     OW19138   6.410   2.007   0.811
 6080SOL    HW119139   6.371   1.915   0.811
 6080SOL    HW219140   6.459   2.023   0.896
 6081SOL     OW19141   6.435   3.649   4.347
 6081SOL    HW119142   6.439   3.607   4.438
 6081SOL    HW219143   6.499   3.727   4.344
 6082SOL     OW19144   3.674   7.009   3.058
 6082SOL    HW119145   3.611   0.062   3.067
 6082SOL    HW219146   3.761   0.018   3.019
 6083SOL     OW19147   1.383   5.221   6.429
 6083SOL    HW119148   1.407   5.132   6.392
 6083SOL    HW219149   1.429   5.293   6.377
 6084SOL     OW19150   6.684   5.120   4.907
 6084SOL    HW119151   6.586   5.123   4.922
 6084SOL    HW219152   6.710   5.032   4.868
 6085SOL     OW19153   0.098   3.875   0.243
 6085SOL    HW119154   0.061   3.833   0.326
 6085SOL    HW219155   0.048   3.959   0.224
 6086SOL     OW19156   3.623   1.205   4.251
 6086SOL    HW119157   3.644   1.283   4.311
 6086SOL    HW219158   3.536   1.165   4.280
 6087SOL     OW19159   5.828   6.592   0.065
 6087SOL    HW119160   5.854   6.589   0.161
 6087SOL    HW219161   5.752   6.656   0.053
 6088SOL     OW19162   0.277   6.622   4.303
 6088SOL    HW119163   0.354   6.619   4.240
 6088SOL    HW219164   0.246   6.716   4.314
 6089SOL     OW19165   0.583   3.514   1.173
 6089SOL    HW119166   0.543   3.469   1.094
 6089SOL    HW219167   0.511   3.533   1.241
 6090SOL     OW19168   0.679   6.148   5.917
 6090SOL    HW119169   0.723   6.176   5.831
 6090SOL    HW219170   0.593   6.102   5.897
 6091SOL     OW19171   0.258   1.989   1.936
 6091SOL    HW119172   0.178   1.939   1.900
 6091SOL    HW219173   0.298   1.936   2.011
 6092SOL     OW19174   2.799   0.859   2.446
 6092SOL    HW119175   2.835   0.952   2.435
 6092SOL    HW219176   2.830   0.802   2.370
 6093SOL     OW19177   1.928   3.399   1.741
 6093SOL    HW119178   1.862   3.468   1.710
 6093SOL    HW219179   1.995   3.383   1.669
 6094SOL     OW19180   2.071   1.476   1.374
 6094SOL    HW119181   2.031   1.445   1.287
 6094SOL    HW219182   2.040   1.416   1.448
 6095SOL     OW19183   5.135   2.927   0.084
 6095SOL    HW119184   5.169   2.939   0.178
 6095SOL    HW219185   5.079   2.845   0.080
 6096SOL     OW19186   5.096   1.148   3.957
 6096SOL    HW119187   5.042   1.140   3.872
 6096SOL    HW219188   5.092   1.062   4.007
 6097SOL     OW19189   2.386   0.539   2.438
 6097SOL    HW119190   2.398   0.447   2.401
 6097SOL    HW219191   2.466   0.595   2.418
 6098SOL     OW19192   1.863   2.313   6.049
 6098SOL    HW119193   1.929   2.335   6.121
 6098SOL    HW219194   1.903   2.337   5.960
 6099SOL     OW19195   5.759   5.232   5.185
 6099SOL    HW119196   5.851   5.258   5.214
 6099SOL    HW219197   5.751   5.238   5.086
 6100SOL     OW19198   6.434   3.438   6.118
 6100SOL    HW119199   6.341   3.402   6.109
 6100SOL    HW219200   6.433   3.537   6.112
 6101SOL     OW19201   6.665   2.243   5.808
 6101SOL    HW119202   6.605   2.324   5.807
 6101SOL    HW219203   6.610   2.162   5.826
 6102SOL     OW19204   2.806   0.850   4.298
 6102SOL    HW119205   2.883   0.909   4.322
 6102SOL    HW219206   2.839   0.757   4.281
 6103SOL     OW19207   0.358   0.727   3.997
 6103SOL    HW119208   0.327   0.652   4.056
 6103SOL    HW219209   0.345   0.701   3.901
 6104SOL     OW19210   5.805   1.951   6.730
 6104SOL    HW119211   5.783   1.910   6.818
 6104SOL    HW219212   5.878   2.018   6.742
 6105SOL     OW19213   3.621   5.942   5.718
 6105SOL    HW119214   3.703   5.971   5.768
 6105SOL    HW219215   3.611   5.843   5.727
 6106SOL     OW19216   3.010   5.047   6.349
 6106SOL    HW119217   3.066   4.964   6.346
 6106SOL    HW219218   2.928   5.030   6.404
 6107SOL     OW19219   2.314   4.671   4.654
 6107SOL    HW119220   2.311   4.665   4.554
 6107SOL    HW219221   2.357   4.588   4.691
 6108SOL     OW19222   0.803   1.562   4.136
 6108SOL    HW119223   0.840   1.555   4.043
 6108SOL    HW219224   0.711   1.522   4.137
 6109SOL     OW19225   5.026   2.446   0.467
 6109SOL    HW119226   4.937   2.482   0.495
 6109SOL    HW219227   5.094   2.519   0.471
 6110SOL     OW19228   3.087   2.525   6.110
 6110SOL    HW119229   3.036   2.491   6.189
 6110SOL    HW219230   3.136   2.449   6.067
 6111SOL     OW19231   1.111   4.896   3.085
 6111SOL    HW119232   1.170   4.820   3.112
 6111SOL    HW219233   1.115   4.968   3.154
 6112SOL     OW19234   1.842   1.840   3.231
 6112SOL    HW119235   1.929   1.791   3.220
 6112SOL    HW219236   1.849   1.930   3.187
 6113SOL     OW19237   1.053   0.236   6.034
 6113SOL    HW119238   0.981   0.261   6.098
 6113SOL    HW219239   1.127   0.191   6.083
 6114SOL     OW19240   5.437   5.739   6.986
 6114SOL    HW119241   5.457   5.656   0.015
 6114SOL    HW219242   5.523   5.785   6.964
 6115SOL     OW19243   5.322   5.161   3.182
 6115SOL    HW119244   5.338   5.100   3.104
 6115SOL    HW219245   5.333   5.256   3.152
 6116SOL     OW19246   2.609   0.889   1.855
 6116SOL    HW119247   2.583   0.797   1.825
 6116SOL    HW219248   2.703   0.887   1.891
 6117SOL     OW19249   5.976   6.795   4.341
 6117SOL    HW119250   6.000   6.856   4.266
 6117SOL    HW219251   5.880   6.769   4.334
 6118SOL     OW19252   6.532   1.682   2.355
 6118SOL    HW119253   6.620   1.647   2.388
 6118SOL    HW219254   6.458   1.644   2.410
 6119SOL     OW19255   0.644   4.715   4.916
 6119SOL    HW119256   0.651   4.757   5.007
 6119SOL    HW219257   0.551   4.726   4.881
 6120SOL     OW19258   3.011   7.000   3.634
 6120SOL    HW119259   2.915   0.002   3.645
 6120SOL    HW219260   3.067   0.023   3.703
 6121SOL     OW19261   0.619   2.866   3.875
 6121SOL    HW119262   0.544   2.917   3.917
 6121SOL    HW219263   0.615   2.877   3.776
 6122SOL     OW19264   3.720   6.072   2.968
 6122SOL    HW119265   3.632   6.084   3.014
 6122SOL    HW219266   3.748   5.976   2.974
 6123SOL     OW19267   6.876   0.968   1.267
 6123SOL    HW119268   6.779   0.991   1.276
 6123SOL    HW219269   6.931   1.047   1.294
 6124SOL     OW19270   3.650   0.096   5.082
 6124SOL    HW119271   3.643   0.174   5.020
 6124SOL    HW219272   3.682   0.016   5.030
 6125SOL     OW19273   2.201   6.532   1.482
 6125SOL    HW119274   2.221   6.499   1.574
 6125SOL    HW219275   2.283   6.575   1.444
 6126SOL     OW19276   5.059   5.264   4.125
 6126SOL    HW119277   5.035   5.199   4.196
 6126SOL    HW219278   4.982   5.276   4.063
 6127SOL     OW19279   2.531   6.925   1.595
 6127SOL    HW119280   2.627   6.941   1.575
 6127SOL    HW219281   2.523   6.863   1.673
 6128SOL     OW19282   0.076   3.275   0.341
 6128SOL    HW119283   0.094   3.255   0.244
 6128SOL    HW219284   0.131   3.214   0.398
 6129SOL     OW19285   6.159   3.712   3.132
 6129SOL    HW119286   6.163   3.705   3.032
 6129SOL    HW219287   6.205   3.795   3.162
 6130SOL     OW19288   5.854   2.844   3.669
 6130SOL    HW119289   5.830   2.884   3.758
 6130SOL    HW219290   5.904   2.759   3.683
 6131SOL     OW19291   6.999   1.167   5.894
 6131SOL    HW119292   0.047   1.221   5.850
 6131SOL    HW219293   0.008   1.073   5.908
 6132SOL     OW19294   3.847   2.083   0.012
 6132SOL    HW119295   3.785   2.095   6.958
 6132SOL    HW219296   3.930   2.037   7.005
 6133SOL     OW19297   0.470   3.391   1.698
 6133SOL    HW119298   0.519   3.310   1.667
 6133SOL    HW219299   0.533   3.453   1.745
 6134SOL     OW19300   3.519   3.076   6.847
 6134SOL    HW119301   3.452   3.006   6.869
 6134SOL    HW219302   3.543   3.126   6.931
 6135SOL     OW19303   6.532   6.922   1.131
 6135SOL    HW119304   6.448   6.973   1.149
 6135SOL    HW219305   6.537   6.845   1.195
 6136SOL     OW19306   0.889   1.473   2.426
 6136SOL    HW119307   0.962   1.536   2.397
 6136SOL    HW219308   0.851   1.504   2.513
 6137SOL     OW19309   3.444   0.191   5.503
 6137SOL    HW119310   3.486   0.126   5.441
 6137SOL    HW219311   3.398   0.141   5.577
 6138SOL     OW19312   3.888   6.294   2.579
 6138SOL    HW119313   3.838   6.281   2.665
 6138SOL    HW219314   3.838   6.359   2.522
 6139SOL     OW19315   1.565   4.069   5.091
 6139SOL    HW119316   1.656   4.091   5.055
 6139SOL    HW219317   1.549   4.122   5.174
 6140SOL     OW19318   0.995   0.123   1.713
 6140SOL    HW119319   0.937   0.056   1.760
 6140SOL    HW219320   1.057   0.074   1.651
 6141SOL     OW19321   6.845   5.685   5.257
 6141SOL    HW119322   6.844   5.590   5.225
 6141SOL    HW219323   6.863   5.686   5.356
 6142SOL     OW19324   6.829   4.206   0.733
 6142SOL    HW119325   6.836   4.106   0.728
 6142SOL    HW219326   6.738   4.231   0.766
 6143SOL     OW19327   6.264   4.857   6.374
 6143SOL    HW119328   6.216   4.833   6.289
 6143SOL    HW219329   6.361   4.837   6.364
 6144SOL     OW19330   0.115   4.137   3.136
 6144SOL    HW119331   0.136   4.151   3.040
 6144SOL    HW219332   0.116   4.039   3.156
 6145SOL     OW19333   5.299   4.994   3.596
 6145SOL    HW119334   5.379   4.958   3.645
 6145SOL    HW219335   5.219   4.937   3.617
 6146SOL     OW19336   4.725   1.307   3.553
 6146SOL    HW119337   4.647   1.292   3.614
 6146SOL    HW219338   4.809   1.280   3.600
 6147SOL     OW19339   2.399   4.446   3.028
 6147SOL    HW119340   2.301   4.463   3.036
 6147SOL    HW219341   2.414   4.358   2.983
 6148SOL     OW19342   6.852   5.969   4.345
 6148SOL    HW119343   6.836   6.054   4.295
 6148SOL    HW219344   6.773   5.949   4.403
 6149SOL     OW19345   3.610   4.865   3.267
 6149SOL    HW119346   3.598   4.852   3.169
 6149SOL    HW219347   3.701   4.833   3.294
 6150SOL     OW19348   4.940   5.918   6.395
 6150SOL    HW119349   4.946   5.959   6.304
 6150SOL    HW219350   5.025   5.937   6.445
 6151SOL     OW19351   5.383   2.510   5.331
 6151SOL    HW119352   5.345   2.428   5.290
 6151SOL    HW219353   5.482   2.510   5.318
 6152SOL     OW19354   5.318   4.727   6.487
 6152SOL    HW119355   5.259   4.773   6.554
 6152SOL    HW219356   5.356   4.644   6.528
 6153SOL     OW19357   4.635   4.027   1.441
 6153SOL    HW119358   4.732   4.027   1.462
 6153SOL    HW219359   4.610   3.942   1.395
 6154SOL     OW19360   6.150   1.505   2.008
 6154SOL    HW119361   6.198   1.508   1.920
 6154SOL    HW219362   6.111   1.414   2.023
 6155SOL     OW19363   0.180   3.713   4.334
 6155SOL    HW119364   0.083   3.690   4.343
 6155SOL    HW219365   0.214   3.748   4.422
 6156SOL     OW19366   5.462   6.590   2.757
 6156SOL    HW119367   5.432   6.685   2.764
 6156SOL    HW219368   5.453   6.559   2.662
 6157SOL     OW19369   2.433   2.247   3.781
 6157SOL    HW119370   2.476   2.175   3.726
 6157SOL    HW219371   2.347   2.274   3.738
 6158SOL     OW19372   4.630   0.796   6.687
 6158SOL    HW119373   4.593   0.880   6.647
 6158SOL    HW219374   4.651   0.812   6.784
 6159SOL     OW19375   5.519   1.637   6.931
 6159SOL    HW119376   5.496   1.596   6.843
 6159SOL    HW219377   5.454   1.604   7.000
 6160SOL     OW19378   5.481   5.481   0.866
 6160SOL    HW119379   5.416   5.548   0.830
 6160SOL    HW219380   5.448   5.447   0.955
 6161SOL     OW19381   5.879   0.778   5.691
 6161SOL    HW119382   5.810   0.819   5.750
 6161SOL    HW219383   5.926   0.705   5.741
 6162SOL     OW19384   1.338   5.635   4.122
 6162SOL    HW119385   1.331   5.562   4.054
 6162SOL    HW219386   1.322   5.598   4.213
 6163SOL     OW19387   5.640   4.162   1.110
 6163SOL    HW119388   5.635   4.062   1.102
 6163SOL    HW219389   5.558   4.195   1.157
 6164SOL     OW19390   2.282   1.985   1.108
 6164SOL    HW119391   2.305   1.905   1.052
 6164SOL    HW219392   2.289   1.960   1.205
 6165SOL     OW19393   3.827   6.053   0.636
 6165SOL    HW119394   3.734   6.018   0.641
 6165SOL    HW219395   3.889   5.991   0.685
 6166SOL     OW19396   3.277   1.589   5.971
 6166SOL    HW119397   3.207   1.541   5.917
 6166SOL    HW219398   3.243   1.601   6.064
 6167SOL     OW19399   0.230   4.605   2.692
 6167SOL    HW119400   0.133   4.628   2.687
 6167SOL    HW219401   0.244   4.511   2.660
 6168SOL     OW19402   0.291   3.572   1.619
 6168SOL    HW119403   0.356   3.499   1.640
 6168SOL    HW219404   0.200   3.545   1.647
 6169SOL     OW19405   2.301   3.976   1.925
 6169SOL    HW119406   2.256   3.953   2.011
 6169SOL    HW219407   2.320   4.074   1.922
 6170SOL     OW19408   0.057   3.325   5.452
 6170SOL    HW119409   0.135   3.358   5.398
 6170SOL    HW219410   0.082   3.241   5.499
 6171SOL     OW19411   0.923   0.450   0.597
 6171SOL    HW119412   0.878   0.515   0.536
 6171SOL    HW219413   0.978   0.499   0.665
 6172SOL     OW19414   0.601   3.175   3.192
 6172SOL    HW119415   0.588   3.101   3.126
 6172SOL    HW219416   0.585   3.263   3.147
 6173SOL     OW19417   0.095   6.736   3.035
 6173SOL    HW119418   0.007   6.730   3.081
 6173SOL    HW219419   0.122   6.831   3.025
 6174SOL     OW19420   5.488   4.656   3.012
 6174SOL    HW119421   5.433   4.738   3.027
 6174SOL    HW219422   5.440   4.594   2.950
 6175SOL     OW19423   3.195   0.864   4.915
 6175SOL    HW119424   3.229   0.870   5.008
 6175SOL    HW219425   3.170   0.956   4.883
 6176SOL     OW19426   4.145   4.189   5.273
 6176SOL    HW119427   4.184   4.273   5.235
 6176SOL    HW219428   4.125   4.203   5.370
 6177SOL     OW19429   5.248   1.474   2.059
 6177SOL    HW119430   5.340   1.492   2.093
 6177SOL    HW219431   5.253   1.434   1.967
 6178SOL     OW19432   5.035   3.668   2.597
 6178SOL    HW119433   5.096   3.743   2.571
 6178SOL    HW219434   5.044   3.593   2.532
 6179SOL     OW19435   6.353   4.986   1.854
 6179SOL    HW119436   6.442   5.024   1.828
 6179SOL    HW219437   6.281   5.038   1.809
 6180SOL     OW19438   3.010   5.147   0.591
 6180SOL    HW119439   3.022   5.049   0.581
 6180SOL    HW219440   3.063   5.179   0.670
 6181SOL     OW19441   4.516   5.107   6.315
 6181SOL    HW119442   4.584   5.066   6.375
 6181SOL    HW219443   4.531   5.206   6.309
 6182SOL     OW19444   3.346   3.450   0.186
 6182SOL    HW119445   3.353   3.531   0.245
 6182SOL    HW219446   3.251   3.437   0.159
 6183SOL     OW19447   1.554   2.387   0.671
 6183SOL    HW119448   1.565   2.420   0.577
 6183SOL    HW219449   1.636   2.408   0.723
 6184SOL     OW19450   2.647   1.187   6.307
 6184SOL    HW119451   2.657   1.281   6.273
 6184SOL    HW219452   2.609   1.190   6.399
 6185SOL     OW19453   3.720   2.927   5.017
 6185SOL    HW119454   3.695   2.860   4.948
 6185SOL    HW219455   3.689   2.896   5.107
 6186SOL     OW19456   5.892   1.905   1.986
 6186SOL    HW119457   5.880   1.806   1.989
 6186SOL    HW219458   5.915   1.939   2.077
 6187SOL     OW19459   5.042   2.773   5.142
 6187SOL    HW119460   5.101   2.706   5.098
 6187SOL    HW219461   5.014   2.740   5.232
 6188SOL     OW19462   2.295   2.136   5.439
 6188SOL    HW119463   2.338   2.051   5.410
 6188SOL    HW219464   2.227   2.117   5.510
 6189SOL     OW19465   4.569   6.086   2.063
 6189SOL    HW119466   4.471   6.065   2.056
 6189SOL    HW219467   4.605   6.104   1.971
 6190SOL     OW19468   6.265   2.671   5.416
 6190SOL    HW119469   6.308   2.603   5.356
 6190SOL    HW219470   6.300   2.660   5.509
 6191SOL     OW19471   2.732   3.629   6.280
 6191SOL    HW119472   2.707   3.612   6.184
 6191SOL    HW219473   2.737   3.727   6.296
 6192SOL     OW19474   1.988   2.213   6.968
 6192SOL    HW119475   1.899   2.199   7.011
 6192SOL    HW219476   1.985   2.294   6.909
 6193SOL     OW19477   5.264   5.493   0.146
 6193SOL    HW119478   5.258   5.401   0.184
 6193SOL    HW219479   5.188   5.508   0.082
 6194SOL     OW19480   6.652   0.626   6.669
 6194SOL    HW119481   6.614   0.611   6.577
 6194SOL    HW219482   6.735   0.680   6.662
 6195SOL     OW19483   6.202   0.451   5.415
 6195SOL    HW119484   6.129   0.405   5.364
 6195SOL    HW219485   6.182   0.549   5.420
 6196SOL     OW19486   5.127   4.387   2.897
 6196SOL    HW119487   5.112   4.410   2.994
 6196SOL    HW219488   5.056   4.324   2.866
 6197SOL     OW19489   2.207   5.274   2.288
 6197SOL    HW119490   2.245   5.182   2.276
 6197SOL    HW219491   2.210   5.323   2.201
 6198SOL     OW19492   6.227   6.185   6.450
 6198SOL    HW119493   6.177   6.265   6.483
 6198SOL    HW219494   6.162   6.111   6.430
 6199SOL     OW19495   0.733   0.321   0.741
 6199SOL    HW119496   0.784   0.274   0.813
 6199SOL    HW219497   0.796   0.370   0.682
 6200SOL     OW19498   1.708   1.641   1.909
 6200SOL    HW119499   1.797   1.616   1.948
 6200SOL    HW219500   1.720   1.671   1.815
 6201SOL     OW19501   6.755   3.795   4.162
 6201SOL    HW119502   6.705   3.846   4.232
 6201SOL    HW219503   6.706   3.711   4.140
 6202SOL     OW19504   6.468   1.450   3.020
 6202SOL    HW119505   6.403   1.486   3.087
 6202SOL    HW219506   6.428   1.459   2.928
 6203SOL     OW19507   6.268   5.447   1.888
 6203SOL    HW119508   6.301   5.368   1.940
 6203SOL    HW219509   6.189   5.420   1.832
 6204SOL     OW19510   1.327   6.685   5.446
 6204SOL    HW119511   1.255   6.642   5.499
 6204SOL    HW219512   1.401   6.714   5.506
 6205SOL     OW19513   4.908   3.742   2.263
 6205SOL    HW119514   4.810   3.726   2.253
 6205SOL    HW219515   4.927   3.840   2.267
 6206SOL     OW19516   5.169   2.056   3.786
 6206SOL    HW119517   5.155   1.981   3.851
 6206SOL    HW219518   5.261   2.050   3.748
 6207SOL     OW19519   1.631   5.789   4.405
 6207SOL    HW119520   1.618   5.704   4.355
 6207SOL    HW219521   1.609   5.775   4.501
 6208SOL     OW19522   3.697   3.024   5.548
 6208SOL    HW119523   3.783   3.042   5.596
 6208SOL    HW219524   3.685   2.926   5.535
 6209SOL     OW19525   3.784   4.453   1.311
 6209SOL    HW119526   3.861   4.508   1.342
 6209SOL    HW219527   3.773   4.374   1.372
 6210SOL     OW19528   4.813   2.949   3.300
 6210SOL    HW119529   4.853   2.967   3.210
 6210SOL    HW219530   4.830   2.853   3.324
 6211SOL     OW19531   4.634   5.622   4.767
 6211SOL    HW119532   4.682   5.710   4.763
 6211SOL    HW219533   4.700   5.548   4.771
 6212SOL     OW19534   3.132   5.408   5.947
 6212SOL    HW119535   3.199   5.477   5.974
 6212SOL    HW219536   3.040   5.441   5.966
 6213SOL     OW19537   4.471   6.104   0.810
 6213SOL    HW119538   4.415   6.026   0.838
 6213SOL    HW219539   4.415   6.187   0.811
 6214SOL     OW19540   5.897   6.078   5.322
 6214SOL    HW119541   5.826   6.028   5.274
 6214SOL    HW219542   5.961   6.118   5.256
 6215SOL     OW19543   5.199   2.438   6.066
 6215SOL    HW119544   5.264   2.433   6.142
 6215SOL    HW219545   5.164   2.531   6.059
 6216SOL     OW19546   5.230   3.093   3.365
 6216SOL    HW119547   5.310   3.108   3.308
 6216SOL    HW219548   5.254   3.030   3.439
 6217SOL     OW19549   0.987   4.422   2.613
 6217SOL    HW119550   1.036   4.507   2.632
 6217SOL    HW219551   0.935   4.431   2.528
 6218SOL     OW19552   4.944   6.562   0.237
 6218SOL    HW119553   4.896   6.481   0.272
 6218SOL    HW219554   4.975   6.544   0.143
 6219SOL     OW19555   1.041   0.825   5.188
 6219SOL    HW119556   0.984   0.866   5.117
 6219SOL    HW219557   1.137   0.845   5.168
 6220SOL     OW19558   3.703   1.280   0.979
 6220SOL    HW119559   3.652   1.366   0.986
 6220SOL    HW219560   3.657   1.219   0.915
 6221SOL     OW19561   6.633   6.088   6.970
 6221SOL    HW119562   6.554   6.039   7.007
 6221SOL    HW219563   6.649   6.171   0.000
 6222SOL     OW19564   5.945   1.120   2.551
 6222SOL    HW119565   5.956   1.156   2.644
 6222SOL    HW219566   5.852   1.083   2.541
 6223SOL     OW19567   7.019   4.784   3.792
 6223SOL    HW119568   6.982   4.771   3.701
 6223SOL    HW219569   0.079   4.838   3.786
 6224SOL     OW19570   4.654   1.887   6.640
 6224SOL    HW119571   4.666   1.845   6.550
 6224SOL    HW219572   4.709   1.837   6.707
 6225SOL     OW19573   3.688   0.042   6.591
 6225SOL    HW119574   3.635   7.007   6.531
 6225SOL    HW219575   3.633   0.068   6.671
 6226SOL     OW19576   1.462   1.288   3.860
 6226SOL    HW119577   1.373   1.300   3.817
 6226SOL    HW219578   1.533   1.324   3.801
 6227SOL     OW19579   2.520   3.796   5.598
 6227SOL    HW119580   2.459   3.716   5.603
 6227SOL    HW219581   2.564   3.809   5.686
 6228SOL     OW19582   2.215   2.416   3.680
 6228SOL    HW119583   2.231   2.481   3.755
 6228SOL    HW219584   2.240   2.459   3.593
 6229SOL     OW19585   0.262   3.686   4.950
 6229SOL    HW119586   0.186   3.713   4.891
 6229SOL    HW219587   0.286   3.763   5.010
 6230SOL     OW19588   0.555   1.124   1.867
 6230SOL    HW119589   0.466   1.094   1.833
 6230SOL    HW219590   0.544   1.203   1.926
 6231SOL     OW19591   6.200   4.980   0.037
 6231SOL    HW119592   6.271   5.019   0.095
 6231SOL    HW219593   6.204   5.021   6.970
 6232SOL     OW19594   5.662   0.650   0.179
 6232SOL    HW119595   5.585   0.602   0.138
 6232SOL    HW219596   5.631   0.736   0.219
 6233SOL     OW19597   0.061   3.449   1.731
 6233SOL    HW119598   0.090   3.360   1.765
 6233SOL    HW219599   0.005   3.495   1.800
 6234SOL     OW19600   6.499   6.728   4.435
 6234SOL    HW119601   6.588   6.768   4.457
 6234SOL    HW219602   6.430   6.764   4.498
 6235SOL     OW19603   6.506   0.813   2.587
 6235SOL    HW119604   6.574   0.856   2.527
 6235SOL    HW219605   6.551   0.775   2.667
 6236SOL     OW19606   0.488   4.635   0.774
 6236SOL    HW119607   0.483   4.596   0.865
 6236SOL    HW219608   0.435   4.720   0.771
 6237SOL     OW19609   3.883   0.652   1.202
 6237SOL    HW119610   3.942   0.576   1.173
 6237SOL    HW219611   3.927   0.701   1.277
 6238SOL     OW19612   2.512   6.481   4.518
 6238SOL    HW119613   2.512   6.509   4.614
 6238SOL    HW219614   2.523   6.561   4.459
 6239SOL     OW19615   4.976   0.851   2.318
 6239SOL    HW119616   5.041   0.909   2.366
 6239SOL    HW219617   4.930   0.790   2.383
 6240SOL     OW19618   3.907   2.965   4.434
 6240SOL    HW119619   3.943   2.872   4.435
 6240SOL    HW219620   3.822   2.969   4.487
 6241SOL     OW19621   2.398   6.868   3.728
 6241SOL    HW119622   2.416   6.900   3.635
 6241SOL    HW219623   2.302   6.841   3.735
 6242SOL     OW19624   2.804   1.917   3.254
 6242SOL    HW119625   2.856   1.847   3.206
 6242SOL    HW219626   2.828   1.917   3.351
 6243SOL     OW19627   5.973   1.726   6.132
 6243SOL    HW119628   6.060   1.679   6.145
 6243SOL    HW219629   5.977   1.781   6.049
 6244SOL     OW19630   4.318   4.611   2.509
 6244SOL    HW119631   4.239   4.660   2.545
 6244SOL    HW219632   4.290   4.556   2.430
 6245SOL     OW19633   0.898   4.586   2.149
 6245SOL    HW119634   0.920   4.519   2.079
 6245SOL    HW219635   0.833   4.653   2.112
 6246SOL     OW19636   1.177   6.559   4.836
 6246SOL    HW119637   1.101   6.623   4.843
 6246SOL    HW219638   1.152   6.484   4.774
 6247SOL     OW19639   6.824   5.602   3.679
 6247SOL    HW119640   6.907   5.550   3.698
 6247SOL    HW219641   6.801   5.658   3.759
 6248SOL     OW19642   3.720   2.878   6.868
 6248SOL    HW119643   3.715   2.978   6.860
 6248SOL    HW219644   3.746   2.854   6.961
 6249SOL     OW19645   6.692   2.505   0.844
 6249SOL    HW119646   6.749   2.494   0.925
 6249SOL    HW219647   6.700   2.599   0.810
 6250SOL     OW19648   0.016   0.201   0.794
 6250SOL    HW119649   0.091   0.155   0.745
 6250SOL    HW219650   7.013   0.283   0.743
 6251SOL     OW19651   2.897   6.858   4.220
 6251SOL    HW119652   2.974   6.872   4.282
 6251SOL    HW219653   2.894   6.762   4.192
 6252SOL     OW19654   2.815   5.267   6.825
 6252SOL    HW119655   2.765   5.196   6.775
 6252SOL    HW219656   2.913   5.253   6.812
 6253SOL     OW19657   3.228   4.930   4.584
 6253SOL    HW119658   3.290   4.924   4.506
 6253SOL    HW219659   3.167   5.008   4.572
 6254SOL     OW19660   0.588   5.880   0.961
 6254SOL    HW119661   0.503   5.928   0.937
 6254SOL    HW219662   0.663   5.945   0.967
 6255SOL     OW19663   0.608   1.766   0.870
 6255SOL    HW119664   0.516   1.728   0.866
 6255SOL    HW219665   0.607   1.852   0.922
 6256SOL     OW19666   4.818   5.511   3.157
 6256SOL    HW119667   4.871   5.558   3.086
 6256SOL    HW219668   4.722   5.540   3.151
 6257SOL     OW19669   4.047   4.240   1.383
 6257SOL    HW119670   4.130   4.246   1.439
 6257SOL    HW219671   3.981   4.179   1.428
 6258SOL     OW19672   4.158   6.744   6.047
 6258SOL    HW119673   4.185   6.657   6.006
 6258SOL    HW219674   4.084   6.785   5.993
 6259SOL     OW19675   2.301   0.216   5.442
 6259SOL    HW119676   2.305   0.316   5.432
 6259SOL    HW219677   2.209   0.184   5.422
 6260SOL     OW19678   1.904   1.002   0.236
 6260SOL    HW119679   1.904   1.102   0.231
 6260SOL    HW219680   1.969   0.965   0.170
 6261SOL     OW19681   3.970   6.314   1.610
 6261SOL    HW119682   3.977   6.413   1.624
 6261SOL    HW219683   4.027   6.288   1.533
 6262SOL     OW19684   6.336   6.369   2.107
 6262SOL    HW119685   6.319   6.467   2.097
 6262SOL    HW219686   6.344   6.327   2.017
 6263SOL     OW19687   6.881   5.804   4.629
 6263SOL    HW119688   6.784   5.818   4.608
 6263SOL    HW219689   6.918   5.887   4.671
 6264SOL     OW19690   1.023   0.278   1.236
 6264SOL    HW119691   0.966   0.246   1.160
 6264SOL    HW219692   1.096   0.213   1.253
 6265SOL     OW19693   4.425   1.650   0.382
 6265SOL    HW119694   4.473   1.610   0.304
 6265SOL    HW219695   4.379   1.734   0.354
 6266SOL     OW19696   3.010   5.184   3.372
 6266SOL    HW119697   2.960   5.233   3.444
 6266SOL    HW219698   2.965   5.201   3.284
 6267SOL     OW19699   1.449   6.661   5.160
 6267SOL    HW119700   1.382   6.666   5.234
 6267SOL    HW219701   1.419   6.594   5.092
 6268SOL     OW19702   3.016   0.585   1.895
 6268SOL    HW119703   3.039   0.587   1.992
 6268SOL    HW219704   3.020   0.491   1.862
 6269SOL     OW19705   5.600   5.931   1.511
 6269SOL    HW119706   5.573   5.835   1.503
 6269SOL    HW219707   5.553   5.985   1.442
 6270SOL     OW19708   1.654   6.250   0.468
 6270SOL    HW119709   1.611   6.280   0.383
 6270SOL    HW219710   1.636   6.153   0.482
 6271SOL     OW19711   6.024   3.161   6.596
 6271SOL    HW119712   6.001   3.224   6.522
 6271SOL    HW219713   5.994   3.200   6.683
 6272SOL     OW19714   5.640   0.067   0.076
 6272SOL    HW119715   5.609   0.151   0.031
 6272SOL    HW219716   5.710   0.089   0.143
 6273SOL     OW19717   6.978   0.162   1.679
 6273SOL    HW119718   6.989   0.258   1.706
 6273SOL    HW219719   6.883   0.134   1.694
 6274SOL     OW19720   3.901   6.090   5.202
 6274SOL    HW119721   3.908   6.019   5.133
 6274SOL    HW219722   3.811   6.086   5.245
 6275SOL     OW19723   1.900   5.922   0.664
 6275SOL    HW119724   1.877   5.833   0.704
 6275SOL    HW219725   1.832   5.947   0.595
 6276SOL     OW19726   2.149   5.402   2.894
 6276SOL    HW119727   2.102   5.391   2.982
 6276SOL    HW219728   2.246   5.418   2.910
 6277SOL     OW19729   5.203   2.450   1.205
 6277SOL    HW119730   5.217   2.440   1.303
 6277SOL    HW219731   5.107   2.470   1.186
 6278SOL     OW19732   2.845   6.824   5.394
 6278SOL    HW119733   2.884   6.795   5.306
 6278SOL    HW219734   2.911   6.807   5.467
 6279SOL     OW19735   3.400   6.466   1.589
 6279SOL    HW119736   3.326   6.421   1.639
 6279SOL    HW219737   3.361   6.518   1.513
 6280SOL     OW19738   0.062   1.719   6.681
 6280SOL    HW119739   0.076   1.623   6.704
 6280SOL    HW219740   0.022   1.725   6.589
 6281SOL     OW19741   6.355   4.376   5.237
 6281SOL    HW119742   6.322   4.372   5.143
 6281SOL    HW219743   6.320   4.458   5.282
 6282SOL     OW19744   0.876   3.587   6.397
 6282SOL    HW119745   0.856   3.553   6.489
 6282SOL    HW219746   0.975   3.586   6.381
 6283SOL     OW19747   1.417   6.070   5.939
 6283SOL    HW119748   1.328   6.106   5.965
 6283SOL    HW219749   1.454   6.015   6.013
 6284SOL     OW19750   2.256   4.262   0.283
 6284SOL    HW119751   2.331   4.240   0.221
 6284SOL    HW219752   2.189   4.188   0.282
 6285SOL     OW19753   1.521   3.620   2.937
 6285SOL    HW119754   1.613   3.655   2.920
 6285SOL    HW219755   1.491   3.565   2.859
 6286SOL     OW19756   0.679   3.002   4.922
 6286SOL    HW119757   0.757   3.064   4.916
 6286SOL    HW219758   0.707   2.911   4.890
 6287SOL     OW19759   4.413   4.841   5.175
 6287SOL    HW119760   4.370   4.911   5.232
 6287SOL    HW219761   4.407   4.868   5.079
 6288SOL     OW19762   3.658   3.188   6.501
 6288SOL    HW119763   3.659   3.198   6.402
 6288SOL    HW219764   3.744   3.147   6.532
 6289SOL     OW19765   2.698   4.799   6.449
 6289SOL    HW119766   2.724   4.896   6.444
 6289SOL    HW219767   2.760   4.751   6.511
 6290SOL     OW19768   5.577   5.541   5.198
 6290SOL    HW119769   5.515   5.473   5.160
 6290SOL    HW219770   5.524   5.614   5.242
 6291SOL     OW19771   3.449   3.335   2.886
 6291SOL    HW119772   3.543   3.305   2.872
 6291SOL    HW219773   3.426   3.405   2.817
 6292SOL     OW19774   2.110   3.361   4.647
 6292SOL    HW119775   2.031   3.354   4.708
 6292SOL    HW219776   2.161   3.275   4.649
 6293SOL     OW19777   5.034   1.130   0.134
 6293SOL    HW119778   4.935   1.142   0.138
 6293SOL    HW219779   5.058   1.075   0.054
 6294SOL     OW19780   2.521   1.386   3.610
 6294SOL    HW119781   2.588   1.449   3.572
 6294SOL    HW219782   2.436   1.392   3.557
 6295SOL     OW19783   5.958   4.479   5.522
 6295SOL    HW119784   6.015   4.539   5.577
 6295SOL    HW219785   5.863   4.512   5.524
 6296SOL     OW19786   0.392   2.679   6.516
 6296SOL    HW119787   0.430   2.667   6.608
 6296SOL    HW219788   0.327   2.755   6.516
 6297SOL     OW19789   5.879   0.659   4.123
 6297SOL    HW119790   5.897   0.602   4.042
 6297SOL    HW219791   5.901   0.606   4.205
 6298SOL     OW19792   5.878   4.643   0.205
 6298SOL    HW119793   5.807   4.634   0.275
 6298SOL    HW219794   5.847   4.705   0.133
 6299SOL     OW19795   4.712   2.324   2.757
 6299SOL    HW119796   4.698   2.266   2.838
 6299SOL    HW219797   4.624   2.355   2.722
 6300SOL     OW19798   3.478   0.377   5.861
 6300SOL    HW119799   3.407   0.310   5.840
 6300SOL    HW219800   3.506   0.424   5.778
 6301SOL     OW19801   3.367   6.837   0.868
 6301SOL    HW119802   3.335   6.925   0.834
 6301SOL    HW219803   3.466   6.830   0.854
 6302SOL     OW19804   3.128   1.221   5.644
 6302SOL    HW119805   3.098   1.255   5.555
 6302SOL    HW219806   3.212   1.169   5.634
 6303SOL     OW19807   1.500   5.954   6.240
 6303SOL    HW119808   1.542   6.005   6.315
 6303SOL    HW219809   1.409   5.924   6.268
 6304SOL     OW19810   4.129   0.615   2.818
 6304SOL    HW119811   4.221   0.653   2.830
 6304SOL    HW219812   4.072   0.641   2.896
 6305SOL     OW19813   0.769   5.713   5.739
 6305SOL    HW119814   0.746   5.789   5.678
 6305SOL    HW219815   0.856   5.674   5.711
 6306SOL     OW19816   6.729   4.685   4.094
 6306SOL    HW119817   6.813   4.716   4.139
 6306SOL    HW219818   6.692   4.606   4.144
 6307SOL     OW19819   4.096   3.725   3.053
 6307SOL    HW119820   4.194   3.734   3.035
 6307SOL    HW219821   4.047   3.803   3.013
 6308SOL     OW19822   0.330   2.772   0.122
 6308SOL    HW119823   0.234   2.779   0.151
 6308SOL    HW219824   0.386   2.834   0.178
 6309SOL     OW19825   1.401   6.474   4.973
 6309SOL    HW119826   1.488   6.471   4.924
 6309SOL    HW219827   1.329   6.508   4.913
 6310SOL     OW19828   1.731   0.157   2.944
 6310SOL    HW119829   1.649   0.104   2.921
 6310SOL    HW219830   1.781   0.179   2.860
 6311SOL     OW19831   5.565   1.298   5.790
 6311SOL    HW119832   5.478   1.288   5.740
 6311SOL    HW219833   5.581   1.395   5.810
 6312SOL     OW19834   3.220   6.737   6.766
 6312SOL    HW119835   3.213   6.653   6.712
 6312SOL    HW219836   3.255   6.811   6.709
 6313SOL     OW19837   5.520   6.046   3.150
 6313SOL    HW119838   5.559   6.115   3.212
 6313SOL    HW219839   5.481   5.971   3.205
 6314SOL     OW19840   2.528   0.475   1.553
 6314SOL    HW119841   2.599   0.409   1.578
 6314SOL    HW219842   2.571   0.555   1.511
 6315SOL     OW19843   2.291   2.930   3.830
 6315SOL    HW119844   2.220   2.895   3.890
 6315SOL    HW219845   2.251   2.958   3.743
 6316SOL     OW19846   5.544   1.730   4.828
 6316SOL    HW119847   5.466   1.678   4.793
 6316SOL    HW219848   5.611   1.743   4.756
 6317SOL     OW19849   5.180   4.051   2.003
 6317SOL    HW119850   5.103   4.002   1.964
 6317SOL    HW219851   5.148   4.136   2.046
 6318SOL     OW19852   6.441   0.397   6.125
 6318SOL    HW119853   6.382   0.340   6.067
 6318SOL    HW219854   6.392   0.418   6.210
 6319SOL     OW19855   5.645   2.178   4.266
 6319SOL    HW119856   5.728   2.173   4.211
 6319SOL    HW219857   5.669   2.185   4.363
 6320SOL     OW19858   6.971   1.333   4.190
 6320SOL    HW119859   6.955   1.312   4.093
 6320SOL    HW219860   6.906   1.401   4.220
 6321SOL     OW19861   5.486   2.280   0.629
 6321SOL    HW119862   5.441   2.198   0.664
 6321SOL    HW219863   5.452   2.360   0.678
 6322SOL     OW19864   1.797   1.158   1.211
 6322SOL    HW119865   1.762   1.140   1.303
 6322SOL    HW219866   1.738   1.113   1.144
 6323SOL     OW19867   2.638   2.894   1.094
 6323SOL    HW119868   2.701   2.897   1.016
 6323SOL    HW219869   2.684   2.927   1.176
 6324SOL     OW19870   4.510   1.465   1.027
 6324SOL    HW119871   4.511   1.520   0.943
 6324SOL    HW219872   4.568   1.508   1.096
 6325SOL     OW19873   1.552   2.488   2.939
 6325SOL    HW119874   1.498   2.560   2.894
 6325SOL    HW219875   1.492   2.435   2.999
 6326SOL     OW19876   5.281   5.195   5.708
 6326SOL    HW119877   5.339   5.122   5.674
 6326SOL    HW219878   5.307   5.282   5.665
 6327SOL     OW19879   0.031   0.815   3.189
 6327SOL    HW119880   0.018   0.840   3.285
 6327SOL    HW219881   0.121   0.846   3.159
 6328SOL     OW19882   4.292   3.116   5.981
 6328SOL    HW119883   4.383   3.145   5.952
 6328SOL    HW219884   4.246   3.192   6.028
 6329SOL     OW19885   1.340   2.839   5.551
 6329SOL    HW119886   1.270   2.910   5.556
 6329SOL    HW219887   1.430   2.881   5.562
 6330SOL     OW19888   5.520   0.668   3.488
 6330SOL    HW119889   5.599   0.728   3.482
 6330SOL    HW219890   5.549   0.573   3.480
 6331SOL     OW19891   7.010   3.326   3.135
 6331SOL    HW119892   7.024   3.378   3.050
 6331SOL    HW219893   6.918   3.343   3.169
 6332SOL     OW19894   2.123   1.987   0.836
 6332SOL    HW119895   2.091   1.901   0.795
 6332SOL    HW219896   2.166   1.968   0.924
 6333SOL     OW19897   5.167   0.762   0.649
 6333SOL    HW119898   5.109   0.687   0.679
 6333SOL    HW219899   5.158   0.839   0.712
 6334SOL     OW19900   2.756   1.222   1.976
 6334SOL    HW119901   2.682   1.226   1.908
 6334SOL    HW219902   2.765   1.312   2.019
 6335SOL     OW19903   5.797   1.331   0.506
 6335SOL    HW119904   5.861   1.318   0.582
 6335SOL    HW219905   5.822   1.413   0.455
 6336SOL     OW19906   0.882   3.366   6.229
 6336SOL    HW119907   0.890   3.445   6.289
 6336SOL    HW219908   0.897   3.395   6.134
 6337SOL     OW19909   4.831   5.314   5.345
 6337SOL    HW119910   4.877   5.283   5.429
 6337SOL    HW219911   4.874   5.272   5.266
 6338SOL     OW19912   3.225   1.826   3.754
 6338SOL    HW119913   3.266   1.771   3.682
 6338SOL    HW219914   3.242   1.783   3.843
 6339SOL     OW19915   1.172   4.349   3.356
 6339SOL    HW119916   1.232   4.361   3.435
 6339SOL    HW219917   1.078   4.335   3.387
 6340SOL     OW19918   2.561   4.239   1.361
 6340SOL    HW119919   2.545   4.147   1.326
 6340SOL    HW219920   2.660   4.256   1.368
 6341SOL     OW19921   1.115   4.644   3.822
 6341SOL    HW119922   1.160   4.644   3.911
 6341SOL    HW219923   1.043   4.575   3.821
 6342SOL     OW19924   1.997   1.276   2.002
 6342SOL    HW119925   1.970   1.373   2.000
 6342SOL    HW219926   2.086   1.266   1.958
 6343SOL     OW19927   2.694   5.923   0.320
 6343SOL    HW119928   2.607   5.972   0.325
 6343SOL    HW219929   2.708   5.891   0.226
 6344SOL     OW19930   6.818   1.573   3.461
 6344SOL    HW119931   6.908   1.564   3.419
 6344SOL    HW219932   6.827   1.595   3.558
 6345SOL     OW19933   5.883   3.768   1.702
 6345SOL    HW119934   5.785   3.747   1.702
 6345SOL    HW219935   5.897   3.856   1.656
 6346SOL     OW19936   6.989   4.440   5.747
 6346SOL    HW119937   0.038   4.459   5.813
 6346SOL    HW219938   0.002   4.446   5.654
 6347SOL     OW19939   2.618   2.394   2.704
 6347SOL    HW119940   2.542   2.329   2.695
 6347SOL    HW219941   2.633   2.414   2.801
 6348SOL     OW19942   0.122   2.142   5.520
 6348SOL    HW119943   0.173   2.228   5.511
 6348SOL    HW219944   0.177   2.076   5.571
 6349SOL     OW19945   6.947   0.503   0.007
 6349SOL    HW119946   6.971   0.599   0.020
 6349SOL    HW219947   6.848   0.494   7.020
 6350SOL     OW19948   1.204   4.420   2.002
 6350SOL    HW119949   1.105   4.414   1.997
 6350SOL    HW219950   1.231   4.472   2.083
 6351SOL     OW19951   5.901   3.415   2.736
 6351SOL    HW119952   5.917   3.418   2.834
 6351SOL    HW219953   5.827   3.478   2.712
 6352SOL     OW19954   2.285   0.604   4.615
 6352SOL    HW119955   2.241   0.560   4.537
 6352SOL    HW219956   2.308   0.535   4.684
 6353SOL     OW19957   3.090   5.791   6.420
 6353SOL    HW119958   3.121   5.874   6.465
 6353SOL    HW219959   3.111   5.712   6.478
 6354SOL     OW19960   4.911   4.340   2.592
 6354SOL    HW119961   4.912   4.308   2.687
 6354SOL    HW219962   4.841   4.410   2.580
 6355SOL     OW19963   2.805   4.899   0.886
 6355SOL    HW119964   2.803   4.813   0.836
 6355SOL    HW219965   2.759   4.888   0.974
 6356SOL     OW19966   5.411   4.337   6.850
 6356SOL    HW119967   5.402   4.238   6.842
 6356SOL    HW219968   5.433   4.362   6.944
 6357SOL     OW19969   5.717   1.693   1.615
 6357SOL    HW119970   5.675   1.678   1.705
 6357SOL    HW219971   5.707   1.611   1.559
 6358SOL     OW19972   1.743   2.630   6.513
 6358SOL    HW119973   1.674   2.579   6.565
 6358SOL    HW219974   1.704   2.659   6.426
 6359SOL     OW19975   5.564   6.251   0.517
 6359SOL    HW119976   5.518   6.196   0.586
 6359SOL    HW219977   5.560   6.203   0.429
 6360SOL     OW19978   0.500   2.449   2.868
 6360SOL    HW119979   0.433   2.414   2.802
 6360SOL    HW219980   0.521   2.544   2.846
 6361SOL     OW19981   0.646   0.363   6.910
 6361SOL    HW119982   0.715   0.434   6.899
 6361SOL    HW219983   0.690   0.276   6.935
 6362SOL     OW19984   1.257   5.450   6.621
 6362SOL    HW119985   1.259   5.480   6.526
 6362SOL    HW219986   1.196   5.510   6.674
 6363SOL     OW19987   3.032   5.260   3.858
 6363SOL    HW119988   3.095   5.234   3.785
 6363SOL    HW219989   2.953   5.199   3.857
 6364SOL     OW19990   2.385   2.500   5.063
 6364SOL    HW119991   2.477   2.470   5.088
 6364SOL    HW219992   2.389   2.589   5.020
 6365SOL     OW19993   5.889   4.945   3.601
 6365SOL    HW119994   5.809   4.989   3.559
 6365SOL    HW219995   5.900   4.978   3.695
 6366SOL     OW19996   6.083   6.729   4.588
 6366SOL    HW119997   6.180   6.745   4.570
 6366SOL    HW219998   6.030   6.754   4.507
 6367SOL     OW19999   3.235   1.894   2.986
 6367SOL    HW120000   3.287   1.943   3.056
 6367SOL    HW220001   3.227   1.952   2.905
 6368SOL     OW20002   5.002   3.391   4.791
 6368SOL    HW120003   4.992   3.426   4.884
 6368SOL    HW220004   5.093   3.350   4.780
 6369SOL     OW20005   3.111   5.982   5.932
 6369SOL    HW120006   3.072   5.889   5.930
 6369SOL    HW220007   3.185   5.988   5.865
 6370SOL     OW20008   5.539   3.711   3.770
 6370SOL    HW120009   5.571   3.683   3.680
 6370SOL    HW220010   5.497   3.634   3.817
 6371SOL     OW20011   5.638   3.792   1.631
 6371SOL    HW120012   5.631   3.706   1.581
 6371SOL    HW220013   5.596   3.782   1.721
 6372SOL     OW20014   7.000   0.600   3.023
 6372SOL    HW120015   6.961   0.667   2.959
 6372SOL    HW220016   0.023   0.649   3.097
 6373SOL     OW20017   5.005   3.707   1.157
 6373SOL    HW120018   4.908   3.710   1.133
 6373SOL    HW220019   5.033   3.611   1.170
 6374SOL     OW20020   4.703   2.889   0.575
 6374SOL    HW120021   4.666   2.896   0.482
 6374SOL    HW220022   4.773   2.958   0.589
 6375SOL     OW20023   6.689   2.862   2.163
 6375SOL    HW120024   6.707   2.919   2.244
 6375SOL    HW220025   6.591   2.855   2.148
 6376SOL     OW20026   3.398   0.826   5.882
 6376SOL    HW120027   3.391   0.806   5.785
 6376SOL    HW220028   3.410   0.742   5.934
 6377SOL     OW20029   6.994   0.301   0.472
 6377SOL    HW120030   6.903   0.265   0.452
 6377SOL    HW220031   0.035   0.225   0.475
 6378SOL     OW20032   5.723   5.512   3.217
 6378SOL    HW120033   5.674   5.428   3.196
 6378SOL    HW220034   5.737   5.564   3.133
 6379SOL     OW20035   3.185   5.907   6.702
 6379SOL    HW120036   3.099   5.925   6.749
 6379SOL    HW220037   3.251   5.868   6.767
 6380SOL     OW20038   1.182   3.014   5.311
 6380SOL    HW120039   1.270   3.057   5.292
 6380SOL    HW220040   1.113   3.050   5.248
 6381SOL     OW20041   4.531   3.199   0.110
 6381SOL    HW120042   4.453   3.159   0.062
 6381SOL    HW220043   4.509   3.294   0.135
 6382SOL     OW20044   2.309   1.175   1.547
 6382SOL    HW120045   2.257   1.218   1.474
 6382SOL    HW220046   2.290   1.221   1.634
 6383SOL     OW20047   1.911   2.041   2.442
 6383SOL    HW120048   1.907   2.141   2.447
 6383SOL    HW220049   2.007   2.012   2.440
 6384SOL     OW20050   6.465   2.514   1.962
 6384SOL    HW120051   6.422   2.578   1.899
 6384SOL    HW220052   6.403   2.437   1.979
 6385SOL     OW20053   0.127   3.059   1.287
 6385SOL    HW120054   0.049   3.122   1.278
 6385SOL    HW220055   0.094   2.970   1.319
 6386SOL     OW20056   2.198   3.546   0.194
 6386SOL    HW120057   2.112   3.584   0.228
 6386SOL    HW220058   2.193   3.534   0.095
 6387SOL     OW20059   6.300   0.661   6.701
 6387SOL    HW120060   6.339   0.713   6.625
 6387SOL    HW220061   6.227   0.714   6.743
 6388SOL     OW20062   6.205   5.466   2.931
 6388SOL    HW120063   6.260   5.400   2.983
 6388SOL    HW220064   6.265   5.536   2.892
 6389SOL     OW20065   1.663   0.647   6.581
 6389SOL    HW120066   1.723   0.689   6.649
 6389SOL    HW220067   1.662   0.703   6.498
 6390SOL     OW20068   6.664   1.072   6.578
 6390SOL    HW120069   6.725   1.145   6.545
 6390SOL    HW220070   6.630   1.096   6.669
 6391SOL     OW20071   1.680   1.864   4.943
 6391SOL    HW120072   1.659   1.858   5.040
 6391SOL    HW220073   1.673   1.959   4.913
 6392SOL     OW20074   3.406   5.975   3.590
 6392SOL    HW120075   3.440   5.967   3.683
 6392SOL    HW220076   3.474   6.025   3.534
 6393SOL     OW20077   6.218   6.073   1.554
 6393SOL    HW120078   6.136   6.026   1.522
 6393SOL    HW220079   6.260   6.022   1.629
 6394SOL     OW20080   1.113   5.321   0.936
 6394SOL    HW120081   1.034   5.320   0.875
 6394SOL    HW220082   1.106   5.245   1.001
 6395SOL     OW20083   1.686   4.150   3.237
 6395SOL    HW120084   1.691   4.182   3.143
 6395SOL    HW220085   1.778   4.152   3.277
 6396SOL     OW20086   6.859   4.015   0.430
 6396SOL    HW120087   6.905   4.076   0.365
 6396SOL    HW220088   6.814   3.942   0.381
 6397SOL     OW20089   5.982   2.319   3.517
 6397SOL    HW120090   5.976   2.415   3.489
 6397SOL    HW220091   6.061   2.307   3.576
 6398SOL     OW20092   0.689   0.036   0.953
 6398SOL    HW120093   0.629   7.006   0.894
 6398SOL    HW220094   0.684   0.001   1.046
 6399SOL     OW20095   2.531   0.596   6.245
 6399SOL    HW120096   2.551   0.538   6.166
 6399SOL    HW220097   2.508   0.539   6.324
 6400SOL     OW20098   1.476   5.528   3.036
 6400SOL    HW120099   1.514   5.621   3.042
 6400SOL    HW220100   1.543   5.467   2.996
 6401SOL     OW20101   3.855   5.464   3.463
 6401SOL    HW120102   3.766   5.452   3.420
 6401SOL    HW220103   3.920   5.397   3.427
 6402SOL     OW20104   2.135   4.503   4.956
 6402SOL    HW120105   2.159   4.406   4.951
 6402SOL    HW220106   2.046   4.517   4.911
 6403SOL     OW20107   5.099   6.365   4.942
 6403SOL    HW120108   5.127   6.270   4.933
 6403SOL    HW220109   5.109   6.412   4.854
 6404SOL     OW20110   3.711   0.478   2.452
 6404SOL    HW120111   3.693   0.388   2.493
 6404SOL    HW220112   3.634   0.539   2.470
 6405SOL     OW20113   5.485   1.517   2.412
 6405SOL    HW120114   5.420   1.534   2.486
 6405SOL    HW220115   5.444   1.544   2.325
 6406SOL     OW20116   1.063   2.785   2.605
 6406SOL    HW120117   1.001   2.772   2.527
 6406SOL    HW220118   1.104   2.876   2.600
 6407SOL     OW20119   2.003   5.819   3.027
 6407SOL    HW120120   1.949   5.853   2.950
 6407SOL    HW220121   1.942   5.790   3.101
 6408SOL     OW20122   6.316   0.447   0.541
 6408SOL    HW120123   6.272   0.414   0.625
 6408SOL    HW220124   6.304   0.546   0.533
 6409SOL     OW20125   6.474   4.861   4.073
 6409SOL    HW120126   6.444   4.947   4.112
 6409SOL    HW220127   6.570   4.845   4.093
 6410SOL     OW20128   3.252   1.825   5.820
 6410SOL    HW120129   3.164   1.829   5.771
 6410SOL    HW220130   3.246   1.757   5.892
 6411SOL     OW20131   0.278   2.225   2.823
 6411SOL    HW120132   0.275   2.311   2.874
 6411SOL    HW220133   0.217   2.232   2.743
 6412SOL     OW20134   2.918   0.792   6.963
 6412SOL    HW120135   2.838   0.732   6.971
 6412SOL    HW220136   2.948   0.818   0.031
 6413SOL     OW20137   4.448   4.911   4.004
 6413SOL    HW120138   4.502   4.955   4.075
 6413SOL    HW220139   4.355   4.949   4.005
 6414SOL     OW20140   1.184   6.844   0.021
 6414SOL    HW120141   1.270   6.798   0.002
 6414SOL    HW220142   1.187   6.937   7.007
 6415SOL     OW20143   1.144   2.561   3.419
 6415SOL    HW120144   1.059   2.612   3.433
 6415SOL    HW220145   1.208   2.617   3.366
 6416SOL     OW20146   2.852   0.700   6.626
 6416SOL    HW120147   2.850   0.600   6.620
 6416SOL    HW220148   2.766   0.733   6.664
 6417SOL     OW20149   4.752   1.800   0.850
 6417SOL    HW120150   4.779   1.802   0.753
 6417SOL    HW220151   4.667   1.850   0.862
 6418SOL     OW20152   4.291   4.991   1.430
 6418SOL    HW120153   4.295   4.950   1.339
 6418SOL    HW220154   4.275   4.920   1.498
 6419SOL     OW20155   0.716   6.390   6.401
 6419SOL    HW120156   0.814   6.371   6.396
 6419SOL    HW220157   0.700   6.465   6.466
 6420SOL     OW20158   1.804   3.424   4.101
 6420SOL    HW120159   1.824   3.359   4.175
 6420SOL    HW220160   1.708   3.453   4.108
 6421SOL     OW20161   4.955   0.143   1.586
 6421SOL    HW120162   4.934   0.146   1.684
 6421SOL    HW220163   5.038   0.196   1.569
 6422SOL     OW20164   6.441   2.560   4.716
 6422SOL    HW120165   6.409   2.562   4.811
 6422SOL    HW220166   6.491   2.645   4.696
 6423SOL     OW20167   2.064   4.575   4.387
 6423SOL    HW120168   2.100   4.542   4.475
 6423SOL    HW220169   1.965   4.580   4.391
 6424SOL     OW20170   0.265   4.143   5.208
 6424SOL    HW120171   0.341   4.209   5.210
 6424SOL    HW220172   0.180   4.189   5.235
 6425SOL     OW20173   0.398   6.077   2.826
 6425SOL    HW120174   0.444   6.136   2.892
 6425SOL    HW220175   0.317   6.036   2.869
 6426SOL     OW20176   4.643   4.528   4.669
 6426SOL    HW120177   4.724   4.528   4.727
 6426SOL    HW220178   4.664   4.484   4.581
 6427SOL     OW20179   2.883   3.419   3.809
 6427SOL    HW120180   2.977   3.391   3.827
 6427SOL    HW220181   2.868   3.421   3.710
 6428SOL     OW20182   5.162   2.474   7.023
 6428SOL    HW120183   5.106   2.544   6.978
 6428SOL    HW220184   5.168   2.494   0.097
 6429SOL     OW20185   2.424   0.668   5.526
 6429SOL    HW120186   2.521   0.669   5.501
 6429SOL    HW220187   2.383   0.756   5.504
 6430SOL     OW20188   6.800   0.373   4.840
 6430SOL    HW120189   6.774   0.291   4.789
 6430SOL    HW220190   6.728   0.442   4.830
 6431SOL     OW20191   4.050   4.880   2.117
 6431SOL    HW120192   4.121   4.864   2.186
 6431SOL    HW220193   3.961   4.853   2.154
 6432SOL     OW20194   4.280   4.499   6.154
 6432SOL    HW120195   4.286   4.548   6.241
 6432SOL    HW220196   4.223   4.418   6.165
 6433SOL     OW20197   2.729   5.886   6.412
 6433SOL    HW120198   2.762   5.954   6.478
 6433SOL    HW220199   2.777   5.800   6.424
 6434SOL     OW20200   3.290   5.541   5.677
 6434SOL    HW120201   3.242   5.606   5.619
 6434SOL    HW220202   3.238   5.455   5.682
 6435SOL     OW20203   5.192   1.164   0.718
 6435SOL    HW120204   5.093   1.171   0.723
 6435SOL    HW220205   5.221   1.074   0.752
 6436SOL     OW20206   6.871   3.874   3.902
 6436SOL    HW120207   6.831   3.823   3.978
 6436SOL    HW220208   6.970   3.862   3.902
 6437SOL     OW20209   0.511   1.305   5.615
 6437SOL    HW120210   0.537   1.305   5.711
 6437SOL    HW220211   0.594   1.302   5.558
 6438SOL     OW20212   0.461   5.491   0.264
 6438SOL    HW120213   0.491   5.556   0.334
 6438SOL    HW220214   0.417   5.540   0.189
 6439SOL     OW20215   5.436   0.243   3.538
 6439SOL    HW120216   5.401   0.209   3.451
 6439SOL    HW220217   5.501   0.317   3.521
 6440SOL     OW20218   2.347   1.223   5.821
 6440SOL    HW120219   2.432   1.265   5.851
 6440SOL    HW220220   2.273   1.290   5.826
 6441SOL     OW20221   0.088   0.871   2.399
 6441SOL    HW120222   0.105   0.970   2.395
 6441SOL    HW220223   0.073   0.844   2.494
 6442SOL     OW20224   3.038   2.734   5.522
 6442SOL    HW120225   3.038   2.634   5.524
 6442SOL    HW220226   3.026   2.769   5.614
 6443SOL     OW20227   4.495   2.316   1.057
 6443SOL    HW120228   4.545   2.287   0.975
 6443SOL    HW220229   4.425   2.383   1.031
 6444SOL     OW20230   0.170   3.115   5.122
 6444SOL    HW120231   0.228   3.182   5.075
 6444SOL    HW220232   0.165   3.137   5.219
 6445SOL     OW20233   2.944   3.788   3.104
 6445SOL    HW120234   3.028   3.734   3.112
 6445SOL    HW220235   2.909   3.808   3.195
 6446SOL     OW20236   2.132   1.470   0.125
 6446SOL    HW120237   2.081   1.551   0.097
 6446SOL    HW220238   2.202   1.496   0.191
 6447SOL     OW20239   6.250   4.491   1.092
 6447SOL    HW120240   6.289   4.515   1.003
 6447SOL    HW220241   6.164   4.541   1.106
 6448SOL     OW20242   4.890   5.380   1.864
 6448SOL    HW120243   4.947   5.427   1.932
 6448SOL    HW220244   4.837   5.308   1.909
 6449SOL     OW20245   2.521   5.885   1.441
 6449SOL    HW120246   2.436   5.873   1.388
 6449SOL    HW220247   2.545   5.798   1.485
 6450SOL     OW20248   0.390   3.681   0.862
 6450SOL    HW120249   0.456   3.607   0.857
 6450SOL    HW220250   0.301   3.648   0.830
 6451SOL     OW20251   3.391   2.439   1.262
 6451SOL    HW120252   3.301   2.473   1.290
 6451SOL    HW220253   3.456   2.454   1.337
 6452SOL     OW20254   5.477   2.722   3.306
 6452SOL    HW120255   5.506   2.628   3.293
 6452SOL    HW220256   5.490   2.773   3.221
 6453SOL     OW20257   3.390   0.061   0.721
 6453SOL    HW120258   3.366   0.152   0.757
 6453SOL    HW220259   3.469   0.069   0.661
 6454SOL     OW20260   5.960   2.635   2.949
 6454SOL    HW120261   5.871   2.631   2.904
 6454SOL    HW220262   5.989   2.730   2.958
 6455SOL     OW20263   6.069   3.973   3.468
 6455SOL    HW120264   6.030   3.970   3.375
 6455SOL    HW220265   6.030   3.899   3.523
 6456SOL     OW20266   6.421   1.189   3.058
 6456SOL    HW120267   6.455   1.118   2.996
 6456SOL    HW220268   6.453   1.278   3.026
 6457SOL     OW20269   4.671   0.301   1.762
 6457SOL    HW120270   4.768   0.317   1.779
 6457SOL    HW220271   4.616   0.354   1.827
 6458SOL     OW20272   1.200   4.961   3.804
 6458SOL    HW120273   1.169   4.873   3.769
 6458SOL    HW220274   1.269   4.998   3.743
 6459SOL     OW20275   6.517   3.143   2.748
 6459SOL    HW120276   6.424   3.163   2.718
 6459SOL    HW220277   6.525   3.158   2.846
 6460SOL     OW20278   0.190   5.613   6.338
 6460SOL    HW120279   0.186   5.572   6.247
 6460SOL    HW220280   0.137   5.557   6.402
 6461SOL     OW20281   2.940   4.796   1.309
 6461SOL    HW120282   2.940   4.749   1.397
 6461SOL    HW220283   2.848   4.832   1.291
 6462SOL     OW20284   1.304   4.076   5.123
 6462SOL    HW120285   1.386   4.021   5.110
 6462SOL    HW220286   1.269   4.062   5.215
 6463SOL     OW20287   4.104   1.267   1.161
 6463SOL    HW120288   4.090   1.335   1.232
 6463SOL    HW220289   4.193   1.281   1.117
 6464SOL     OW20290   1.092   5.552   4.255
 6464SOL    HW120291   1.101   5.458   4.222
 6464SOL    HW220292   1.093   5.615   4.177
 6465SOL     OW20293   4.738   2.218   3.382
 6465SOL    HW120294   4.765   2.242   3.288
 6465SOL    HW220295   4.654   2.267   3.406
 6466SOL     OW20296   0.352   3.563   0.206
 6466SOL    HW120297   0.444   3.598   0.188
 6466SOL    HW220298   0.349   3.465   0.190
 6467SOL     OW20299   3.256   1.301   1.133
 6467SOL    HW120300   3.271   1.212   1.175
 6467SOL    HW220301   3.340   1.354   1.135
 6468SOL     OW20302   2.999   0.321   0.501
 6468SOL    HW120303   3.064   0.245   0.507
 6468SOL    HW220304   3.046   0.402   0.465
 6469SOL     OW20305   3.900   1.710   3.238
 6469SOL    HW120306   3.893   1.805   3.208
 6469SOL    HW220307   3.908   1.707   3.338
 6470SOL     OW20308   6.312   2.444   6.983
 6470SOL    HW120309   6.282   2.417   6.891
 6470SOL    HW220310   6.395   2.499   6.976
 6471SOL     OW20311   0.319   6.313   4.714
 6471SOL    HW120312   0.231   6.266   4.709
 6471SOL    HW220313   0.384   6.270   4.651
 6472SOL     OW20314   6.921   5.768   2.638
 6472SOL    HW120315   6.897   5.729   2.727
 6472SOL    HW220316   7.009   5.731   2.609
 6473SOL     OW20317   2.128   1.271   3.962
 6473SOL    HW120318   2.113   1.255   4.059
 6473SOL    HW220319   2.069   1.345   3.931
 6474SOL     OW20320   4.165   6.383   4.998
 6474SOL    HW120321   4.164   6.403   4.900
 6474SOL    HW220322   4.072   6.360   5.028
 6475SOL     OW20323   5.772   4.908   3.170
 6475SOL    HW120324   5.844   4.978   3.165
 6475SOL    HW220325   5.683   4.951   3.154
 6476SOL     OW20326   4.152   1.446   6.235
 6476SOL    HW120327   4.147   1.455   6.334
 6476SOL    HW220328   4.108   1.525   6.192
 6477SOL     OW20329   6.535   6.194   1.702
 6477SOL    HW120330   6.601   6.171   1.774
 6477SOL    HW220331   6.574   6.266   1.644
 6478SOL     OW20332   3.728   5.989   1.773
 6478SOL    HW120333   3.731   6.033   1.683
 6478SOL    HW220334   3.646   6.018   1.822
 6479SOL     OW20335   3.483   6.419   3.993
 6479SOL    HW120336   3.475   6.321   4.008
 6479SOL    HW220337   3.447   6.468   4.073
 6480SOL     OW20338   3.443   1.217   6.785
 6480SOL    HW120339   3.353   1.179   6.807
 6480SOL    HW220340   3.448   1.312   6.818
 6481SOL     OW20341   3.305   2.462   1.723
 6481SOL    HW120342   3.225   2.521   1.730
 6481SOL    HW220343   3.276   2.368   1.703
 6482SOL     OW20344   6.593   3.388   5.546
 6482SOL    HW120345   6.642   3.417   5.464
 6482SOL    HW220346   6.497   3.371   5.523
 6483SOL     OW20347   1.131   5.799   5.103
 6483SOL    HW120348   1.148   5.803   5.004
 6483SOL    HW220349   1.193   5.732   5.144
 6484SOL     OW20350   2.535   0.996   4.120
 6484SOL    HW120351   2.486   0.914   4.150
 6484SOL    HW220352   2.610   0.970   4.060
 6485SOL     OW20353   2.211   6.847   4.313
 6485SOL    HW120354   2.131   6.788   4.301
 6485SOL    HW220355   2.195   6.907   4.392
 6486SOL     OW20356   1.601   5.298   2.936
 6486SOL    HW120357   1.627   5.221   2.878
 6486SOL    HW220358   1.520   5.273   2.990
 6487SOL     OW20359   0.070   4.653   4.444
 6487SOL    HW120360   0.043   4.585   4.512
 6487SOL    HW220361   0.143   4.710   4.480
 6488SOL     OW20362   4.501   5.492   4.506
 6488SOL    HW120363   4.560   5.553   4.558
 6488SOL    HW220364   4.523   5.499   4.408
 6489SOL     OW20365   4.207   2.905   6.279
 6489SOL    HW120366   4.290   2.914   6.224
 6489SOL    HW220367   4.136   2.965   6.242
 6490SOL     OW20368   1.919   1.983   6.348
 6490SOL    HW120369   1.954   2.053   6.286
 6490SOL    HW220370   1.979   1.902   6.344
 6491SOL     OW20371   1.398   0.531   0.596
 6491SOL    HW120372   1.449   0.464   0.543
 6491SOL    HW220373   1.309   0.549   0.552
 6492SOL     OW20374   3.606   3.781   5.021
 6492SOL    HW120375   3.550   3.816   4.946
 6492SOL    HW220376   3.647   3.693   4.994
 6493SOL     OW20377   0.928   4.356   6.185
 6493SOL    HW120378   0.964   4.413   6.111
 6493SOL    HW220379   0.872   4.283   6.147
 6494SOL     OW20380   6.086   6.776   1.897
 6494SOL    HW120381   6.071   6.700   1.960
 6494SOL    HW220382   6.039   6.758   1.811
 6495SOL     OW20383   0.205   0.118   3.508
 6495SOL    HW120384   0.235   0.042   3.566
 6495SOL    HW220385   0.285   0.171   3.480
 6496SOL     OW20386   4.784   0.512   2.118
 6496SOL    HW120387   4.771   0.540   2.022
 6496SOL    HW220388   4.873   0.545   2.150
 6497SOL     OW20389   0.364   1.642   0.831
 6497SOL    HW120390   0.371   1.562   0.771
 6497SOL    HW220391   0.281   1.693   0.809
 6498SOL     OW20392   1.132   4.246   3.717
 6498SOL    HW120393   1.070   4.181   3.671
 6498SOL    HW220394   1.089   4.278   3.801
 6499SOL     OW20395   5.913   3.902   4.276
 6499SOL    HW120396   5.908   3.949   4.188
 6499SOL    HW220397   5.990   3.838   4.276
 6500SOL     OW20398   1.576   3.803   2.523
 6500SOL    HW120399   1.569   3.755   2.436
 6500SOL    HW220400   1.590   3.901   2.506
 6501SOL     OW20401   6.481   2.117   1.338
 6501SOL    HW120402   6.448   2.152   1.251
 6501SOL    HW220403   6.415   2.140   1.410
 6502SOL     OW20404   6.151   3.896   2.057
 6502SOL    HW120405   6.208   3.906   1.975
 6502SOL    HW220406   6.210   3.877   2.136
 6503SOL     OW20407   6.709   3.219   5.739
 6503SOL    HW120408   6.672   3.289   5.679
 6503SOL    HW220409   6.767   3.157   5.687
 6504SOL     OW20410   4.513   6.132   6.386
 6504SOL    HW120411   4.424   6.134   6.432
 6504SOL    HW220412   4.566   6.054   6.421
 6505SOL     OW20413   5.979   5.847   6.919
 6505SOL    HW120414   5.976   5.747   6.910
 6505SOL    HW220415   6.059   5.882   6.870
 6506SOL     OW20416   0.418   2.983   2.822
 6506SOL    HW120417   0.354   2.909   2.801
 6506SOL    HW220418   0.368   3.062   2.859
 6507SOL     OW20419   3.913   4.425   6.659
 6507SOL    HW120420   3.927   4.477   6.575
 6507SOL    HW220421   3.857   4.478   6.723
 6508SOL     OW20422   1.404   6.691   1.838
 6508SOL    HW120423   1.396   6.594   1.815
 6508SOL    HW220424   1.315   6.735   1.829
 6509SOL     OW20425   3.868   1.523   5.603
 6509SOL    HW120426   3.891   1.605   5.655
 6509SOL    HW220427   3.768   1.511   5.602
 6510SOL     OW20428   4.419   6.316   5.756
 6510SOL    HW120429   4.430   6.291   5.852
 6510SOL    HW220430   4.358   6.394   5.748
 6511SOL     OW20431   3.236   0.850   0.123
 6511SOL    HW120432   3.297   0.914   0.169
 6511SOL    HW220433   3.145   0.856   0.163
 6512SOL     OW20434   3.262   0.902   0.913
 6512SOL    HW120435   3.318   0.890   0.995
 6512SOL    HW220436   3.196   0.975   0.929
 6513SOL     OW20437   2.907   5.526   4.424
 6513SOL    HW120438   2.875   5.487   4.510
 6513SOL    HW220439   2.828   5.556   4.370
 6514SOL     OW20440   5.945   0.494   5.275
 6514SOL    HW120441   5.987   0.583   5.252
 6514SOL    HW220442   5.920   0.446   5.191
 6515SOL     OW20443   2.196   4.970   2.132
 6515SOL    HW120444   2.288   5.002   2.154
 6515SOL    HW220445   2.138   5.048   2.110
 6516SOL     OW20446   0.284   2.998   1.058
 6516SOL    HW120447   0.227   3.004   1.140
 6516SOL    HW220448   0.299   2.902   1.035
 6517SOL     OW20449   6.770   3.058   6.900
 6517SOL    HW120450   6.753   3.083   6.805
 6517SOL    HW220451   6.847   3.111   6.935
 6518SOL     OW20452   1.002   1.479   2.882
 6518SOL    HW120453   0.981   1.443   2.973
 6518SOL    HW220454   1.041   1.407   2.825
 6519SOL     OW20455   1.091   1.695   3.202
 6519SOL    HW120456   1.033   1.760   3.152
 6519SOL    HW220457   1.137   1.743   3.277
 6520SOL     OW20458   0.291   5.624   0.043
 6520SOL    HW120459   0.325   5.673   6.987
 6520SOL    HW220460   0.207   5.668   0.076
 6521SOL     OW20461   1.584   3.061   4.423
 6521SOL    HW120462   1.669   3.092   4.466
 6521SOL    HW220463   1.518   3.037   4.494
 6522SOL     OW20464   2.576   3.850   5.301
 6522SOL    HW120465   2.542   3.932   5.255
 6522SOL    HW220466   2.573   3.863   5.400
 6523SOL     OW20467   5.589   0.314   7.006
 6523SOL    HW120468   5.541   0.389   0.027
 6523SOL    HW220469   5.646   0.351   6.933
 6524SOL     OW20470   2.153   2.400   1.221
 6524SOL    HW120471   2.118   2.415   1.313
 6524SOL    HW220472   2.249   2.430   1.217
 6525SOL     OW20473   1.554   4.737   3.565
 6525SOL    HW120474   1.490   4.682   3.617
 6525SOL    HW220475   1.568   4.825   3.611
 6526SOL     OW20476   0.198   0.100   0.465
 6526SOL    HW120477   0.241   0.149   0.389
 6526SOL    HW220478   0.270   0.059   0.522
 6527SOL     OW20479   0.881   2.617   0.417
 6527SOL    HW120480   0.873   2.705   0.371
 6527SOL    HW220481   0.937   2.627   0.500
 6528SOL     OW20482   6.239   1.096   5.655
 6528SOL    HW120483   6.215   1.055   5.567
 6528SOL    HW220484   6.334   1.075   5.677
 6529SOL     OW20485   6.767   1.339   2.129
 6529SOL    HW120486   6.812   1.282   2.061
 6529SOL    HW220487   6.713   1.282   2.191
 6530SOL     OW20488   0.707   2.448   2.231
 6530SOL    HW120489   0.619   2.494   2.216
 6530SOL    HW220490   0.706   2.358   2.188
 6531SOL     OW20491   4.078   2.981   5.807
 6531SOL    HW120492   4.141   3.030   5.868
 6531SOL    HW220493   3.989   2.971   5.852
 6532SOL     OW20494   1.465   0.686   0.983
 6532SOL    HW120495   1.372   0.699   1.018
 6532SOL    HW220496   1.465   0.702   0.884
 6533SOL     OW20497   4.287   3.769   6.830
 6533SOL    HW120498   4.273   3.745   6.733
 6533SOL    HW220499   4.224   3.715   6.886
 6534SOL     OW20500   5.947   4.881   2.420
 6534SOL    HW120501   5.995   4.806   2.373
 6534SOL    HW220502   5.855   4.891   2.382
 6535SOL     OW20503   6.277   3.427   4.909
 6535SOL    HW120504   6.185   3.389   4.902
 6535SOL    HW220505   6.322   3.392   4.992
 6536SOL     OW20506   0.438   3.124   5.354
 6536SOL    HW120507   0.358   3.066   5.366
 6536SOL    HW220508   0.433   3.201   5.418
 6537SOL     OW20509   6.284   4.874   4.655
 6537SOL    HW120510   6.278   4.917   4.745
 6537SOL    HW220511   6.225   4.794   4.652
 6538SOL     OW20512   2.195   3.760   5.458
 6538SOL    HW120513   2.273   3.712   5.418
 6538SOL    HW220514   2.166   3.714   5.542
 6539SOL     OW20515   6.510   0.643   6.406
 6539SOL    HW120516   6.564   0.724   6.383
 6539SOL    HW220517   6.450   0.620   6.329
 6540SOL     OW20518   4.517   2.535   6.077
 6540SOL    HW120519   4.598   2.478   6.089
 6540SOL    HW220520   4.532   2.600   6.003
 6541SOL     OW20521   6.081   1.527   4.663
 6541SOL    HW120522   6.074   1.613   4.715
 6541SOL    HW220523   6.177   1.506   4.647
 6542SOL     OW20524   1.863   3.366   4.786
 6542SOL    HW120525   1.873   3.454   4.739
 6542SOL    HW220526   1.767   3.354   4.812
 6543SOL     OW20527   3.788   2.081   4.835
 6543SOL    HW120528   3.790   2.101   4.933
 6543SOL    HW220529   3.842   2.149   4.786
 6544SOL     OW20530   0.915   0.330   1.465
 6544SOL    HW120531   0.985   0.361   1.530
 6544SOL    HW220532   0.958   0.299   1.381
 6545SOL     OW20533   4.263   0.194   1.246
 6545SOL    HW120534   4.315   0.277   1.228
 6545SOL    HW220535   4.302   0.118   1.193
 6546SOL     OW20536   5.285   4.064   6.250
 6546SOL    HW120537   5.338   4.040   6.168
 6546SOL    HW220538   5.343   4.117   6.312
 6547SOL     OW20539   5.628   6.127   0.295
 6547SOL    HW120540   5.559   6.056   0.282
 6547SOL    HW220541   5.719   6.087   0.287
 6548SOL     OW20542   0.667   2.398   5.669
 6548SOL    HW120543   0.673   2.470   5.599
 6548SOL    HW220544   0.759   2.363   5.687
 6549SOL     OW20545   4.896   6.875   2.003
 6549SOL    HW120546   4.946   6.943   1.948
 6549SOL    HW220547   4.954   6.845   2.078
 6550SOL     OW20548   6.521   6.689   3.183
 6550SOL    HW120549   6.423   6.700   3.167
 6550SOL    HW220550   6.553   6.761   3.244
 6551SOL     OW20551   3.097   3.640   1.509
 6551SOL    HW120552   3.086   3.683   1.599
 6551SOL    HW220553   3.070   3.705   1.438
 6552SOL     OW20554   2.064   0.447   0.747
 6552SOL    HW120555   2.125   0.421   0.822
 6552SOL    HW220556   2.104   0.417   0.660
 6553SOL     OW20557   0.365   0.777   2.861
 6553SOL    HW120558   0.456   0.789   2.823
 6553SOL    HW220559   0.371   0.771   2.961
 6554SOL     OW20560   3.227   1.093   4.317
 6554SOL    HW120561   3.289   1.091   4.238
 6554SOL    HW220562   3.177   1.007   4.323
 6555SOL     OW20563   6.566   2.097   4.448
 6555SOL    HW120564   6.571   2.195   4.429
 6555SOL    HW220565   6.470   2.068   4.446
 6556SOL     OW20566   6.075   3.285   3.567
 6556SOL    HW120567   6.073   3.326   3.476
 6556SOL    HW220568   6.092   3.187   3.560
 6557SOL     OW20569   1.677   6.804   2.363
 6557SOL    HW120570   1.601   6.766   2.415
 6557SOL    HW220571   1.642   6.854   2.284
 6558SOL     OW20572   5.291   5.222   0.297
 6558SOL    HW120573   5.251   5.216   0.389
 6558SOL    HW220574   5.232   5.175   0.232
 6559SOL     OW20575   6.196   3.005   6.123
 6559SOL    HW120576   6.242   3.041   6.042
 6559SOL    HW220577   6.265   2.971   6.188
 6560SOL     OW20578   4.752   4.900   0.672
 6560SOL    HW120579   4.775   4.977   0.612
 6560SOL    HW220580   4.790   4.917   0.763
 6561SOL     OW20581   3.685   5.095   0.367
 6561SOL    HW120582   3.762   5.142   0.323
 6561SOL    HW220583   3.602   5.148   0.356
 6562SOL     OW20584   5.754   2.483   0.774
 6562SOL    HW120585   5.842   2.451   0.806
 6562SOL    HW220586   5.712   2.542   0.843
 6563SOL     OW20587   5.288   6.689   4.804
 6563SOL    HW120588   5.241   6.747   4.871
 6563SOL    HW220589   5.318   6.745   4.727
 6564SOL     OW20590   0.060   4.178   2.544
 6564SOL    HW120591   0.027   4.162   2.637
 6564SOL    HW220592   0.071   4.091   2.497
 6565SOL     OW20593   5.977   6.772   2.349
 6565SOL    HW120594   5.895   6.820   2.382
 6565SOL    HW220595   5.993   6.691   2.405
 6566SOL     OW20596   3.699   5.866   2.381
 6566SOL    HW120597   3.619   5.877   2.441
 6566SOL    HW220598   3.782   5.862   2.437
 6567SOL     OW20599   4.399   0.771   1.509
 6567SOL    HW120600   4.385   0.860   1.465
 6567SOL    HW220601   4.374   0.698   1.446
 6568SOL     OW20602   3.527   0.879   1.491
 6568SOL    HW120603   3.571   0.923   1.413
 6568SOL    HW220604   3.595   0.827   1.542
 6569SOL     OW20605   1.133   3.378   5.549
 6569SOL    HW120606   1.209   3.443   5.544
 6569SOL    HW220607   1.161   3.290   5.512
 6570SOL     OW20608   4.018   7.012   1.865
 6570SOL    HW120609   3.931   0.035   1.851
 6570SOL    HW220610   4.086   0.024   1.800
 6571SOL     OW20611   2.630   4.979   3.529
 6571SOL    HW120612   2.705   4.936   3.478
 6571SOL    HW220613   2.602   4.919   3.604
 6572SOL     OW20614   0.412   5.496   4.154
 6572SOL    HW120615   0.343   5.538   4.214
 6572SOL    HW220616   0.503   5.511   4.193
 6573SOL     OW20617   2.221   1.276   2.959
 6573SOL    HW120618   2.304   1.326   2.938
 6573SOL    HW220619   2.192   1.297   3.053
 6574SOL     OW20620   2.100   5.794   2.063
 6574SOL    HW120621   2.132   5.883   2.032
 6574SOL    HW220622   2.171   5.750   2.118
 6575SOL     OW20623   0.029   0.187   2.664
 6575SOL    HW120624   0.127   0.197   2.646
 6575SOL    HW220625   0.002   0.251   2.735
 6576SOL     OW20626   3.490   5.372   0.518
 6576SOL    HW120627   3.464   5.358   0.614
 6576SOL    HW220628   3.409   5.361   0.460
 6577SOL     OW20629   2.583   2.126   4.508
 6577SOL    HW120630   2.587   2.225   4.504
 6577SOL    HW220631   2.496   2.097   4.547
 6578SOL     OW20632   1.487   5.301   1.347
 6578SOL    HW120633   1.579   5.266   1.332
 6578SOL    HW220634   1.487   5.365   1.424
 6579SOL     OW20635   0.059   1.160   3.844
 6579SOL    HW120636   7.017   1.235   3.851
 6579SOL    HW220637   0.087   1.148   3.749
 6580SOL     OW20638   0.924   6.996   6.790
 6580SOL    HW120639   0.994   0.044   6.781
 6580SOL    HW220640   0.887   6.998   6.883
 6581SOL     OW20641   1.571   1.898   6.840
 6581SOL    HW120642   1.610   1.820   6.889
 6581SOL    HW220643   1.536   1.868   6.751
 6582SOL     OW20644   6.176   0.626   3.086
 6582SOL    HW120645   6.147   0.702   3.144
 6582SOL    HW220646   6.173   0.541   3.139
 6583SOL     OW20647   4.189   6.540   6.284
 6583SOL    HW120648   4.194   6.638   6.266
 6583SOL    HW220649   4.156   6.524   6.377
 6584SOL     OW20650   3.419   2.507   0.733
 6584SOL    HW120651   3.333   2.531   0.688
 6584SOL    HW220652   3.432   2.567   0.812
 6585SOL     OW20653   6.215   6.858   0.943
 6585SOL    HW120654   6.141   6.817   0.890
 6585SOL    HW220655   6.296   6.869   0.885
 6586SOL     OW20656   6.373   2.697   5.782
 6586SOL    HW120657   6.392   2.604   5.754
 6586SOL    HW220658   6.451   2.732   5.835
 6587SOL     OW20659   1.516   4.320   5.663
 6587SOL    HW120660   1.486   4.234   5.622
 6587SOL    HW220661   1.558   4.302   5.752
 6588SOL     OW20662   0.238   3.055   0.446
 6588SOL    HW120663   0.303   3.007   0.388
 6588SOL    HW220664   0.284   3.087   0.529
 6589SOL     OW20665   6.586   0.993   1.397
 6589SOL    HW120666   6.614   0.927   1.466
 6589SOL    HW220667   6.522   1.058   1.437
 6590SOL     OW20668   0.862   0.639   5.206
 6590SOL    HW120669   0.933   0.710   5.199
 6590SOL    HW220670   0.788   0.672   5.264
 6591SOL     OW20671   4.852   5.250   4.541
 6591SOL    HW120672   4.773   5.203   4.580
 6591SOL    HW220673   4.821   5.325   4.483
 6592SOL     OW20674   4.969   6.823   3.035
 6592SOL    HW120675   4.913   6.743   3.057
 6592SOL    HW220676   4.910   6.899   3.010
 6593SOL     OW20677   2.709   2.361   2.450
 6593SOL    HW120678   2.805   2.387   2.438
 6593SOL    HW220679   2.674   2.401   2.534
 6594SOL     OW20680   3.768   1.453   5.963
 6594SOL    HW120681   3.859   1.489   5.983
 6594SOL    HW220682   3.776   1.359   5.930
 6595SOL     OW20683   2.195   2.480   4.855
 6595SOL    HW120684   2.118   2.419   4.834
 6595SOL    HW220685   2.233   2.456   4.944
 6596SOL     OW20686   5.080   5.601   2.678
 6596SOL    HW120687   5.012   5.670   2.654
 6596SOL    HW220688   5.150   5.643   2.736
 6597SOL     OW20689   1.002   5.553   2.546
 6597SOL    HW120690   1.094   5.515   2.531
 6597SOL    HW220691   0.937   5.478   2.557
 6598SOL     OW20692   1.801   4.526   4.246
 6598SOL    HW120693   1.852   4.451   4.204
 6598SOL    HW220694   1.824   4.612   4.200
 6599SOL     OW20695   5.818   6.303   6.392
 6599SOL    HW120696   5.766   6.384   6.365
 6599SOL    HW220697   5.775   6.221   6.353
 6600SOL     OW20698   4.610   7.012   5.732
 6600SOL    HW120699   4.535   6.976   5.789
 6600SOL    HW220700   4.581   0.074   5.689
 6601SOL     OW20701   1.177   3.027   2.609
 6601SOL    HW120702   1.239   3.080   2.551
 6601SOL    HW220703   1.167   3.074   2.697
 6602SOL     OW20704   2.039   0.205   1.495
 6602SOL    HW120705   2.056   0.119   1.447
 6602SOL    HW220706   2.120   0.262   1.490
 6603SOL     OW20707   0.623   2.841   3.595
 6603SOL    HW120708   0.663   2.750   3.609
 6603SOL    HW220709   0.696   2.909   3.591
 6604SOL     OW20710   2.469   6.709   1.780
 6604SOL    HW120711   2.384   6.668   1.811
 6604SOL    HW220712   2.501   6.775   1.848
 6605SOL     OW20713   6.098   5.406   1.631
 6605SOL    HW120714   6.116   5.441   1.539
 6605SOL    HW220715   6.015   5.350   1.630
 6606SOL     OW20716   1.453   3.316   3.877
 6606SOL    HW120717   1.384   3.247   3.857
 6606SOL    HW220718   1.534   3.299   3.822
 6607SOL     OW20719   6.010   4.299   3.854
 6607SOL    HW120720   6.096   4.278   3.901
 6607SOL    HW220721   6.018   4.272   3.758
 6608SOL     OW20722   6.932   6.727   6.655
 6608SOL    HW120723   6.999   6.655   6.674
 6608SOL    HW220724   6.964   6.783   6.579
 6609SOL     OW20725   4.715   2.015   5.838
 6609SOL    HW120726   4.778   2.076   5.789
 6609SOL    HW220727   4.623   2.026   5.800
 6610SOL     OW20728   3.018   5.693   0.983
 6610SOL    HW120729   3.093   5.710   0.919
 6610SOL    HW220730   3.039   5.612   1.038
 6611SOL     OW20731   5.285   2.286   3.905
 6611SOL    HW120732   5.211   2.222   3.885
 6611SOL    HW220733   5.324   2.319   3.819
 6612SOL     OW20734   5.612   2.049   6.307
 6612SOL    HW120735   5.699   2.097   6.319
 6612SOL    HW220736   5.556   2.097   6.239
 6613SOL     OW20737   5.062   0.556   6.377
 6613SOL    HW120738   5.054   0.601   6.466
 6613SOL    HW220739   4.972   0.552   6.333
 6614SOL     OW20740   4.580   5.624   2.030
 6614SOL    HW120741   4.534   5.543   1.992
 6614SOL    HW220742   4.538   5.706   1.991
 6615SOL     OW20743   3.105   5.720   0.248
 6615SOL    HW120744   3.076   5.639   0.197
 6615SOL    HW220745   3.029   5.754   0.303
 6616SOL     OW20746   4.799   0.552   6.327
 6616SOL    HW120747   4.783   0.549   6.425
 6616SOL    HW220748   4.748   0.478   6.282
 6617SOL     OW20749   3.991   0.626   3.492
 6617SOL    HW120750   4.089   0.624   3.513
 6617SOL    HW220751   3.945   0.552   3.542
 6618SOL     OW20752   0.470   1.729   3.408
 6618SOL    HW120753   0.469   1.823   3.441
 6618SOL    HW220754   0.479   1.666   3.485
 6619SOL     OW20755   4.498   6.517   4.284
 6619SOL    HW120756   4.585   6.467   4.277
 6619SOL    HW220757   4.423   6.452   4.293
 6620SOL     OW20758   0.599   3.629   3.650
 6620SOL    HW120759   0.516   3.604   3.699
 6620SOL    HW220760   0.667   3.556   3.660
 6621SOL     OW20761   4.020   3.148   5.028
 6621SOL    HW120762   3.949   3.105   4.972
 6621SOL    HW220763   4.051   3.084   5.098
 6622SOL     OW20764   6.359   5.651   0.887
 6622SOL    HW120765   6.419   5.645   0.966
 6622SOL    HW220766   6.386   5.583   0.819
 6623SOL     OW20767   3.545   4.582   5.410
 6623SOL    HW120768   3.503   4.574   5.500
 6623SOL    HW220769   3.634   4.628   5.418
 6624SOL     OW20770   0.766   2.525   4.775
 6624SOL    HW120771   0.755   2.434   4.736
 6624SOL    HW220772   0.824   2.519   4.857
 6625SOL     OW20773   6.012   3.103   5.121
 6625SOL    HW120774   6.051   3.055   5.200
 6625SOL    HW220775   5.913   3.086   5.119
 6626SOL     OW20776   2.920   6.894   4.613
 6626SOL    HW120777   2.958   6.821   4.555
 6626SOL    HW220778   2.879   6.964   4.555
 6627SOL     OW20779   1.325   6.113   4.644
 6627SOL    HW120780   1.363   6.113   4.737
 6627SOL    HW220781   1.399   6.096   4.578
 6628SOL     OW20782   4.987   5.511   3.749
 6628SOL    HW120783   4.932   5.538   3.669
 6628SOL    HW220784   5.059   5.448   3.721
 6629SOL     OW20785   5.356   6.085   6.910
 6629SOL    HW120786   5.342   6.039   6.997
 6629SOL    HW220787   5.282   6.061   6.847
 6630SOL     OW20788   2.399   1.519   1.896
 6630SOL    HW120789   2.476   1.548   1.840
 6630SOL    HW220790   2.313   1.541   1.850
 6631SOL     OW20791   1.674   4.733   6.068
 6631SOL    HW120792   1.666   4.708   5.971
 6631SOL    HW220793   1.654   4.830   6.079
 6632SOL     OW20794   1.098   0.277   0.371
 6632SOL    HW120795   1.141   0.224   0.444
 6632SOL    HW220796   0.999   0.278   0.385
 6633SOL     OW20797   2.948   5.549   6.121
 6633SOL    HW120798   2.979   5.637   6.156
 6633SOL    HW220799   2.996   5.475   6.169
 6634SOL     OW20800   4.884   2.063   5.608
 6634SOL    HW120801   4.960   2.008   5.645
 6634SOL    HW220802   4.811   2.002   5.577
 6635SOL     OW20803   5.055   4.295   2.037
 6635SOL    HW120804   4.958   4.299   2.013
 6635SOL    HW220805   5.080   4.378   2.088
 6636SOL     OW20806   3.140   0.091   2.092
 6636SOL    HW120807   3.122   0.169   2.153
 6636SOL    HW220808   3.225   0.107   2.042
 6637SOL     OW20809   1.615   1.051   1.049
 6637SOL    HW120810   1.603   1.000   0.964
 6637SOL    HW220811   1.573   1.141   1.040
 6638SOL     OW20812   3.036   3.874   3.904
 6638SOL    HW120813   3.090   3.895   3.822
 6638SOL    HW220814   3.060   3.937   3.977
 6639SOL     OW20815   4.609   2.626   0.971
 6639SOL    HW120816   4.527   2.568   0.970
 6639SOL    HW220817   4.661   2.609   1.055
 6640SOL     OW20818   0.786   2.736   5.292
 6640SOL    HW120819   0.753   2.827   5.265
 6640SOL    HW220820   0.884   2.730   5.273
 6641SOL     OW20821   3.744   1.789   0.970
 6641SOL    HW120822   3.667   1.852   0.981
 6641SOL    HW220823   3.825   1.840   0.942
 6642SOL     OW20824   1.697   5.405   0.704
 6642SOL    HW120825   1.716   5.398   0.606
 6642SOL    HW220826   1.599   5.411   0.719
 6643SOL     OW20827   5.039   6.070   0.616
 6643SOL    HW120828   4.998   6.088   0.527
 6643SOL    HW220829   5.133   6.041   0.605
 6644SOL     OW20830   1.645   6.189   2.706
 6644SOL    HW120831   1.570   6.251   2.730
 6644SOL    HW220832   1.730   6.223   2.745
 6645SOL     OW20833   6.153   2.867   0.300
 6645SOL    HW120834   6.152   2.939   0.231
 6645SOL    HW220835   6.060   2.855   0.336
 6646SOL     OW20836   4.079   0.646   6.653
 6646SOL    HW120837   4.177   0.627   6.651
 6646SOL    HW220838   4.051   0.686   6.565
 6647SOL     OW20839   4.278   4.857   1.205
 6647SOL    HW120840   4.353   4.851   1.140
 6647SOL    HW220841   4.191   4.862   1.156
 6648SOL     OW20842   2.845   6.494   4.623
 6648SOL    HW120843   2.844   6.529   4.716
 6648SOL    HW220844   2.751   6.488   4.589
 6649SOL     OW20845   5.828   2.609   6.647
 6649SOL    HW120846   5.758   2.539   6.659
 6649SOL    HW220847   5.883   2.588   6.567
 6650SOL     OW20848   3.833   0.697   5.022
 6650SOL    HW120849   3.817   0.605   5.059
 6650SOL    HW220850   3.771   0.762   5.065
 6651SOL     OW20851   0.887   1.408   0.109
 6651SOL    HW120852   0.901   1.351   0.190
 6651SOL    HW220853   0.791   1.404   0.081
 6652SOL     OW20854   0.968   4.624   6.975
 6652SOL    HW120855   0.996   4.666   0.038
 6652SOL    HW220856   0.987   4.526   6.979
 6653SOL     OW20857   5.215   2.997   0.355
 6653SOL    HW120858   5.307   2.956   0.351
 6653SOL    HW220859   5.222   3.095   0.338
 6654SOL     OW20860   0.469   4.646   3.281
 6654SOL    HW120861   0.530   4.709   3.329
 6654SOL    HW220862   0.376   4.680   3.286
 6655SOL     OW20863   6.525   5.333   1.605
 6655SOL    HW120864   6.433   5.370   1.620
 6655SOL    HW220865   6.581   5.402   1.559
 6656SOL     OW20866   4.023   1.315   2.411
 6656SOL    HW120867   4.122   1.304   2.404
 6656SOL    HW220868   3.985   1.332   2.320
 6657SOL     OW20869   5.600   2.638   4.253
 6657SOL    HW120870   5.540   2.718   4.253
 6657SOL    HW220871   5.544   2.555   4.254
 6658SOL     OW20872   6.182   6.868   4.858
 6658SOL    HW120873   6.189   6.914   4.946
 6658SOL    HW220874   6.094   6.821   4.852
 6659SOL     OW20875   0.848   5.088   2.171
 6659SOL    HW120876   0.883   5.177   2.141
 6659SOL    HW220877   0.802   5.043   2.095
 6660SOL     OW20878   1.034   5.878   2.675
 6660SOL    HW120879   1.031   5.977   2.656
 6660SOL    HW220880   0.988   5.829   2.601
 6661SOL     OW20881   2.909   6.625   4.122
 6661SOL    HW120882   2.991   6.573   4.095
 6661SOL    HW220883   2.827   6.573   4.096
 6662SOL     OW20884   2.672   0.244   1.615
 6662SOL    HW120885   2.759   0.226   1.571
 6662SOL    HW220886   2.606   0.173   1.590
 6663SOL     OW20887   1.709   5.258   6.145
 6663SOL    HW120888   1.796   5.301   6.168
 6663SOL    HW220889   1.705   5.240   6.047
 6664SOL     OW20890   2.142   0.690   1.590
 6664SOL    HW120891   2.104   0.772   1.547
 6664SOL    HW220892   2.143   0.700   1.689
 6665SOL     OW20893   2.739   0.256   6.084
 6665SOL    HW120894   2.701   0.187   6.023
 6665SOL    HW220895   2.819   0.219   6.132
 6666SOL     OW20896   6.319   5.685   4.962
 6666SOL    HW120897   6.413   5.655   4.943
 6666SOL    HW220898   6.296   5.661   5.057
 6667SOL     OW20899   6.787   6.296   5.548
 6667SOL    HW120900   6.720   6.279   5.620
 6667SOL    HW220901   6.780   6.225   5.479
 6668SOL     OW20902   6.719   6.377   1.605
 6668SOL    HW120903   6.795   6.386   1.541
 6668SOL    HW220904   6.748   6.407   1.696
 6669SOL     OW20905   2.005   1.342   1.606
 6669SOL    HW120906   1.997   1.246   1.633
 6669SOL    HW220907   1.922   1.391   1.633
 6670SOL     OW20908   2.894   1.846   6.769
 6670SOL    HW120909   2.946   1.782   6.825
 6670SOL    HW220910   2.880   1.808   6.678
 6671SOL     OW20911   5.293   6.509   0.673
 6671SOL    HW120912   5.291   6.511   0.573
 6671SOL    HW220913   5.227   6.443   0.706
 6672SOL     OW20914   1.177   2.658   0.325
 6672SOL    HW120915   1.159   2.561   0.312
 6672SOL    HW220916   1.096   2.711   0.301
 6673SOL     OW20917   5.457   3.536   4.116
 6673SOL    HW120918   5.461   3.636   4.110
 6673SOL    HW220919   5.381   3.509   4.174
 6674SOL     OW20920   0.313   2.976   6.788
 6674SOL    HW120921   0.408   3.008   6.783
 6674SOL    HW220922   0.257   3.027   6.724
 6675SOL     OW20923   4.478   2.621   0.092
 6675SOL    HW120924   4.463   2.704   0.037
 6675SOL    HW220925   4.481   2.542   0.032
 6676SOL     OW20926   1.139   3.863   3.564
 6676SOL    HW120927   1.148   3.816   3.652
 6676SOL    HW220928   1.212   3.833   3.502
 6677SOL     OW20929   0.430   0.845   0.119
 6677SOL    HW120930   0.461   0.800   0.035
 6677SOL    HW220931   0.360   0.789   0.163
 6678SOL     OW20932   1.605   4.282   0.676
 6678SOL    HW120933   1.696   4.254   0.645
 6678SOL    HW220934   1.614   4.349   0.750
 6679SOL     OW20935   2.511   0.806   3.807
 6679SOL    HW120936   2.610   0.817   3.814
 6679SOL    HW220937   2.480   0.736   3.871
 6680SOL     OW20938   5.358   6.693   0.885
 6680SOL    HW120939   5.442   6.729   0.844
 6680SOL    HW220940   5.312   6.633   0.819
 6681SOL     OW20941   4.582   5.251   1.413
 6681SOL    HW120942   4.579   5.344   1.375
 6681SOL    HW220943   4.628   5.190   1.349
 6682SOL     OW20944   3.161   5.288   6.985
 6682SOL    HW120945   3.144   5.200   0.004
 6682SOL    HW220946   3.243   5.283   6.928
 6683SOL     OW20947   6.073   3.728   6.833
 6683SOL    HW120948   6.153   3.672   6.853
 6683SOL    HW220949   6.088   3.779   6.748
 6684SOL     OW20950   3.169   6.979   1.431
 6684SOL    HW120951   3.108   6.966   1.353
 6684SOL    HW220952   3.236   0.025   1.410
 6685SOL     OW20953   4.052   3.546   6.532
 6685SOL    HW120954   4.003   3.632   6.547
 6685SOL    HW220955   4.020   3.478   6.598
 6686SOL     OW20956   6.120   5.966   3.852
 6686SOL    HW120957   6.145   6.063   3.858
 6686SOL    HW220958   6.183   5.919   3.790
 6687SOL     OW20959   6.853   2.337   1.844
 6687SOL    HW120960   6.810   2.248   1.860
 6687SOL    HW220961   6.800   2.408   1.891
 6688SOL     OW20962   4.032   4.902   1.084
 6688SOL    HW120963   3.977   4.928   1.164
 6688SOL    HW220964   4.011   4.963   1.008
 6689SOL     OW20965   3.452   4.658   5.684
 6689SOL    HW120966   3.352   4.655   5.676
 6689SOL    HW220967   3.480   4.605   5.764
 6690SOL     OW20968   0.669   0.401   6.004
 6690SOL    HW120969   0.720   0.329   5.958
 6690SOL    HW220970   0.730   0.449   6.068
 6691SOL     OW20971   1.700   1.567   2.572
 6691SOL    HW120972   1.643   1.569   2.654
 6691SOL    HW220973   1.715   1.660   2.539
 6692SOL     OW20974   4.260   4.666   1.905
 6692SOL    HW120975   4.167   4.701   1.915
 6692SOL    HW220976   4.258   4.578   1.858
 6693SOL     OW20977   4.582   1.419   4.984
 6693SOL    HW120978   4.620   1.329   4.964
 6693SOL    HW220979   4.603   1.482   4.910
 6694SOL     OW20980   3.852   5.891   1.394
 6694SOL    HW120981   3.806   5.977   1.417
 6694SOL    HW220982   3.795   5.839   1.330
 6695SOL     OW20983   2.852   2.408   0.579
 6695SOL    HW120984   2.886   2.445   0.492
 6695SOL    HW220985   2.908   2.330   0.606
 6696SOL     OW20986   3.673   4.164   3.791
 6696SOL    HW120987   3.761   4.125   3.764
 6696SOL    HW220988   3.628   4.203   3.710
 6697SOL     OW20989   4.984   2.343   2.390
 6697SOL    HW120990   4.886   2.341   2.369
 6697SOL    HW220991   5.024   2.253   2.370
 6698SOL     OW20992   3.489   4.265   1.635
 6698SOL    HW120993   3.499   4.205   1.713
 6698SOL    HW220994   3.454   4.354   1.665
 6699SOL     OW20995   1.779   5.532   5.931
 6699SOL    HW120996   1.760   5.450   5.985
 6699SOL    HW220997   1.873   5.562   5.950
 6700SOL     OW20998   5.826   0.521   0.580
 6700SOL    HW120999   5.884   0.440   0.592
 6700SOL    HW221000   5.741   0.509   0.632
 6701SOL     OW21001   5.774   6.851   1.681
 6701SOL    HW121002   5.832   6.781   1.723
 6701SOL    HW221003   5.811   6.875   1.591
 6702SOL     OW21004   2.371   2.064   0.710
 6702SOL    HW121005   2.393   2.156   0.742
 6702SOL    HW221006   2.286   2.033   0.752
 6703SOL     OW21007   1.481   1.546   5.919
 6703SOL    HW121008   1.554   1.485   5.949
 6703SOL    HW221009   1.519   1.635   5.895
 6704SOL     OW21010   3.711   1.416   4.415
 6704SOL    HW121011   3.682   1.507   4.387
 6704SOL    HW221012   3.788   1.424   4.479
 6705SOL     OW21013   6.280   3.771   1.441
 6705SOL    HW121014   6.356   3.835   1.434
 6705SOL    HW221015   6.227   3.772   1.356
 6706SOL     OW21016   0.835   6.225   0.860
 6706SOL    HW121017   0.892   6.306   0.872
 6706SOL    HW221018   0.829   6.175   0.946
 6707SOL     OW21019   6.242   0.511   2.535
 6707SOL    HW121020   6.331   0.463   2.531
 6707SOL    HW221021   6.179   0.468   2.470
 6708SOL     OW21022   6.529   4.629   1.481
 6708SOL    HW121023   6.512   4.720   1.519
 6708SOL    HW221024   6.626   4.621   1.456
 6709SOL     OW21025   1.272   4.904   2.194
 6709SOL    HW121026   1.314   4.989   2.162
 6709SOL    HW221027   1.185   4.890   2.148
 6710SOL     OW21028   3.930   1.119   1.736
 6710SOL    HW121029   3.842   1.135   1.781
 6710SOL    HW221030   3.936   1.176   1.654
 6711SOL     OW21031   4.793   6.060   6.669
 6711SOL    HW121032   4.740   5.995   6.615
 6711SOL    HW221033   4.731   6.117   6.723
 6712SOL     OW21034   6.233   3.881   0.525
 6712SOL    HW121035   6.198   3.973   0.542
 6712SOL    HW221036   6.170   3.832   0.466
 6713SOL     OW21037   1.642   0.549   4.217
 6713SOL    HW121038   1.643   0.564   4.315
 6713SOL    HW221039   1.559   0.501   4.191
 6714SOL     OW21040   5.720   1.165   0.922
 6714SOL    HW121041   5.654   1.232   0.889
 6714SOL    HW221042   5.784   1.210   0.985
 6715SOL     OW21043   1.422   1.036   1.305
 6715SOL    HW121044   1.426   0.989   1.217
 6715SOL    HW221045   1.387   0.973   1.374
 6716SOL     OW21046   6.734   5.432   2.500
 6716SOL    HW121047   6.660   5.435   2.433
 6716SOL    HW221048   6.728   5.512   2.560
 6717SOL     OW21049   3.184   2.560   0.109
 6717SOL    HW121050   3.272   2.557   0.155
 6717SOL    HW221051   3.193   2.609   0.022
 6718SOL     OW21052   3.360   1.215   1.508
 6718SOL    HW121053   3.381   1.137   1.567
 6718SOL    HW221054   3.344   1.296   1.565
 6719SOL     OW21055   1.669   0.408   0.011
 6719SOL    HW121056   1.681   0.328   0.070
 6719SOL    HW221057   1.697   0.490   0.061
 6720SOL     OW21058   2.743   1.087   5.840
 6720SOL    HW121059   2.694   1.001   5.824
 6720SOL    HW221060   2.821   1.093   5.778
 6721SOL     OW21061   0.046   0.819   0.337
 6721SOL    HW121062   0.029   0.756   0.413
 6721SOL    HW221063   0.142   0.812   0.308
 6722SOL     OW21064   6.619   2.827   0.265
 6722SOL    HW121065   6.657   2.818   0.173
 6722SOL    HW221066   6.525   2.792   0.265
 6723SOL     OW21067   1.674   1.606   6.508
 6723SOL    HW121068   1.615   1.610   6.588
 6723SOL    HW221069   1.640   1.536   6.445
 6724SOL     OW21070   2.219   3.234   6.056
 6724SOL    HW121071   2.168   3.174   5.994
 6724SOL    HW221072   2.292   3.279   6.004
 6725SOL     OW21073   6.042   2.906   2.985
 6725SOL    HW121074   6.018   2.868   3.074
 6725SOL    HW221075   6.141   2.911   2.975
 6726SOL     OW21076   0.049   1.438   5.199
 6726SOL    HW121077   0.094   1.372   5.259
 6726SOL    HW221078   0.097   1.525   5.203
 6727SOL     OW21079   1.225   5.182   5.504
 6727SOL    HW121080   1.311   5.231   5.514
 6727SOL    HW221081   1.236   5.109   5.436
 6728SOL     OW21082   4.150   1.997   3.246
 6728SOL    HW121083   4.086   2.056   3.295
 6728SOL    HW221084   4.190   1.930   3.309
 6729SOL     OW21085   6.021   2.113   0.869
 6729SOL    HW121086   5.936   2.125   0.818
 6729SOL    HW221087   6.079   2.194   0.857
 6730SOL     OW21088   1.629   1.444   1.314
 6730SOL    HW121089   1.562   1.495   1.367
 6730SOL    HW221090   1.617   1.346   1.330
 6731SOL     OW21091   2.225   6.474   1.000
 6731SOL    HW121092   2.163   6.477   1.078
 6731SOL    HW221093   2.172   6.487   0.916
 6732SOL     OW21094   5.642   4.300   4.461
 6732SOL    HW121095   5.723   4.243   4.447
 6732SOL    HW221096   5.658   4.390   4.420
 6733SOL     OW21097   3.371   5.640   6.929
 6733SOL    HW121098   3.421   5.717   6.890
 6733SOL    HW221099   3.392   5.633   0.003
 6734SOL     OW21100   4.990   1.909   4.897
 6734SOL    HW121101   4.901   1.864   4.904
 6734SOL    HW221102   4.982   2.004   4.927
 6735SOL     OW21103   6.153   3.299   4.173
 6735SOL    HW121104   6.214   3.337   4.242
 6735SOL    HW221105   6.094   3.230   4.214
 6736SOL     OW21106   3.261   4.429   1.078
 6736SOL    HW121107   3.296   4.338   1.102
 6736SOL    HW221108   3.205   4.422   0.996
 6737SOL     OW21109   0.532   2.723   1.240
 6737SOL    HW121110   0.629   2.708   1.260
 6737SOL    HW221111   0.483   2.747   1.324
 6738SOL     OW21112   1.390   5.797   3.499
 6738SOL    HW121113   1.379   5.839   3.590
 6738SOL    HW221114   1.434   5.708   3.509
 6739SOL     OW21115   6.914   6.878   3.718
 6739SOL    HW121116   6.910   6.967   3.762
 6739SOL    HW221117   6.934   6.807   3.786
 6740SOL     OW21118   6.426   0.090   4.017
 6740SOL    HW121119   6.499   0.127   3.960
 6740SOL    HW221120   6.367   0.165   4.047
 6741SOL     OW21121   4.942   2.199   5.883
 6741SOL    HW121122   4.969   2.279   5.829
 6741SOL    HW221123   5.023   2.158   5.924
 6742SOL     OW21124   5.610   5.255   3.790
 6742SOL    HW121125   5.517   5.287   3.803
 6742SOL    HW221126   5.654   5.307   3.716
 6743SOL     OW21127   3.568   4.288   6.403
 6743SOL    HW121128   3.577   4.200   6.450
 6743SOL    HW221129   3.476   4.324   6.417
 6744SOL     OW21130   6.468   5.587   6.186
 6744SOL    HW121131   6.513   5.676   6.182
 6744SOL    HW221132   6.388   5.587   6.126
 6745SOL     OW21133   0.302   6.141   4.250
 6745SOL    HW121134   0.389   6.177   4.216
 6745SOL    HW221135   0.308   6.129   4.349
 6746SOL     OW21136   1.549   1.805   2.264
 6746SOL    HW121137   1.592   1.895   2.262
 6746SOL    HW221138   1.463   1.808   2.214
 6747SOL     OW21139   0.058   6.726   6.318
 6747SOL    HW121140   6.982   6.735   6.312
 6747SOL    HW221141   0.082   6.630   6.331
 6748SOL     OW21142   3.239   1.657   3.994
 6748SOL    HW121143   3.189   1.574   3.971
 6748SOL    HW221144   3.212   1.688   4.085
 6749SOL     OW21145   3.501   3.799   0.953
 6749SOL    HW121146   3.458   3.890   0.950
 6749SOL    HW221147   3.595   3.808   0.984
 6750SOL     OW21148   2.890   1.464   4.379
 6750SOL    HW121149   2.928   1.375   4.402
 6750SOL    HW221150   2.821   1.490   4.446
 6751SOL     OW21151   4.609   0.492   3.611
 6751SOL    HW121152   4.524   0.512   3.659
 6751SOL    HW221153   4.592   0.484   3.513
 6752SOL     OW21154   1.579   6.662   2.943
 6752SOL    HW121155   1.539   6.574   2.968
 6752SOL    HW221156   1.571   6.726   3.019
 6753SOL     OW21157   3.707   2.372   5.922
 6753SOL    HW121158   3.674   2.423   6.002
 6753SOL    HW221159   3.666   2.409   5.839
 6754SOL     OW21160   5.970   0.412   1.042
 6754SOL    HW121161   5.961   0.318   1.009
 6754SOL    HW221162   5.948   0.475   0.968
 6755SOL     OW21163   3.069   5.025   1.250
 6755SOL    HW121164   3.026   4.935   1.239
 6755SOL    HW221165   3.077   5.046   1.347
 6756SOL     OW21166   2.973   1.014   5.710
 6756SOL    HW121167   2.941   0.995   5.617
 6756SOL    HW221168   3.032   1.094   5.710
 6757SOL     OW21169   3.134   1.474   1.462
 6757SOL    HW121170   3.162   1.453   1.368
 6757SOL    HW221171   3.216   1.485   1.519
 6758SOL     OW21172   5.010   3.190   1.199
 6758SOL    HW121173   4.928   3.240   1.174
 6758SOL    HW221174   5.015   3.179   1.298
 6759SOL     OW21175   6.713   2.927   2.875
 6759SOL    HW121176   6.746   2.947   2.967
 6759SOL    HW221177   6.623   2.968   2.862
 6760SOL     OW21178   6.155   3.450   2.654
 6760SOL    HW121179   6.056   3.455   2.672
 6760SOL    HW221180   6.189   3.541   2.633
 6761SOL     OW21181   5.181   2.623   4.619
 6761SOL    HW121182   5.119   2.623   4.698
 6761SOL    HW221183   5.144   2.681   4.547
 6762SOL     OW21184   0.493   4.414   4.354
 6762SOL    HW121185   0.482   4.467   4.439
 6762SOL    HW221186   0.417   4.434   4.293
 6763SOL     OW21187   5.022   5.814   4.912
 6763SOL    HW121188   5.041   5.857   4.824
 6763SOL    HW221189   5.056   5.720   4.912
 6764SOL     OW21190   1.503   5.624   2.064
 6764SOL    HW121191   1.424   5.587   2.113
 6764SOL    HW221192   1.583   5.623   2.124
 6765SOL     OW21193   6.529   4.218   3.704
 6765SOL    HW121194   6.471   4.263   3.772
 6765SOL    HW221195   6.598   4.282   3.671
 6766SOL     OW21196   4.830   6.204   6.937
 6766SOL    HW121197   4.886   6.154   6.870
 6766SOL    HW221198   4.744   6.155   6.951
 6767SOL     OW21199   2.941   0.705   0.512
 6767SOL    HW121200   2.999   0.624   0.498
 6767SOL    HW221201   2.997   0.787   0.505
 6768SOL     OW21202   2.063   0.768   5.607
 6768SOL    HW121203   2.017   0.830   5.671
 6768SOL    HW221204   2.143   0.814   5.568
 6769SOL     OW21205   3.085   2.318   0.172
 6769SOL    HW121206   3.154   2.254   0.138
 6769SOL    HW221207   3.112   2.411   0.150
 6770SOL     OW21208   6.873   0.360   1.970
 6770SOL    HW121209   6.933   0.386   1.894
 6770SOL    HW221210   6.905   0.406   2.054
 6771SOL     OW21211   4.608   2.699   3.148
 6771SOL    HW121212   4.638   2.626   3.087
 6771SOL    HW221213   4.596   2.783   3.096
 6772SOL     OW21214   3.120   1.154   2.607
 6772SOL    HW121215   3.050   1.083   2.599
 6772SOL    HW221216   3.185   1.127   2.678
 6773SOL     OW21217   6.549   4.534   1.921
 6773SOL    HW121218   6.478   4.590   1.879
 6773SOL    HW221219   6.634   4.544   1.870
 6774SOL     OW21220   0.292   2.853   6.149
 6774SOL    HW121221   0.366   2.852   6.216
 6774SOL    HW221222   0.229   2.929   6.169
 6775SOL     OW21223   2.580   3.268   1.334
 6775SOL    HW121224   2.632   3.251   1.418
 6775SOL    HW221225   2.516   3.344   1.349
 6776SOL     OW21226   4.524   4.678   0.178
 6776SOL    HW121227   4.558   4.691   0.271
 6776SOL    HW221228   4.519   4.580   0.158
 6777SOL     OW21229   3.998   3.966   6.430
 6777SOL    HW121230   4.081   3.978   6.376
 6777SOL    HW221231   3.986   4.045   6.492
 6778SOL     OW21232   0.401   4.219   1.921
 6778SOL    HW121233   0.383   4.225   2.019
 6778SOL    HW221234   0.471   4.150   1.904
 6779SOL     OW21235   6.487   4.167   6.248
 6779SOL    HW121236   6.412   4.160   6.313
 6779SOL    HW221237   6.570   4.195   6.297
 6780SOL     OW21238   0.930   2.153   2.878
 6780SOL    HW121239   0.852   2.099   2.909
 6780SOL    HW221240   0.898   2.240   2.839
 6781SOL     OW21241   5.716   0.182   4.498
 6781SOL    HW121242   5.798   0.159   4.550
 6781SOL    HW221243   5.654   0.236   4.556
 6782SOL     OW21244   0.334   0.386   2.994
 6782SOL    HW121245   0.242   0.397   3.033
 6782SOL    HW221246   0.400   0.379   3.069
 6783SOL     OW21247   6.952   6.946   6.481
 6783SOL    HW121248   6.992   6.937   6.390
 6783SOL    HW221249   6.876   7.011   6.478
 6784SOL     OW21250   3.257   4.180   0.553
 6784SOL    HW121251   3.356   4.166   0.559
 6784SOL    HW221252   3.238   4.275   0.528
 6785SOL     OW21253   5.322   4.554   2.803
 6785SOL    HW121254   5.236   4.504   2.816
 6785SOL    HW221255   5.382   4.501   2.743
 6786SOL     OW21256   0.985   1.746   6.543
 6786SOL    HW121257   0.971   1.827   6.600
 6786SOL    HW221258   0.950   1.763   6.451
 6787SOL     OW21259   1.346   3.252   0.583
 6787SOL    HW121260   1.314   3.289   0.496
 6787SOL    HW221261   1.422   3.190   0.568
 6788SOL     OW21262   2.472   3.857   1.483
 6788SOL    HW121263   2.555   3.848   1.429
 6788SOL    HW221264   2.445   3.768   1.520
 6789SOL     OW21265   0.255   6.848   2.676
 6789SOL    HW121266   0.326   6.790   2.636
 6789SOL    HW221267   0.297   6.926   2.722
 6790SOL     OW21268   1.162   4.026   0.940
 6790SOL    HW121269   1.094   3.958   0.968
 6790SOL    HW221270   1.118   4.095   0.882
 6791SOL     OW21271   3.709   2.506   0.780
 6791SOL    HW121272   3.612   2.492   0.763
 6791SOL    HW221273   3.724   2.595   0.822
 6792SOL     OW21274   6.535   5.797   5.921
 6792SOL    HW121275   6.532   5.835   6.014
 6792SOL    HW221276   6.546   5.872   5.855
 6793SOL     OW21277   0.850   2.488   0.189
 6793SOL    HW121278   0.859   2.525   0.282
 6793SOL    HW221279   0.756   2.460   0.173
 6794SOL     OW21280   5.239   1.161   4.866
 6794SOL    HW121281   5.259   1.174   4.769
 6794SOL    HW221282   5.292   1.226   4.920
 6795SOL     OW21283   2.252   5.928   0.783
 6795SOL    HW121284   2.188   6.000   0.757
 6795SOL    HW221285   2.345   5.964   0.782
 6796SOL     OW21286   5.897   0.607   2.729
 6796SOL    HW121287   5.862   0.676   2.793
 6796SOL    HW221288   5.909   0.649   2.639
 6797SOL     OW21289   4.969   3.163   1.458
 6797SOL    HW121290   4.890   3.215   1.490
 6797SOL    HW221291   4.959   3.067   1.484
 6798SOL     OW21292   5.875   6.266   3.240
 6798SOL    HW121293   5.887   6.306   3.150
 6798SOL    HW221294   5.892   6.167   3.235
 6799SOL     OW21295   6.339   5.692   6.950
 6799SOL    HW121296   6.376   5.636   6.875
 6799SOL    HW221297   6.320   5.633   0.004
 6800SOL     OW21298   2.474   4.601   0.791
 6800SOL    HW121299   2.447   4.577   0.884
 6800SOL    HW221300   2.543   4.536   0.759
 6801SOL     OW21301   1.672   1.356   2.382
 6801SOL    HW121302   1.680   1.407   2.468
 6801SOL    HW221303   1.578   1.363   2.349
 6802SOL     OW21304   2.923   5.857   0.435
 6802SOL    HW121305   2.839   5.890   0.392
 6802SOL    HW221306   2.903   5.824   0.527
 6803SOL     OW21307   4.423   2.427   6.405
 6803SOL    HW121308   4.339   2.434   6.458
 6803SOL    HW221309   4.497   2.393   6.464
 6804SOL     OW21310   2.394   5.131   3.797
 6804SOL    HW121311   2.401   5.165   3.890
 6804SOL    HW221312   2.316   5.069   3.789
 6805SOL     OW21313   5.923   5.860   4.535
 6805SOL    HW121314   5.964   5.802   4.464
 6805SOL    HW221315   5.828   5.881   4.509
 6806SOL     OW21316   5.478   1.208   3.799
 6806SOL    HW121317   5.474   1.169   3.891
 6806SOL    HW221318   5.519   1.142   3.737
 6807SOL     OW21319   2.684   3.524   0.995
 6807SOL    HW121320   2.645   3.441   0.955
 6807SOL    HW221321   2.782   3.528   0.976
 6808SOL     OW21322   0.485   2.768   5.138
 6808SOL    HW121323   0.563   2.720   5.099
 6808SOL    HW221324   0.400   2.728   5.103
 6809SOL     OW21325   2.040   3.538   0.648
 6809SOL    HW121326   1.987   3.554   0.731
 6809SOL    HW221327   1.984   3.491   0.581
 6810SOL     OW21328   1.552   0.331   2.002
 6810SOL    HW121329   1.592   0.422   1.996
 6810SOL    HW221330   1.606   0.267   1.948
 6811SOL     OW21331   4.702   3.964   0.076
 6811SOL    HW121332   4.797   3.996   0.071
 6811SOL    HW221333   4.669   3.943   7.008
 6812SOL     OW21334   3.630   3.137   3.298
 6812SOL    HW121335   3.570   3.168   3.225
 6812SOL    HW221336   3.627   3.203   3.373
 6813SOL     OW21337   4.643   1.862   2.242
 6813SOL    HW121338   4.545   1.859   2.225
 6813SOL    HW221339   4.690   1.800   2.179
 6814SOL     OW21340   3.106   3.182   0.538
 6814SOL    HW121341   3.029   3.120   0.542
 6814SOL    HW221342   3.104   3.243   0.617
 6815SOL     OW21343   3.044   0.499   1.000
 6815SOL    HW121344   3.119   0.562   0.983
 6815SOL    HW221345   2.959   0.537   0.963
 6816SOL     OW21346   0.038   5.899   6.802
 6816SOL    HW121347   0.128   5.857   6.797
 6816SOL    HW221348   6.997   5.836   6.844
 6817SOL     OW21349   6.665   2.182   5.407
 6817SOL    HW121350   6.715   2.168   5.321
 6817SOL    HW221351   6.729   2.175   5.484
 6818SOL     OW21352   2.572   5.923   1.922
 6818SOL    HW121353   2.590   5.969   2.009
 6818SOL    HW221354   2.629   5.842   1.913
 6819SOL     OW21355   4.535   1.502   4.182
 6819SOL    HW121356   4.631   1.519   4.201
 6819SOL    HW221357   4.479   1.573   4.225
 6820SOL     OW21358   1.378   5.167   3.026
 6820SOL    HW121359   1.282   5.194   3.024
 6820SOL    HW221360   1.386   5.069   3.008
 6821SOL     OW21361   3.092   1.612   5.586
 6821SOL    HW121362   3.093   1.614   5.486
 6821SOL    HW221363   3.086   1.706   5.620
 6822SOL     OW21364   5.666   1.954   5.670
 6822SOL    HW121365   5.676   1.956   5.770
 6822SOL    HW221366   5.635   1.863   5.642
 6823SOL     OW21367   4.032   3.333   3.944
 6823SOL    HW121368   4.058   3.274   3.868
 6823SOL    HW221369   3.936   3.316   3.968
 6824SOL     OW21370   0.700   3.006   6.166
 6824SOL    HW121371   0.661   2.956   6.243
 6824SOL    HW221372   0.747   2.941   6.105
 6825SOL     OW21373   5.379   6.543   2.500
 6825SOL    HW121374   5.377   6.623   2.440
 6825SOL    HW221375   5.327   6.468   2.459
 6826SOL     OW21376   2.258   4.217   2.952
 6826SOL    HW121377   2.187   4.258   3.010
 6826SOL    HW221378   2.233   4.231   2.856
 6827SOL     OW21379   4.777   5.887   0.560
 6827SOL    HW121380   4.680   5.898   0.581
 6827SOL    HW221381   4.809   5.964   0.504
 6828SOL     OW21382   2.400   1.818   1.334
 6828SOL    HW121383   2.330   1.769   1.387
 6828SOL    HW221384   2.446   1.753   1.273
 6829SOL     OW21385   4.721   6.917   4.317
 6829SOL    HW121386   4.807   6.877   4.349
 6829SOL    HW221387   4.724   7.016   4.330
 6830SOL     OW21388   5.812   1.260   3.507
 6830SOL    HW121389   5.758   1.192   3.558
 6830SOL    HW221390   5.893   1.216   3.469
 6831SOL     OW21391   0.820   0.219   5.899
 6831SOL    HW121392   0.918   0.201   5.898
 6831SOL    HW221393   0.776   0.166   5.826
 6832SOL     OW21394   2.769   4.507   1.448
 6832SOL    HW121395   2.719   4.590   1.422
 6832SOL    HW221396   2.735   4.473   1.535
 6833SOL     OW21397   4.208   4.968   6.908
 6833SOL    HW121398   4.207   4.904   6.831
 6833SOL    HW221399   4.207   4.917   6.994
 6834SOL     OW21400   4.994   6.959   1.421
 6834SOL    HW121401   5.015   0.009   1.486
 6834SOL    HW221402   4.921   6.902   1.458
 6835SOL     OW21403   4.406   6.995   5.264
 6835SOL    HW121404   4.403   0.006   5.171
 6835SOL    HW221405   4.384   6.898   5.264
 6836SOL     OW21406   3.167   5.920   0.555
 6836SOL    HW121407   3.095   5.884   0.495
 6836SOL    HW221408   3.130   5.997   0.608
 6837SOL     OW21409   1.312   2.772   2.082
 6837SOL    HW121410   1.299   2.730   2.171
 6837SOL    HW221411   1.273   2.865   2.083
 6838SOL     OW21412   1.628   0.027   0.870
 6838SOL    HW121413   1.645   6.969   0.925
 6838SOL    HW221414   1.696   0.096   0.891
 6839SOL     OW21415   5.187   0.954   0.452
 6839SOL    HW121416   5.145   0.894   0.384
 6839SOL    HW221417   5.201   0.903   0.537
 6840SOL     OW21418   2.284   1.719   5.181
 6840SOL    HW121419   2.369   1.678   5.146
 6840SOL    HW221420   2.264   1.803   5.130
 6841SOL     OW21421   5.143   3.683   6.301
 6841SOL    HW121422   5.093   3.597   6.310
 6841SOL    HW221423   5.125   3.722   6.210
 6842SOL     OW21424   2.663   4.647   1.130
 6842SOL    HW121425   2.567   4.633   1.103
 6842SOL    HW221426   2.671   4.735   1.177
 6843SOL     OW21427   5.572   6.761   6.877
 6843SOL    HW121428   5.481   6.755   6.835
 6843SOL    HW221429   5.626   6.832   6.831
 6844SOL     OW21430   5.640   1.183   4.507
 6844SOL    HW121431   5.717   1.162   4.446
 6844SOL    HW221432   5.624   1.282   4.507
 6845SOL     OW21433   6.338   2.840   2.936
 6845SOL    HW121434   6.312   2.837   2.839
 6845SOL    HW221435   6.380   2.753   2.962
 6846SOL     OW21436   3.143   4.327   6.742
 6846SOL    HW121437   3.162   4.381   6.659
 6846SOL    HW221438   3.058   4.276   6.729
 6847SOL     OW21439   6.936   3.378   4.967
 6847SOL    HW121440   6.841   3.397   4.940
 6847SOL    HW221441   6.944   3.282   4.993
 6848SOL     OW21442   5.352   4.274   4.165
 6848SOL    HW121443   5.373   4.251   4.260
 6848SOL    HW221444   5.360   4.192   4.109
 6849SOL     OW21445   3.628   4.439   5.757
 6849SOL    HW121446   3.660   4.396   5.672
 6849SOL    HW221447   3.564   4.378   5.804
 6850SOL     OW21448   4.342   2.438   2.980
 6850SOL    HW121449   4.345   2.370   3.053
 6850SOL    HW221450   4.344   2.530   3.019
 6851SOL     OW21451   1.327   2.694   2.520
 6851SOL    HW121452   1.289   2.666   2.432
 6851SOL    HW221453   1.253   2.729   2.578
 6852SOL     OW21454   2.743   5.332   1.447
 6852SOL    HW121455   2.805   5.410   1.451
 6852SOL    HW221456   2.653   5.361   1.413
 6853SOL     OW21457   5.286   3.616   6.014
 6853SOL    HW121458   5.250   3.526   6.039
 6853SOL    HW221459   5.384   3.620   6.035
 6854SOL     OW21460   5.871   6.903   5.643
 6854SOL    HW121461   5.894   6.946   5.730
 6854SOL    HW221462   5.794   6.840   5.656
 6855SOL     OW21463   4.580   5.673   3.684
 6855SOL    HW121464   4.619   5.594   3.635
 6855SOL    HW221465   4.638   5.753   3.670
 6856SOL     OW21466   0.424   2.498   5.750
 6856SOL    HW121467   0.438   2.566   5.821
 6856SOL    HW221468   0.512   2.462   5.719
 6857SOL     OW21469   0.754   3.537   6.649
 6857SOL    HW121470   0.684   3.476   6.611
 6857SOL    HW221471   0.780   3.505   6.740
 6858SOL     OW21472   3.405   4.548   1.666
 6858SOL    HW121473   3.324   4.597   1.698
 6858SOL    HW221474   3.486   4.587   1.710
 6859SOL     OW21475   1.104   1.164   2.110
 6859SOL    HW121476   1.199   1.133   2.102
 6859SOL    HW221477   1.086   1.236   2.042
 6860SOL     OW21478   6.753   4.583   2.130
 6860SOL    HW121479   6.721   4.675   2.151
 6860SOL    HW221480   6.676   4.526   2.102
 6861SOL     OW21481   4.805   3.641   6.082
 6861SOL    HW121482   4.892   3.672   6.120
 6861SOL    HW221483   4.815   3.625   5.984
 6862SOL     OW21484   0.997   5.289   5.652
 6862SOL    HW121485   1.014   5.315   5.747
 6862SOL    HW221486   1.061   5.215   5.626
 6863SOL     OW21487   0.175   5.969   5.062
 6863SOL    HW121488   0.240   6.037   5.027
 6863SOL    HW221489   0.221   5.907   5.125
 6864SOL     OW21490   1.865   4.408   5.906
 6864SOL    HW121491   1.857   4.309   5.920
 6864SOL    HW221492   1.879   4.427   5.809
 6865SOL     OW21493   1.927   0.470   5.373
 6865SOL    HW121494   2.003   0.535   5.377
 6865SOL    HW221495   1.920   0.421   5.460
 6866SOL     OW21496   6.142   4.208   2.306
 6866SOL    HW121497   6.199   4.139   2.262
 6866SOL    HW221498   6.183   4.298   2.295
 6867SOL     OW21499   1.976   4.156   1.389
 6867SOL    HW121500   2.034   4.212   1.329
 6867SOL    HW221501   2.023   4.071   1.411
 6868SOL     OW21502   2.204   6.155   5.298
 6868SOL    HW121503   2.189   6.079   5.236
 6868SOL    HW221504   2.159   6.237   5.262
 6869SOL     OW21505   4.106   0.088   5.851
 6869SOL    HW121506   4.053   0.170   5.831
 6869SOL    HW221507   4.142   0.093   5.945
 6870SOL     OW21508   0.761   3.554   0.421
 6870SOL    HW121509   0.713   3.603   0.493
 6870SOL    HW221510   0.743   3.457   0.428
 6871SOL     OW21511   0.108   3.931   2.463
 6871SOL    HW121512   0.109   3.865   2.387
 6871SOL    HW221513   0.201   3.945   2.496
 6872SOL     OW21514   1.089   2.425   2.109
 6872SOL    HW121515   1.159   2.494   2.130
 6872SOL    HW221516   1.031   2.458   2.035
 6873SOL     OW21517   0.907   3.857   3.863
 6873SOL    HW121518   1.000   3.837   3.831
 6873SOL    HW221519   0.886   3.795   3.939
 6874SOL     OW21520   6.366   5.946   3.443
 6874SOL    HW121521   6.292   5.996   3.399
 6874SOL    HW221522   6.426   6.011   3.490
 6875SOL     OW21523   2.028   2.320   1.906
 6875SOL    HW121524   2.030   2.224   1.936
 6875SOL    HW221525   2.050   2.379   1.983
 6876SOL     OW21526   3.177   0.270   3.526
 6876SOL    HW121527   3.243   0.345   3.521
 6876SOL    HW221528   3.185   0.225   3.615
 6877SOL     OW21529   3.037   4.559   1.417
 6877SOL    HW121530   3.068   4.467   1.393
 6877SOL    HW221531   2.937   4.559   1.426
 6878SOL     OW21532   2.571   1.628   3.935
 6878SOL    HW121533   2.566   1.535   3.972
 6878SOL    HW221534   2.596   1.692   4.008
 6879SOL     OW21535   1.855   2.646   6.875
 6879SOL    HW121536   1.891   2.673   6.964
 6879SOL    HW221537   1.768   2.693   6.858
 6880SOL     OW21538   1.262   5.848   6.356
 6880SOL    HW121539   1.249   5.856   6.455
 6880SOL    HW221540   1.185   5.799   6.316
 6881SOL     OW21541   1.485   3.671   1.446
 6881SOL    HW121542   1.541   3.733   1.500
 6881SOL    HW221543   1.530   3.582   1.438
 6882SOL     OW21544   2.962   1.341   0.101
 6882SOL    HW121545   2.977   1.374   0.007
 6882SOL    HW221546   2.923   1.249   0.098
 6883SOL     OW21547   5.421   0.269   5.749
 6883SOL    HW121548   5.345   0.329   5.722
 6883SOL    HW221549   5.506   0.322   5.750
 6884SOL     OW21550   1.680   4.260   2.994
 6884SOL    HW121551   1.776   4.262   2.969
 6884SOL    HW221552   1.626   4.223   2.919
 6885SOL     OW21553   4.814   4.987   4.114
 6885SOL    HW121554   4.731   4.992   4.170
 6885SOL    HW221555   4.895   4.998   4.172
 6886SOL     OW21556   6.359   1.562   4.998
 6886SOL    HW121557   6.455   1.568   4.967
 6886SOL    HW221558   6.357   1.551   5.097
 6887SOL     OW21559   4.693   5.926   0.210
 6887SOL    HW121560   4.686   5.993   0.136
 6887SOL    HW221561   4.603   5.914   0.252
 6888SOL     OW21562   5.287   4.405   6.235
 6888SOL    HW121563   5.221   4.415   6.309
 6888SOL    HW221564   5.368   4.356   6.268
 6889SOL     OW21565   1.592   2.436   5.867
 6889SOL    HW121566   1.623   2.432   5.962
 6889SOL    HW221567   1.648   2.502   5.817
 6890SOL     OW21568   3.745   5.772   2.897
 6890SOL    HW121569   3.727   5.764   2.799
 6890SOL    HW221570   3.786   5.688   2.931
 6891SOL     OW21571   2.686   2.650   1.249
 6891SOL    HW121572   2.671   2.702   1.332
 6891SOL    HW221573   2.682   2.711   1.170
 6892SOL     OW21574   3.109   1.410   3.957
 6892SOL    HW121575   3.053   1.358   4.022
 6892SOL    HW221576   3.122   1.356   3.874
 6893SOL     OW21577   6.237   3.509   6.914
 6893SOL    HW121578   6.310   3.539   6.852
 6893SOL    HW221579   6.273   3.503   7.007
 6894SOL     OW21580   5.606   3.906   1.188
 6894SOL    HW121581   5.524   3.862   1.151
 6894SOL    HW221582   5.596   3.920   1.286
 6895SOL     OW21583   1.758   5.984   0.967
 6895SOL    HW121584   1.853   5.982   0.996
 6895SOL    HW221585   1.744   6.062   0.906
 6896SOL     OW21586   3.480   1.649   3.796
 6896SOL    HW121587   3.563   1.702   3.781
 6896SOL    HW221588   3.445   1.667   3.887
 6897SOL     OW21589   4.750   4.078   5.161
 6897SOL    HW121590   4.823   4.035   5.107
 6897SOL    HW221591   4.784   4.099   5.252
 6898SOL     OW21592   3.071   0.939   1.446
 6898SOL    HW121593   3.164   0.953   1.481
 6898SOL    HW221594   3.015   1.018   1.468
 6899SOL     OW21595   5.154   6.055   3.181
 6899SOL    HW121596   5.133   6.150   3.206
 6899SOL    HW221597   5.223   6.053   3.109
 6900SOL     OW21598   6.600   4.897   6.235
 6900SOL    HW121599   6.563   4.814   6.193
 6900SOL    HW221600   6.648   4.950   6.166
 6901SOL     OW21601   4.647   5.490   6.662
 6901SOL    HW121602   4.641   5.477   6.761
 6901SOL    HW221603   4.554   5.494   6.624
 6902SOL     OW21604   6.797   5.764   5.538
 6902SOL    HW121605   6.818   5.851   5.492
 6902SOL    HW221606   6.699   5.745   5.528
 6903SOL     OW21607   2.921   5.017   5.195
 6903SOL    HW121608   2.881   5.084   5.257
 6903SOL    HW221609   2.918   4.926   5.237
 6904SOL     OW21610   0.121   6.285   5.146
 6904SOL    HW121611   0.026   6.264   5.124
 6904SOL    HW221612   0.179   6.265   5.067
 6905SOL     OW21613   5.870   5.558   0.040
 6905SOL    HW121614   5.880   5.466   0.078
 6905SOL    HW221615   5.944   5.574   6.998
 6906SOL     OW21616   3.082   1.943   3.444
 6906SOL    HW121617   3.101   1.864   3.385
 6906SOL    HW221618   3.085   1.915   3.540
 6907SOL     OW21619   6.119   1.936   1.637
 6907SOL    HW121620   6.072   1.850   1.617
 6907SOL    HW221621   6.056   2.000   1.681
 6908SOL     OW21622   2.492   4.338   0.076
 6908SOL    HW121623   2.400   4.315   0.045
 6908SOL    HW221624   2.557   4.271   0.042
 6909SOL     OW21625   4.740   5.017   2.228
 6909SOL    HW121626   4.809   5.074   2.271
 6909SOL    HW221627   4.775   4.923   2.219
 6910SOL     OW21628   1.590   2.843   3.007
 6910SOL    HW121629   1.548   2.808   2.923
 6910SOL    HW221630   1.675   2.891   2.984
 6911SOL     OW21631   3.956   0.277   5.021
 6911SOL    HW121632   3.978   0.201   5.082
 6911SOL    HW221633   4.040   0.314   4.982
 6912SOL     OW21634   2.712   3.205   6.179
 6912SOL    HW121635   2.790   3.213   6.116
 6912SOL    HW221636   2.654   3.129   6.150
 6913SOL     OW21637   5.428   6.053   5.039
 6913SOL    HW121638   5.418   6.153   5.036
 6913SOL    HW221639   5.503   6.025   4.980
 6914SOL     OW21640   5.876   4.217   2.259
 6914SOL    HW121641   5.848   4.124   2.281
 6914SOL    HW221642   5.975   4.226   2.271
 6915SOL     OW21643   0.920   2.793   1.865
 6915SOL    HW121644   0.919   2.817   1.962
 6915SOL    HW221645   0.912   2.877   1.810
 6916SOL     OW21646   5.352   1.312   5.616
 6916SOL    HW121647   5.378   1.220   5.586
 6916SOL    HW221648   5.252   1.323   5.609
 6917SOL     OW21649   5.030   5.753   1.893
 6917SOL    HW121650   5.056   5.849   1.889
 6917SOL    HW221651   5.106   5.699   1.930
 6918SOL     OW21652   0.629   2.966   2.993
 6918SOL    HW121653   0.549   2.995   2.940
 6918SOL    HW221654   0.706   2.950   2.932
 6919SOL     OW21655   6.328   6.448   3.228
 6919SOL    HW121656   6.329   6.348   3.229
 6919SOL    HW221657   6.415   6.484   3.262
 6920SOL     OW21658   5.434   6.607   5.504
 6920SOL    HW121659   5.520   6.627   5.552
 6920SOL    HW221660   5.381   6.691   5.494
 6921SOL     OW21661   3.994   0.356   4.402
 6921SOL    HW121662   4.067   0.345   4.470
 6921SOL    HW221663   3.996   0.278   4.339
 6922SOL     OW21664   1.993   6.139   4.748
 6922SOL    HW121665   2.064   6.098   4.690
 6922SOL    HW221666   1.912   6.159   4.693
 6923SOL     OW21667   6.017   6.310   2.278
 6923SOL    HW121668   6.029   6.216   2.246
 6923SOL    HW221669   6.105   6.358   2.275
 6924SOL     OW21670   2.985   5.303   1.306
 6924SOL    HW121671   2.910   5.292   1.371
 6924SOL    HW221672   3.029   5.214   1.292
 6925SOL     OW21673   4.840   6.174   6.087
 6925SOL    HW121674   4.931   6.213   6.078
 6925SOL    HW221675   4.802   6.154   5.997
 6926SOL     OW21676   2.212   2.033   0.215
 6926SOL    HW121677   2.219   2.062   0.119
 6926SOL    HW221678   2.151   2.095   0.264
 6927SOL     OW21679   4.021   0.842   0.217
 6927SOL    HW121680   3.986   0.861   0.125
 6927SOL    HW221681   3.995   0.917   0.278
 6928SOL     OW21682   5.078   5.318   1.290
 6928SOL    HW121683   5.039   5.299   1.200
 6928SOL    HW221684   5.178   5.315   1.285
 6929SOL     OW21685   5.575   5.330   1.420
 6929SOL    HW121686   5.627   5.415   1.423
 6929SOL    HW221687   5.493   5.339   1.476
 6930SOL     OW21688   0.753   1.237   0.287
 6930SOL    HW121689   0.794   1.212   0.375
 6930SOL    HW221690   0.722   1.154   0.240
 6931SOL     OW21691   1.762   2.110   0.690
 6931SOL    HW121692   1.771   2.019   0.729
 6931SOL    HW221693   1.843   2.165   0.714
 6932SOL     OW21694   4.859   5.028   0.910
 6932SOL    HW121695   4.764   5.059   0.912
 6932SOL    HW221696   4.874   4.961   0.982
 6933SOL     OW21697   3.871   6.584   6.375
 6933SOL    HW121698   3.870   6.670   6.425
 6933SOL    HW221699   3.864   6.601   6.277
 6934SOL     OW21700   5.017   3.445   6.377
 6934SOL    HW121701   4.990   3.349   6.380
 6934SOL    HW221702   4.942   3.502   6.412
 6935SOL     OW21703   4.676   5.421   2.887
 6935SOL    HW121704   4.703   5.455   2.977
 6935SOL    HW221705   4.596   5.472   2.855
 6936SOL     OW21706   0.208   2.237   4.189
 6936SOL    HW121707   0.170   2.235   4.096
 6936SOL    HW221708   0.167   2.164   4.243
 6937SOL     OW21709   5.470   6.059   0.700
 6937SOL    HW121710   5.530   5.979   0.707
 6937SOL    HW221711   5.464   6.104   0.789
 6938SOL     OW21712   0.452   1.303   4.791
 6938SOL    HW121713   0.385   1.273   4.857
 6938SOL    HW221714   0.416   1.382   4.740
 6939SOL     OW21715   6.244   5.254   3.476
 6939SOL    HW121716   6.292   5.327   3.426
 6939SOL    HW221717   6.311   5.189   3.511
 6940SOL     OW21718   4.811   6.782   0.355
 6940SOL    HW121719   4.868   6.718   0.303
 6940SOL    HW221720   4.823   6.766   0.453
 6941SOL     OW21721   2.950   3.678   2.275
 6941SOL    HW121722   2.888   3.620   2.329
 6941SOL    HW221723   3.042   3.640   2.279
 6942SOL     OW21724   5.947   6.607   1.700
 6942SOL    HW121725   6.043   6.591   1.678
 6942SOL    HW221726   5.889   6.561   1.633
 6943SOL     OW21727   4.359   4.984   0.418
 6943SOL    HW121728   4.451   4.996   0.382
 6943SOL    HW221729   4.353   4.896   0.466
 6944SOL     OW21730   1.212   4.800   6.359
 6944SOL    HW121731   1.160   4.868   6.307
 6944SOL    HW221732   1.193   4.708   6.323
 6945SOL     OW21733   6.607   2.306   0.667
 6945SOL    HW121734   6.649   2.217   0.686
 6945SOL    HW221735   6.630   2.370   0.740
 6946SOL     OW21736   4.007   6.120   1.904
 6946SOL    HW121737   4.043   6.056   1.972
 6946SOL    HW221738   3.918   6.088   1.872
 6947SOL     OW21739   4.290   5.535   6.148
 6947SOL    HW121740   4.365   5.503   6.091
 6947SOL    HW221741   4.279   5.473   6.226
 6948SOL     OW21742   6.922   6.429   1.430
 6948SOL    HW121743   6.944   6.519   1.470
 6948SOL    HW221744   6.877   6.442   1.342
 6949SOL     OW21745   2.597   2.499   2.958
 6949SOL    HW121746   2.511   2.541   2.986
 6949SOL    HW221747   2.665   2.512   3.031
 6950SOL     OW21748   1.681   0.139   4.307
 6950SOL    HW121749   1.605   0.201   4.327
 6950SOL    HW221750   1.766   0.191   4.302
 6951SOL     OW21751   6.147   5.204   6.445
 6951SOL    HW121752   6.172   5.138   6.516
 6951SOL    HW221753   6.223   5.267   6.428
 6952SOL     OW21754   2.569   4.587   3.479
 6952SOL    HW121755   2.668   4.597   3.487
 6952SOL    HW221756   2.541   4.608   3.385
 6953SOL     OW21757   5.219   6.773   0.412
 6953SOL    HW121758   5.260   6.807   0.497
 6953SOL    HW221759   5.235   6.840   0.339
 6954SOL     OW21760   6.876   3.540   1.140
 6954SOL    HW121761   6.901   3.512   1.232
 6954SOL    HW221762   6.831   3.629   1.143
 6955SOL     OW21763   5.115   0.422   2.435
 6955SOL    HW121764   5.088   0.483   2.361
 6955SOL    HW221765   5.212   0.434   2.454
 6956SOL     OW21766   5.972   5.446   2.797
 6956SOL    HW121767   6.062   5.457   2.841
 6956SOL    HW221768   5.905   5.417   2.866
 6957SOL     OW21769   5.146   5.780   6.600
 6957SOL    HW121770   5.084   5.710   6.562
 6957SOL    HW221771   5.226   5.735   6.638
 6958SOL     OW21772   3.612   3.793   4.168
 6958SOL    HW121773   3.525   3.804   4.121
 6958SOL    HW221774   3.619   3.860   4.242
 6959SOL     OW21775   1.494   4.076   2.496
 6959SOL    HW121776   1.551   4.093   2.416
 6959SOL    HW221777   1.397   4.086   2.471
 6960SOL     OW21778   1.729   4.722   1.042
 6960SOL    HW121779   1.659   4.761   1.102
 6960SOL    HW221780   1.806   4.690   1.097
 6961SOL     OW21781   4.743   0.876   4.440
 6961SOL    HW121782   4.731   0.840   4.347
 6961SOL    HW221783   4.838   0.903   4.453
 6962SOL     OW21784   3.455   6.284   0.619
 6962SOL    HW121785   3.395   6.253   0.545
 6962SOL    HW221786   3.399   6.322   0.693
 6963SOL     OW21787   5.376   5.716   6.724
 6963SOL    HW121788   5.464   5.750   6.693
 6963SOL    HW221789   5.377   5.707   6.824
 6964SOL     OW21790   3.235   0.055   5.633
 6964SOL    HW121791   3.260   0.061   5.730
 6964SOL    HW221792   3.177   0.133   5.609
 6965SOL     OW21793   1.449   1.879   6.595
 6965SOL    HW121794   1.520   1.874   6.524
 6965SOL    HW221795   1.376   1.814   6.574
 6966SOL     OW21796   1.611   0.914   2.323
 6966SOL    HW121797   1.676   0.858   2.376
 6966SOL    HW221798   1.600   1.003   2.367
 6967SOL     OW21799   4.000   1.269   5.609
 6967SOL    HW121800   3.908   1.232   5.591
 6967SOL    HW221801   3.995   1.369   5.615
 6968SOL     OW21802   2.909   0.341   2.831
 6968SOL    HW121803   2.944   0.358   2.739
 6968SOL    HW221804   2.812   0.319   2.827
 6969SOL     OW21805   3.060   2.044   0.819
 6969SOL    HW121806   3.035   1.949   0.837
 6969SOL    HW221807   2.989   2.105   0.854
 6970SOL     OW21808   3.528   4.948   5.754
 6970SOL    HW121809   3.580   4.965   5.837
 6970SOL    HW221810   3.544   4.853   5.724
 6971SOL     OW21811   5.280   4.725   1.527
 6971SOL    HW121812   5.228   4.725   1.441
 6971SOL    HW221813   5.237   4.664   1.593
 6972SOL     OW21814   5.214   3.525   2.869
 6972SOL    HW121815   5.256   3.526   2.959
 6972SOL    HW221816   5.115   3.532   2.878
 6973SOL     OW21817   0.975   2.413   3.197
 6973SOL    HW121818   1.045   2.443   3.262
 6973SOL    HW221819   0.895   2.473   3.203
 6974SOL     OW21820   2.899   3.607   2.681
 6974SOL    HW121821   2.882   3.524   2.627
 6974SOL    HW221822   2.982   3.652   2.648
 6975SOL     OW21823   2.689   5.811   4.776
 6975SOL    HW121824   2.707   5.850   4.866
 6975SOL    HW221825   2.731   5.869   4.706
 6976SOL     OW21826   5.318   3.868   5.570
 6976SOL    HW121827   5.269   3.866   5.657
 6976SOL    HW221828   5.312   3.960   5.531
 6977SOL     OW21829   4.050   4.377   1.669
 6977SOL    HW121830   4.037   4.278   1.661
 6977SOL    HW221831   3.962   4.422   1.683
 6978SOL     OW21832   5.262   2.915   1.039
 6978SOL    HW121833   5.171   2.898   1.002
 6978SOL    HW221834   5.313   2.829   1.043
 6979SOL     OW21835   1.406   3.145   1.293
 6979SOL    HW121836   1.311   3.150   1.262
 6979SOL    HW221837   1.455   3.075   1.240
 6980SOL     OW21838   1.624   0.910   3.443
 6980SOL    HW121839   1.676   0.971   3.383
 6980SOL    HW221840   1.532   0.948   3.457
 6981SOL     OW21841   3.409   3.410   6.527
 6981SOL    HW121842   3.342   3.422   6.600
 6981SOL    HW221843   3.362   3.390   6.441
 6982SOL     OW21844   1.227   0.859   3.404
 6982SOL    HW121845   1.150   0.920   3.385
 6982SOL    HW221846   1.257   0.816   3.318
 6983SOL     OW21847   4.499   1.526   5.232
 6983SOL    HW121848   4.525   1.476   5.149
 6983SOL    HW221849   4.495   1.462   5.309
 6984SOL     OW21850   1.767   1.838   2.537
 6984SOL    HW121851   1.767   1.851   2.637
 6984SOL    HW221852   1.811   1.916   2.494
 6985SOL     OW21853   6.343   4.602   0.569
 6985SOL    HW121854   6.270   4.617   0.503
 6985SOL    HW221855   6.425   4.651   0.541
 6986SOL     OW21856   3.656   6.508   6.508
 6986SOL    HW121857   3.743   6.521   6.459
 6986SOL    HW221858   3.583   6.491   6.442
 6987SOL     OW21859   6.929   1.885   5.713
 6987SOL    HW121860   6.893   1.916   5.802
 6987SOL    HW221861   6.898   1.947   5.641
 6988SOL     OW21862   2.385   0.439   5.875
 6988SOL    HW121863   2.322   0.421   5.951
 6988SOL    HW221864   2.333   0.468   5.795
 6989SOL     OW21865   6.308   4.533   2.261
 6989SOL    HW121866   6.351   4.590   2.191
 6989SOL    HW221867   6.378   4.490   2.318
 6990SOL     OW21868   3.872   3.033   1.912
 6990SOL    HW121869   3.915   3.121   1.932
 6990SOL    HW221870   3.900   3.003   1.821
 6991SOL     OW21871   5.249   4.688   3.495
 6991SOL    HW121872   5.210   4.620   3.558
 6991SOL    HW221873   5.347   4.699   3.514
 6992SOL     OW21874   7.020   6.224   0.585
 6992SOL    HW121875   6.962   6.184   0.655
 6992SOL    HW221876   7.014   6.324   0.588
 6993SOL     OW21877   6.297   0.527   1.570
 6993SOL    HW121878   6.356   0.485   1.501
 6993SOL    HW221879   6.245   0.456   1.617
 6994SOL     OW21880   1.674   0.274   3.936
 6994SOL    HW121881   1.627   0.312   4.015
 6994SOL    HW221882   1.699   0.347   3.872
 6995SOL     OW21883   0.589   3.711   0.620
 6995SOL    HW121884   0.622   3.798   0.585
 6995SOL    HW221885   0.536   3.727   0.704
 6996SOL     OW21886   1.185   0.132   0.143
 6996SOL    HW121887   1.161   0.174   0.230
 6996SOL    HW221888   1.285   0.129   0.134
 6997SOL     OW21889   0.086   4.788   5.367
 6997SOL    HW121890   0.048   4.847   5.296
 6997SOL    HW221891   0.153   4.839   5.421
 6998SOL     OW21892   0.279   1.503   1.456
 6998SOL    HW121893   0.335   1.448   1.394
 6998SOL    HW221894   0.185   1.469   1.457
 6999SOL     OW21895   0.291   2.418   6.451
 6999SOL    HW121896   0.202   2.421   6.406
 6999SOL    HW221897   0.321   2.510   6.472
 7000SOL     OW21898   6.166   0.131   2.540
 7000SOL    HW121899   6.197   0.172   2.626
 7000SOL    HW221900   6.068   0.150   2.528
 7001SOL     OW21901   1.008   1.683   4.933
 7001SOL    HW121902   0.998   1.771   4.886
 7001SOL    HW221903   0.994   1.609   4.867
 7002SOL     OW21904   1.252   5.583   3.756
 7002SOL    HW121905   1.278   5.680   3.755
 7002SOL    HW221906   1.285   5.539   3.672
 7003SOL     OW21907   5.723   4.527   1.282
 7003SOL    HW121908   5.634   4.549   1.321
 7003SOL    HW221909   5.750   4.435   1.310
 7004SOL     OW21910   1.314   5.487   0.650
 7004SOL    HW121911   1.280   5.399   0.684
 7004SOL    HW221912   1.322   5.483   0.551
 7005SOL     OW21913   0.877   6.804   6.576
 7005SOL    HW121914   0.867   6.877   6.644
 7005SOL    HW221915   0.909   6.842   6.490
 7006SOL     OW21916   6.565   6.566   3.477
 7006SOL    HW121917   6.618   6.484   3.457
 7006SOL    HW221918   6.625   6.646   3.477
 7007SOL     OW21919   4.430   0.600   5.741
 7007SOL    HW121920   4.482   0.648   5.670
 7007SOL    HW221921   4.484   0.596   5.825
 7008SOL     OW21922   6.438   4.389   3.934
 7008SOL    HW121923   6.533   4.403   3.907
 7008SOL    HW221924   6.398   4.476   3.964
 7009SOL     OW21925   4.189   6.606   2.038
 7009SOL    HW121926   4.260   6.672   2.013
 7009SOL    HW221927   4.099   6.643   2.012
 7010SOL     OW21928   5.710   3.949   2.933
 7010SOL    HW121929   5.681   3.933   2.839
 7010SOL    HW221930   5.794   4.003   2.934
 7011SOL     OW21931   3.953   6.696   0.828
 7011SOL    HW121932   4.050   6.719   0.819
 7011SOL    HW221933   3.907   6.766   0.882
 7012SOL     OW21934   1.361   2.990   0.969
 7012SOL    HW121935   1.272   2.983   1.012
 7012SOL    HW221936   1.416   2.909   0.993
 7013SOL     OW21937   2.337   0.916   6.790
 7013SOL    HW121938   2.410   0.899   6.722
 7013SOL    HW221939   2.263   0.851   6.776
 7014SOL     OW21940   6.026   3.597   1.419
 7014SOL    HW121941   6.026   3.525   1.488
 7014SOL    HW221942   6.019   3.686   1.463
 7015SOL     OW21943   5.865   4.590   2.726
 7015SOL    HW121944   5.825   4.618   2.813
 7015SOL    HW221945   5.800   4.606   2.652
 7016SOL     OW21946   3.118   5.444   1.071
 7016SOL    HW121947   3.213   5.421   1.091
 7016SOL    HW221948   3.060   5.414   1.147
 7017SOL     OW21949   3.883   5.098   3.253
 7017SOL    HW121950   3.844   5.039   3.324
 7017SOL    HW221951   3.982   5.103   3.264
 7018SOL     OW21952   5.471   3.454   3.828
 7018SOL    HW121953   5.500   3.456   3.924
 7018SOL    HW221954   5.499   3.368   3.787
 7019SOL     OW21955   4.746   5.360   2.563
 7019SOL    HW121956   4.798   5.437   2.526
 7019SOL    HW221957   4.734   5.372   2.661
 7020SOL     OW21958   0.264   3.645   6.751
 7020SOL    HW121959   0.363   3.657   6.744
 7020SOL    HW221960   0.219   3.706   6.685
 7021SOL     OW21961   1.094   2.795   4.814
 7021SOL    HW121962   1.178   2.742   4.825
 7021SOL    HW221963   1.089   2.831   4.721
 7022SOL     OW21964   4.365   0.759   0.110
 7022SOL    HW121965   4.375   0.673   0.160
 7022SOL    HW221966   4.268   0.778   0.097
 7023SOL     OW21967   0.319   2.288   1.820
 7023SOL    HW121968   0.259   2.364   1.844
 7023SOL    HW221969   0.266   2.217   1.773
 7024SOL     OW21970   3.703   2.944   3.763
 7024SOL    HW121971   3.770   2.938   3.689
 7024SOL    HW221972   3.750   2.962   3.849
 7025SOL     OW21973   3.370   0.643   0.265
 7025SOL    HW121974   3.455   0.662   0.313
 7025SOL    HW221975   3.341   0.723   0.214
 7026SOL     OW21976   3.537   1.630   1.678
 7026SOL    HW121977   3.503   1.665   1.765
 7026SOL    HW221978   3.534   1.703   1.610
 7027SOL     OW21979   2.410   6.004   3.620
 7027SOL    HW121980   2.314   5.979   3.636
 7027SOL    HW221981   2.458   5.924   3.585
 7028SOL     OW21982   2.279   0.421   3.209
 7028SOL    HW121983   2.362   0.476   3.222
 7028SOL    HW221984   2.214   0.443   3.281
 7029SOL     OW21985   2.985   3.712   5.709
 7029SOL    HW121986   3.038   3.728   5.626
 7029SOL    HW221987   2.968   3.614   5.721
 7030SOL     OW21988   0.876   2.134   4.843
 7030SOL    HW121989   0.859   2.126   4.744
 7030SOL    HW221990   0.794   2.170   4.888
 7031SOL     OW21991   4.507   6.471   0.325
 7031SOL    HW121992   4.474   6.525   0.247
 7031SOL    HW221993   4.507   6.528   0.407
 7032SOL     OW21994   4.249   0.628   4.363
 7032SOL    HW121995   4.217   0.684   4.440
 7032SOL    HW221996   4.268   0.535   4.395
 7033SOL     OW21997   1.558   2.782   4.311
 7033SOL    HW121998   1.592   2.767   4.219
 7033SOL    HW221999   1.596   2.867   4.348
 7034SOL     OW22000   6.515   2.600   3.291
 7034SOL    HW122001   6.562   2.688   3.286
 7034SOL    HW222002   6.422   2.610   3.258
 7035SOL     OW22003   2.023   0.044   1.968
 7035SOL    HW122004   2.028   0.133   2.015
 7035SOL    HW222005   2.069   0.051   1.880
 7036SOL     OW22006   0.374   2.135   2.515
 7036SOL    HW122007   0.311   2.081   2.571
 7036SOL    HW222008   0.468   2.108   2.536
 7037SOL     OW22009   0.431   0.740   5.541
 7037SOL    HW122010   0.423   0.840   5.552
 7037SOL    HW222011   0.352   0.696   5.583
 7038SOL     OW22012   2.971   4.448   5.602
 7038SOL    HW122013   2.912   4.464   5.523
 7038SOL    HW222014   2.944   4.363   5.647
 7039SOL     OW22015   1.023   5.180   3.877
 7039SOL    HW122016   0.929   5.150   3.863
 7039SOL    HW222017   1.086   5.115   3.834
 7040SOL     OW22018   4.543   2.249   5.108
 7040SOL    HW122019   4.576   2.181   5.043
 7040SOL    HW222020   4.614   2.316   5.125
 7041SOL     OW22021   1.358   1.441   3.446
 7041SOL    HW122022   1.360   1.510   3.374
 7041SOL    HW222023   1.353   1.350   3.404
 7042SOL     OW22024   4.686   6.064   4.763
 7042SOL    HW122025   4.725   6.000   4.829
 7042SOL    HW222026   4.644   6.013   4.688
 7043SOL     OW22027   2.236   4.213   4.037
 7043SOL    HW122028   2.241   4.123   3.992
 7043SOL    HW222029   2.169   4.270   3.989
 7044SOL     OW22030   4.843   6.964   4.836
 7044SOL    HW122031   4.796   6.999   4.916
 7044SOL    HW222032   4.782   6.965   4.757
 7045SOL     OW22033   5.937   5.370   2.546
 7045SOL    HW122034   5.850   5.419   2.537
 7045SOL    HW222035   5.976   5.389   2.637
 7046SOL     OW22036   3.392   2.096   4.268
 7046SOL    HW122037   3.347   2.167   4.322
 7046SOL    HW222038   3.486   2.084   4.301
 7047SOL     OW22039   0.541   0.939   1.369
 7047SOL    HW122040   0.495   0.858   1.331
 7047SOL    HW222041   0.539   0.935   1.469
 7048SOL     OW22042   6.279   6.552   4.889
 7048SOL    HW122043   6.194   6.576   4.936
 7048SOL    HW222044   6.260   6.481   4.821
 7049SOL     OW22045   3.961   1.376   2.166
 7049SOL    HW122046   3.963   1.471   2.196
 7049SOL    HW222047   3.935   1.372   2.069
 7050SOL     OW22048   3.531   4.961   0.920
 7050SOL    HW122049   3.586   4.971   1.003
 7050SOL    HW222050   3.578   5.004   0.843
 7051SOL     OW22051   7.010   6.991   1.493
 7051SOL    HW122052   6.956   7.000   1.409
 7051SOL    HW222053   6.994   0.047   1.551
 7052SOL     OW22054   5.315   6.671   3.312
 7052SOL    HW122055   5.411   6.686   3.336
 7052SOL    HW222056   5.280   6.752   3.264
 7053SOL     OW22057   1.545   3.403   4.148
 7053SOL    HW122058   1.505   3.416   4.057
 7053SOL    HW222059   1.493   3.455   4.216
 7054SOL     OW22060   0.321   0.403   1.059
 7054SOL    HW122061   0.269   0.327   1.097
 7054SOL    HW222062   0.353   0.379   0.967
 7055SOL     OW22063   2.080   0.249   6.934
 7055SOL    HW122064   2.024   0.232   7.016
 7055SOL    HW222065   2.086   0.165   6.881
 7056SOL     OW22066   6.870   5.704   1.239
 7056SOL    HW122067   6.825   5.687   1.151
 7056SOL    HW222068   6.965   5.675   1.234
 7057SOL     OW22069   3.227   5.291   4.123
 7057SOL    HW122070   3.149   5.269   4.064
 7057SOL    HW222071   3.207   5.374   4.175
 7058SOL     OW22072   5.272   1.968   6.474
 7058SOL    HW122073   5.213   1.929   6.544
 7058SOL    HW222074   5.365   1.977   6.510
 7059SOL     OW22075   2.221   1.505   4.686
 7059SOL    HW122076   2.127   1.536   4.698
 7059SOL    HW222077   2.222   1.407   4.669
 7060SOL     OW22078   3.436   6.704   2.305
 7060SOL    HW122079   3.337   6.712   2.286
 7060SOL    HW222080   3.466   6.784   2.357
 7061SOL     OW22081   1.222   2.078   2.434
 7061SOL    HW122082   1.170   2.096   2.518
 7061SOL    HW222083   1.173   2.117   2.356
 7062SOL     OW22084   4.413   1.943   4.486
 7062SOL    HW122085   4.383   1.939   4.391
 7062SOL    HW222086   4.341   1.985   4.542
 7063SOL     OW22087   0.410   6.667   2.535
 7063SOL    HW122088   0.410   6.568   2.547
 7063SOL    HW222089   0.502   6.703   2.551
 7064SOL     OW22090   5.049   1.595   5.756
 7064SOL    HW122091   5.105   1.636   5.684
 7064SOL    HW222092   4.956   1.631   5.752
 7065SOL     OW22093   3.290   4.424   5.406
 7065SOL    HW122094   3.275   4.453   5.500
 7065SOL    HW222095   3.388   4.413   5.389
 7066SOL     OW22096   4.919   0.813   6.892
 7066SOL    HW122097   4.824   0.824   6.920
 7066SOL    HW222098   4.947   0.718   6.905
 7067SOL     OW22099   1.708   3.666   0.044
 7067SOL    HW122100   1.616   3.659   0.083
 7067SOL    HW222101   1.771   3.698   0.115
 7068SOL     OW22102   5.712   4.519   4.303
 7068SOL    HW122103   5.812   4.522   4.300
 7068SOL    HW222104   5.677   4.490   4.214
 7069SOL     OW22105   6.169   1.522   5.759
 7069SOL    HW122106   6.194   1.519   5.856
 7069SOL    HW222107   6.083   1.474   5.746
 7070SOL     OW22108   0.437   6.518   4.850
 7070SOL    HW122109   0.379   6.459   4.794
 7070SOL    HW222110   0.509   6.558   4.792
 7071SOL     OW22111   5.234   6.565   6.542
 7071SOL    HW122112   5.154   6.519   6.582
 7071SOL    HW222113   5.295   6.497   6.502
 7072SOL     OW22114   1.320   4.495   6.730
 7072SOL    HW122115   1.385   4.419   6.730
 7072SOL    HW222116   1.345   4.561   6.659
 7073SOL     OW22117   3.963   0.343   2.755
 7073SOL    HW122118   4.039   0.280   2.768
 7073SOL    HW222119   3.996   0.437   2.762
 7074SOL     OW22120   6.400   3.743   3.542
 7074SOL    HW122121   6.415   3.841   3.552
 7074SOL    HW222122   6.488   3.695   3.539
 7075SOL     OW22123   3.021   4.897   4.942
 7075SOL    HW122124   3.014   4.800   4.964
 7075SOL    HW222125   2.982   4.951   5.016
 7076SOL     OW22126   6.044   2.976   1.720
 7076SOL    HW122127   6.006   2.987   1.628
 7076SOL    HW222128   6.130   3.026   1.727
 7077SOL     OW22129   2.775   5.141   2.608
 7077SOL    HW122130   2.836   5.155   2.529
 7077SOL    HW222131   2.768   5.226   2.660
 7078SOL     OW22132   5.592   6.808   0.760
 7078SOL    HW122133   5.624   6.846   0.846
 7078SOL    HW222134   5.628   6.862   0.684
 7079SOL     OW22135   1.500   6.888   3.649
 7079SOL    HW122136   1.571   6.843   3.596
 7079SOL    HW222137   1.458   6.961   3.594
 7080SOL     OW22138   4.070   1.714   4.551
 7080SOL    HW122139   4.024   1.660   4.621
 7080SOL    HW222140   4.146   1.764   4.592
 7081SOL     OW22141   1.451   0.808   6.998
 7081SOL    HW122142   1.473   0.820   0.071
 7081SOL    HW222143   1.501   0.729   6.961
 7082SOL     OW22144   6.787   3.817   1.669
 7082SOL    HW122145   6.778   3.903   1.619
 7082SOL    HW222146   6.748   3.828   1.761
 7083SOL     OW22147   0.101   2.299   2.350
 7083SOL    HW122148   0.137   2.236   2.281
 7083SOL    HW222149   0.156   2.382   2.353
 7084SOL     OW22150   0.530   5.318   5.851
 7084SOL    HW122151   0.494   5.411   5.861
 7084SOL    HW222152   0.455   5.252   5.852
 7085SOL     OW22153   0.071   2.570   2.526
 7085SOL    HW122154   0.146   2.504   2.523
 7085SOL    HW222155   0.050   2.600   2.433
 7086SOL     OW22156   5.831   0.400   6.844
 7086SOL    HW122157   5.833   0.499   6.836
 7086SOL    HW222158   5.924   0.366   6.860
 7087SOL     OW22159   4.887   3.309   2.870
 7087SOL    HW122160   4.944   3.269   2.798
 7087SOL    HW222161   4.943   3.325   2.951
 7088SOL     OW22162   5.956   1.432   5.012
 7088SOL    HW122163   5.990   1.438   4.918
 7088SOL    HW222164   5.891   1.506   5.028
 7089SOL     OW22165   3.572   5.529   2.603
 7089SOL    HW122166   3.530   5.559   2.689
 7089SOL    HW222167   3.669   5.553   2.603
 7090SOL     OW22168   3.378   1.538   0.496
 7090SOL    HW122169   3.386   1.619   0.438
 7090SOL    HW222170   3.451   1.539   0.565
 7091SOL     OW22171   0.656   0.137   0.454
 7091SOL    HW122172   0.664   0.218   0.513
 7091SOL    HW222173   0.689   0.057   0.503
 7092SOL     OW22174   4.095   2.095   6.686
 7092SOL    HW122175   4.083   2.046   6.772
 7092SOL    HW222176   4.155   2.174   6.701
 7093SOL     OW22177   3.576   3.977   1.321
 7093SOL    HW122178   3.638   3.998   1.396
 7093SOL    HW222179   3.484   4.009   1.343
 7094SOL     OW22180   1.756   6.537   5.720
 7094SOL    HW122181   1.834   6.554   5.781
 7094SOL    HW222182   1.764   6.445   5.682
 7095SOL     OW22183   3.383   4.790   5.302
 7095SOL    HW122184   3.289   4.760   5.287
 7095SOL    HW222185   3.432   4.720   5.354
 7096SOL     OW22186   6.882   0.540   0.988
 7096SOL    HW122187   6.879   0.640   0.994
 7096SOL    HW222188   6.899   0.513   0.893
 7097SOL     OW22189   5.272   0.086   1.740
 7097SOL    HW122190   5.292   0.049   1.649
 7097SOL    HW222191   5.279   0.013   1.808
 7098SOL     OW22192   1.803   6.741   4.531
 7098SOL    HW122193   1.818   6.826   4.582
 7098SOL    HW222194   1.880   6.679   4.547
 7099SOL     OW22195   3.424   2.064   3.991
 7099SOL    HW122196   3.402   2.054   4.088
 7099SOL    HW222197   3.341   2.089   3.940
 7100SOL     OW22198   0.574   3.504   0.778
 7100SOL    HW122199   0.624   3.578   0.734
 7100SOL    HW222200   0.635   3.427   0.795
 7101SOL     OW22201   2.448   6.132   5.410
 7101SOL    HW122202   2.357   6.139   5.371
 7101SOL    HW222203   2.480   6.222   5.439
 7102SOL     OW22204   5.102   1.158   1.268
 7102SOL    HW122205   5.024   1.147   1.206
 7102SOL    HW222206   5.156   1.237   1.239
 7103SOL     OW22207   4.886   5.206   2.334
 7103SOL    HW122208   4.961   5.188   2.398
 7103SOL    HW222209   4.846   5.295   2.354
 7104SOL     OW22210   5.443   3.117   3.205
 7104SOL    HW122211   5.527   3.070   3.232
 7104SOL    HW222212   5.460   3.174   3.125
 7105SOL     OW22213   3.184   4.102   4.087
 7105SOL    HW122214   3.206   4.124   3.992
 7105SOL    HW222215   3.267   4.104   4.142
 7106SOL     OW22216   3.265   2.728   1.133
 7106SOL    HW122217   3.307   2.753   1.220
 7106SOL    HW222218   3.303   2.785   1.060
 7107SOL     OW22219   4.093   0.144   6.963
 7107SOL    HW122220   4.074   0.211   0.011
 7107SOL    HW222221   4.078   0.052   6.997
 7108SOL     OW22222   2.395   6.420   2.884
 7108SOL    HW122223   2.317   6.465   2.840
 7108SOL    HW222224   2.410   6.460   2.974
 7109SOL     OW22225   1.379   0.513   6.592
 7109SOL    HW122226   1.367   0.502   6.494
 7109SOL    HW222227   1.444   0.587   6.610
 7110SOL     OW22228   3.034   6.674   4.509
 7110SOL    HW122229   3.115   6.651   4.456
 7110SOL    HW222230   2.985   6.590   4.534
 7111SOL     OW22231   1.283   0.988   4.296
 7111SOL    HW122232   1.298   0.980   4.394
 7111SOL    HW222233   1.185   0.992   4.277
 7112SOL     OW22234   2.188   4.373   4.633
 7112SOL    HW122235   2.158   4.379   4.728
 7112SOL    HW222236   2.208   4.278   4.609
 7113SOL     OW22237   2.717   4.806   5.217
 7113SOL    HW122238   2.784   4.770   5.153
 7113SOL    HW222239   2.661   4.876   5.172
 7114SOL     OW22240   4.734   5.381   1.196
 7114SOL    HW122241   4.797   5.309   1.167
 7114SOL    HW222242   4.786   5.455   1.239
 7115SOL     OW22243   6.034   4.285   6.913
 7115SOL    HW122244   6.030   4.187   6.932
 7115SOL    HW222245   6.124   4.309   6.876
 7116SOL     OW22246   6.379   3.980   4.018
 7116SOL    HW122247   6.394   3.885   4.047
 7116SOL    HW222248   6.459   4.035   4.042
 7117SOL     OW22249   6.228   6.995   3.868
 7117SOL    HW122250   6.311   7.024   3.916
 7117SOL    HW222251   6.246   6.911   3.817
 7118SOL     OW22252   4.121   4.630   5.334
 7118SOL    HW122253   4.137   4.571   5.255
 7118SOL    HW222254   4.167   4.592   5.414
 7119SOL     OW22255   5.467   0.901   5.127
 7119SOL    HW122256   5.395   0.905   5.057
 7119SOL    HW222257   5.428   0.927   5.216
 7120SOL     OW22258   5.277   1.342   1.172
 7120SOL    HW122259   5.347   1.366   1.105
 7120SOL    HW222260   5.266   1.416   1.237
 7121SOL     OW22261   1.021   6.426   3.737
 7121SOL    HW122262   0.929   6.386   3.736
 7121SOL    HW222263   1.083   6.366   3.788
 7122SOL     OW22264   2.664   0.021   5.335
 7122SOL    HW122265   2.730   6.976   5.365
 7122SOL    HW222266   2.713   0.097   5.292
 7123SOL     OW22267   6.079   4.922   4.849
 7123SOL    HW122268   5.989   4.899   4.813
 7123SOL    HW222269   6.071   4.951   4.944
 7124SOL     OW22270   1.271   2.748   1.557
 7124SOL    HW122271   1.368   2.771   1.561
 7124SOL    HW222272   1.233   2.746   1.649
 7125SOL     OW22273   0.743   0.529   1.779
 7125SOL    HW122274   0.755   0.590   1.701
 7125SOL    HW222275   0.711   0.582   1.858
 7126SOL     OW22276   4.025   6.135   1.372
 7126SOL    HW122277   4.067   6.171   1.288
 7126SOL    HW222278   3.983   6.046   1.352
 7127SOL     OW22279   3.639   6.149   5.284
 7127SOL    HW122280   3.631   6.230   5.342
 7127SOL    HW222281   3.560   6.145   5.223
 7128SOL     OW22282   3.272   4.685   6.211
 7128SOL    HW122283   3.306   4.769   6.168
 7128SOL    HW222284   3.309   4.605   6.163
 7129SOL     OW22285   0.434   1.635   1.120
 7129SOL    HW122286   0.392   1.615   1.031
 7129SOL    HW222287   0.404   1.725   1.151
 7130SOL     OW22288   2.819   0.061   4.419
 7130SOL    HW122289   2.891   0.077   4.352
 7130SOL    HW222290   2.731   0.092   4.382
 7131SOL     OW22291   3.541   0.691   2.610
 7131SOL    HW122292   3.565   0.762   2.544
 7131SOL    HW222293   3.453   0.651   2.585
 7132SOL     OW22294   5.365   4.075   6.889
 7132SOL    HW122295   5.273   4.074   6.849
 7132SOL    HW222296   5.399   3.981   6.897
 7133SOL     OW22297   3.585   5.495   3.630
 7133SOL    HW122298   3.488   5.518   3.632
 7133SOL    HW222299   3.596   5.396   3.621
 7134SOL     OW22300   5.893   5.582   1.815
 7134SOL    HW122301   5.893   5.609   1.718
 7134SOL    HW222302   5.970   5.625   1.861
 7135SOL     OW22303   2.047   3.379   1.975
 7135SOL    HW122304   1.975   3.386   1.906
 7135SOL    HW222305   2.118   3.447   1.955
 7136SOL     OW22306   2.773   1.781   1.787
 7136SOL    HW122307   2.806   1.864   1.742
 7136SOL    HW222308   2.727   1.805   1.872
 7137SOL     OW22309   2.622   2.235   1.700
 7137SOL    HW122310   2.524   2.225   1.683
 7137SOL    HW222311   2.674   2.192   1.627
 7138SOL     OW22312   1.731   1.578   1.107
 7138SOL    HW122313   1.827   1.550   1.109
 7138SOL    HW222314   1.680   1.529   1.177
 7139SOL     OW22315   5.324   5.691   2.276
 7139SOL    HW122316   5.324   5.775   2.222
 7139SOL    HW222317   5.284   5.709   2.366
 7140SOL     OW22318   6.115   3.768   0.805
 7140SOL    HW122319   6.162   3.767   0.716
 7140SOL    HW222320   6.096   3.862   0.832
 7141SOL     OW22321   4.393   6.445   0.965
 7141SOL    HW122322   4.395   6.426   0.867
 7141SOL    HW222323   4.313   6.501   0.987
 7142SOL     OW22324   3.367   1.118   4.086
 7142SOL    HW122325   3.429   1.134   4.010
 7142SOL    HW222326   3.295   1.054   4.057
 7143SOL     OW22327   2.405   5.002   6.685
 7143SOL    HW122328   2.348   4.968   6.611
 7143SOL    HW222329   2.347   5.040   6.757
 7144SOL     OW22330   6.963   1.117   4.378
 7144SOL    HW122331   6.939   1.166   4.462
 7144SOL    HW222332   6.961   1.181   4.301
 7145SOL     OW22333   4.943   1.604   0.450
 7145SOL    HW122334   5.004   1.652   0.513
 7145SOL    HW222335   4.963   1.632   0.356
 7146SOL     OW22336   2.276   1.182   4.997
 7146SOL    HW122337   2.180   1.206   4.988
 7146SOL    HW222338   2.333   1.260   4.971
 7147SOL     OW22339   5.738   4.700   2.940
 7147SOL    HW122340   5.797   4.762   2.992
 7147SOL    HW222341   5.644   4.705   2.977
 7148SOL     OW22342   6.413   5.964   1.951
 7148SOL    HW122343   6.505   5.945   1.984
 7148SOL    HW222344   6.346   5.931   2.018
 7149SOL     OW22345   6.976   4.524   3.900
 7149SOL    HW122346   6.997   4.612   3.857
 7149SOL    HW222347   7.007   4.525   3.995
 7150SOL     OW22348   4.145   3.591   6.987
 7150SOL    HW122349   4.160   3.493   7.001
 7150SOL    HW222350   4.066   3.605   6.928
 7151SOL     OW22351   3.643   0.434   0.855
 7151SOL    HW122352   3.654   0.533   0.851
 7151SOL    HW222353   3.599   0.408   0.941
 7152SOL     OW22354   0.063   0.742   6.585
 7152SOL    HW122355   7.003   0.788   6.614
 7152SOL    HW222356   0.051   0.706   6.492
 7153SOL     OW22357   4.336   6.082   1.490
 7153SOL    HW122358   4.364   6.177   1.475
 7153SOL    HW222359   4.236   6.078   1.499
 7154SOL     OW22360   4.283   1.433   2.150
 7154SOL    HW122361   4.240   1.346   2.174
 7154SOL    HW222362   4.355   1.454   2.217
 7155SOL     OW22363   3.237   1.898   2.279
 7155SOL    HW122364   3.301   1.906   2.203
 7155SOL    HW222365   3.217   1.801   2.296
 7156SOL     OW22366   5.846   3.567   1.207
 7156SOL    HW122367   5.878   3.592   1.299
 7156SOL    HW222368   5.915   3.509   1.163
 7157SOL     OW22369   6.244   4.144   6.436
 7157SOL    HW122370   6.230   4.093   6.352
 7157SOL    HW222371   6.168   4.207   6.450
 7158SOL     OW22372   5.155   6.762   4.059
 7158SOL    HW122373   5.206   6.692   4.009
 7158SOL    HW222374   5.057   6.747   4.048
 7159SOL     OW22375   6.942   5.010   4.457
 7159SOL    HW122376   6.933   5.101   4.497
 7159SOL    HW222377   0.010   4.975   4.473
 7160SOL     OW22378   5.329   6.834   2.788
 7160SOL    HW122379   5.236   6.803   2.806
 7160SOL    HW222380   5.327   6.910   2.722
 7161SOL     OW22381   4.130   3.573   3.518
 7161SOL    HW122382   4.145   3.598   3.614
 7161SOL    HW222383   4.124   3.474   3.509
 7162SOL     OW22384   0.060   5.560   2.304
 7162SOL    HW122385   0.026   5.517   2.220
 7162SOL    HW222386   0.160   5.562   2.302
 7163SOL     OW22387   1.309   1.883   2.129
 7163SOL    HW122388   1.326   1.907   2.033
 7163SOL    HW222389   1.319   1.964   2.186
 7164SOL     OW22390   1.417   1.080   6.012
 7164SOL    HW122391   1.514   1.102   6.008
 7164SOL    HW222392   1.389   1.066   6.107
 7165SOL     OW22393   5.652   6.867   0.284
 7165SOL    HW122394   5.591   6.852   0.206
 7165SOL    HW222395   5.721   6.934   0.259
 7166SOL     OW22396   5.090   6.534   5.997
 7166SOL    HW122397   5.027   6.603   5.962
 7166SOL    HW222398   5.099   6.545   6.096
 7167SOL     OW22399   6.088   1.977   4.984
 7167SOL    HW122400   6.054   1.962   5.077
 7167SOL    HW222401   6.159   1.909   4.964
 7168SOL     OW22402   2.248   1.136   2.428
 7168SOL    HW122403   2.185   1.196   2.478
 7168SOL    HW222404   2.207   1.111   2.341
 7169SOL     OW22405   1.979   4.084   5.525
 7169SOL    HW122406   1.914   4.158   5.508
 7169SOL    HW222407   2.029   4.063   5.441
 7170SOL     OW22408   4.238   0.497   1.820
 7170SOL    HW122409   4.255   0.595   1.833
 7170SOL    HW222410   4.157   0.469   1.871
 7171SOL     OW22411   5.560   4.785   0.895
 7171SOL    HW122412   5.640   4.828   0.854
 7171SOL    HW222413   5.572   4.780   0.994
 7172SOL     OW22414   1.877   1.272   4.677
 7172SOL    HW122415   1.896   1.297   4.582
 7172SOL    HW222416   1.780   1.290   4.697
 7173SOL     OW22417   5.637   5.748   6.640
 7173SOL    HW122418   5.711   5.682   6.630
 7173SOL    HW222419   5.657   5.810   6.716
 7174SOL     OW22420   5.808   4.535   0.978
 7174SOL    HW122421   5.797   4.542   1.077
 7174SOL    HW222422   5.779   4.444   0.948
 7175SOL     OW22423   5.841   3.879   4.945
 7175SOL    HW122424   5.818   3.939   5.023
 7175SOL    HW222425   5.782   3.798   4.948
 7176SOL     OW22426   0.461   1.507   4.549
 7176SOL    HW122427   0.555   1.539   4.537
 7176SOL    HW222428   0.398   1.577   4.515
 7177SOL     OW22429   2.213   5.230   5.348
 7177SOL    HW122430   2.217   5.156   5.416
 7177SOL    HW222431   2.210   5.191   5.256
 7178SOL     OW22432   0.555   0.603   5.327
 7178SOL    HW122433   0.521   0.628   5.418
 7178SOL    HW222434   0.623   0.530   5.337
 7179SOL     OW22435   3.054   5.312   6.537
 7179SOL    HW122436   3.062   5.410   6.553
 7179SOL    HW222437   3.032   5.296   6.440
 7180SOL     OW22438   1.313   5.056   1.249
 7180SOL    HW122439   1.359   5.124   1.308
 7180SOL    HW222440   1.382   5.008   1.194
 7181SOL     OW22441   2.296   1.677   5.799
 7181SOL    HW122442   2.326   1.650   5.707
 7181SOL    HW222443   2.374   1.712   5.850
 7182SOL     OW22444   0.669   3.293   4.024
 7182SOL    HW122445   0.629   3.205   3.996
 7182SOL    HW222446   0.597   3.361   4.033
 7183SOL     OW22447   1.328   6.443   1.779
 7183SOL    HW122448   1.327   6.378   1.703
 7183SOL    HW222449   1.266   6.412   1.850
 7184SOL     OW22450   6.554   0.476   3.543
 7184SOL    HW122451   6.508   0.421   3.612
 7184SOL    HW222452   6.643   0.436   3.522
 7185SOL     OW22453   5.053   0.921   5.063
 7185SOL    HW122454   5.051   0.990   5.136
 7185SOL    HW222455   5.079   0.964   4.977
 7186SOL     OW22456   0.281   0.222   0.018
 7186SOL    HW122457   0.200   0.164   0.013
 7186SOL    HW222458   0.313   0.227   0.112
 7187SOL     OW22459   3.365   2.973   5.002
 7187SOL    HW122460   3.406   3.014   5.084
 7187SOL    HW222461   3.326   3.045   4.945
 7188SOL     OW22462   4.165   4.831   0.168
 7188SOL    HW122463   4.247   4.822   0.223
 7188SOL    HW222464   4.089   4.861   0.225
 7189SOL     OW22465   6.487   2.524   5.354
 7189SOL    HW122466   6.454   2.438   5.316
 7189SOL    HW222467   6.578   2.510   5.394
 7190SOL     OW22468   6.184   5.562   1.142
 7190SOL    HW122469   6.138   5.570   1.230
 7190SOL    HW222470   6.181   5.651   1.095
 7191SOL     OW22471   0.769   3.980   3.387
 7191SOL    HW122472   0.792   3.911   3.456
 7191SOL    HW222473   0.842   3.985   3.319
 7192SOL     OW22474   1.826   4.916   6.695
 7192SOL    HW122475   1.789   4.889   6.606
 7192SOL    HW222476   1.863   4.835   6.741
 7193SOL     OW22477   3.019   2.215   2.466
 7193SOL    HW122478   2.967   2.184   2.387
 7193SOL    HW222479   3.115   2.229   2.440
 7194SOL     OW22480   2.889   2.699   6.802
 7194SOL    HW122481   2.803   2.738   6.836
 7194SOL    HW222482   2.959   2.771   6.799
 7195SOL     OW22483   0.057   3.519   6.904
 7195SOL    HW122484   0.069   3.535   7.002
 7195SOL    HW222485   0.135   3.559   6.855
 7196SOL     OW22486   2.984   3.899   2.497
 7196SOL    HW122487   2.891   3.863   2.503
 7196SOL    HW222488   3.000   3.935   2.405
 7197SOL     OW22489   1.502   3.818   5.524
 7197SOL    HW122490   1.511   3.740   5.463
 7197SOL    HW222491   1.588   3.867   5.529
 7198SOL     OW22492   6.662   1.028   0.440
 7198SOL    HW122493   6.760   1.049   0.443
 7198SOL    HW222494   6.611   1.110   0.414
 7199SOL     OW22495   0.904   1.040   2.718
 7199SOL    HW122496   0.854   1.068   2.800
 7199SOL    HW222497   0.839   1.020   2.645
 7200SOL     OW22498   2.091   2.338   0.205
 7200SOL    HW122499   2.126   2.432   0.207
 7200SOL    HW222500   2.014   2.333   0.141
 7201SOL     OW22501   6.041   5.842   4.121
 7201SOL    HW122502   6.069   5.851   4.026
 7201SOL    HW222503   6.012   5.931   4.157
 7202SOL     OW22504   5.298   6.434   5.834
 7202SOL    HW122505   5.368   6.503   5.844
 7202SOL    HW222506   5.213   6.464   5.878
 7203SOL     OW22507   0.463   1.357   1.988
 7203SOL    HW122508   0.477   1.420   2.064
 7203SOL    HW222509   0.459   1.408   1.903
 7204SOL     OW22510   6.886   1.648   0.871
 7204SOL    HW122511   6.823   1.612   0.801
 7204SOL    HW222512   6.858   1.615   0.961
 7205SOL     OW22513   2.014   2.369   5.177
 7205SOL    HW122514   2.094   2.354   5.119
 7205SOL    HW222515   2.012   2.465   5.207
 7206SOL     OW22516   1.771   2.183   1.037
 7206SOL    HW122517   1.699   2.212   0.974
 7206SOL    HW222518   1.843   2.136   0.987
 7207SOL     OW22519   1.944   2.117   4.024
 7207SOL    HW122520   1.953   2.059   3.943
 7207SOL    HW222521   2.032   2.122   4.071
 7208SOL     OW22522   3.807   0.538   4.452
 7208SOL    HW122523   3.885   0.476   4.442
 7208SOL    HW222524   3.837   0.623   4.495
 7209SOL     OW22525   2.123   2.401   2.390
 7209SOL    HW122526   2.195   2.457   2.433
 7209SOL    HW222527   2.164   2.346   2.317
 7210SOL     OW22528   2.391   1.845   2.792
 7210SOL    HW122529   2.329   1.912   2.751
 7210SOL    HW222530   2.470   1.831   2.731
 7211SOL     OW22531   3.392   6.114   5.167
 7211SOL    HW122532   3.381   6.024   5.210
 7211SOL    HW222533   3.307   6.141   5.123
 7212SOL     OW22534   5.871   5.125   5.980
 7212SOL    HW122535   5.792   5.128   5.919
 7212SOL    HW222536   5.938   5.194   5.951
 7213SOL     OW22537   3.853   0.313   0.362
 7213SOL    HW122538   3.788   0.332   0.437
 7213SOL    HW222539   3.847   0.217   0.336
 7214SOL     OW22540   0.442   0.798   6.025
 7214SOL    HW122541   0.365   0.779   6.086
 7214SOL    HW222542   0.524   0.751   6.058
 7215SOL     OW22543   0.282   2.682   3.091
 7215SOL    HW122544   0.263   2.656   3.186
 7215SOL    HW222545   0.379   2.704   3.081
 7216SOL     OW22546   3.195   6.578   2.606
 7216SOL    HW122547   3.166   6.674   2.604
 7216SOL    HW222548   3.150   6.532   2.683
 7217SOL     OW22549   1.182   4.003   4.049
 7217SOL    HW122550   1.195   4.102   4.043
 7217SOL    HW222551   1.225   3.960   3.970
 7218SOL     OW22552   6.745   3.383   4.443
 7218SOL    HW122553   6.799   3.388   4.359
 7218SOL    HW222554   6.740   3.288   4.474
 7219SOL     OW22555   3.244   6.789   1.621
 7219SOL    HW122556   3.231   6.859   1.551
 7219SOL    HW222557   3.313   6.820   1.687
 7220SOL     OW22558   6.970   3.726   5.008
 7220SOL    HW122559   6.874   3.752   5.020
 7220SOL    HW222560   6.994   3.655   5.076
 7221SOL     OW22561   3.068   6.124   4.713
 7221SOL    HW122562   3.162   6.090   4.703
 7221SOL    HW222563   3.055   6.204   4.654
 7222SOL     OW22564   6.403   6.502   3.695
 7222SOL    HW122565   6.470   6.504   3.621
 7222SOL    HW222566   6.313   6.477   3.658
 7223SOL     OW22567   2.532   1.832   0.492
 7223SOL    HW122568   2.535   1.798   0.398
 7223SOL    HW222569   2.509   1.929   0.492
 7224SOL     OW22570   4.548   2.424   3.816
 7224SOL    HW122571   4.475   2.395   3.878
 7224SOL    HW222572   4.526   2.397   3.723
 7225SOL     OW22573   1.931   6.739   0.848
 7225SOL    HW122574   1.874   6.789   0.914
 7225SOL    HW222575   2.006   6.798   0.818
 7226SOL     OW22576   5.735   0.898   0.608
 7226SOL    HW122577   5.787   0.848   0.539
 7226SOL    HW222578   5.677   0.834   0.659
 7227SOL     OW22579   2.913   0.504   2.333
 7227SOL    HW122580   2.923   0.584   2.274
 7227SOL    HW222581   2.974   0.431   2.301
 7228SOL     OW22582   0.609   2.073   2.598
 7228SOL    HW122583   0.591   2.069   2.697
 7228SOL    HW222584   0.706   2.093   2.584
 7229SOL     OW22585   6.749   6.833   4.516
 7229SOL    HW122586   6.821   6.877   4.569
 7229SOL    HW222587   6.789   6.762   4.458
 7230SOL     OW22588   2.837   5.060   3.855
 7230SOL    HW122589   2.837   5.027   3.950
 7230SOL    HW222590   2.791   4.993   3.797
 7231SOL     OW22591   3.958   0.621   0.324
 7231SOL    HW122592   3.988   0.703   0.276
 7231SOL    HW222593   3.859   0.615   0.322
 7232SOL     OW22594   5.270   0.007   2.588
 7232SOL    HW122595   5.211   6.965   2.542
 7232SOL    HW222596   5.318   0.063   2.520
 7233SOL     OW22597   5.866   2.090   5.965
 7233SOL    HW122598   5.931   2.014   5.968
 7233SOL    HW222599   5.773   2.055   5.975
 7234SOL     OW22600   4.965   3.982   3.526
 7234SOL    HW122601   4.951   3.887   3.553
 7234SOL    HW222602   5.022   4.028   3.594
 7235SOL     OW22603   6.120   5.714   1.908
 7235SOL    HW122604   6.142   5.780   1.980
 7235SOL    HW222605   6.204   5.686   1.861
 7236SOL     OW22606   1.805   2.419   2.859
 7236SOL    HW122607   1.710   2.434   2.884
 7236SOL    HW222608   1.852   2.370   2.933
 7237SOL     OW22609   5.162   6.945   6.880
 7237SOL    HW122610   5.098   6.968   6.807
 7237SOL    HW222611   5.254   6.977   6.856
 7238SOL     OW22612   4.637   2.444   6.813
 7238SOL    HW122613   4.646   2.414   6.718
 7238SOL    HW222614   4.637   2.364   6.873
 7239SOL     OW22615   0.465   3.415   2.182
 7239SOL    HW122616   0.417   3.370   2.257
 7239SOL    HW222617   0.449   3.365   2.097
 7240SOL     OW22618   6.797   1.480   5.980
 7240SOL    HW122619   6.748   1.561   6.010
 7240SOL    HW222620   6.753   1.398   6.017
 7241SOL     OW22621   1.962   0.696   0.821
 7241SOL    HW122622   2.014   0.728   0.900
 7241SOL    HW222623   1.989   0.602   0.799
 7242SOL     OW22624   0.342   6.179   4.960
 7242SOL    HW122625   0.433   6.164   5.001
 7242SOL    HW222626   0.350   6.246   4.887
 7243SOL     OW22627   6.924   3.453   6.475
 7243SOL    HW122628   6.825   3.457   6.485
 7243SOL    HW222629   6.959   3.541   6.444
 7244SOL     OW22630   0.343   6.736   0.205
 7244SOL    HW122631   0.433   6.701   0.178
 7244SOL    HW222632   0.349   6.776   0.297
 7245SOL     OW22633   1.411   2.320   6.590
 7245SOL    HW122634   1.508   2.307   6.566
 7245SOL    HW222635   1.368   2.230   6.599
 7246SOL     OW22636   2.974   0.598   4.247
 7246SOL    HW122637   2.908   0.523   4.239
 7246SOL    HW222638   2.993   0.636   4.156
 7247SOL     OW22639   3.049   2.446   5.578
 7247SOL    HW122640   3.069   2.425   5.482
 7247SOL    HW222641   3.033   2.360   5.627
 7248SOL     OW22642   3.029   0.683   4.002
 7248SOL    HW122643   2.951   0.648   3.950
 7248SOL    HW222644   3.114   0.652   3.960
 7249SOL     OW22645   4.358   4.606   2.174
 7249SOL    HW122646   4.304   4.674   2.223
 7249SOL    HW222647   4.334   4.608   2.076
 7250SOL     OW22648   5.226   4.921   6.068
 7250SOL    HW122649   5.228   4.939   5.970
 7250SOL    HW222650   5.313   4.947   6.109
 7251SOL     OW22651   0.905   6.652   5.990
 7251SOL    HW122652   0.852   6.687   5.913
 7251SOL    HW222653   0.860   6.571   6.028
 7252SOL     OW22654   2.999   3.950   2.231
 7252SOL    HW122655   2.983   3.851   2.240
 7252SOL    HW222656   2.935   3.988   2.164
 7253SOL     OW22657   1.710   6.825   5.941
 7253SOL    HW122658   1.615   6.825   5.972
 7253SOL    HW222659   1.753   6.738   5.966
 7254SOL     OW22660   5.602   4.777   3.976
 7254SOL    HW122661   5.623   4.680   3.980
 7254SOL    HW222662   5.636   4.822   4.059
 7255SOL     OW22663   4.910   3.355   6.827
 7255SOL    HW122664   4.951   3.364   6.737
 7255SOL    HW222665   4.958   3.414   6.892
 7256SOL     OW22666   3.792   6.736   5.395
 7256SOL    HW122667   3.826   6.647   5.365
 7256SOL    HW222668   3.702   6.753   5.354
 7257SOL     OW22669   0.083   1.714   5.221
 7257SOL    HW122670   0.104   1.808   5.195
 7257SOL    HW222671   0.105   1.701   5.318
 7258SOL     OW22672   5.512   2.274   1.631
 7258SOL    HW122673   5.553   2.240   1.547
 7258SOL    HW222674   5.583   2.312   1.690
 7259SOL     OW22675   1.376   3.733   2.671
 7259SOL    HW122676   1.446   3.770   2.610
 7259SOL    HW222677   1.388   3.772   2.762
 7260SOL     OW22678   5.091   2.286   0.781
 7260SOL    HW122679   5.103   2.378   0.744
 7260SOL    HW222680   5.149   2.274   0.861
 7261SOL     OW22681   0.382   3.943   0.917
 7261SOL    HW122682   0.377   3.847   0.891
 7261SOL    HW222683   0.290   3.975   0.943
 7262SOL     OW22684   5.629   1.094   6.274
 7262SOL    HW122685   5.641   1.139   6.185
 7262SOL    HW222686   5.544   1.126   6.316
 7263SOL     OW22687   0.162   6.993   6.978
 7263SOL    HW122688   0.168   6.901   6.938
 7263SOL    HW222689   0.114   0.029   6.914
 7264SOL     OW22690   5.611   0.915   0.982
 7264SOL    HW122691   5.646   0.997   0.936
 7264SOL    HW222692   5.687   0.862   1.018
 7265SOL     OW22693   5.806   5.498   4.608
 7265SOL    HW122694   5.871   5.452   4.548
 7265SOL    HW222695   5.830   5.483   4.703
 7266SOL     OW22696   6.715   0.659   3.753
 7266SOL    HW122697   6.633   0.621   3.710
 7266SOL    HW222698   6.782   0.586   3.767
 7267SOL     OW22699   6.556   6.533   4.798
 7267SOL    HW122700   6.516   6.618   4.832
 7267SOL    HW222701   6.490   6.485   4.740
 7268SOL     OW22702   6.978   5.268   4.556
 7268SOL    HW122703   0.034   5.297   4.503
 7268SOL    HW222704   6.914   5.345   4.564
 7269SOL     OW22705   2.405   6.417   5.723
 7269SOL    HW122706   2.347   6.491   5.756
 7269SOL    HW222707   2.422   6.428   5.625
 7270SOL     OW22708   0.125   2.170   3.923
 7270SOL    HW122709   0.065   2.209   3.853
 7270SOL    HW222710   0.220   2.183   3.896
 7271SOL     OW22711   1.824   5.381   3.819
 7271SOL    HW122712   1.807   5.430   3.904
 7271SOL    HW222713   1.916   5.403   3.786
 7272SOL     OW22714   6.656   6.006   2.118
 7272SOL    HW122715   6.748   5.993   2.154
 7272SOL    HW222716   6.594   6.028   2.194
 7273SOL     OW22717   5.095   3.423   6.625
 7273SOL    HW122718   5.193   3.426   6.641
 7273SOL    HW222719   5.075   3.448   6.530
 7274SOL     OW22720   0.463   4.077   7.014
 7274SOL    HW122721   0.540   4.061   6.952
 7274SOL    HW222722   0.414   3.991   0.004
 7275SOL     OW22723   0.158   5.981   2.903
 7275SOL    HW122724   0.079   6.042   2.897
 7275SOL    HW222725   0.131   5.889   2.875
 7276SOL     OW22726   5.305   0.039   3.722
 7276SOL    HW122727   5.300   6.977   3.671
 7276SOL    HW222728   5.328   0.113   3.659
 7277SOL     OW22729   5.153   0.333   5.678
 7277SOL    HW122730   5.112   0.246   5.704
 7277SOL    HW222731   5.185   0.328   5.583
 7278SOL     OW22732   3.242   3.934   1.333
 7278SOL    HW122733   3.252   3.987   1.417
 7278SOL    HW222734   3.152   3.890   1.332
 7279SOL     OW22735   4.428   6.257   0.041
 7279SOL    HW122736   4.443   6.354   0.061
 7279SOL    HW222737   4.373   6.216   0.114
 7280SOL     OW22738   6.197   0.232   4.470
 7280SOL    HW122739   6.235   0.324   4.480
 7280SOL    HW222740   6.213   0.180   4.554
 7281SOL     OW22741   2.936   1.665   7.018
 7281SOL    HW122742   2.967   1.729   0.065
 7281SOL    HW222743   2.837   1.670   7.010
 7282SOL     OW22744   6.015   5.113   2.609
 7282SOL    HW122745   5.965   5.197   2.591
 7282SOL    HW222746   6.008   5.052   2.529
 7283SOL     OW22747   3.199   1.550   3.550
 7283SOL    HW122748   3.173   1.492   3.473
 7283SOL    HW222749   3.118   1.593   3.588
 7284SOL     OW22750   0.389   3.305   5.581
 7284SOL    HW122751   0.406   3.230   5.644
 7284SOL    HW222752   0.306   3.354   5.609
 7285SOL     OW22753   5.255   3.855   2.549
 7285SOL    HW122754   5.301   3.775   2.511
 7285SOL    HW222755   5.255   3.929   2.481
 7286SOL     OW22756   2.929   1.765   0.758
 7286SOL    HW122757   2.999   1.699   0.787
 7286SOL    HW222758   2.949   1.795   0.665
 7287SOL     OW22759   0.201   2.163   6.236
 7287SOL    HW122760   0.155   2.130   6.318
 7287SOL    HW222761   0.294   2.192   6.259
 7288SOL     OW22762   3.527   0.852   6.604
 7288SOL    HW122763   3.526   0.791   6.682
 7288SOL    HW222764   3.586   0.814   6.532
 7289SOL     OW22765   6.759   1.589   3.123
 7289SOL    HW122766   6.707   1.534   3.189
 7289SOL    HW222767   6.845   1.619   3.166
 7290SOL     OW22768   2.755   6.414   5.241
 7290SOL    HW122769   2.779   6.427   5.338
 7290SOL    HW222770   2.700   6.492   5.210
 7291SOL     OW22771   1.604   0.143   1.305
 7291SOL    HW122772   1.523   0.102   1.347
 7291SOL    HW222773   1.671   0.164   1.376
 7292SOL     OW22774   2.533   0.796   4.373
 7292SOL    HW122775   2.624   0.831   4.348
 7292SOL    HW222776   2.519   0.808   4.471
 7293SOL     OW22777   1.873   1.521   5.129
 7293SOL    HW122778   1.829   1.610   5.143
 7293SOL    HW222779   1.947   1.530   5.063
 7294SOL     OW22780   2.684   5.428   0.568
 7294SOL    HW122781   2.780   5.427   0.596
 7294SOL    HW222782   2.661   5.518   0.533
 7295SOL     OW22783   1.076   2.625   0.617
 7295SOL    HW122784   1.112   2.693   0.555
 7295SOL    HW222785   1.150   2.588   0.674
 7296SOL     OW22786   3.020   5.076   0.968
 7296SOL    HW122787   3.041   5.072   1.066
 7296SOL    HW222788   2.943   5.015   0.948
 7297SOL     OW22789   3.551   5.987   0.984
 7297SOL    HW122790   3.539   6.024   0.892
 7297SOL    HW222791   3.645   5.956   0.995
 7298SOL     OW22792   4.842   4.439   5.693
 7298SOL    HW122793   4.796   4.351   5.701
 7298SOL    HW222794   4.928   4.437   5.744
 7299SOL     OW22795   0.267   1.682   0.046
 7299SOL    HW122796   0.215   1.609   0.090
 7299SOL    HW222797   0.361   1.683   0.081
 7300SOL     OW22798   6.089   5.680   2.338
 7300SOL    HW122799   6.135   5.701   2.425
 7300SOL    HW222800   5.994   5.710   2.342
 7301SOL     OW22801   6.418   0.843   4.683
 7301SOL    HW122802   6.423   0.868   4.586
 7301SOL    HW222803   6.331   0.872   4.721
 7302SOL     OW22804   0.836   1.342   6.036
 7302SOL    HW122805   0.884   1.255   6.022
 7302SOL    HW222806   0.857   1.377   6.127
 7303SOL     OW22807   4.974   0.701   6.603
 7303SOL    HW122808   4.883   0.661   6.598
 7303SOL    HW222809   4.983   0.753   6.688
 7304SOL     OW22810   3.916   4.361   0.242
 7304SOL    HW122811   3.979   4.359   0.165
 7304SOL    HW222812   3.855   4.281   0.237
 7305SOL     OW22813   4.691   1.599   0.579
 7305SOL    HW122814   4.729   1.520   0.532
 7305SOL    HW222815   4.713   1.683   0.529
 7306SOL     OW22816   5.092   2.923   1.248
 7306SOL    HW122817   5.176   2.913   1.196
 7306SOL    HW222818   5.043   3.005   1.217
 7307SOL     OW22819   2.945   0.401   1.581
 7307SOL    HW122820   2.959   0.349   1.665
 7307SOL    HW222821   3.009   0.478   1.579
 7308SOL     OW22822   6.819   4.122   5.674
 7308SOL    HW122823   6.752   4.181   5.720
 7308SOL    HW222824   6.785   4.028   5.674
 7309SOL     OW22825   5.074   5.911   0.232
 7309SOL    HW122826   5.038   5.873   0.317
 7309SOL    HW222827   5.047   6.006   0.224
 7310SOL     OW22828   2.101   3.903   1.446
 7310SOL    HW122829   2.074   3.807   1.452
 7310SOL    HW222830   2.149   3.929   1.530
 7311SOL     OW22831   3.443   2.063   2.111
 7311SOL    HW122832   3.510   2.127   2.072
 7311SOL    HW222833   3.358   2.112   2.131
 7312SOL     OW22834   0.152   3.156   5.940
 7312SOL    HW122835   0.104   3.233   5.982
 7312SOL    HW222836   0.223   3.191   5.878
 7313SOL     OW22837   3.954   1.918   6.178
 7313SOL    HW122838   4.014   1.926   6.257
 7313SOL    HW222839   4.001   1.953   6.097
 7314SOL     OW22840   6.347   3.326   5.523
 7314SOL    HW122841   6.316   3.281   5.607
 7314SOL    HW222842   6.268   3.346   5.465
 7315SOL     OW22843   6.867   6.962   2.967
 7315SOL    HW122844   6.826   6.931   2.881
 7315SOL    HW222845   6.957   7.002   2.948
 7316SOL     OW22846   3.026   3.604   6.184
 7316SOL    HW122847   2.937   3.614   6.227
 7316SOL    HW222848   3.054   3.692   6.144
 7317SOL     OW22849   4.788   0.909   2.671
 7317SOL    HW122850   4.872   0.869   2.636
 7317SOL    HW222851   4.790   1.008   2.660
 7318SOL     OW22852   1.085   1.818   0.559
 7318SOL    HW122853   0.996   1.847   0.526
 7318SOL    HW222854   1.126   1.756   0.491
 7319SOL     OW22855   6.020   3.731   6.069
 7319SOL    HW122856   6.003   3.810   6.011
 7319SOL    HW222857   5.935   3.683   6.087
 7320SOL     OW22858   6.403   3.424   1.781
 7320SOL    HW122859   6.345   3.438   1.861
 7320SOL    HW222860   6.377   3.489   1.709
 7321SOL     OW22861   3.271   6.419   5.093
 7321SOL    HW122862   3.325   6.360   5.033
 7321SOL    HW222863   3.245   6.367   5.175
 7322SOL     OW22864   0.252   2.715   2.745
 7322SOL    HW122865   0.208   2.742   2.659
 7322SOL    HW222866   0.189   2.658   2.798
 7323SOL     OW22867   2.006   2.183   1.607
 7323SOL    HW122868   1.950   2.262   1.583
 7323SOL    HW222869   2.091   2.213   1.650
 7324SOL     OW22870   5.113   6.395   2.448
 7324SOL    HW122871   5.105   6.393   2.547
 7324SOL    HW222872   5.022   6.386   2.407
 7325SOL     OW22873   3.991   6.911   0.064
 7325SOL    HW122874   3.937   6.972   0.123
 7325SOL    HW222875   3.929   6.847   0.018
 7326SOL     OW22876   2.614   6.711   5.467
 7326SOL    HW122877   2.589   6.718   5.563
 7326SOL    HW222878   2.703   6.754   5.453
 7327SOL     OW22879   6.961   2.922   5.240
 7327SOL    HW122880   6.944   3.002   5.183
 7327SOL    HW222881   6.875   2.888   5.277
 7328SOL     OW22882   3.463   0.627   6.048
 7328SOL    HW122883   3.414   0.540   6.048
 7328SOL    HW222884   3.555   0.613   6.087
 7329SOL     OW22885   4.525   3.720   1.610
 7329SOL    HW122886   4.553   3.769   1.693
 7329SOL    HW222887   4.461   3.776   1.558
 7330SOL     OW22888   2.860   2.094   0.101
 7330SOL    HW122889   2.783   2.120   0.043
 7330SOL    HW222890   2.923   2.172   0.110
 7331SOL     OW22891   5.531   0.213   1.709
 7331SOL    HW122892   5.510   0.236   1.614
 7331SOL    HW222893   5.448   0.178   1.753
 7332SOL     OW22894   2.217   6.201   0.237
 7332SOL    HW122895   2.177   6.152   0.314
 7332SOL    HW222896   2.213   6.300   0.254
 7333SOL     OW22897   7.009   3.196   4.032
 7333SOL    HW122898   0.079   3.214   4.005
 7333SOL    HW222899   6.948   3.216   3.955
 7334SOL     OW22900   4.043   6.364   0.207
 7334SOL    HW122901   4.119   6.355   0.273
 7334SOL    HW222902   3.992   6.278   0.204
 7335SOL     OW22903   1.915   3.028   2.643
 7335SOL    HW122904   1.923   2.936   2.606
 7335SOL    HW222905   1.996   3.081   2.618
 7336SOL     OW22906   1.539   6.044   2.963
 7336SOL    HW122907   1.494   6.098   3.033
 7336SOL    HW222908   1.484   6.047   2.879
 7337SOL     OW22909   0.703   3.028   2.213
 7337SOL    HW122910   0.777   3.095   2.205
 7337SOL    HW222911   0.659   3.038   2.302
 7338SOL     OW22912   6.177   2.548   1.139
 7338SOL    HW122913   6.097   2.495   1.167
 7338SOL    HW222914   6.148   2.641   1.115
 7339SOL     OW22915   5.135   6.297   3.550
 7339SOL    HW122916   5.039   6.318   3.567
 7339SOL    HW222917   5.187   6.312   3.635
 7340SOL     OW22918   1.445   0.768   0.726
 7340SOL    HW122919   1.380   0.844   0.726
 7340SOL    HW222920   1.418   0.701   0.656
 7341SOL     OW22921   6.971   2.779   6.804
 7341SOL    HW122922   0.024   2.716   6.808
 7341SOL    HW222923   6.926   2.770   6.714
 7342SOL     OW22924   6.445   1.212   1.509
 7342SOL    HW122925   6.504   1.213   1.590
 7342SOL    HW222926   6.349   1.208   1.538
 7343SOL     OW22927   4.465   2.881   6.986
 7343SOL    HW122928   4.559   2.862   6.960
 7343SOL    HW222929   4.444   2.977   6.968
 7344SOL     OW22930   1.438   6.503   6.090
 7344SOL    HW122931   1.485   6.426   6.134
 7344SOL    HW222932   1.339   6.493   6.103
 7345SOL     OW22933   3.780   3.592   5.820
 7345SOL    HW122934   3.698   3.541   5.795
 7345SOL    HW222935   3.801   3.660   5.749
 7346SOL     OW22936   3.806   5.630   2.592
 7346SOL    HW122937   3.879   5.686   2.554
 7346SOL    HW222938   3.846   5.554   2.644
 7347SOL     OW22939   0.543   1.872   0.539
 7347SOL    HW122940   0.471   1.856   0.471
 7347SOL    HW222941   0.605   1.794   0.540
 7348SOL     OW22942   1.381   3.556   3.955
 7348SOL    HW122943   1.400   3.465   3.921
 7348SOL    HW222944   1.318   3.550   4.033
 7349SOL     OW22945   4.370   0.137   1.985
 7349SOL    HW122946   4.296   0.076   2.013
 7349SOL    HW222947   4.456   0.086   1.983
 7350SOL     OW22948   2.691   1.684   5.556
 7350SOL    HW122949   2.638   1.617   5.608
 7350SOL    HW222950   2.658   1.776   5.578
 7351SOL     OW22951   5.642   5.711   3.408
 7351SOL    HW122952   5.684   5.641   3.350
 7351SOL    HW222953   5.554   5.677   3.444
 7352SOL     OW22954   1.069   1.746   2.808
 7352SOL    HW122955   1.162   1.783   2.801
 7352SOL    HW222956   1.072   1.657   2.853
 7353SOL     OW22957   0.390   0.075   6.761
 7353SOL    HW122958   0.356   0.066   6.854
 7353SOL    HW222959   0.315   0.061   6.696
 7354SOL     OW22960   1.568   0.932   4.695
 7354SOL    HW122961   1.565   1.010   4.633
 7354SOL    HW222962   1.601   0.851   4.645
 7355SOL     OW22963   0.431   1.854   6.535
 7355SOL    HW122964   0.352   1.906   6.568
 7355SOL    HW222965   0.448   1.777   6.597
 7356SOL     OW22966   4.017   3.729   6.202
 7356SOL    HW122967   4.092   3.748   6.266
 7356SOL    HW222968   4.018   3.796   6.127
 7357SOL     OW22969   3.297   6.152   2.138
 7357SOL    HW122970   3.300   6.177   2.235
 7357SOL    HW222971   3.217   6.195   2.095
 7358SOL     OW22972   6.507   3.313   2.414
 7358SOL    HW122973   6.595   3.287   2.453
 7358SOL    HW222974   6.475   3.240   2.352
 7359SOL     OW22975   4.109   2.469   5.746
 7359SOL    HW122976   4.122   2.563   5.714
 7359SOL    HW222977   4.198   2.424   5.757
 7360SOL     OW22978   2.458   3.543   5.667
 7360SOL    HW122979   2.545   3.510   5.632
 7360SOL    HW222980   2.388   3.473   5.654
 7361SOL     OW22981   5.625   1.047   2.773
 7361SOL    HW122982   5.528   1.068   2.783
 7361SOL    HW222983   5.676   1.083   2.851
 7362SOL     OW22984   3.050   5.710   5.862
 7362SOL    HW122985   3.057   5.674   5.769
 7362SOL    HW222986   2.964   5.680   5.903
 7363SOL     OW22987   4.603   1.166   1.566
 7363SOL    HW122988   4.675   1.100   1.544
 7363SOL    HW222989   4.618   1.250   1.515
 7364SOL     OW22990   4.483   0.415   1.954
 7364SOL    HW122991   4.445   0.326   1.981
 7364SOL    HW222992   4.422   0.459   1.888
 7365SOL     OW22993   0.364   6.104   2.182
 7365SOL    HW122994   0.329   6.111   2.275
 7365SOL    HW222995   0.454   6.146   2.176
 7366SOL     OW22996   2.332   6.471   5.228
 7366SOL    HW122997   2.271   6.482   5.150
 7366SOL    HW222998   2.418   6.519   5.210
 7367SOL     OW22999   3.895   2.461   0.404
 7367SOL    HW123000   3.968   2.483   0.340
 7367SOL    HW223001   3.926   2.391   0.468
 7368SOL     OW23002   3.497   2.944   3.060
 7368SOL    HW123003   3.470   2.897   3.143
 7368SOL    HW223004   3.415   2.969   3.007
 7369SOL     OW23005   3.393   2.847   0.873
 7369SOL    HW123006   3.383   2.861   0.774
 7369SOL    HW223007   3.479   2.888   0.904
 7370SOL     OW23008   3.008   2.210   5.679
 7370SOL    HW123009   3.037   2.157   5.599
 7370SOL    HW223010   2.939   2.159   5.730
 7371SOL     OW23011   2.996   6.747   3.770
 7371SOL    HW123012   2.987   6.812   3.695
 7371SOL    HW223013   2.939   6.667   3.752
 7372SOL     OW23014   4.464   6.739   4.808
 7372SOL    HW123015   4.480   6.732   4.906
 7372SOL    HW223016   4.467   6.648   4.767
 7373SOL     OW23017   5.887   1.708   5.078
 7373SOL    HW123018   5.815   1.696   5.147
 7373SOL    HW223019   5.970   1.743   5.122
 7374SOL     OW23020   1.659   2.059   4.636
 7374SOL    HW123021   1.659   2.136   4.572
 7374SOL    HW223022   1.638   2.092   4.728
 7375SOL     OW23023   2.277   2.678   1.959
 7375SOL    HW123024   2.201   2.622   1.991
 7375SOL    HW223025   2.357   2.665   2.018
 7376SOL     OW23026   1.133   3.166   1.188
 7376SOL    HW123027   1.142   3.252   1.137
 7376SOL    HW223028   1.064   3.177   1.260
 7377SOL     OW23029   3.993   5.123   0.923
 7377SOL    HW123030   3.900   5.138   0.957
 7377SOL    HW223031   4.020   5.201   0.867
 7378SOL     OW23032   1.516   6.791   4.873
 7378SOL    HW123033   1.418   6.794   4.892
 7378SOL    HW223034   1.532   6.739   4.789
 7379SOL     OW23035   2.775   0.467   2.034
 7379SOL    HW123036   2.786   0.500   1.940
 7379SOL    HW223037   2.745   0.543   2.092
 7380SOL     OW23038   6.818   4.121   3.857
 7380SOL    HW123039   6.841   4.024   3.851
 7380SOL    HW223040   6.720   4.133   3.838
 7381SOL     OW23041   4.068   2.630   0.850
 7381SOL    HW123042   4.044   2.689   0.928
 7381SOL    HW223043   4.075   2.685   0.767
 7382SOL     OW23044   6.867   2.254   6.177
 7382SOL    HW123045   6.901   2.213   6.092
 7382SOL    HW223046   6.768   2.266   6.172
 7383SOL     OW23047   2.004   5.958   1.760
 7383SOL    HW123048   1.977   5.865   1.733
 7383SOL    HW223049   1.922   6.012   1.778
 7384SOL     OW23050   6.590   7.003   1.479
 7384SOL    HW123051   6.520   6.932   1.475
 7384SOL    HW223052   6.622   0.000   1.387
 7385SOL     OW23053   2.777   5.387   2.737
 7385SOL    HW123054   2.827   5.381   2.824
 7385SOL    HW223055   2.688   5.428   2.753
 7386SOL     OW23056   6.220   2.965   6.706
 7386SOL    HW123057   6.146   2.946   6.769
 7386SOL    HW223058   6.245   3.062   6.711
 7387SOL     OW23059   6.725   5.599   5.921
 7387SOL    HW123060   6.787   5.630   5.993
 7387SOL    HW223061   6.660   5.671   5.899
 7388SOL     OW23062   1.240   5.219   2.609
 7388SOL    HW123063   1.192   5.214   2.522
 7388SOL    HW223064   1.248   5.127   2.648
 7389SOL     OW23065   6.784   3.713   0.638
 7389SOL    HW123066   6.752   3.774   0.565
 7389SOL    HW223067   6.854   3.653   0.601
 7390SOL     OW23068   2.464   2.015   2.430
 7390SOL    HW123069   2.541   1.978   2.482
 7390SOL    HW223070   2.499   2.070   2.354
 7391SOL     OW23071   4.083   3.446   2.887
 7391SOL    HW123072   4.085   3.395   2.973
 7391SOL    HW223073   4.033   3.532   2.901
 7392SOL     OW23074   3.389   6.317   0.015
 7392SOL    HW123075   3.300   6.362   0.022
 7392SOL    HW223076   3.401   6.280   6.947
 7393SOL     OW23077   6.709   4.405   3.564
 7393SOL    HW123078   6.796   4.379   3.606
 7393SOL    HW223079   6.674   4.488   3.608
 7394SOL     OW23080   1.881   2.996   6.170
 7394SOL    HW123081   1.914   2.922   6.230
 7394SOL    HW223082   1.930   3.080   6.192
 7395SOL     OW23083   2.223   3.109   1.455
 7395SOL    HW123084   2.285   3.044   1.411
 7395SOL    HW223085   2.263   3.141   1.541
 7396SOL     OW23086   2.333   6.246   1.804
 7396SOL    HW123087   2.391   6.326   1.814
 7396SOL    HW223088   2.389   6.163   1.800
 7397SOL     OW23089   4.922   3.281   4.376
 7397SOL    HW123090   4.923   3.269   4.277
 7397SOL    HW223091   4.927   3.378   4.398
 7398SOL     OW23092   1.333   4.769   3.370
 7398SOL    HW123093   1.262   4.832   3.402
 7398SOL    HW223094   1.394   4.747   3.446
 7399SOL     OW23095   6.586   2.784   4.580
 7399SOL    HW123096   6.537   2.849   4.638
 7399SOL    HW223097   6.564   2.802   4.484
 7400SOL     OW23098   5.052   2.196   5.394
 7400SOL    HW123099   5.009   2.147   5.470
 7400SOL    HW223100   5.075   2.130   5.322
 7401SOL     OW23101   1.970   2.651   3.606
 7401SOL    HW123102   1.967   2.552   3.616
 7401SOL    HW223103   1.939   2.676   3.514
 7402SOL     OW23104   2.739   5.118   5.697
 7402SOL    HW123105   2.639   5.116   5.694
 7402SOL    HW223106   2.773   5.030   5.731
 7403SOL     OW23107   1.831   2.953   2.896
 7403SOL    HW123108   1.870   2.974   2.806
 7403SOL    HW223109   1.884   2.880   2.939
 7404SOL     OW23110   3.255   4.124   1.532
 7404SOL    HW123111   3.248   4.061   1.609
 7404SOL    HW223112   3.338   4.179   1.541
 7405SOL     OW23113   2.960   5.237   5.007
 7405SOL    HW123114   2.947   5.165   5.075
 7405SOL    HW223115   3.039   5.293   5.033
 7406SOL     OW23116   0.803   1.640   5.431
 7406SOL    HW123117   0.854   1.582   5.368
 7406SOL    HW223118   0.823   1.736   5.412
 7407SOL     OW23119   1.006   6.136   6.812
 7407SOL    HW123120   0.930   6.083   6.773
 7407SOL    HW223121   1.091   6.086   6.798
 7408SOL     OW23122   3.349   4.081   5.683
 7408SOL    HW123123   3.269   4.053   5.629
 7408SOL    HW223124   3.432   4.073   5.627
 7409SOL     OW23125   5.151   4.277   0.044
 7409SOL    HW123126   5.222   4.249   0.109
 7409SOL    HW223127   5.184   4.263   6.975
 7410SOL     OW23128   0.307   0.280   0.280
 7410SOL    HW123129   0.381   0.311   0.340
 7410SOL    HW223130   0.229   0.341   0.288
 7411SOL     OW23131   1.673   1.359   6.002
 7411SOL    HW123132   1.768   1.343   6.031
 7411SOL    HW223133   1.647   1.289   5.935
 7412SOL     OW23134   4.161   6.667   0.367
 7412SOL    HW123135   4.208   6.717   0.295
 7412SOL    HW223136   4.074   6.632   0.332
 7413SOL     OW23137   4.669   4.345   3.380
 7413SOL    HW123138   4.704   4.269   3.435
 7413SOL    HW223139   4.724   4.427   3.397
 7414SOL     OW23140   2.130   2.385   4.464
 7414SOL    HW123141   2.132   2.286   4.479
 7414SOL    HW223142   2.038   2.412   4.435
 7415SOL     OW23143   3.189   6.347   6.376
 7415SOL    HW123144   3.184   6.312   6.282
 7415SOL    HW223145   3.152   6.278   6.438
 7416SOL     OW23146   1.227   1.589   2.603
 7416SOL    HW123147   1.229   1.667   2.666
 7416SOL    HW223148   1.183   1.511   2.648
 7417SOL     OW23149   1.573   2.121   2.683
 7417SOL    HW123150   1.671   2.115   2.699
 7417SOL    HW223151   1.541   2.035   2.643
 7418SOL     OW23152   1.815   4.744   0.278
 7418SOL    HW123153   1.797   4.652   0.313
 7418SOL    HW223154   1.750   4.765   0.204
 7419SOL     OW23155   6.274   3.527   3.931
 7419SOL    HW123156   6.178   3.555   3.933
 7419SOL    HW223157   6.297   3.494   3.840
 7420SOL     OW23158   6.737   6.161   1.883
 7420SOL    HW123159   6.700   6.119   1.965
 7420SOL    HW223160   6.836   6.142   1.877
 7421SOL     OW23161   4.321   3.910   1.483
 7421SOL    HW123162   4.332   3.954   1.393
 7421SOL    HW223163   4.363   3.966   1.553
 7422SOL     OW23164   6.314   3.569   2.421
 7422SOL    HW123165   6.224   3.537   2.393
 7422SOL    HW223166   6.375   3.491   2.434
 7423SOL     OW23167   5.460   1.962   5.164
 7423SOL    HW123168   5.552   2.000   5.176
 7423SOL    HW223169   5.417   1.950   5.253
 7424SOL     OW23170   6.589   1.568   5.313
 7424SOL    HW123171   6.666   1.505   5.301
 7424SOL    HW223172   6.608   1.653   5.265
 7425SOL     OW23173   5.284   6.987   0.220
 7425SOL    HW123174   5.340   6.912   0.185
 7425SOL    HW223175   5.230   0.002   0.146
 7426SOL     OW23176   3.255   2.390   5.778
 7426SOL    HW123177   3.338   2.339   5.758
 7426SOL    HW223178   3.200   2.398   5.695
 7427SOL     OW23179   3.795   1.451   3.677
 7427SOL    HW123180   3.703   1.433   3.710
 7427SOL    HW223181   3.858   1.456   3.755
 7428SOL     OW23182   4.079   6.818   5.530
 7428SOL    HW123183   4.047   6.724   5.546
 7428SOL    HW223184   4.100   6.830   5.434
 7429SOL     OW23185   1.300   6.577   3.467
 7429SOL    HW123186   1.278   6.482   3.444
 7429SOL    HW223187   1.327   6.626   3.384
 7430SOL     OW23188   6.892   4.235   1.663
 7430SOL    HW123189   6.979   4.283   1.669
 7430SOL    HW223190   6.823   4.295   1.621
 7431SOL     OW23191   2.262   2.500   3.960
 7431SOL    HW123192   2.360   2.516   3.947
 7431SOL    HW223193   2.247   2.446   4.042
 7432SOL     OW23194   2.120   0.493   3.412
 7432SOL    HW123195   2.116   0.565   3.482
 7432SOL    HW223196   2.137   0.405   3.455
 7433SOL     OW23197   3.164   6.806   7.024
 7433SOL    HW123198   3.145   6.904   0.001
 7433SOL    HW223199   3.193   6.779   6.932
 7434SOL     OW23200   4.775   6.078   5.836
 7434SOL    HW123201   4.684   6.058   5.801
 7434SOL    HW223202   4.814   6.155   5.785
 7435SOL     OW23203   4.632   6.112   1.774
 7435SOL    HW123204   4.568   6.189   1.783
 7435SOL    HW223205   4.601   6.053   1.700
 7436SOL     OW23206   4.675   4.503   6.131
 7436SOL    HW123207   4.769   4.521   6.160
 7436SOL    HW223208   4.665   4.524   6.034
 7437SOL     OW23209   2.864   5.629   1.458
 7437SOL    HW123210   2.960   5.609   1.438
 7437SOL    HW223211   2.834   5.706   1.401
 7438SOL     OW23212   1.624   0.896   0.574
 7438SOL    HW123213   1.566   0.851   0.643
 7438SOL    HW223214   1.616   0.995   0.582
 7439SOL     OW23215   1.663   5.225   5.406
 7439SOL    HW123216   1.716   5.297   5.360
 7439SOL    HW223217   1.637   5.155   5.339
 7440SOL     OW23218   6.102   3.225   3.926
 7440SOL    HW123219   6.171   3.254   3.860
 7440SOL    HW223220   6.125   3.261   4.016
 7441SOL     OW23221   5.752   6.543   3.577
 7441SOL    HW123222   5.802   6.556   3.663
 7441SOL    HW223223   5.780   6.457   3.534
 7442SOL     OW23224   5.963   0.800   6.160
 7442SOL    HW123225   6.025   0.783   6.084
 7442SOL    HW223226   6.002   0.765   6.245
 7443SOL     OW23227   6.844   5.488   1.836
 7443SOL    HW123228   6.848   5.569   1.778
 7443SOL    HW223229   6.774   5.501   1.907
 7444SOL     OW23230   6.524   1.176   5.988
 7444SOL    HW123231   6.558   1.231   5.912
 7444SOL    HW223232   6.553   1.218   6.074
 7445SOL     OW23233   3.872   6.997   1.439
 7445SOL    HW123234   3.807   0.001   1.369
 7445SOL    HW223235   3.848   0.014   1.526
 7446SOL     OW23236   4.976   2.987   0.500
 7446SOL    HW123237   4.920   3.070   0.491
 7446SOL    HW223238   5.071   3.010   0.479
 7447SOL     OW23239   6.697   4.306   6.985
 7447SOL    HW123240   6.756   4.226   6.999
 7447SOL    HW223241   6.715   4.345   6.894
 7448SOL     OW23242   5.403   6.172   5.835
 7448SOL    HW123243   5.375   6.268   5.823
 7448SOL    HW223244   5.464   6.165   5.914
 7449SOL     OW23245   0.394   5.218   0.396
 7449SOL    HW123246   0.454   5.291   0.428
 7449SOL    HW223247   0.357   5.243   0.306
 7450SOL     OW23248   5.298   2.225   5.540
 7450SOL    HW123249   5.323   2.289   5.613
 7450SOL    HW223250   5.198   2.226   5.528
 7451SOL     OW23251   5.563   5.669   2.660
 7451SOL    HW123252   5.508   5.585   2.656
 7451SOL    HW223253   5.503   5.746   2.680
 7452SOL     OW23254   6.058   6.255   4.403
 7452SOL    HW123255   6.075   6.298   4.315
 7452SOL    HW223256   5.960   6.248   4.419
 7453SOL     OW23257   5.155   5.711   6.212
 7453SOL    HW123258   5.156   5.774   6.134
 7453SOL    HW223259   5.188   5.759   6.293
 7454SOL     OW23260   3.122   1.688   0.372
 7454SOL    HW123261   3.216   1.721   0.370
 7454SOL    HW223262   3.063   1.756   0.415
 7455SOL     OW23263   6.202   3.181   2.702
 7455SOL    HW123264   6.138   3.162   2.777
 7455SOL    HW223265   6.212   3.280   2.690
 7456SOL     OW23266   2.443   1.936   5.347
 7456SOL    HW123267   2.532   1.902   5.376
 7456SOL    HW223268   2.440   1.942   5.247
 7457SOL     OW23269   2.411   0.122   3.850
 7457SOL    HW123270   2.510   0.112   3.843
 7457SOL    HW223271   2.366   0.044   3.808
 7458SOL     OW23272   1.089   0.099   5.327
 7458SOL    HW123273   1.026   0.108   5.250
 7458SOL    HW223274   1.151   0.178   5.329
 7459SOL     OW23275   6.242   1.106   2.525
 7459SOL    HW123276   6.256   1.065   2.615
 7459SOL    HW223277   6.144   1.122   2.510
 7460SOL     OW23278   1.476   6.568   7.006
 7460SOL    HW123279   1.458   6.614   0.069
 7460SOL    HW223280   1.443   6.626   6.931
 7461SOL     OW23281   6.731   6.061   5.314
 7461SOL    HW123282   6.667   6.124   5.270
 7461SOL    HW223283   6.804   6.036   5.249
 7462SOL     OW23284   1.006   5.684   1.102
 7462SOL    HW123285   0.973   5.679   1.007
 7462SOL    HW223286   0.950   5.749   1.153
 7463SOL     OW23287   3.534   4.727   0.689
 7463SOL    HW123288   3.555   4.813   0.642
 7463SOL    HW223289   3.438   4.726   0.716
 7464SOL     OW23290   0.319   5.920   4.755
 7464SOL    HW123291   0.272   5.958   4.834
 7464SOL    HW223292   0.326   5.821   4.764
 7465SOL     OW23293   2.856   5.304   0.265
 7465SOL    HW123294   2.840   5.236   0.193
 7465SOL    HW223295   2.821   5.269   0.352
 7466SOL     OW23296   0.398   0.629   5.825
 7466SOL    HW123297   0.412   0.684   5.907
 7466SOL    HW223298   0.486   0.594   5.792
 7467SOL     OW23299   0.472   2.716   5.966
 7467SOL    HW123300   0.511   2.673   6.046
 7467SOL    HW223301   0.398   2.778   5.993
 7468SOL     OW23302   5.500   3.019   4.333
 7468SOL    HW123303   5.469   2.970   4.252
 7468SOL    HW223304   5.483   2.963   4.414
 7469SOL     OW23305   6.690   2.106   0.103
 7469SOL    HW123306   6.648   2.022   0.068
 7469SOL    HW223307   6.651   2.127   0.193
 7470SOL     OW23308   5.667   4.119   3.747
 7470SOL    HW123309   5.748   4.060   3.747
 7470SOL    HW223310   5.624   4.118   3.837
 7471SOL     OW23311   5.159   5.803   5.958
 7471SOL    HW123312   5.086   5.834   5.897
 7471SOL    HW223313   5.177   5.706   5.943
 7472SOL     OW23314   6.686   0.676   5.658
 7472SOL    HW123315   6.729   0.684   5.748
 7472SOL    HW223316   6.757   0.678   5.588
 7473SOL     OW23317   4.806   6.923   3.691
 7473SOL    HW123318   4.727   6.980   3.712
 7473SOL    HW223319   4.867   6.919   3.770
 7474SOL     OW23320   5.994   2.525   6.833
 7474SOL    HW123321   6.077   2.492   6.788
 7474SOL    HW223322   5.934   2.567   6.766
 7475SOL     OW23323   4.290   2.231   2.269
 7475SOL    HW123324   4.230   2.217   2.190
 7475SOL    HW223325   4.244   2.198   2.351
 7476SOL     OW23326   2.241   2.476   2.747
 7476SOL    HW123327   2.319   2.524   2.708
 7476SOL    HW223328   2.270   2.424   2.827
 7477SOL     OW23329   0.574   3.256   4.567
 7477SOL    HW123330   0.498   3.316   4.593
 7477SOL    HW223331   0.566   3.230   4.471
 7478SOL     OW23332   5.753   2.980   5.091
 7478SOL    HW123333   5.699   2.961   5.174
 7478SOL    HW223334   5.713   2.931   5.014
 7479SOL     OW23335   5.454   3.233   6.886
 7479SOL    HW123336   5.359   3.204   6.903
 7479SOL    HW223337   5.513   3.153   6.885
 7480SOL     OW23338   2.319   5.405   2.504
 7480SOL    HW123339   2.306   5.332   2.571
 7480SOL    HW223340   2.264   5.386   2.422
 7481SOL     OW23341   6.060   4.302   6.541
 7481SOL    HW123342   6.005   4.386   6.534
 7481SOL    HW223343   6.003   4.223   6.519
 7482SOL     OW23344   4.137   2.241   2.674
 7482SOL    HW123345   4.236   2.229   2.682
 7482SOL    HW223346   4.095   2.221   2.763
 7483SOL     OW23347   4.709   2.270   4.594
 7483SOL    HW123348   4.654   2.332   4.538
 7483SOL    HW223349   4.791   2.243   4.543
 7484SOL     OW23350   2.538   5.414   4.571
 7484SOL    HW123351   2.500   5.345   4.632
 7484SOL    HW223352   2.558   5.373   4.482
 7485SOL     OW23353   2.762   0.058   3.717
 7485SOL    HW123354   2.705   0.128   3.674
 7485SOL    HW223355   2.765   0.074   3.816
 7486SOL     OW23356   0.594   5.863   0.181
 7486SOL    HW123357   0.650   5.819   0.111
 7486SOL    HW223358   0.519   5.913   0.136
 7487SOL     OW23359   4.686   0.874   3.172
 7487SOL    HW123360   4.599   0.861   3.126
 7487SOL    HW223361   4.703   0.971   3.186
 7488SOL     OW23362   1.235   6.420   4.182
 7488SOL    HW123363   1.291   6.502   4.193
 7488SOL    HW223364   1.208   6.386   4.273
 7489SOL     OW23365   6.355   3.756   0.086
 7489SOL    HW123366   6.384   3.664   0.115
 7489SOL    HW223367   6.331   3.754   7.013
 7490SOL     OW23368   1.428   1.900   2.513
 7490SOL    HW123369   1.364   1.962   2.467
 7490SOL    HW223370   1.504   1.878   2.452
 7491SOL     OW23371   4.785   2.794   0.818
 7491SOL    HW123372   4.736   2.794   0.731
 7491SOL    HW223373   4.727   2.834   0.889
 7492SOL     OW23374   1.757   1.177   4.015
 7492SOL    HW123375   1.769   1.107   4.085
 7492SOL    HW223376   1.795   1.144   3.928
 7493SOL     OW23377   6.588   3.723   5.423
 7493SOL    HW123378   6.521   3.753   5.355
 7493SOL    HW223379   6.541   3.679   5.499
 7494SOL     OW23380   5.618   0.855   3.900
 7494SOL    HW123381   5.533   0.862   3.848
 7494SOL    HW223382   5.611   0.779   3.964
 7495SOL     OW23383   2.204   3.085   4.584
 7495SOL    HW123384   2.181   2.992   4.554
 7495SOL    HW223385   2.217   3.086   4.683
 7496SOL     OW23386   6.292   3.373   3.717
 7496SOL    HW123387   6.200   3.359   3.680
 7496SOL    HW223388   6.358   3.368   3.642
 7497SOL     OW23389   1.332   6.265   1.551
 7497SOL    HW123390   1.385   6.331   1.498
 7497SOL    HW223391   1.392   6.193   1.585
 7498SOL     OW23392   2.787   0.859   3.771
 7498SOL    HW123393   2.793   0.901   3.681
 7498SOL    HW223394   2.821   0.765   3.767
 7499SOL     OW23395   4.601   1.900   3.600
 7499SOL    HW123396   4.640   1.963   3.667
 7499SOL    HW223397   4.633   1.807   3.619
 7500SOL     OW23398   3.663   6.497   3.796
 7500SOL    HW123399   3.599   6.460   3.864
 7500SOL    HW223400   3.658   6.596   3.796
 7501SOL     OW23401   6.076   2.950   3.966
 7501SOL    HW123402   5.983   2.934   3.998
 7501SOL    HW223403   6.083   3.042   3.927
 7502SOL     OW23404   3.692   0.161   4.124
 7502SOL    HW123405   3.659   0.103   4.199
 7502SOL    HW223406   3.628   0.237   4.110
 7503SOL     OW23407   1.822   6.258   0.847
 7503SOL    HW123408   1.764   6.295   0.774
 7503SOL    HW223409   1.918   6.276   0.825
 7504SOL     OW23410   0.533   6.369   2.102
 7504SOL    HW123411   0.532   6.337   2.008
 7504SOL    HW223412   0.439   6.380   2.135
 7505SOL     OW23413   0.305   1.634   5.670
 7505SOL    HW123414   0.375   1.573   5.631
 7505SOL    HW223415   0.222   1.628   5.615
 7506SOL     OW23416   3.541   2.017   3.236
 7506SOL    HW123417   3.556   1.926   3.199
 7506SOL    HW223418   3.459   2.057   3.194
 7507SOL     OW23419   6.397   3.727   4.703
 7507SOL    HW123420   6.494   3.705   4.697
 7507SOL    HW223421   6.343   3.643   4.690
 7508SOL     OW23422   1.637   5.669   0.404
 7508SOL    HW123423   1.695   5.588   0.410
 7508SOL    HW223424   1.627   5.696   0.308
 7509SOL     OW23425   5.103   4.213   0.353
 7509SOL    HW123426   5.118   4.115   0.346
 7509SOL    HW223427   5.184   4.262   0.322
 7510SOL     OW23428   4.139   3.576   3.909
 7510SOL    HW123429   4.103   3.483   3.922
 7510SOL    HW223430   4.236   3.572   3.888
 7511SOL     OW23431   3.181   5.803   2.991
 7511SOL    HW123432   3.173   5.900   3.014
 7511SOL    HW223433   3.105   5.777   2.932
 7512SOL     OW23434   2.877   0.827   6.344
 7512SOL    HW123435   2.899   0.782   6.257
 7512SOL    HW223436   2.861   0.757   6.414
 7513SOL     OW23437   2.056   2.175   3.333
 7513SOL    HW123438   2.051   2.076   3.350
 7513SOL    HW223439   2.067   2.222   3.420
 7514SOL     OW23440   1.402   4.334   3.906
 7514SOL    HW123441   1.415   4.433   3.913
 7514SOL    HW223442   1.402   4.307   3.810
 7515SOL     OW23443   6.629   4.223   5.300
 7515SOL    HW123444   6.547   4.278   5.319
 7515SOL    HW223445   6.709   4.268   5.339
 7516SOL     OW23446   1.488   5.378   6.156
 7516SOL    HW123447   1.577   5.331   6.159
 7516SOL    HW223448   1.501   5.474   6.131
 7517SOL     OW23449   1.383   2.758   6.716
 7517SOL    HW123450   1.432   2.678   6.681
 7517SOL    HW223451   1.295   2.729   6.754
 7518SOL     OW23452   4.810   3.014   3.882
 7518SOL    HW123453   4.770   3.100   3.914
 7518SOL    HW223454   4.824   2.953   3.960
 7519SOL     OW23455   4.936   0.267   4.531
 7519SOL    HW123456   4.956   0.242   4.626
 7519SOL    HW223457   4.878   0.349   4.530
 7520SOL     OW23458   1.476   1.509   2.269
 7520SOL    HW123459   1.378   1.526   2.284
 7520SOL    HW223460   1.528   1.587   2.302
 7521SOL     OW23461   4.809   1.835   4.625
 7521SOL    HW123462   4.881   1.901   4.604
 7521SOL    HW223463   4.818   1.807   4.721
 7522SOL     OW23464   1.201   6.750   4.353
 7522SOL    HW123465   1.191   6.729   4.255
 7522SOL    HW223466   1.266   6.825   4.365
 7523SOL     OW23467   5.223   0.357   6.067
 7523SOL    HW123468   5.197   0.449   6.039
 7523SOL    HW223469   5.319   0.341   6.047
 7524SOL     OW23470   6.801   2.611   4.688
 7524SOL    HW123471   6.734   2.676   4.652
 7524SOL    HW223472   6.754   2.540   4.740
 7525SOL     OW23473   4.389   6.818   6.755
 7525SOL    HW123474   4.322   6.746   6.736
 7525SOL    HW223475   4.474   6.777   6.786
 7526SOL     OW23476   2.244   3.239   1.690
 7526SOL    HW123477   2.285   3.306   1.752
 7526SOL    HW223478   2.178   3.183   1.739
 7527SOL     OW23479   3.548   5.954   3.861
 7527SOL    HW123480   3.629   6.000   3.898
 7527SOL    HW223481   3.492   5.921   3.937
 7528SOL     OW23482   5.382   1.830   0.039
 7528SOL    HW123483   5.349   1.913   7.019
 7528SOL    HW223484   5.449   1.785   7.004
 7529SOL     OW23485   5.657   1.669   3.414
 7529SOL    HW123486   5.716   1.723   3.474
 7529SOL    HW223487   5.710   1.595   3.373
 7530SOL     OW23488   6.929   1.519   2.316
 7530SOL    HW123489   6.867   1.464   2.372
 7530SOL    HW223490   6.896   1.520   2.222
 7531SOL     OW23491   4.809   2.675   3.362
 7531SOL    HW123492   4.892   2.640   3.318
 7531SOL    HW223493   4.735   2.679   3.296
 7532SOL     OW23494   4.651   5.908   6.453
 7532SOL    HW123495   4.746   5.890   6.426
 7532SOL    HW223496   4.590   5.847   6.403
 7533SOL     OW23497   4.224   2.833   1.655
 7533SOL    HW123498   4.229   2.739   1.622
 7533SOL    HW223499   4.316   2.871   1.664
 7534SOL     OW23500   5.053   6.576   4.615
 7534SOL    HW123501   5.124   6.511   4.642
 7534SOL    HW223502   5.028   6.632   4.694
 7535SOL     OW23503   1.552   6.312   5.141
 7535SOL    HW123504   1.636   6.337   5.092
 7535SOL    HW223505   1.477   6.370   5.110
 7536SOL     OW23506   5.168   6.271   3.812
 7536SOL    HW123507   5.249   6.212   3.808
 7536SOL    HW223508   5.124   6.260   3.901
 7537SOL     OW23509   1.597   5.309   2.018
 7537SOL    HW123510   1.669   5.313   1.949
 7537SOL    HW223511   1.631   5.346   2.105
 7538SOL     OW23512   1.022   2.874   1.498
 7538SOL    HW123513   1.104   2.835   1.539
 7538SOL    HW223514   0.969   2.922   1.568
 7539SOL     OW23515   1.585   5.347   3.517
 7539SOL    HW123516   1.569   5.311   3.609
 7539SOL    HW223517   1.567   5.275   3.450
 7540SOL     OW23518   5.125   5.816   4.417
 7540SOL    HW123519   5.213   5.807   4.370
 7540SOL    HW223520   5.088   5.725   4.437
 7541SOL     OW23521   0.853   4.020   6.532
 7541SOL    HW123522   0.953   4.021   6.532
 7541SOL    HW223523   0.820   3.961   6.606
 7542SOL     OW23524   6.514   5.888   5.556
 7542SOL    HW123525   6.414   5.896   5.563
 7542SOL    HW223526   6.538   5.860   5.463
 7543SOL     OW23527   2.649   0.333   5.011
 7543SOL    HW123528   2.711   0.411   5.016
 7543SOL    HW223529   2.683   0.268   4.943
 7544SOL     OW23530   0.208   2.483   4.325
 7544SOL    HW123531   0.201   2.400   4.269
 7544SOL    HW223532   0.226   2.457   4.420
 7545SOL     OW23533   0.440   5.774   6.340
 7545SOL    HW123534   0.346   5.740   6.346
 7545SOL    HW223535   0.440   5.874   6.349
 7546SOL     OW23536   4.192   2.380   1.708
 7546SOL    HW123537   4.255   2.344   1.777
 7546SOL    HW223538   4.104   2.333   1.717
 7547SOL     OW23539   4.595   0.685   1.719
 7547SOL    HW123540   4.586   0.652   1.625
 7547SOL    HW223541   4.505   0.704   1.757
 7548SOL     OW23542   4.472   1.937   6.966
 7548SOL    HW123543   4.393   1.893   7.009
 7548SOL    HW223544   4.556   1.902   7.007
 7549SOL     OW23545   3.830   2.671   6.203
 7549SOL    HW123546   3.908   2.608   6.208
 7549SOL    HW223547   3.858   2.761   6.236
 7550SOL     OW23548   1.790   4.209   3.904
 7550SOL    HW123549   1.793   4.280   3.834
 7550SOL    HW223550   1.852   4.135   3.878
 7551SOL     OW23551   5.248   2.738   5.393
 7551SOL    HW123552   5.300   2.653   5.388
 7551SOL    HW223553   5.303   2.808   5.438
 7552SOL     OW23554   1.675   5.901   4.874
 7552SOL    HW123555   1.774   5.903   4.863
 7552SOL    HW223556   1.648   5.963   4.948
 7553SOL     OW23557   6.134   5.967   5.942
 7553SOL    HW123558   6.160   5.938   6.034
 7553SOL    HW223559   6.086   5.892   5.896
 7554SOL     OW23560   5.617   1.124   0.542
 7554SOL    HW123561   5.678   1.057   0.585
 7554SOL    HW223562   5.665   1.211   0.533
 7555SOL     OW23563   3.102   6.599   6.435
 7555SOL    HW123564   3.021   6.587   6.493
 7555SOL    HW223565   3.146   6.511   6.422
 7556SOL     OW23566   1.112   1.226   0.444
 7556SOL    HW123567   1.192   1.180   0.405
 7556SOL    HW223568   1.123   1.325   0.438
 7557SOL     OW23569   4.881   0.283   0.436
 7557SOL    HW123570   4.794   0.310   0.396
 7557SOL    HW223571   4.953   0.344   0.402
 7558SOL     OW23572   1.674   2.469   3.784
 7558SOL    HW123573   1.724   2.460   3.698
 7558SOL    HW223574   1.611   2.547   3.779
 7559SOL     OW23575   3.811   2.320   5.325
 7559SOL    HW123576   3.749   2.278   5.392
 7559SOL    HW223577   3.905   2.295   5.346
 7560SOL     OW23578   6.159   0.008   0.115
 7560SOL    HW123579   6.196   7.019   0.023
 7560SOL    HW223580   6.170   0.104   0.143
 7561SOL     OW23581   5.276   2.933   5.701
 7561SOL    HW123582   5.190   2.954   5.747
 7561SOL    HW223583   5.295   3.004   5.632
 7562SOL     OW23584   1.255   4.837   4.931
 7562SOL    HW123585   1.333   4.886   4.971
 7562SOL    HW223586   1.272   4.739   4.934
 7563SOL     OW23587   2.999   6.322   2.538
 7563SOL    HW123588   2.986   6.419   2.518
 7563SOL    HW223589   3.065   6.284   2.474
 7564SOL     OW23590   4.582   0.582   4.841
 7564SOL    HW123591   4.628   0.596   4.753
 7564SOL    HW223592   4.539   0.492   4.841
 7565SOL     OW23593   5.772   3.905   6.089
 7565SOL    HW123594   5.706   3.963   6.042
 7565SOL    HW223595   5.857   3.956   6.103
 7566SOL     OW23596   5.483   4.886   2.622
 7566SOL    HW123597   5.579   4.876   2.648
 7566SOL    HW223598   5.463   4.825   2.545
 7567SOL     OW23599   1.129   1.532   4.657
 7567SOL    HW123600   1.168   1.589   4.730
 7567SOL    HW223601   1.094   1.447   4.696
 7568SOL     OW23602   5.829   5.710   2.663
 7568SOL    HW123603   5.881   5.641   2.714
 7568SOL    HW223604   5.733   5.706   2.689
 7569SOL     OW23605   3.676   4.726   6.623
 7569SOL    HW123606   3.683   4.645   6.566
 7569SOL    HW223607   3.674   4.700   6.719
 7570SOL     OW23608   0.168   2.652   3.365
 7570SOL    HW123609   0.173   2.729   3.428
 7570SOL    HW223610   0.073   2.623   3.354
 7571SOL     OW23611   5.551   3.250   2.981
 7571SOL    HW123612   5.637   3.204   2.997
 7571SOL    HW223613   5.521   3.235   2.887
 7572SOL     OW23614   4.751   6.366   2.950
 7572SOL    HW123615   4.845   6.346   2.981
 7572SOL    HW223616   4.753   6.394   2.854
 7573SOL     OW23617   5.882   0.378   6.028
 7573SOL    HW123618   5.919   0.286   6.018
 7573SOL    HW223619   5.791   0.382   5.986
 7574SOL     OW23620   5.755   1.151   4.055
 7574SOL    HW123621   5.788   1.145   3.961
 7574SOL    HW223622   5.668   1.103   4.063
 7575SOL     OW23623   6.087   6.478   0.927
 7575SOL    HW123624   6.163   6.455   0.989
 7575SOL    HW223625   6.097   6.573   0.897
 7576SOL     OW23626   4.975   2.453   1.064
 7576SOL    HW123627   4.937   2.365   1.093
 7576SOL    HW223628   4.930   2.482   0.980
 7577SOL     OW23629   6.916   6.879   0.264
 7577SOL    HW123630   6.930   6.854   0.360
 7577SOL    HW223631   6.898   6.978   0.258
 7578SOL     OW23632   0.797   5.381   2.614
 7578SOL    HW123633   0.777   5.376   2.712
 7578SOL    HW223634   0.745   5.309   2.566
 7579SOL     OW23635   6.861   1.880   1.537
 7579SOL    HW123636   6.801   1.917   1.466
 7579SOL    HW223637   6.840   1.923   1.625
 7580SOL     OW23638   1.916   4.418   3.351
 7580SOL    HW123639   1.856   4.389   3.426
 7580SOL    HW223640   1.862   4.464   3.281
 7581SOL     OW23641   0.842   1.300   1.179
 7581SOL    HW123642   0.853   1.380   1.237
 7581SOL    HW223643   0.930   1.253   1.169
 7582SOL     OW23644   4.613   1.838   3.919
 7582SOL    HW123645   4.648   1.844   4.013
 7582SOL    HW223646   4.608   1.930   3.880
 7583SOL     OW23647   5.196   3.586   3.457
 7583SOL    HW123648   5.103   3.551   3.452
 7583SOL    HW223649   5.220   3.630   3.370
 7584SOL     OW23650   0.663   0.101   2.565
 7584SOL    HW123651   0.693   0.044   2.641
 7584SOL    HW223652   0.569   0.077   2.540
 7585SOL     OW23653   0.859   1.923   6.694
 7585SOL    HW123654   0.891   1.921   6.789
 7585SOL    HW223655   0.777   1.980   6.689
 7586SOL     OW23656   1.383   0.760   2.396
 7586SOL    HW123657   1.428   0.842   2.361
 7586SOL    HW223658   1.452   0.700   2.436
 7587SOL     OW23659   3.427   0.995   0.277
 7587SOL    HW123660   3.409   1.093   0.265
 7587SOL    HW223661   3.492   0.982   0.351
 7588SOL     OW23662   1.310   2.679   4.262
 7588SOL    HW123663   1.251   2.747   4.218
 7588SOL    HW223664   1.402   2.717   4.273
 7589SOL     OW23665   0.414   1.095   2.780
 7589SOL    HW123666   0.352   1.119   2.854
 7589SOL    HW223667   0.361   1.077   2.697
 7590SOL     OW23668   6.595   1.593   6.909
 7590SOL    HW123669   6.642   1.583   6.996
 7590SOL    HW223670   6.575   1.690   6.892
 7591SOL     OW23671   4.649   2.697   6.702
 7591SOL    HW123672   4.685   2.668   6.613
 7591SOL    HW223673   4.633   2.616   6.759
 7592SOL     OW23674   6.081   4.652   4.906
 7592SOL    HW123675   6.159   4.613   4.954
 7592SOL    HW223676   6.096   4.749   4.889
 7593SOL     OW23677   6.586   2.237   6.170
 7593SOL    HW123678   6.595   2.142   6.140
 7593SOL    HW223679   6.546   2.239   6.262
 7594SOL     OW23680   0.291   4.644   1.104
 7594SOL    HW123681   0.283   4.553   1.061
 7594SOL    HW223682   0.378   4.685   1.078
 7595SOL     OW23683   6.660   3.030   6.223
 7595SOL    HW123684   6.726   3.047   6.149
 7595SOL    HW223685   6.707   3.035   6.311
 7596SOL     OW23686   3.194   0.154   5.136
 7596SOL    HW123687   3.150   0.100   5.208
 7596SOL    HW223688   3.130   0.225   5.104
 7597SOL     OW23689   2.019   6.178   2.315
 7597SOL    HW123690   2.077   6.250   2.355
 7597SOL    HW223691   1.980   6.211   2.229
 7598SOL     OW23692   6.108   0.445   2.772
 7598SOL    HW123693   6.169   0.447   2.693
 7598SOL    HW223694   6.042   0.521   2.765
 7599SOL     OW23695   4.204   3.351   1.052
 7599SOL    HW123696   4.178   3.436   1.099
 7599SOL    HW223697   4.263   3.297   1.112
 7600SOL     OW23698   1.816   1.167   3.714
 7600SOL    HW123699   1.877   1.180   3.636
 7600SOL    HW223700   1.738   1.230   3.705
 7601SOL     OW23701   3.446   5.497   2.054
 7601SOL    HW123702   3.501   5.568   2.100
 7601SOL    HW223703   3.507   5.436   2.003
 7602SOL     OW23704   0.530   2.607   0.134
 7602SOL    HW123705   0.444   2.658   0.144
 7602SOL    HW223706   0.596   2.664   0.085
 7603SOL     OW23707   2.405   6.946   5.841
 7603SOL    HW123708   2.395   6.852   5.871
 7603SOL    HW223709   2.320   6.997   5.861
 7604SOL     OW23710   1.387   2.118   5.010
 7604SOL    HW123711   1.393   2.021   5.034
 7604SOL    HW223712   1.317   2.161   5.066
 7605SOL     OW23713   1.387   0.416   0.029
 7605SOL    HW123714   1.486   0.425   0.042
 7605SOL    HW223715   1.339   0.459   0.106
 7606SOL     OW23716   5.938   1.731   4.783
 7606SOL    HW123717   5.971   1.825   4.776
 7606SOL    HW223718   5.895   1.718   4.872
 7607SOL     OW23719   3.320   6.203   0.414
 7607SOL    HW123720   3.240   6.249   0.376
 7607SOL    HW223721   3.359   6.142   0.345
 7608SOL     OW23722   5.470   2.420   6.231
 7608SOL    HW123723   5.465   2.392   6.327
 7608SOL    HW223724   5.468   2.520   6.226
 7609SOL     OW23725   0.216   3.296   3.926
 7609SOL    HW123726   0.245   3.288   3.830
 7609SOL    HW223727   0.293   3.327   3.981
 7610SOL     OW23728   3.410   5.341   6.882
 7610SOL    HW123729   3.388   5.423   6.830
 7610SOL    HW223730   3.500   5.307   6.854
 7611SOL     OW23731   4.791   3.325   1.140
 7611SOL    HW123732   4.760   3.420   1.129
 7611SOL    HW223733   4.714   3.263   1.122
 7612SOL     OW23734   3.666   2.134   3.018
 7612SOL    HW123735   3.751   2.183   3.037
 7612SOL    HW223736   3.628   2.099   3.104
 7613SOL     OW23737   1.306   2.189   2.091
 7613SOL    HW123738   1.367   2.193   2.012
 7613SOL    HW223739   1.250   2.272   2.095
 7614SOL     OW23740   5.155   3.293   0.573
 7614SOL    HW123741   5.119   3.206   0.606
 7614SOL    HW223742   5.202   3.340   0.648
 7615SOL     OW23743   5.771   3.878   5.454
 7615SOL    HW123744   5.732   3.953   5.507
 7615SOL    HW223745   5.740   3.790   5.491
 7616SOL     OW23746   5.839   0.119   3.403
 7616SOL    HW123747   5.920   0.072   3.437
 7616SOL    HW223748   5.859   0.217   3.395
 7617SOL     OW23749   5.092   4.916   3.086
 7617SOL    HW123750   5.049   4.997   3.126
 7617SOL    HW223751   5.095   4.843   3.155
 7618SOL     OW23752   1.948   2.700   0.094
 7618SOL    HW123753   2.045   2.719   0.086
 7618SOL    HW223754   1.922   2.702   0.191
 7619SOL     OW23755   0.152   2.742   4.258
 7619SOL    HW123756   0.182   2.653   4.293
 7619SOL    HW223757   0.066   2.732   4.208
 7620SOL     OW23758   3.564   4.338   0.429
 7620SOL    HW123759   3.656   4.301   0.436
 7620SOL    HW223760   3.529   4.322   0.337
 7621SOL     OW23761   0.226   5.711   0.930
 7621SOL    HW123762   0.312   5.660   0.921
 7621SOL    HW223763   0.246   5.808   0.942
 7622SOL     OW23764   4.285   4.131   0.239
 7622SOL    HW123765   4.210   4.095   0.184
 7622SOL    HW223766   4.369   4.131   0.185
 7623SOL     OW23767   4.238   4.756   1.582
 7623SOL    HW123768   4.287   4.736   1.497
 7623SOL    HW223769   4.268   4.693   1.653
 7624SOL     OW23770   0.332   2.473   2.442
 7624SOL    HW123771   0.412   2.417   2.463
 7624SOL    HW223772   0.358   2.570   2.442
 7625SOL     OW23773   5.560   1.495   0.283
 7625SOL    HW123774   5.651   1.534   0.296
 7625SOL    HW223775   5.525   1.463   0.371
 7626SOL     OW23776   6.194   0.729   5.998
 7626SOL    HW123777   6.241   0.640   5.992
 7626SOL    HW223778   6.245   0.796   5.944
 7627SOL     OW23779   3.438   2.125   7.004
 7627SOL    HW123780   3.388   2.038   7.002
 7627SOL    HW223781   3.534   2.109   6.982
 7628SOL     OW23782   3.655   3.000   0.794
 7628SOL    HW123783   3.679   3.097   0.784
 7628SOL    HW223784   3.638   2.961   0.704
 7629SOL     OW23785   5.875   3.443   3.673
 7629SOL    HW123786   5.820   3.378   3.725
 7629SOL    HW223787   5.949   3.396   3.626
 7630SOL     OW23788   1.077   7.012   5.587
 7630SOL    HW123789   1.089   7.012   5.487
 7630SOL    HW223790   1.057   0.081   5.618
 7631SOL     OW23791   2.128   6.731   5.029
 7631SOL    HW123792   2.058   6.709   5.097
 7631SOL    HW223793   2.096   6.807   4.971
 7632SOL     OW23794   4.280   5.266   1.298
 7632SOL    HW123795   4.372   5.303   1.281
 7632SOL    HW223796   4.288   5.172   1.330
 7633SOL     OW23797   5.779   0.078   1.809
 7633SOL    HW123798   5.778   7.006   1.781
 7633SOL    HW223799   5.697   0.124   1.776
 7634SOL     OW23800   1.291   2.162   0.964
 7634SOL    HW123801   1.383   2.189   0.937
 7634SOL    HW223802   1.239   2.136   0.883
 7635SOL     OW23803   2.680   5.030   4.510
 7635SOL    HW123804   2.711   4.963   4.442
 7635SOL    HW223805   2.725   5.013   4.597
 7636SOL     OW23806   0.313   4.422   4.597
 7636SOL    HW123807   0.359   4.380   4.675
 7636SOL    HW223808   0.348   4.514   4.583
 7637SOL     OW23809   0.771   6.147   3.794
 7637SOL    HW123810   0.684   6.191   3.775
 7637SOL    HW223811   0.770   6.054   3.758
 7638SOL     OW23812   0.782   5.542   2.029
 7638SOL    HW123813   0.751   5.502   2.115
 7638SOL    HW223814   0.828   5.472   1.974
 7639SOL     OW23815   6.992   0.754   0.080
 7639SOL    HW123816   7.016   0.784   0.172
 7639SOL    HW223817   0.020   0.808   0.013
 7640SOL     OW23818   3.344   1.695   6.844
 7640SOL    HW123819   3.416   1.700   6.913
 7640SOL    HW223820   3.370   1.628   6.774
 7641SOL     OW23821   6.942   3.839   2.971
 7641SOL    HW123822   6.989   3.821   3.057
 7641SOL    HW223823   7.007   3.831   2.895
 7642SOL     OW23824   5.762   1.160   2.994
 7642SOL    HW123825   5.837   1.114   3.042
 7642SOL    HW223826   5.687   1.178   3.058
 7643SOL     OW23827   5.346   2.158   3.002
 7643SOL    HW123828   5.441   2.148   2.973
 7643SOL    HW223829   5.310   2.246   2.968
 7644SOL     OW23830   4.936   3.116   2.209
 7644SOL    HW123831   4.884   3.079   2.133
 7644SOL    HW223832   4.875   3.133   2.287
 7645SOL     OW23833   3.475   3.885   5.859
 7645SOL    HW123834   3.436   3.793   5.854
 7645SOL    HW223835   3.404   3.953   5.838
 7646SOL     OW23836   1.189   2.766   2.900
 7646SOL    HW123837   1.096   2.740   2.877
 7646SOL    HW223838   1.195   2.865   2.911
 7647SOL     OW23839   0.217   2.878   4.512
 7647SOL    HW123840   0.156   2.957   4.502
 7647SOL    HW223841   0.244   2.845   4.421
 7648SOL     OW23842   2.223   2.151   3.106
 7648SOL    HW123843   2.215   2.052   3.091
 7648SOL    HW223844   2.222   2.170   3.204
 7649SOL     OW23845   0.242   1.178   4.928
 7649SOL    HW123846   0.276   1.160   5.020
 7649SOL    HW223847   0.158   1.232   4.934
 7650SOL     OW23848   4.302   1.030   1.339
 7650SOL    HW123849   4.219   1.010   1.288
 7650SOL    HW223850   4.284   1.103   1.406
 7651SOL     OW23851   2.451   5.155   4.660
 7651SOL    HW123852   2.382   5.083   4.649
 7651SOL    HW223853   2.539   5.122   4.627
 7652SOL     OW23854   6.102   2.190   4.809
 7652SOL    HW123855   6.085   2.121   4.879
 7652SOL    HW223856   6.035   2.264   4.818
 7653SOL     OW23857   0.740   1.573   6.664
 7653SOL    HW123858   0.779   1.492   6.621
 7653SOL    HW223859   0.790   1.654   6.634
 7654SOL     OW23860   5.723   2.699   4.699
 7654SOL    HW123861   5.643   2.643   4.675
 7654SOL    HW223862   5.790   2.695   4.625
 7655SOL     OW23863   3.353   0.473   3.539
 7655SOL    HW123864   3.385   0.489   3.445
 7655SOL    HW223865   3.426   0.497   3.603
 7656SOL     OW23866   6.159   3.409   6.130
 7656SOL    HW123867   6.105   3.478   6.178
 7656SOL    HW223868   6.123   3.318   6.150
 7657SOL     OW23869   1.481   3.942   4.501
 7657SOL    HW123870   1.399   3.887   4.487
 7657SOL    HW223871   1.529   3.953   4.414
 7658SOL     OW23872   2.704   0.973   0.437
 7658SOL    HW123873   2.713   0.943   0.532
 7658SOL    HW223874   2.727   1.070   0.430
 7659SOL     OW23875   4.651   4.208   5.673
 7659SOL    HW123876   4.611   4.208   5.765
 7659SOL    HW223877   4.720   4.136   5.667
 7660SOL     OW23878   6.880   5.421   5.188
 7660SOL    HW123879   6.842   5.385   5.273
 7660SOL    HW223880   6.896   5.345   5.124
 7661SOL     OW23881   4.872   1.940   6.288
 7661SOL    HW123882   4.806   2.015   6.296
 7661SOL    HW223883   4.868   1.902   6.196
 7662SOL     OW23884   1.053   1.994   2.655
 7662SOL    HW123885   1.049   1.901   2.691
 7662SOL    HW223886   1.051   2.059   2.731
 7663SOL     OW23887   5.933   5.880   5.720
 7663SOL    HW123888   5.982   5.927   5.647
 7663SOL    HW223889   5.875   5.945   5.769
 7664SOL     OW23890   4.232   0.783   3.014
 7664SOL    HW123891   4.314   0.836   2.996
 7664SOL    HW223892   4.173   0.832   3.078
 7665SOL     OW23893   5.566   2.663   3.722
 7665SOL    HW123894   5.487   2.608   3.695
 7665SOL    HW223895   5.649   2.624   3.682
 7666SOL     OW23896   6.429   6.051   3.910
 7666SOL    HW123897   6.487   5.975   3.939
 7666SOL    HW223898   6.396   6.100   3.991
 7667SOL     OW23899   4.758   6.597   2.304
 7667SOL    HW123900   4.715   6.578   2.216
 7667SOL    HW223901   4.709   6.672   2.350
 7668SOL     OW23902   2.454   5.049   1.370
 7668SOL    HW123903   2.421   5.059   1.276
 7668SOL    HW223904   2.376   5.054   1.433
 7669SOL     OW23905   3.787   0.037   6.024
 7669SOL    HW123906   3.827   0.034   6.116
 7669SOL    HW223907   3.758   0.131   6.004
 7670SOL     OW23908   0.713   6.755   0.241
 7670SOL    HW123909   0.673   6.839   0.203
 7670SOL    HW223910   0.741   6.695   0.166
 7671SOL     OW23911   5.330   6.757   2.318
 7671SOL    HW123912   5.407   6.821   2.313
 7671SOL    HW223913   5.244   6.808   2.320
 7672SOL     OW23914   6.541   4.591   3.054
 7672SOL    HW123915   6.463   4.541   3.017
 7672SOL    HW223916   6.625   4.543   3.032
 7673SOL     OW23917   1.240   5.531   2.882
 7673SOL    HW123918   1.327   5.529   2.932
 7673SOL    HW223919   1.208   5.625   2.875
 7674SOL     OW23920   4.180   1.051   4.631
 7674SOL    HW123921   4.241   0.998   4.689
 7674SOL    HW223922   4.124   1.111   4.688
 7675SOL     OW23923   3.345   6.528   3.606
 7675SOL    HW123924   3.348   6.610   3.548
 7675SOL    HW223925   3.266   6.472   3.582
 7676SOL     OW23926   3.157   2.983   5.971
 7676SOL    HW123927   3.141   2.911   6.038
 7676SOL    HW223928   3.122   3.070   6.006
 7677SOL     OW23929   6.940   4.917   1.523
 7677SOL    HW123930   6.964   4.838   1.580
 7677SOL    HW223931   6.906   4.885   1.435
 7678SOL     OW23932   1.420   2.288   5.697
 7678SOL    HW123933   1.472   2.341   5.764
 7678SOL    HW223934   1.432   2.191   5.715
 7679SOL     OW23935   2.235   5.001   5.572
 7679SOL    HW123936   2.137   5.004   5.554
 7679SOL    HW223937   2.271   4.912   5.545
 7680SOL     OW23938   1.413   0.250   5.263
 7680SOL    HW123939   1.423   0.260   5.362
 7680SOL    HW223940   1.328   0.293   5.233
 7681SOL     OW23941   2.936   2.598   6.377
 7681SOL    HW123942   2.908   2.694   6.383
 7681SOL    HW223943   2.931   2.557   6.468
 7682SOL     OW23944   3.340   1.700   2.829
 7682SOL    HW123945   3.439   1.703   2.825
 7682SOL    HW223946   3.307   1.759   2.902
 7683SOL     OW23947   0.351   0.977   4.527
 7683SOL    HW123948   0.449   0.967   4.540
 7683SOL    HW223949   0.314   0.893   4.487
 7684SOL     OW23950   3.972   1.969   1.756
 7684SOL    HW123951   3.957   1.883   1.707
 7684SOL    HW223952   3.884   2.005   1.788
 7685SOL     OW23953   3.769   1.234   6.749
 7685SOL    HW123954   3.839   1.211   6.816
 7685SOL    HW223955   3.679   1.230   6.792
 7686SOL     OW23956   4.582   0.204   4.843
 7686SOL    HW123957   4.647   0.143   4.796
 7686SOL    HW223958   4.549   0.272   4.778
 7687SOL     OW23959   5.123   5.438   4.777
 7687SOL    HW123960   5.221   5.453   4.760
 7687SOL    HW223961   5.101   5.464   4.871
 7688SOL     OW23962   0.259   5.369   5.764
 7688SOL    HW123963   0.329   5.406   5.703
 7688SOL    HW223964   0.196   5.312   5.711
 7689SOL     OW23965   4.819   0.634   1.873
 7689SOL    HW123966   4.729   0.646   1.831
 7689SOL    HW223967   4.867   0.722   1.874
 7690SOL     OW23968   5.514   4.932   0.384
 7690SOL    HW123969   5.484   5.026   0.369
 7690SOL    HW223970   5.505   4.909   0.481
 7691SOL     OW23971   4.631   4.708   2.259
 7691SOL    HW123972   4.586   4.619   2.273
 7691SOL    HW223973   4.680   4.734   2.342
 7692SOL     OW23974   0.807   6.422   1.378
 7692SOL    HW123975   0.860   6.337   1.377
 7692SOL    HW223976   0.870   6.500   1.389
 7693SOL     OW23977   3.054   0.811   0.745
 7693SOL    HW123978   3.130   0.824   0.808
 7693SOL    HW223979   3.070   0.862   0.661
 7694SOL     OW23980   5.805   2.627   4.448
 7694SOL    HW123981   5.859   2.544   4.454
 7694SOL    HW223982   5.741   2.620   4.372
 7695SOL     OW23983   6.310   6.796   2.872
 7695SOL    HW123984   6.254   6.764   2.795
 7695SOL    HW223985   6.276   6.755   2.957
 7696SOL     OW23986   0.588   1.913   6.000
 7696SOL    HW123987   0.624   2.006   5.990
 7696SOL    HW223988   0.659   1.847   5.979
 7697SOL     OW23989   3.487   6.837   2.918
 7697SOL    HW123990   3.444   6.786   2.992
 7697SOL    HW223991   3.566   6.888   2.954
 7698SOL     OW23992   6.129   2.581   6.541
 7698SOL    HW123993   6.144   2.675   6.570
 7698SOL    HW223994   6.055   2.578   6.473
 7699SOL     OW23995   2.609   5.448   6.865
 7699SOL    HW123996   2.672   5.377   6.895
 7699SOL    HW223997   2.527   5.405   6.826
 7700SOL     OW23998   4.645   5.887   3.137
 7700SOL    HW123999   4.663   5.922   3.229
 7700SOL    HW224000   4.728   5.845   3.100
 7701SOL     OW24001   0.065   1.811   6.017
 7701SOL    HW124002   0.060   1.711   6.005
 7701SOL    HW224003   0.161   1.838   6.023
 7702SOL     OW24004   4.832   7.012   5.887
 7702SOL    HW124005   4.786   7.020   5.976
 7702SOL    HW224006   4.765   7.021   5.814
 7703SOL     OW24007   6.356   0.510   4.906
 7703SOL    HW124008   6.392   0.448   4.835
 7703SOL    HW224009   6.432   0.548   4.958
 7704SOL     OW24010   6.826   1.560   4.209
 7704SOL    HW124011   6.764   1.584   4.134
 7704SOL    HW224012   6.794   1.604   4.293
 7705SOL     OW24013   2.766   5.108   0.474
 7705SOL    HW124014   2.862   5.100   0.501
 7705SOL    HW224015   2.740   5.030   0.418
 7706SOL     OW24016   3.611   2.915   3.456
 7706SOL    HW124017   3.525   2.918   3.506
 7706SOL    HW224018   3.603   2.971   3.373
 7707SOL     OW24019   6.612   5.524   6.879
 7707SOL    HW124020   6.685   5.591   6.869
 7707SOL    HW224021   6.549   5.553   6.951
 7708SOL     OW24022   1.928   0.244   4.269
 7708SOL    HW124023   2.001   0.248   4.337
 7708SOL    HW224024   1.963   0.275   4.180
 7709SOL     OW24025   6.756   5.086   1.226
 7709SOL    HW124026   6.839   5.135   1.255
 7709SOL    HW224027   6.710   5.139   1.155
 7710SOL     OW24028   1.702   2.714   0.873
 7710SOL    HW124029   1.681   2.757   0.961
 7710SOL    HW224030   1.641   2.751   0.803
 7711SOL     OW24031   6.235   5.248   5.546
 7711SOL    HW124032   6.240   5.253   5.446
 7711SOL    HW224033   6.224   5.152   5.574
 7712SOL     OW24034   6.353   4.467   6.249
 7712SOL    HW124035   6.413   4.388   6.265
 7712SOL    HW224036   6.358   4.528   6.328
 7713SOL     OW24037   1.618   4.505   0.872
 7713SOL    HW124038   1.675   4.573   0.918
 7713SOL    HW224039   1.526   4.541   0.859
 7714SOL     OW24040   6.672   0.361   4.302
 7714SOL    HW124041   6.601   0.422   4.268
 7714SOL    HW224042   6.644   0.266   4.289
 7715SOL     OW24043   1.982   2.781   6.287
 7715SOL    HW124044   2.030   2.830   6.360
 7715SOL    HW224045   1.982   2.683   6.306
 7716SOL     OW24046   0.804   5.139   6.711
 7716SOL    HW124047   0.826   5.105   6.619
 7716SOL    HW224048   0.714   5.107   6.738
 7717SOL     OW24049   1.081   2.272   6.062
 7717SOL    HW124050   1.054   2.178   6.081
 7717SOL    HW224051   1.176   2.286   6.089
 7718SOL     OW24052   0.805   3.411   2.473
 7718SOL    HW124053   0.824   3.509   2.482
 7718SOL    HW224054   0.764   3.393   2.384
 7719SOL     OW24055   1.567   4.339   4.919
 7719SOL    HW124056   1.622   4.320   5.001
 7719SOL    HW224057   1.622   4.391   4.854
 7720SOL     OW24058   6.153   2.137   6.194
 7720SOL    HW124059   6.132   2.212   6.257
 7720SOL    HW224060   6.180   2.173   6.105
 7721SOL     OW24061   1.406   0.409   2.426
 7721SOL    HW124062   1.370   0.407   2.333
 7721SOL    HW224063   1.485   0.348   2.432
 7722SOL     OW24064   2.158   4.982   4.030
 7722SOL    HW124065   2.111   5.034   4.101
 7722SOL    HW224066   2.135   5.019   3.940
 7723SOL     OW24067   5.051   3.034   6.724
 7723SOL    HW124068   4.961   3.062   6.757
 7723SOL    HW224069   5.115   3.032   6.801
 7724SOL     OW24070   3.265   4.172   1.161
 7724SOL    HW124071   3.228   4.134   1.076
 7724SOL    HW224072   3.274   4.099   1.229
 7725SOL     OW24073   5.783   2.592   2.699
 7725SOL    HW124074   5.838   2.610   2.618
 7725SOL    HW224075   5.767   2.494   2.708
 7726SOL     OW24076   0.956   3.098   6.247
 7726SOL    HW124077   0.928   3.193   6.237
 7726SOL    HW224078   0.879   3.038   6.225
 7727SOL     OW24079   5.087   2.289   1.660
 7727SOL    HW124080   4.993   2.256   1.648
 7727SOL    HW224081   5.117   2.336   1.577
 7728SOL     OW24082   2.122   2.915   5.197
 7728SOL    HW124083   2.202   2.949   5.147
 7728SOL    HW224084   2.121   2.956   5.289
 7729SOL     OW24085   6.293   1.601   2.492
 7729SOL    HW124086   6.318   1.511   2.459
 7729SOL    HW224087   6.227   1.643   2.429
 7730SOL     OW24088   5.676   4.521   5.511
 7730SOL    HW124089   5.695   4.615   5.483
 7730SOL    HW224090   5.591   4.519   5.563
 7731SOL     OW24091   5.852   0.143   0.625
 7731SOL    HW124092   5.776   0.187   0.578
 7731SOL    HW224093   5.873   0.192   0.710
 7732SOL     OW24094   4.442   0.184   6.794
 7732SOL    HW124095   4.516   0.121   6.770
 7732SOL    HW224096   4.373   0.184   6.722
 7733SOL     OW24097   6.666   5.592   2.734
 7733SOL    HW124098   6.607   5.670   2.754
 7733SOL    HW224099   6.740   5.588   2.802
 7734SOL     OW24100   2.524   4.582   4.912
 7734SOL    HW124101   2.596   4.651   4.904
 7734SOL    HW224102   2.508   4.541   4.822
 7735SOL     OW24103   6.327   6.287   0.390
 7735SOL    HW124104   6.361   6.197   0.418
 7735SOL    HW224105   6.323   6.291   0.290
 7736SOL     OW24106   2.647   2.835   0.790
 7736SOL    HW124107   2.693   2.922   0.806
 7736SOL    HW224108   2.668   2.771   0.864
 7737SOL     OW24109   4.024   5.248   1.393
 7737SOL    HW124110   3.990   5.311   1.463
 7737SOL    HW224111   4.115   5.277   1.364
 7738SOL     OW24112   2.837   6.104   6.548
 7738SOL    HW124113   2.764   6.137   6.608
 7738SOL    HW224114   2.925   6.122   6.590
 7739SOL     OW24115   1.201   2.734   1.827
 7739SOL    HW124116   1.107   2.745   1.858
 7739SOL    HW224117   1.263   2.744   1.905
 7740SOL     OW24118   1.666   0.990   2.915
 7740SOL    HW124119   1.755   0.961   2.951
 7740SOL    HW224120   1.664   1.090   2.907
 7741SOL     OW24121   1.767   4.577   5.559
 7741SOL    HW124122   1.789   4.667   5.522
 7741SOL    HW224123   1.852   4.527   5.578
 7742SOL     OW24124   4.397   1.670   3.922
 7742SOL    HW124125   4.422   1.604   3.992
 7742SOL    HW224126   4.473   1.734   3.908
 7743SOL     OW24127   5.417   1.260   6.354
 7743SOL    HW124128   5.497   1.318   6.371
 7743SOL    HW224129   5.351   1.273   6.428
 7744SOL     OW24130   0.874   5.683   5.232
 7744SOL    HW124131   0.805   5.612   5.246
 7744SOL    HW224132   0.961   5.653   5.273
 7745SOL     OW24133   2.084   6.260   7.019
 7745SOL    HW124134   2.042   6.350   7.008
 7745SOL    HW224135   2.146   6.262   0.073
 7746SOL     OW24136   1.013   6.398   0.926
 7746SOL    HW124137   1.049   6.359   1.011
 7746SOL    HW224138   1.089   6.430   0.869
 7747SOL     OW24139   6.776   6.154   0.801
 7747SOL    HW124140   6.853   6.173   0.862
 7747SOL    HW224141   6.703   6.220   0.816
 7748SOL     OW24142   3.979   2.978   5.267
 7748SOL    HW124143   3.951   2.887   5.295
 7748SOL    HW224144   3.900   3.040   5.268
 7749SOL     OW24145   3.727   3.671   3.273
 7749SOL    HW124146   3.807   3.732   3.270
 7749SOL    HW224147   3.722   3.627   3.363
 7750SOL     OW24148   5.402   5.229   5.985
 7750SOL    HW124149   5.335   5.241   5.912
 7750SOL    HW224150   5.391   5.301   6.053
 7751SOL     OW24151   0.505   1.544   3.591
 7751SOL    HW124152   0.570   1.498   3.651
 7751SOL    HW224153   0.413   1.508   3.608
 7752SOL     OW24154   5.538   5.167   5.343
 7752SOL    HW124155   5.518   5.220   5.260
 7752SOL    HW224156   5.617   5.206   5.389
 7753SOL     OW24157   2.672   0.443   4.576
 7753SOL    HW124158   2.671   0.350   4.613
 7753SOL    HW224159   2.689   0.440   4.477
 7754SOL     OW24160   5.933   0.574   0.829
 7754SOL    HW124161   5.886   0.611   0.749
 7754SOL    HW224162   6.031   0.568   0.811
 7755SOL     OW24163   0.183   6.430   5.713
 7755SOL    HW124164   0.100   6.394   5.756
 7755SOL    HW224165   0.263   6.384   5.752
 7756SOL     OW24166   2.562   5.706   2.121
 7756SOL    HW124167   2.613   5.775   2.172
 7756SOL    HW224168   2.575   5.617   2.163
 7757SOL     OW24169   4.612   5.852   5.155
 7757SOL    HW124170   4.695   5.817   5.198
 7757SOL    HW224171   4.624   5.949   5.134
 7758SOL     OW24172   2.078   2.591   6.095
 7758SOL    HW124173   2.073   2.689   6.112
 7758SOL    HW224174   2.039   2.570   6.005
 7759SOL     OW24175   2.004   0.356   4.858
 7759SOL    HW124176   1.945   0.307   4.923
 7759SOL    HW224177   1.974   0.451   4.851
 7760SOL     OW24178   5.794   2.837   2.106
 7760SOL    HW124179   5.755   2.843   2.198
 7760SOL    HW224180   5.889   2.870   2.107
 7761SOL     OW24181   3.121   6.920   6.043
 7761SOL    HW124182   3.108   6.833   6.089
 7761SOL    HW224183   3.063   6.990   6.086
 7762SOL     OW24184   4.036   0.901   6.385
 7762SOL    HW124185   4.118   0.952   6.360
 7762SOL    HW224186   3.956   0.960   6.374
 7763SOL     OW24187   1.429   1.854   0.656
 7763SOL    HW124188   1.471   1.904   0.581
 7763SOL    HW224189   1.351   1.905   0.692
 7764SOL     OW24190   3.878   3.370   2.528
 7764SOL    HW124191   3.790   3.322   2.529
 7764SOL    HW224192   3.864   3.467   2.545
 7765SOL     OW24193   6.752   3.533   3.986
 7765SOL    HW124194   6.669   3.570   3.946
 7765SOL    HW224195   6.799   3.474   3.920
 7766SOL     OW24196   5.748   1.750   6.951
 7766SOL    HW124197   5.655   1.717   6.941
 7766SOL    HW224198   5.812   1.675   6.936
 7767SOL     OW24199   3.632   6.206   3.453
 7767SOL    HW124200   3.680   6.185   3.368
 7767SOL    HW224201   3.654   6.137   3.522
 7768SOL     OW24202   3.468   4.929   2.780
 7768SOL    HW124203   3.518   4.909   2.865
 7768SOL    HW224204   3.404   5.004   2.797
 7769SOL     OW24205   4.304   1.689   1.742
 7769SOL    HW124206   4.364   1.702   1.662
 7769SOL    HW224207   4.293   1.777   1.789
 7770SOL     OW24208   2.612   4.810   1.924
 7770SOL    HW124209   2.688   4.750   1.946
 7770SOL    HW224210   2.548   4.813   2.001
 7771SOL     OW24211   2.914   2.274   4.631
 7771SOL    HW124212   2.897   2.181   4.664
 7771SOL    HW224213   3.012   2.289   4.621
 7772SOL     OW24214   5.268   1.133   3.429
 7772SOL    HW124215   5.293   1.207   3.491
 7772SOL    HW224216   5.196   1.078   3.471
 7773SOL     OW24217   3.727   4.512   6.446
 7773SOL    HW124218   3.785   4.522   6.366
 7773SOL    HW224219   3.666   4.434   6.434
 7774SOL     OW24220   5.596   1.698   5.609
 7774SOL    HW124221   5.594   1.631   5.535
 7774SOL    HW224222   5.568   1.655   5.695
 7775SOL     OW24223   3.105   6.388   3.571
 7775SOL    HW124224   3.106   6.288   3.582
 7775SOL    HW224225   3.022   6.425   3.613
 7776SOL     OW24226   3.202   3.330   5.928
 7776SOL    HW124227   3.207   3.355   5.831
 7776SOL    HW224228   3.291   3.295   5.957
 7777SOL     OW24229   2.516   1.509   5.658
 7777SOL    HW124230   2.551   1.471   5.744
 7777SOL    HW224231   2.491   1.434   5.596
 7778SOL     OW24232   5.671   0.279   0.490
 7778SOL    HW124233   5.612   0.224   0.431
 7778SOL    HW224234   5.656   0.376   0.471
 7779SOL     OW24235   3.313   2.872   0.592
 7779SOL    HW124236   3.402   2.907   0.564
 7779SOL    HW224237   3.241   2.933   0.559
 7780SOL     OW24238   1.479   6.075   4.432
 7780SOL    HW124239   1.566   6.027   4.419
 7780SOL    HW224240   1.422   6.064   4.350
 7781SOL     OW24241   1.639   3.918   6.081
 7781SOL    HW124242   1.543   3.908   6.108
 7781SOL    HW224243   1.669   3.835   6.036
 7782SOL     OW24244   1.818   4.133   5.959
 7782SOL    HW124245   1.879   4.099   5.888
 7782SOL    HW224246   1.743   4.068   5.972
 7783SOL     OW24247   2.818   6.679   6.123
 7783SOL    HW124248   2.884   6.605   6.133
 7783SOL    HW224249   2.804   6.723   6.212
 7784SOL     OW24250   1.204   3.669   7.015
 7784SOL    HW124251   1.242   3.577   0.008
 7784SOL    HW224252   1.275   3.737   0.009
 7785SOL     OW24253   2.036   6.708   4.009
 7785SOL    HW124254   2.090   6.789   3.988
 7785SOL    HW224255   2.076   6.629   3.963
 7786SOL     OW24256   3.142   4.662   5.335
 7786SOL    HW124257   3.195   4.582   5.365
 7786SOL    HW224258   3.065   4.631   5.279
 7787SOL     OW24259   2.324   2.593   5.313
 7787SOL    HW124260   2.357   2.562   5.224
 7787SOL    HW224261   2.227   2.617   5.306
 7788SOL     OW24262   1.575   1.612   1.621
 7788SOL    HW124263   1.570   1.658   1.533
 7788SOL    HW224264   1.494   1.554   1.633
 7789SOL     OW24265   2.246   0.106   0.813
 7789SOL    HW124266   2.263   0.026   0.870
 7789SOL    HW224267   2.232   0.186   0.872
 7790SOL     OW24268   6.482   4.352   3.374
 7790SOL    HW124269   6.566   4.345   3.428
 7790SOL    HW224270   6.495   4.418   3.300
 7791SOL     OW24271   2.657   6.035   4.425
 7791SOL    HW124272   2.628   6.052   4.519
 7791SOL    HW224273   2.745   5.988   4.425
 7792SOL     OW24274   1.813   5.022   6.325
 7792SOL    HW124275   1.912   5.035   6.319
 7792SOL    HW224276   1.766   5.096   6.277
 7793SOL     OW24277   2.004   1.379   5.304
 7793SOL    HW124278   2.096   1.415   5.324
 7793SOL    HW224279   1.953   1.446   5.250
 7794SOL     OW24280   5.107   4.863   4.523
 7794SOL    HW124281   5.019   4.868   4.569
 7794SOL    HW224282   5.176   4.909   4.579
 7795SOL     OW24283   2.002   4.119   5.196
 7795SOL    HW124284   2.051   4.038   5.164
 7795SOL    HW224285   2.064   4.176   5.249
 7796SOL     OW24286   3.377   4.148   3.572
 7796SOL    HW124287   3.398   4.210   3.497
 7796SOL    HW224288   3.415   4.058   3.553
 7797SOL     OW24289   0.183   5.550   3.558
 7797SOL    HW124290   0.264   5.608   3.564
 7797SOL    HW224291   0.130   5.557   3.643
 7798SOL     OW24292   2.823   5.140   0.053
 7798SOL    HW124293   2.901   5.077   0.054
 7798SOL    HW224294   2.833   5.202   6.999
 7799SOL     OW24295   6.418   5.509   1.350
 7799SOL    HW124296   6.319   5.517   1.357
 7799SOL    HW224297   6.461   5.548   1.431
 7800SOL     OW24298   0.397   4.260   1.529
 7800SOL    HW124299   0.347   4.199   1.590
 7800SOL    HW224300   0.382   4.355   1.555
 7801SOL     OW24301   2.270   1.763   0.970
 7801SOL    HW124302   2.319   1.747   0.885
 7801SOL    HW224303   2.288   1.688   1.034
 7802SOL     OW24304   6.114   2.870   1.319
 7802SOL    HW124305   6.055   2.884   1.399
 7802SOL    HW224306   6.207   2.850   1.349
 7803SOL     OW24307   4.174   3.352   5.737
 7803SOL    HW124308   4.174   3.411   5.656
 7803SOL    HW224309   4.256   3.294   5.737
 7804SOL     OW24310   6.427   1.103   4.111
 7804SOL    HW124311   6.344   1.047   4.113
 7804SOL    HW224312   6.505   1.050   4.144
 7805SOL     OW24313   5.396   2.469   0.841
 7805SOL    HW124314   5.306   2.499   0.809
 7805SOL    HW224315   5.383   2.398   0.911
 7806SOL     OW24316   5.664   3.089   6.160
 7806SOL    HW124317   5.571   3.055   6.152
 7806SOL    HW224318   5.679   3.123   6.253
 7807SOL     OW24319   6.884   4.819   6.265
 7807SOL    HW124320   6.788   4.795   6.253
 7807SOL    HW224321   6.936   4.787   6.186
 7808SOL     OW24322   0.511   2.627   4.852
 7808SOL    HW124323   0.587   2.595   4.796
 7808SOL    HW224324   0.456   2.692   4.799
 7809SOL     OW24325   2.165   5.904   5.191
 7809SOL    HW124326   2.258   5.872   5.172
 7809SOL    HW224327   2.130   5.859   5.272
 7810SOL     OW24328   3.078   0.647   5.395
 7810SOL    HW124329   3.035   0.625   5.483
 7810SOL    HW224330   3.008   0.656   5.325
 7811SOL     OW24331   6.314   4.381   4.255
 7811SOL    HW124332   6.253   4.356   4.330
 7811SOL    HW224333   6.390   4.436   4.289
 7812SOL     OW24334   1.436   1.752   3.968
 7812SOL    HW124335   1.453   1.688   4.042
 7812SOL    HW224336   1.523   1.788   3.933
 7813SOL     OW24337   4.945   2.554   6.276
 7813SOL    HW124338   5.035   2.564   6.319
 7813SOL    HW224339   4.912   2.460   6.289
 7814SOL     OW24340   0.023   1.939   3.097
 7814SOL    HW124341   7.018   1.937   3.193
 7814SOL    HW224342   0.075   2.023   3.080
 7815SOL     OW24343   4.904   1.254   6.770
 7815SOL    HW124344   4.942   1.341   6.738
 7815SOL    HW224345   4.848   1.270   6.851
 7816SOL     OW24346   1.520   3.037   5.912
 7816SOL    HW124347   1.446   3.069   5.854
 7816SOL    HW224348   1.581   3.113   5.934
 7817SOL     OW24349   6.331   3.387   4.358
 7817SOL    HW124350   6.413   3.335   4.335
 7817SOL    HW224351   6.344   3.483   4.333
 7818SOL     OW24352   5.404   0.399   2.087
 7818SOL    HW124353   5.367   0.307   2.104
 7818SOL    HW224354   5.328   0.463   2.077
 7819SOL     OW24355   0.292   3.109   1.555
 7819SOL    HW124356   0.298   3.152   1.465
 7819SOL    HW224357   0.235   3.027   1.549
 7820SOL     OW24358   1.660   2.131   4.910
 7820SOL    HW124359   1.739   2.185   4.939
 7820SOL    HW224360   1.584   2.148   4.972
 7821SOL     OW24361   4.129   5.658   1.311
 7821SOL    HW124362   4.211   5.707   1.339
 7821SOL    HW224363   4.063   5.659   1.386
 7822SOL     OW24364   7.016   0.368   5.229
 7822SOL    HW124365   6.980   0.298   5.167
 7822SOL    HW224366   6.987   0.347   5.323
 7823SOL     OW24367   2.257   4.128   4.568
 7823SOL    HW124368   2.268   4.118   4.469
 7823SOL    HW224369   2.227   4.042   4.607
 7824SOL     OW24370   6.694   2.778   5.079
 7824SOL    HW124371   6.731   2.685   5.078
 7824SOL    HW224372   6.603   2.777   5.120
 7825SOL     OW24373   2.785   3.285   6.884
 7825SOL    HW124374   2.844   3.205   6.885
 7825SOL    HW224375   2.774   3.317   6.790
 7826SOL     OW24376   0.098   1.511   0.200
 7826SOL    HW124377   0.017   1.454   0.214
 7826SOL    HW224378   0.152   1.514   0.284
 7827SOL     OW24379   0.508   5.699   2.483
 7827SOL    HW124380   0.494   5.604   2.510
 7827SOL    HW224381   0.431   5.755   2.516
 7828SOL     OW24382   6.903   4.093   6.951
 7828SOL    HW124383   6.836   4.020   6.939
 7828SOL    HW224384   6.994   4.059   6.926
 7829SOL     OW24385   3.426   3.156   1.591
 7829SOL    HW124386   3.477   3.161   1.677
 7829SOL    HW224387   3.428   3.063   1.556
 7830SOL     OW24388   3.756   5.427   5.329
 7830SOL    HW124389   3.786   5.332   5.335
 7830SOL    HW224390   3.787   5.467   5.243
 7831SOL     OW24391   1.949   1.381   1.145
 7831SOL    HW124392   1.981   1.347   1.057
 7831SOL    HW224393   1.882   1.318   1.183
 7832SOL     OW24394   5.260   0.668   4.392
 7832SOL    HW124395   5.195   0.636   4.324
 7832SOL    HW224396   5.210   0.699   4.474
 7833SOL     OW24397   1.533   0.311   4.422
 7833SOL    HW124398   1.563   0.352   4.509
 7833SOL    HW224399   1.434   0.298   4.424
 7834SOL     OW24400   6.846   1.687   3.729
 7834SOL    HW124401   6.924   1.731   3.774
 7834SOL    HW224402   6.787   1.645   3.798
 7835SOL     OW24403   3.945   1.826   5.116
 7835SOL    HW124404   3.991   1.900   5.165
 7835SOL    HW224405   3.921   1.754   5.181
 7836SOL     OW24406   4.042   4.252   5.529
 7836SOL    HW124407   4.062   4.258   5.627
 7836SOL    HW224408   3.948   4.221   5.516
 7837SOL     OW24409   5.573   6.201   0.017
 7837SOL    HW124410   5.487   6.170   7.001
 7837SOL    HW224411   5.575   6.177   0.114
 7838SOL     OW24412   4.864   4.696   1.378
 7838SOL    HW124413   4.817   4.783   1.393
 7838SOL    HW224414   4.963   4.710   1.385
 7839SOL     OW24415   5.646   4.179   4.936
 7839SOL    HW124416   5.594   4.211   4.856
 7839SOL    HW224417   5.602   4.214   5.019
 7840SOL     OW24418   0.611   4.324   3.875
 7840SOL    HW124419   0.652   4.233   3.886
 7840SOL    HW224420   0.598   4.366   3.965
 7841SOL     OW24421   4.701   2.151   6.323
 7841SOL    HW124422   4.759   2.210   6.266
 7841SOL    HW224423   4.654   2.206   6.392
 7842SOL     OW24424   2.192   1.985   2.438
 7842SOL    HW124425   2.289   2.002   2.459
 7842SOL    HW224426   2.178   1.990   2.339
 7843SOL     OW24427   6.653   0.094   4.252
 7843SOL    HW124428   6.640   7.019   4.244
 7843SOL    HW224429   6.724   0.123   4.187
 7844SOL     OW24430   3.700   0.549   2.170
 7844SOL    HW124431   3.685   0.451   2.157
 7844SOL    HW224432   3.737   0.566   2.261
 7845SOL     OW24433   5.355   1.969   1.371
 7845SOL    HW124434   5.281   2.007   1.317
 7845SOL    HW224435   5.322   1.946   1.462
 7846SOL     OW24436   1.554   2.791   0.590
 7846SOL    HW124437   1.511   2.709   0.553
 7846SOL    HW224438   1.528   2.870   0.534
 7847SOL     OW24439   6.320   1.592   3.195
 7847SOL    HW124440   6.223   1.575   3.175
 7847SOL    HW224441   6.348   1.536   3.272
 7848SOL     OW24442   2.887   4.503   1.037
 7848SOL    HW124443   2.818   4.541   1.099
 7848SOL    HW224444   2.947   4.576   1.005
 7849SOL     OW24445   5.680   3.228   5.238
 7849SOL    HW124446   5.729   3.277   5.165
 7849SOL    HW224447   5.744   3.202   5.309
 7850SOL     OW24448   6.591   1.439   3.550
 7850SOL    HW124449   6.668   1.493   3.516
 7850SOL    HW224450   6.517   1.442   3.483
 7851SOL     OW24451   0.856   3.203   1.922
 7851SOL    HW124452   0.878   3.287   1.871
 7851SOL    HW224453   0.886   3.214   2.017
 7852SOL     OW24454   3.099   0.940   0.511
 7852SOL    HW124455   3.029   1.005   0.481
 7852SOL    HW224456   3.188   0.970   0.478
 7853SOL     OW24457   4.439   3.039   1.650
 7853SOL    HW124458   4.506   3.049   1.723
 7853SOL    HW224459   4.349   3.069   1.681
 7854SOL     OW24460   4.329   2.155   6.005
 7854SOL    HW124461   4.314   2.248   6.039
 7854SOL    HW224462   4.245   2.102   6.014
 7855SOL     OW24463   4.739   6.406   4.265
 7855SOL    HW124464   4.802   6.330   4.252
 7855SOL    HW224465   4.782   6.491   4.234
 7856SOL     OW24466   1.814   4.699   4.958
 7856SOL    HW124467   1.876   4.745   4.895
 7856SOL    HW224468   1.719   4.717   4.930
 7857SOL     OW24469   4.974   4.217   0.636
 7857SOL    HW124470   5.013   4.213   0.543
 7857SOL    HW224471   4.894   4.159   0.641
 7858SOL     OW24472   0.384   5.649   4.724
 7858SOL    HW124473   0.469   5.596   4.723
 7858SOL    HW224474   0.314   5.599   4.774
 7859SOL     OW24475   4.906   3.203   6.506
 7859SOL    HW124476   4.828   3.160   6.460
 7859SOL    HW224477   4.946   3.138   6.571
 7860SOL     OW24478   3.608   1.468   4.053
 7860SOL    HW124479   3.684   1.442   4.112
 7860SOL    HW224480   3.522   1.461   4.103
 7861SOL     OW24481   2.706   5.693   1.858
 7861SOL    HW124482   2.801   5.722   1.853
 7861SOL    HW224483   2.679   5.680   1.953
 7862SOL     OW24484   2.848   5.369   2.196
 7862SOL    HW124485   2.925   5.430   2.214
 7862SOL    HW224486   2.762   5.418   2.213
 7863SOL     OW24487   0.264   4.235   3.348
 7863SOL    HW124488   0.238   4.200   3.257
 7863SOL    HW224489   0.361   4.217   3.364
 7864SOL     OW24490   2.013   6.134   6.737
 7864SOL    HW124491   2.059   6.052   6.705
 7864SOL    HW224492   2.051   6.161   6.826
 7865SOL     OW24493   5.915   6.473   3.777
 7865SOL    HW124494   5.869   6.391   3.813
 7865SOL    HW224495   5.952   6.526   3.854
 7866SOL     OW24496   1.682   0.393   5.184
 7866SOL    HW124497   1.718   0.471   5.235
 7866SOL    HW224498   1.583   0.397   5.181
 7867SOL     OW24499   5.221   0.029   3.984
 7867SOL    HW124500   5.230   6.955   4.004
 7867SOL    HW224501   5.232   0.044   3.886
 7868SOL     OW24502   3.744   5.658   1.197
 7868SOL    HW124503   3.772   5.563   1.211
 7868SOL    HW224504   3.703   5.668   1.106
 7869SOL     OW24505   5.149   4.806   5.275
 7869SOL    HW124506   5.225   4.814   5.211
 7869SOL    HW224507   5.185   4.807   5.369
 7870SOL     OW24508   4.823   0.234   5.404
 7870SOL    HW124509   4.782   0.315   5.446
 7870SOL    HW224510   4.761   0.156   5.417
 7871SOL     OW24511   5.090   1.252   2.053
 7871SOL    HW124512   4.998   1.260   2.090
 7871SOL    HW224513   5.136   1.341   2.058
 7872SOL     OW24514   1.903   4.825   2.701
 7872SOL    HW124515   1.978   4.847   2.763
 7872SOL    HW224516   1.934   4.757   2.634
 7873SOL     OW24517   6.430   1.383   1.098
 7873SOL    HW124518   6.474   1.304   1.142
 7873SOL    HW224519   6.345   1.404   1.147
 7874SOL     OW24520   5.524   2.813   0.902
 7874SOL    HW124521   5.574   2.888   0.946
 7874SOL    HW224522   5.474   2.762   0.972
 7875SOL     OW24523   3.925   3.661   6.839
 7875SOL    HW124524   3.925   3.636   6.742
 7875SOL    HW224525   3.835   3.698   6.864
 7876SOL     OW24526   0.971   0.223   2.645
 7876SOL    HW124527   1.018   0.242   2.558
 7876SOL    HW224528   0.996   0.131   2.676
 7877SOL     OW24529   5.976   1.237   2.791
 7877SOL    HW124530   6.015   1.325   2.763
 7877SOL    HW224531   5.881   1.250   2.817
 7878SOL     OW24532   4.908   3.749   3.652
 7878SOL    HW124533   4.889   3.678   3.585
 7878SOL    HW224534   4.901   3.710   3.744
 7879SOL     OW24535   3.268   5.183   3.271
 7879SOL    HW124536   3.308   5.097   3.302
 7879SOL    HW224537   3.188   5.204   3.328
 7880SOL     OW24538   2.255   3.759   1.029
 7880SOL    HW124539   2.156   3.768   1.040
 7880SOL    HW224540   2.296   3.850   1.020
 7881SOL     OW24541   5.411   4.189   4.409
 7881SOL    HW124542   5.422   4.091   4.428
 7881SOL    HW224543   5.496   4.237   4.428
 7882SOL     OW24544   2.781   3.970   1.563
 7882SOL    HW124545   2.775   4.045   1.497
 7882SOL    HW224546   2.757   3.884   1.517
 7883SOL     OW24547   1.057   0.407   5.385
 7883SOL    HW124548   0.958   0.416   5.392
 7883SOL    HW224549   1.085   0.417   5.290
 7884SOL     OW24550   0.490   3.545   4.007
 7884SOL    HW124551   0.448   3.552   3.916
 7884SOL    HW224552   0.528   3.634   4.032
 7885SOL     OW24553   6.511   5.646   1.131
 7885SOL    HW124554   6.511   5.574   1.201
 7885SOL    HW224555   6.501   5.735   1.176
 7886SOL     OW24556   4.648   5.556   0.572
 7886SOL    HW124557   4.618   5.533   0.665
 7886SOL    HW224558   4.738   5.600   0.576
 7887SOL     OW24559   3.906   1.501   6.736
 7887SOL    HW124560   3.871   1.419   6.782
 7887SOL    HW224561   3.958   1.474   6.655
 7888SOL     OW24562   5.078   0.243   4.038
 7888SOL    HW124563   5.152   0.176   4.034
 7888SOL    HW224564   5.062   0.282   3.948
 7889SOL     OW24565   0.919   6.402   2.039
 7889SOL    HW124566   0.911   6.392   1.940
 7889SOL    HW224567   0.848   6.465   2.072
 7890SOL     OW24568   2.168   3.900   2.146
 7890SOL    HW124569   2.099   3.951   2.095
 7890SOL    HW224570   2.131   3.811   2.173
 7891SOL     OW24571   2.870   4.854   2.380
 7891SOL    HW124572   2.872   4.889   2.473
 7891SOL    HW224573   2.957   4.811   2.358
 7892SOL     OW24574   1.965   2.626   5.254
 7892SOL    HW124575   1.880   2.656   5.297
 7892SOL    HW224576   2.028   2.704   5.245
 7893SOL     OW24577   5.940   6.726   1.288
 7893SOL    HW124578   5.967   6.763   1.377
 7893SOL    HW224579   5.986   6.638   1.273
 7894SOL     OW24580   2.444   6.519   2.390
 7894SOL    HW124581   2.503   6.514   2.471
 7894SOL    HW224582   2.498   6.553   2.312
 7895SOL     OW24583   6.573   1.158   5.158
 7895SOL    HW124584   6.495   1.147   5.096
 7895SOL    HW224585   6.630   1.233   5.125
 7896SOL     OW24586   4.865   3.785   5.529
 7896SOL    HW124587   4.777   3.776   5.574
 7896SOL    HW224588   4.875   3.712   5.461
 7897SOL     OW24589   2.344   4.251   6.710
 7897SOL    HW124590   2.378   4.291   6.625
 7897SOL    HW224591   2.381   4.159   6.720
 7898SOL     OW24592   4.811   2.435   3.783
 7898SOL    HW124593   4.843   2.342   3.764
 7898SOL    HW224594   4.713   2.434   3.799
 7899SOL     OW24595   6.704   2.386   2.130
 7899SOL    HW124596   6.766   2.395   2.208
 7899SOL    HW224597   6.721   2.460   2.065
 7900SOL     OW24598   1.113   5.360   1.502
 7900SOL    HW124599   1.104   5.444   1.555
 7900SOL    HW224600   1.153   5.382   1.412
 7901SOL     OW24601   5.731   0.094   6.278
 7901SOL    HW124602   5.708   0.106   6.181
 7901SOL    HW224603   5.657   0.044   6.323
 7902SOL     OW24604   4.589   4.863   1.488
 7902SOL    HW124605   4.535   4.780   1.474
 7902SOL    HW224606   4.567   4.902   1.578
 7903SOL     OW24607   6.370   1.720   0.157
 7903SOL    HW124608   6.436   1.715   0.231
 7903SOL    HW224609   6.293   1.778   0.184
 7904SOL     OW24610   6.820   0.640   2.553
 7904SOL    HW124611   6.747   0.668   2.616
 7904SOL    HW224612   6.825   0.704   2.476
 7905SOL     OW24613   3.943   1.705   1.160
 7905SOL    HW124614   3.859   1.720   1.107
 7905SOL    HW224615   3.988   1.792   1.176
 7906SOL     OW24616   6.167   5.668   6.560
 7906SOL    HW124617   6.139   5.580   6.522
 7906SOL    HW224618   6.266   5.678   6.552
 7907SOL     OW24619   6.415   2.292   3.936
 7907SOL    HW124620   6.478   2.338   3.873
 7907SOL    HW224621   6.466   2.223   3.989
 7908SOL     OW24622   0.509   1.087   3.160
 7908SOL    HW124623   0.503   1.140   3.245
 7908SOL    HW224624   0.451   1.129   3.090
 7909SOL     OW24625   4.905   3.978   4.801
 7909SOL    HW124626   4.818   3.985   4.851
 7909SOL    HW224627   4.929   3.881   4.791
 7910SOL     OW24628   4.460   2.945   6.141
 7910SOL    HW124629   4.475   2.928   6.043
 7910SOL    HW224630   4.425   3.038   6.154
 7911SOL     OW24631   6.925   5.097   0.185
 7911SOL    HW124632   6.961   5.114   0.277
 7911SOL    HW224633   6.968   5.016   0.147
 7912SOL     OW24634   6.066   5.365   6.711
 7912SOL    HW124635   6.089   5.399   6.620
 7912SOL    HW224636   5.997   5.294   6.704
 7913SOL     OW24637   6.900   4.961   6.555
 7913SOL    HW124638   6.911   4.917   6.465
 7913SOL    HW224639   6.973   4.930   6.616
 7914SOL     OW24640   6.314   5.198   1.129
 7914SOL    HW124641   6.275   5.270   1.186
 7914SOL    HW224642   6.241   5.144   1.087
 7915SOL     OW24643   4.948   1.926   2.897
 7915SOL    HW124644   4.930   1.979   2.814
 7915SOL    HW224645   4.862   1.910   2.946
 7916SOL     OW24646   5.325   3.370   5.499
 7916SOL    HW124647   5.231   3.368   5.532
 7916SOL    HW224648   5.362   3.462   5.510
 7917SOL     OW24649   4.077   3.619   4.186
 7917SOL    HW124650   4.121   3.540   4.229
 7917SOL    HW224651   4.111   3.630   4.093
 7918SOL     OW24652   6.057   1.478   1.696
 7918SOL    HW124653   5.968   1.439   1.719
 7918SOL    HW224654   6.129   1.415   1.725
 7919SOL     OW24655   5.936   4.143   2.778
 7919SOL    HW124656   5.954   4.231   2.734
 7919SOL    HW224657   6.009   4.123   2.843
 7920SOL     OW24658   0.228   4.800   1.726
 7920SOL    HW124659   0.302   4.777   1.664
 7920SOL    HW224660   0.233   4.897   1.749
 7921SOL     OW24661   2.767   6.718   1.422
 7921SOL    HW124662   2.703   6.665   1.478
 7921SOL    HW224663   2.861   6.698   1.451
 7922SOL     OW24664   6.741   5.298   6.895
 7922SOL    HW124665   6.720   5.238   6.972
 7922SOL    HW224666   6.682   5.378   6.898
 7923SOL     OW24667   1.741   1.263   2.878
 7923SOL    HW124668   1.704   1.347   2.838
 7923SOL    HW224669   1.837   1.253   2.851
 7924SOL     OW24670   2.828   6.531   3.671
 7924SOL    HW124671   2.840   6.447   3.724
 7924SOL    HW224672   2.745   6.578   3.701
 7925SOL     OW24673   6.282   1.830   5.905
 7925SOL    HW124674   6.309   1.832   6.001
 7925SOL    HW224675   6.352   1.783   5.851
 7926SOL     OW24676   3.412   0.905   3.100
 7926SOL    HW124677   3.361   0.932   3.182
 7926SOL    HW224678   3.509   0.900   3.121
 7927SOL     OW24679   4.521   5.278   5.020
 7927SOL    HW124680   4.449   5.233   5.073
 7927SOL    HW224681   4.499   5.375   5.009
 7928SOL     OW24682   1.994   4.776   3.041
 7928SOL    HW124683   1.989   4.701   3.105
 7928SOL    HW224684   2.020   4.742   2.950
 7929SOL     OW24685   4.080   3.719   4.911
 7929SOL    HW124686   4.054   3.674   4.826
 7929SOL    HW224687   4.179   3.730   4.914
 7930SOL     OW24688   4.321   5.115   3.467
 7930SOL    HW124689   4.262   5.130   3.546
 7930SOL    HW224690   4.407   5.165   3.480
 7931SOL     OW24691   2.250   2.757   6.811
 7931SOL    HW124692   2.181   2.786   6.745
 7931SOL    HW224693   2.234   2.661   6.835
 7932SOL     OW24694   2.668   0.321   6.879
 7932SOL    HW124695   2.598   0.265   6.924
 7932SOL    HW224696   2.754   0.271   6.877
 7933SOL     OW24697   0.483   6.242   0.009
 7933SOL    HW124698   0.511   6.265   0.102
 7933SOL    HW224699   0.470   6.326   6.980
 7934SOL     OW24700   2.479   3.481   0.422
 7934SOL    HW124701   2.391   3.457   0.462
 7934SOL    HW224702   2.466   3.514   0.328
 7935SOL     OW24703   4.897   5.656   0.600
 7935SOL    HW124704   4.934   5.647   0.507
 7935SOL    HW224705   4.852   5.745   0.609
 7936SOL     OW24706   3.799   6.114   3.249
 7936SOL    HW124707   3.783   6.139   3.153
 7936SOL    HW224708   3.893   6.134   3.273
 7937SOL     OW24709   5.844   6.628   5.412
 7937SOL    HW124710   5.753   6.668   5.410
 7937SOL    HW224711   5.906   6.688   5.464
 7938SOL     OW24712   3.965   5.242   4.861
 7938SOL    HW124713   4.029   5.229   4.785
 7938SOL    HW224714   4.003   5.308   4.925
 7939SOL     OW24715   1.142   1.495   5.474
 7939SOL    HW124716   1.187   1.468   5.559
 7939SOL    HW224717   1.062   1.436   5.459
 7940SOL     OW24718   2.074   5.742   1.463
 7940SOL    HW124719   2.008   5.778   1.529
 7940SOL    HW224720   2.111   5.655   1.497
 7941SOL     OW24721   0.132   1.109   0.899
 7941SOL    HW124722   0.222   1.080   0.931
 7941SOL    HW224723   0.072   1.029   0.893
 7942SOL     OW24724   0.162   6.542   1.913
 7942SOL    HW124725   0.119   6.471   1.969
 7942SOL    HW224726   0.175   6.624   1.968
 7943SOL     OW24727   5.758   2.080   1.086
 7943SOL    HW124728   5.826   2.150   1.064
 7943SOL    HW224729   5.797   1.989   1.070
 7944SOL     OW24730   0.130   3.180   1.762
 7944SOL    HW124731   0.171   3.137   1.843
 7944SOL    HW224732   0.182   3.155   1.681
 7945SOL     OW24733   4.818   0.011   2.416
 7945SOL    HW124734   4.846   0.085   2.477
 7945SOL    HW224735   4.755   0.048   2.347
 7946SOL     OW24736   1.371   2.447   6.121
 7946SOL    HW124737   1.463   2.423   6.153
 7946SOL    HW224738   1.375   2.474   6.025
 7947SOL     OW24739   3.746   2.804   6.612
 7947SOL    HW124740   3.752   2.704   6.617
 7947SOL    HW224741   3.748   2.842   6.704
 7948SOL     OW24742   0.041   6.823   0.555
 7948SOL    HW124743   6.993   6.765   0.595
 7948SOL    HW224744   0.005   6.915   0.541
 7949SOL     OW24745   5.116   4.688   4.316
 7949SOL    HW124746   5.165   4.720   4.235
 7949SOL    HW224747   5.130   4.753   4.391
 7950SOL     OW24748   4.146   5.155   3.271
 7950SOL    HW124749   4.211   5.131   3.343
 7950SOL    HW224750   4.185   5.227   3.215
 7951SOL     OW24751   2.502   3.678   1.146
 7951SOL    HW124752   2.428   3.725   1.098
 7951SOL    HW224753   2.541   3.607   1.087
 7952SOL     OW24754   6.815   2.757   6.572
 7952SOL    HW124755   6.755   2.836   6.559
 7952SOL    HW224756   6.769   2.675   6.539
 7953SOL     OW24757   2.206   2.965   2.920
 7953SOL    HW124758   2.185   3.062   2.908
 7953SOL    HW224759   2.120   2.914   2.932
 7954SOL     OW24760   4.465   5.148   4.784
 7954SOL    HW124761   4.503   5.199   4.861
 7954SOL    HW224762   4.397   5.204   4.737
 7955SOL     OW24763   0.081   6.525   6.962
 7955SOL    HW124764   0.071   6.592   0.012
 7955SOL    HW224765   0.069   6.433   6.998
 7956SOL     OW24766   0.274   6.045   3.844
 7956SOL    HW124767   0.246   6.079   3.933
 7956SOL    HW224768   0.326   5.960   3.854
 7957SOL     OW24769   1.118   2.002   0.032
 7957SOL    HW124770   1.149   2.081   7.002
 7957SOL    HW224771   1.132   2.020   0.129
 7958SOL     OW24772   3.581   6.189   4.131
 7958SOL    HW124773   3.606   6.111   4.189
 7958SOL    HW224774   3.645   6.264   4.147
 7959SOL     OW24775   5.665   4.364   0.462
 7959SOL    HW124776   5.637   4.450   0.420
 7959SOL    HW224777   5.637   4.363   0.558
 7960SOL     OW24778   3.057   1.565   0.921
 7960SOL    HW124779   3.046   1.561   1.020
 7960SOL    HW224780   3.152   1.542   0.897
 7961SOL     OW24781   1.662   6.629   6.182
 7961SOL    HW124782   1.578   6.596   6.140
 7961SOL    HW224783   1.644   6.713   6.233
 7962SOL     OW24784   2.010   1.196   0.937
 7962SOL    HW124785   1.941   1.124   0.948
 7962SOL    HW224786   2.097   1.155   0.910
 7963SOL     OW24787   0.333   0.880   5.209
 7963SOL    HW124788   0.397   0.856   5.137
 7963SOL    HW224789   0.326   0.980   5.214
 7964SOL     OW24790   5.503   5.004   3.811
 7964SOL    HW124791   5.565   4.927   3.828
 7964SOL    HW224792   5.557   5.085   3.788
 7965SOL     OW24793   4.373   2.220   0.220
 7965SOL    HW124794   4.360   2.239   0.123
 7965SOL    HW224795   4.417   2.298   0.264
 7966SOL     OW24796   1.173   4.198   4.740
 7966SOL    HW124797   1.214   4.234   4.824
 7966SOL    HW224798   1.094   4.141   4.763
 7967SOL     OW24799   2.713   5.535   3.202
 7967SOL    HW124800   2.770   5.593   3.261
 7967SOL    HW224801   2.721   5.565   3.107
 7968SOL     OW24802   2.606   2.466   3.279
 7968SOL    HW124803   2.659   2.444   3.361
 7968SOL    HW224804   2.511   2.435   3.293
 7969SOL     OW24805   4.005   0.146   2.463
 7969SOL    HW124806   4.026   0.186   2.373
 7969SOL    HW224807   4.003   0.219   2.532
 7970SOL     OW24808   6.863   3.561   2.935
 7970SOL    HW124809   6.865   3.661   2.931
 7970SOL    HW224810   6.813   3.532   3.017
 7971SOL     OW24811   2.846   0.752   2.190
 7971SOL    HW124812   2.759   0.729   2.145
 7971SOL    HW224813   2.910   0.786   2.121
 7972SOL     OW24814   6.910   4.119   1.301
 7972SOL    HW124815   6.857   4.074   1.373
 7972SOL    HW224816   6.873   4.093   1.211
 7973SOL     OW24817   5.174   3.503   3.873
 7973SOL    HW124818   5.196   3.581   3.815
 7973SOL    HW224819   5.248   3.436   3.868
 7974SOL     OW24820   5.576   0.348   4.291
 7974SOL    HW124821   5.564   0.443   4.318
 7974SOL    HW224822   5.636   0.302   4.356
 7975SOL     OW24823   4.117   0.742   4.168
 7975SOL    HW124824   4.153   0.678   4.236
 7975SOL    HW224825   4.061   0.811   4.214
 7976SOL     OW24826   0.531   6.867   5.692
 7976SOL    HW124827   0.437   6.880   5.723
 7976SOL    HW224828   0.541   6.905   5.600
 7977SOL     OW24829   5.200   6.008   2.798
 7977SOL    HW124830   5.241   6.081   2.851
 7977SOL    HW224831   5.136   6.046   2.731
 7978SOL     OW24832   4.720   3.877   6.425
 7978SOL    HW124833   4.708   3.845   6.331
 7978SOL    HW224834   4.635   3.865   6.476
 7979SOL     OW24835   3.166   0.560   4.715
 7979SOL    HW124836   3.083   0.506   4.699
 7979SOL    HW224837   3.166   0.594   4.808
 7980SOL     OW24838   3.559   5.834   0.164
 7980SOL    HW124839   3.539   5.742   0.197
 7980SOL    HW224840   3.648   5.863   0.200
 7981SOL     OW24841   0.708   5.202   2.402
 7981SOL    HW124842   0.647   5.125   2.384
 7981SOL    HW224843   0.800   5.182   2.368
 7982SOL     OW24844   6.776   2.521   0.147
 7982SOL    HW124845   6.785   2.597   0.212
 7982SOL    HW224846   6.686   2.479   0.157
 7983SOL     OW24847   5.740   1.589   2.704
 7983SOL    HW124848   5.659   1.548   2.747
 7983SOL    HW224849   5.717   1.680   2.670
 7984SOL     OW24850   0.978   2.060   1.927
 7984SOL    HW124851   1.066   2.058   1.880
 7984SOL    HW224852   0.991   2.090   2.021
 7985SOL     OW24853   1.249   0.347   2.211
 7985SOL    HW124854   1.192   0.301   2.142
 7985SOL    HW224855   1.237   0.446   2.204
 7986SOL     OW24856   3.991   1.200   6.927
 7986SOL    HW124857   4.079   1.201   6.974
 7986SOL    HW224858   3.957   1.106   6.923
 7987SOL     OW24859   0.103   3.092   5.587
 7987SOL    HW124860   0.170   3.086   5.661
 7987SOL    HW224861   0.128   3.029   5.513
 7988SOL     OW24862   2.754   2.276   4.873
 7988SOL    HW124863   2.795   2.349   4.820
 7988SOL    HW224864   2.728   2.310   4.963
 7989SOL     OW24865   3.682   2.577   5.321
 7989SOL    HW124866   3.584   2.563   5.302
 7989SOL    HW224867   3.728   2.489   5.327
 7990SOL     OW24868   0.965   2.781   4.280
 7990SOL    HW124869   1.049   2.822   4.244
 7990SOL    HW224870   0.887   2.839   4.256
 7991SOL     OW24871   0.100   2.842   5.844
 7991SOL    HW124872   0.059   2.803   5.927
 7991SOL    HW224873   0.094   2.942   5.848
 7992SOL     OW24874   1.387   6.826   1.141
 7992SOL    HW124875   1.349   6.815   1.233
 7992SOL    HW224876   1.335   6.770   1.077
 7993SOL     OW24877   2.095   5.916   0.065
 7993SOL    HW124878   2.040   5.874   0.137
 7993SOL    HW224879   2.035   5.956   7.020
 7994SOL     OW24880   4.625   0.923   3.873
 7994SOL    HW124881   4.618   0.823   3.876
 7994SOL    HW224882   4.682   0.954   3.949
 7995SOL     OW24883   3.956   5.682   4.102
 7995SOL    HW124884   3.980   5.596   4.147
 7995SOL    HW224885   3.867   5.672   4.058
 7996SOL     OW24886   3.279   6.609   4.372
 7996SOL    HW124887   3.322   6.638   4.286
 7996SOL    HW224888   3.292   6.510   4.384
 7997SOL     OW24889   6.255   1.748   1.288
 7997SOL    HW124890   6.350   1.742   1.259
 7997SOL    HW224891   6.251   1.763   1.387
 7998SOL     OW24892   5.134   4.875   0.265
 7998SOL    HW124893   5.056   4.818   0.239
 7998SOL    HW224894   5.217   4.819   0.265
 7999SOL     OW24895   0.809   6.951   5.552
 7999SOL    HW124896   0.903   6.975   5.579
 7999SOL    HW224897   0.811   6.896   5.469
 8000SOL     OW24898   5.542   0.570   6.265
 8000SOL    HW124899   5.548   0.541   6.360
 8000SOL    HW224900   5.557   0.669   6.260
 8001SOL     OW24901   2.134   6.428   1.742
 8001SOL    HW124902   2.078   6.397   1.665
 8001SOL    HW224903   2.185   6.350   1.778
 8002SOL     OW24904   0.269   3.439   5.259
 8002SOL    HW124905   0.327   3.380   5.202
 8002SOL    HW224906   0.321   3.519   5.287
 8003SOL     OW24907   3.129   5.333   2.887
 8003SOL    HW124908   3.167   5.249   2.925
 8003SOL    HW224909   3.163   5.346   2.793
 8004SOL     OW24910   2.386   4.392   3.378
 8004SOL    HW124911   2.315   4.462   3.371
 8004SOL    HW224912   2.470   4.433   3.412
 8005SOL     OW24913   2.589   1.097   2.200
 8005SOL    HW124914   2.579   1.156   2.280
 8005SOL    HW224915   2.677   1.114   2.157
 8006SOL     OW24916   2.584   5.621   0.091
 8006SOL    HW124917   2.589   5.585   7.022
 8006SOL    HW224918   2.654   5.692   0.103
 8007SOL     OW24919   1.241   0.110   3.800
 8007SOL    HW124920   1.172   0.038   3.798
 8007SOL    HW224921   1.330   0.071   3.823
 8008SOL     OW24922   5.377   6.341   6.453
 8008SOL    HW124923   5.338   6.324   6.362
 8008SOL    HW224924   5.408   6.255   6.492
 8009SOL     OW24925   6.564   0.342   3.163
 8009SOL    HW124926   6.481   0.318   3.114
 8009SOL    HW224927   6.591   0.436   3.140
 8010SOL     OW24928   2.389   1.893   6.845
 8010SOL    HW124929   2.483   1.887   6.811
 8010SOL    HW224930   2.371   1.986   6.877
 8011SOL     OW24931   2.662   2.014   0.780
 8011SOL    HW124932   2.564   2.032   0.779
 8011SOL    HW224933   2.679   1.918   0.806
 8012SOL     OW24934   1.326   6.811   1.406
 8012SOL    HW124935   1.299   6.905   1.426
 8012SOL    HW224936   1.425   6.802   1.420
 8013SOL     OW24937   5.976   4.554   4.372
 8013SOL    HW124938   6.031   4.479   4.410
 8013SOL    HW224939   6.029   4.639   4.374
 8014SOL     OW24940   1.720   5.906   6.617
 8014SOL    HW124941   1.705   5.809   6.636
 8014SOL    HW224942   1.746   5.952   6.702
 8015SOL     OW24943   2.860   2.712   0.950
 8015SOL    HW124944   2.918   2.723   1.031
 8015SOL    HW224945   2.911   2.665   0.879
 8016SOL     OW24946   4.606   0.320   0.615
 8016SOL    HW124947   4.660   0.240   0.640
 8016SOL    HW224948   4.572   0.364   0.698
 8017SOL     OW24949   0.399   4.004   5.769
 8017SOL    HW124950   0.300   4.006   5.784
 8017SOL    HW224951   0.421   3.936   5.699
 8018SOL     OW24952   4.816   1.444   5.469
 8018SOL    HW124953   4.757   1.394   5.532
 8018SOL    HW224954   4.807   1.406   5.377
 8019SOL     OW24955   1.547   4.721   0.603
 8019SOL    HW124956   1.645   4.707   0.620
 8019SOL    HW224957   1.497   4.712   0.689
 8020SOL     OW24958   5.673   6.250   6.657
 8020SOL    HW124959   5.743   6.251   6.586
 8020SOL    HW224960   5.669   6.340   6.702
 8021SOL     OW24961   0.865   1.375   1.820
 8021SOL    HW124962   0.956   1.349   1.852
 8021SOL    HW224963   0.849   1.334   1.730
 8022SOL     OW24964   4.219   0.173   2.783
 8022SOL    HW124965   4.240   0.201   2.877
 8022SOL    HW224966   4.304   0.155   2.734
 8023SOL     OW24967   6.200   6.364   2.841
 8023SOL    HW124968   6.286   6.416   2.846
 8023SOL    HW224969   6.183   6.336   2.747
 8024SOL     OW24970   3.922   5.810   6.504
 8024SOL    HW124971   3.934   5.716   6.473
 8024SOL    HW224972   4.009   5.846   6.537
 8025SOL     OW24973   3.534   6.562   6.164
 8025SOL    HW124974   3.511   6.495   6.234
 8025SOL    HW224975   3.483   6.647   6.180
 8026SOL     OW24976   0.514   3.674   6.893
 8026SOL    HW124977   0.598   3.707   6.849
 8026SOL    HW224978   0.536   3.635   6.982
 8027SOL     OW24979   4.730   1.767   4.882
 8027SOL    HW124980   4.680   1.703   4.824
 8027SOL    HW224981   4.730   1.734   4.977
 8028SOL     OW24982   4.478   5.381   5.954
 8028SOL    HW124983   4.539   5.412   6.026
 8028SOL    HW224984   4.509   5.416   5.866
 8029SOL     OW24985   4.678   4.210   6.616
 8029SOL    HW124986   4.746   4.137   6.608
 8029SOL    HW224987   4.634   4.206   6.705
 8030SOL     OW24988   5.284   4.643   5.483
 8030SOL    HW124989   5.342   4.710   5.437
 8030SOL    HW224990   5.341   4.573   5.526
 8031SOL     OW24991   4.967   4.816   2.200
 8031SOL    HW124992   4.938   4.722   2.217
 8031SOL    HW224993   5.060   4.828   2.235
 8032SOL     OW24994   6.310   3.709   4.953
 8032SOL    HW124995   6.352   3.760   4.878
 8032SOL    HW224996   6.307   3.612   4.930
 8033SOL     OW24997   5.398   2.677   6.869
 8033SOL    HW124998   5.304   2.656   6.839
 8033SOL    HW224999   5.396   2.715   6.961
 8034SOL     OW25000   6.199   6.756   5.343
 8034SOL    HW125001   6.271   6.812   5.302
 8034SOL    HW225002   6.157   6.807   5.419
 8035SOL     OW25003   5.920   6.208   5.572
 8035SOL    HW125004   5.848   6.160   5.621
 8035SOL    HW225005   5.933   6.166   5.482
 8036SOL     OW25006   2.052   3.636   1.522
 8036SOL    HW125007   2.063   3.539   1.503
 8036SOL    HW225008   2.066   3.653   1.619
 8037SOL     OW25009   2.443   3.327   0.948
 8037SOL    HW125010   2.429   3.248   1.008
 8037SOL    HW225011   2.394   3.406   0.984
 8038SOL     OW25012   6.724   1.847   3.313
 8038SOL    HW125013   6.694   1.758   3.280
 8038SOL    HW225014   6.723   1.913   3.238
 8039SOL     OW25015   1.943   6.635   2.608
 8039SOL    HW125016   1.864   6.663   2.663
 8039SOL    HW225017   1.925   6.546   2.566
 8040SOL     OW25018   0.485   5.579   0.924
 8040SOL    HW125019   0.549   5.655   0.932
 8040SOL    HW225020   0.535   5.496   0.901
 8041SOL     OW25021   3.301   1.070   1.275
 8041SOL    HW125022   3.326   1.116   1.360
 8041SOL    HW225023   3.381   1.020   1.240
 8042SOL     OW25024   3.638   2.940   2.081
 8042SOL    HW125025   3.714   2.956   2.018
 8042SOL    HW225026   3.668   2.954   2.175
 8043SOL     OW25027   2.550   0.816   0.826
 8043SOL    HW125028   2.553   0.716   0.832
 8043SOL    HW225029   2.529   0.842   0.731
 8044SOL     OW25030   3.067   2.997   1.481
 8044SOL    HW125031   3.099   3.051   1.559
 8044SOL    HW225032   3.058   3.057   1.401
 8045SOL     OW25033   6.067   1.477   2.706
 8045SOL    HW125034   6.020   1.561   2.736
 8045SOL    HW225035   6.164   1.497   2.691
 8046SOL     OW25036   5.431   4.500   5.651
 8046SOL    HW125037   5.426   4.401   5.645
 8046SOL    HW225038   5.424   4.528   5.747
 8047SOL     OW25039   3.120   5.626   4.584
 8047SOL    HW125040   3.154   5.568   4.658
 8047SOL    HW225041   3.044   5.580   4.538
 8048SOL     OW25042   5.722   0.852   5.486
 8048SOL    HW125043   5.634   0.846   5.533
 8048SOL    HW225044   5.792   0.806   5.540
 8049SOL     OW25045   0.384   0.038   1.052
 8049SOL    HW125046   0.400   0.026   1.150
 8049SOL    HW225047   0.427   6.987   1.002
 8050SOL     OW25048   1.595   3.225   1.482
 8050SOL    HW125049   1.632   3.318   1.471
 8050SOL    HW225050   1.515   3.214   1.423
 8051SOL     OW25051   4.472   0.351   2.743
 8051SOL    HW125052   4.499   0.434   2.695
 8051SOL    HW225053   4.372   0.345   2.746
 8052SOL     OW25054   3.134   1.632   2.198
 8052SOL    HW125055   3.108   1.694   2.124
 8052SOL    HW225056   3.060   1.568   2.216
 8053SOL     OW25057   3.964   3.939   2.902
 8053SOL    HW125058   3.962   3.952   2.803
 8053SOL    HW225059   3.884   3.984   2.943
 8054SOL     OW25060   4.491   6.482   4.746
 8054SOL    HW125061   4.552   6.455   4.671
 8054SOL    HW225062   4.457   6.400   4.792
 8055SOL     OW25063   0.494   0.114   6.189
 8055SOL    HW125064   0.475   0.200   6.142
 8055SOL    HW225065   0.417   0.091   6.249
 8056SOL     OW25066   4.516   1.615   2.801
 8056SOL    HW125067   4.488   1.538   2.744
 8056SOL    HW225068   4.438   1.648   2.854
 8057SOL     OW25069   3.099   0.194   2.533
 8057SOL    HW125070   3.053   0.163   2.450
 8057SOL    HW225071   3.182   0.244   2.509
 8058SOL     OW25072   2.914   0.025   2.369
 8058SOL    HW125073   2.971   0.046   2.290
 8058SOL    HW225074   2.849   0.099   2.384
 8059SOL     OW25075   3.885   2.181   4.354
 8059SOL    HW125076   3.924   2.092   4.380
 8059SOL    HW225077   3.957   2.249   4.346
 8060SOL     OW25078   6.989   1.293   4.567
 8060SOL    HW125079   0.051   1.248   4.589
 8060SOL    HW225080   7.003   1.392   4.562
 8061SOL     OW25081   6.479   5.396   2.821
 8061SOL    HW125082   6.419   5.359   2.750
 8061SOL    HW225083   6.557   5.441   2.778
 8062SOL     OW25084   1.498   4.232   4.586
 8062SOL    HW125085   1.413   4.185   4.561
 8062SOL    HW225086   1.575   4.186   4.543
 8063SOL     OW25087   2.449   4.024   0.171
 8063SOL    HW125088   2.494   4.043   0.083
 8063SOL    HW225089   2.371   3.963   0.156
 8064SOL     OW25090   0.381   4.505   0.122
 8064SOL    HW125091   0.404   4.408   0.133
 8064SOL    HW225092   0.286   4.520   0.150
 8065SOL     OW25093   4.431   6.965   4.615
 8065SOL    HW125094   4.422   6.906   4.535
 8065SOL    HW225095   4.431   6.909   4.698
 8066SOL     OW25096   1.549   1.145   6.782
 8066SOL    HW125097   1.475   1.080   6.799
 8066SOL    HW225098   1.610   1.148   6.861
 8067SOL     OW25099   3.996   2.951   1.617
 8067SOL    HW125100   3.942   2.868   1.597
 8067SOL    HW225101   4.090   2.925   1.637
 8068SOL     OW25102   6.984   5.026   5.188
 8068SOL    HW125103   0.043   5.034   5.133
 8068SOL    HW225104   6.909   5.073   5.142
 8069SOL     OW25105   2.087   6.441   1.251
 8069SOL    HW125106   2.034   6.357   1.267
 8069SOL    HW225107   2.119   6.477   1.339
 8070SOL     OW25108   3.366   5.980   1.485
 8070SOL    HW125109   3.324   5.994   1.395
 8070SOL    HW225110   3.463   5.958   1.472
 8071SOL     OW25111   4.382   6.723   5.316
 8071SOL    HW125112   4.326   6.647   5.282
 8071SOL    HW225113   4.386   6.721   5.416
 8072SOL     OW25114   4.950   1.325   0.593
 8072SOL    HW125115   4.905   1.331   0.682
 8072SOL    HW225116   4.964   1.417   0.556
 8073SOL     OW25117   4.916   6.739   5.890
 8073SOL    HW125118   4.912   6.836   5.865
 8073SOL    HW225119   4.860   6.723   5.971
 8074SOL     OW25120   2.985   3.411   0.678
 8074SOL    HW125121   3.002   3.492   0.622
 8074SOL    HW225122   2.887   3.389   0.676
 8075SOL     OW25123   6.596   1.213   1.757
 8075SOL    HW125124   6.647   1.299   1.761
 8075SOL    HW225125   6.659   1.136   1.764
 8076SOL     OW25126   5.322   2.253   5.217
 8076SOL    HW125127   5.412   2.220   5.245
 8076SOL    HW225128   5.255   2.233   5.289
 8077SOL     OW25129   1.210   0.001   1.590
 8077SOL    HW125130   1.304   7.017   1.623
 8077SOL    HW225131   1.208   0.057   1.507
 8078SOL     OW25132   6.805   1.561   0.465
 8078SOL    HW125133   6.802   1.477   0.519
 8078SOL    HW225134   6.712   1.593   0.447
 8079SOL     OW25135   6.665   1.990   3.083
 8079SOL    HW125136   6.731   2.039   3.027
 8079SOL    HW225137   6.610   2.055   3.136
 8080SOL     OW25138   2.081   3.847   0.731
 8080SOL    HW125139   2.050   3.753   0.747
 8080SOL    HW225140   2.039   3.908   0.798
 8081SOL     OW25141   5.477   0.939   5.649
 8081SOL    HW125142   5.484   1.002   5.572
 8081SOL    HW225143   5.382   0.916   5.666
 8082SOL     OW25144   6.340   2.316   3.410
 8082SOL    HW125145   6.325   2.366   3.325
 8082SOL    HW225146   6.289   2.360   3.484
 8083SOL     OW25147   5.049   3.218   2.573
 8083SOL    HW125148   5.146   3.225   2.594
 8083SOL    HW225149   5.021   3.296   2.517
 8084SOL     OW25150   6.416   5.942   1.688
 8084SOL    HW125151   6.404   5.946   1.787
 8084SOL    HW225152   6.472   6.020   1.659
 8085SOL     OW25153   5.436   0.094   1.201
 8085SOL    HW125154   5.350   0.048   1.223
 8085SOL    HW225155   5.419   0.164   1.131
 8086SOL     OW25156   4.278   0.359   4.440
 8086SOL    HW125157   4.306   0.293   4.510
 8086SOL    HW225158   4.292   0.319   4.349
 8087SOL     OW25159   2.859   2.209   0.888
 8087SOL    HW125160   2.833   2.296   0.846
 8087SOL    HW225161   2.799   2.136   0.855
 8088SOL     OW25162   5.905   0.713   2.225
 8088SOL    HW125163   5.874   0.795   2.178
 8088SOL    HW225164   5.885   0.632   2.170
 8089SOL     OW25165   5.005   3.179   0.050
 8089SOL    HW125166   5.054   3.096   0.079
 8089SOL    HW225167   4.994   3.177   6.975
 8090SOL     OW25168   5.247   1.586   6.453
 8090SOL    HW125169   5.264   1.682   6.428
 8090SOL    HW225170   5.323   1.529   6.423
 8091SOL     OW25171   3.336   4.482   6.865
 8091SOL    HW125172   3.376   4.524   6.784
 8091SOL    HW225173   3.277   4.406   6.837
 8092SOL     OW25174   1.389   1.661   4.662
 8092SOL    HW125175   1.389   1.721   4.742
 8092SOL    HW225176   1.310   1.681   4.605
 8093SOL     OW25177   5.566   5.460   1.771
 8093SOL    HW125178   5.564   5.361   1.785
 8093SOL    HW225179   5.616   5.503   1.846
 8094SOL     OW25180   1.094   4.337   6.398
 8094SOL    HW125181   1.033   4.370   6.325
 8094SOL    HW225182   1.182   4.311   6.358
 8095SOL     OW25183   5.982   3.503   4.247
 8095SOL    HW125184   6.048   3.440   4.206
 8095SOL    HW225185   5.891   3.485   4.210
 8096SOL     OW25186   3.120   5.726   2.543
 8096SOL    HW125187   3.061   5.647   2.554
 8096SOL    HW225188   3.213   5.696   2.523
 8097SOL     OW25189   5.103   0.373   3.028
 8097SOL    HW125190   5.160   0.346   2.950
 8097SOL    HW225191   5.091   0.472   3.028
 8098SOL     OW25192   2.135   5.872   3.957
 8098SOL    HW125193   2.189   5.948   3.992
 8098SOL    HW225194   2.074   5.838   4.029
 8099SOL     OW25195   5.524   6.994   4.462
 8099SOL    HW125196   5.449   0.005   4.407
 8099SOL    HW225197   5.576   0.047   4.500
 8100SOL     OW25198   0.071   6.716   0.137
 8100SOL    HW125199   0.012   6.785   0.180
 8100SOL    HW225200   0.166   6.746   0.141
 8101SOL     OW25201   1.559   6.943   5.108
 8101SOL    HW125202   1.541   6.881   5.032
 8101SOL    HW225203   1.656   6.968   5.109
 8102SOL     OW25204   0.594   5.155   6.108
 8102SOL    HW125205   0.532   5.140   6.185
 8102SOL    HW225206   0.580   5.084   6.039
 8103SOL     OW25207   3.686   1.181   1.940
 8103SOL    HW125208   3.606   1.239   1.955
 8103SOL    HW225209   3.763   1.216   1.993
 8104SOL     OW25210   3.454   6.843   5.768
 8104SOL    HW125211   3.509   6.779   5.821
 8104SOL    HW225212   3.513   6.913   5.729
 8105SOL     OW25213   2.928   2.188   3.680
 8105SOL    HW125214   2.861   2.225   3.616
 8105SOL    HW225215   3.017   2.181   3.635
 8106SOL     OW25216   1.430   4.197   3.375
 8106SOL    HW125217   1.346   4.159   3.337
 8106SOL    HW225218   1.509   4.159   3.326
 8107SOL     OW25219   2.259   6.677   5.824
 8107SOL    HW125220   2.320   6.691   5.902
 8107SOL    HW225221   2.294   6.727   5.745
 8108SOL     OW25222   0.055   3.720   4.772
 8108SOL    HW125223   0.031   3.644   4.712
 8108SOL    HW225224   0.020   3.702   4.864
 8109SOL     OW25225   2.034   4.449   5.331
 8109SOL    HW125226   2.116   4.418   5.283
 8109SOL    HW225227   1.955   4.442   5.269
 8110SOL     OW25228   2.150   6.880   0.726
 8110SOL    HW125229   2.232   6.844   0.771
 8110SOL    HW225230   2.152   6.980   0.729
 8111SOL     OW25231   2.834   6.131   4.846
 8111SOL    HW125232   2.933   6.133   4.829
 8111SOL    HW225233   2.815   6.080   4.930
 8112SOL     OW25234   3.008   0.223   5.471
 8112SOL    HW125235   3.083   0.282   5.442
 8112SOL    HW225236   2.955   0.194   5.391
 8113SOL     OW25237   3.409   2.251   0.219
 8113SOL    HW125238   3.416   2.220   0.124
 8113SOL    HW225239   3.500   2.250   0.261
 8114SOL     OW25240   2.160   3.136   2.471
 8114SOL    HW125241   2.230   3.071   2.502
 8114SOL    HW225242   2.179   3.161   2.375
 8115SOL     OW25243   2.954   1.220   1.515
 8115SOL    HW125244   2.889   1.259   1.449
 8115SOL    HW225245   3.033   1.280   1.523
 8116SOL     OW25246   6.139   6.943   5.551
 8116SOL    HW125247   6.199   7.020   5.532
 8116SOL    HW225248   6.046   6.975   5.565
 8117SOL     OW25249   1.396   1.797   4.345
 8117SOL    HW125250   1.451   1.860   4.290
 8117SOL    HW225251   1.423   1.703   4.326
 8118SOL     OW25252   1.127   4.312   5.556
 8118SOL    HW125253   1.148   4.399   5.511
 8118SOL    HW225254   1.158   4.316   5.651
 8119SOL     OW25255   0.344   5.220   3.814
 8119SOL    HW125256   0.356   5.319   3.816
 8119SOL    HW225257   0.392   5.180   3.892
 8120SOL     OW25258   4.312   4.371   0.350
 8120SOL    HW125259   4.305   4.286   0.298
 8120SOL    HW225260   4.221   4.414   0.356
 8121SOL     OW25261   0.115   0.000   2.965
 8121SOL    HW125262   0.119   0.052   3.051
 8121SOL    HW225263   0.195   0.022   2.909
 8122SOL     OW25264   0.616   5.976   1.519
 8122SOL    HW125265   0.672   5.996   1.599
 8122SOL    HW225266   0.645   5.889   1.479
 8123SOL     OW25267   1.264   6.626   6.317
 8123SOL    HW125268   1.238   6.573   6.397
 8123SOL    HW225269   1.205   6.603   6.240
 8124SOL     OW25270   1.495   5.586   0.978
 8124SOL    HW125271   1.396   5.572   0.968
 8124SOL    HW225272   1.513   5.634   1.063
 8125SOL     OW25273   6.109   4.707   2.703
 8125SOL    HW125274   6.021   4.666   2.727
 8125SOL    HW225275   6.103   4.807   2.709
 8126SOL     OW25276   6.185   4.333   3.157
 8126SOL    HW125277   6.126   4.413   3.164
 8126SOL    HW225278   6.259   4.339   3.224
 8127SOL     OW25279   2.466   5.309   0.381
 8127SOL    HW125280   2.433   5.247   0.310
 8127SOL    HW225281   2.466   5.403   0.345
 8128SOL     OW25282   3.104   2.783   6.185
 8128SOL    HW125283   3.095   2.688   6.155
 8128SOL    HW225284   3.033   2.803   6.253
 8129SOL     OW25285   5.262   0.680   6.244
 8129SOL    HW125286   5.343   0.665   6.301
 8129SOL    HW225287   5.182   0.638   6.289
 8130SOL     OW25288   1.043   5.274   6.470
 8130SOL    HW125289   0.979   5.197   6.467
 8130SOL    HW225290   1.023   5.337   6.396
 8131SOL     OW25291   3.522   0.728   0.501
 8131SOL    HW125292   3.575   0.643   0.502
 8131SOL    HW225293   3.496   0.751   0.595
 8132SOL     OW25294   6.042   5.371   4.543
 8132SOL    HW125295   6.013   5.409   4.455
 8132SOL    HW225296   6.064   5.274   4.532
 8133SOL     OW25297   3.007   4.934   3.423
 8133SOL    HW125298   3.044   4.899   3.508
 8133SOL    HW225299   3.010   5.034   3.424
 8134SOL     OW25300   2.278   2.358   4.205
 8134SOL    HW125301   2.231   2.273   4.180
 8134SOL    HW225302   2.260   2.379   4.301
 8135SOL     OW25303   3.449   5.265   2.369
 8135SOL    HW125304   3.454   5.169   2.343
 8135SOL    HW225305   3.354   5.297   2.361
 8136SOL     OW25306   3.631   5.457   2.328
 8136SOL    HW125307   3.640   5.485   2.424
 8136SOL    HW225308   3.567   5.381   2.321
 8137SOL     OW25309   1.808   3.779   4.961
 8137SOL    HW125310   1.827   3.866   4.916
 8137SOL    HW225311   1.710   3.760   4.957
 8138SOL     OW25312   5.810   1.429   2.172
 8138SOL    HW125313   5.864   1.347   2.152
 8138SOL    HW225314   5.807   1.444   2.270
 8139SOL     OW25315   1.039   2.996   3.222
 8139SOL    HW125316   0.942   2.979   3.201
 8139SOL    HW225317   1.046   3.054   3.304
 8140SOL     OW25318   4.636   0.281   0.275
 8140SOL    HW125319   4.581   0.272   0.358
 8140SOL    HW225320   4.615   0.206   0.212
 8141SOL     OW25321   5.148   1.120   5.830
 8141SOL    HW125322   5.088   1.157   5.760
 8141SOL    HW225323   5.138   1.174   5.914
 8142SOL     OW25324   2.289   5.954   0.506
 8142SOL    HW125325   2.284   5.876   0.443
 8142SOL    HW225326   2.307   5.920   0.598
 8143SOL     OW25327   5.057   4.260   0.896
 8143SOL    HW125328   5.069   4.240   0.799
 8143SOL    HW225329   4.971   4.219   0.928
 8144SOL     OW25330   0.502   5.636   6.108
 8144SOL    HW125331   0.486   5.709   6.174
 8144SOL    HW225332   0.422   5.576   6.105
 8145SOL     OW25333   5.828   5.819   0.677
 8145SOL    HW125334   5.814   5.918   0.667
 8145SOL    HW225335   5.919   5.802   0.713
 8146SOL     OW25336   5.865   0.367   4.017
 8146SOL    HW125337   5.930   0.328   4.082
 8146SOL    HW225338   5.776   0.323   4.028
 8147SOL     OW25339   0.843   0.487   6.197
 8147SOL    HW125340   0.832   0.389   6.214
 8147SOL    HW225341   0.921   0.521   6.250
 8148SOL     OW25342   3.946   4.134   6.672
 8148SOL    HW125343   3.955   4.231   6.652
 8148SOL    HW225344   4.003   4.110   6.751
 8149SOL     OW25345   1.196   0.268   4.963
 8149SOL    HW125346   1.254   0.324   4.903
 8149SOL    HW225347   1.171   0.184   4.915
 8150SOL     OW25348   0.986   3.420   1.078
 8150SOL    HW125349   0.960   3.494   1.016
 8150SOL    HW225350   0.907   3.361   1.094
 8151SOL     OW25351   6.336   4.685   3.945
 8151SOL    HW125352   6.385   4.757   3.994
 8151SOL    HW225353   6.259   4.653   4.000
 8152SOL     OW25354   4.643   1.953   3.044
 8152SOL    HW125355   4.546   1.939   3.025
 8152SOL    HW225356   4.658   1.948   3.143
 8153SOL     OW25357   0.942   1.015   3.885
 8153SOL    HW125358   0.915   0.992   3.792
 8153SOL    HW225359   0.860   1.030   3.941
 8154SOL     OW25360   2.672   1.621   3.472
 8154SOL    HW125361   2.654   1.679   3.551
 8154SOL    HW225362   2.624   1.657   3.392
 8155SOL     OW25363   1.477   4.342   2.142
 8155SOL    HW125364   1.520   4.338   2.232
 8155SOL    HW225365   1.419   4.423   2.137
 8156SOL     OW25366   6.030   5.248   1.350
 8156SOL    HW125367   5.993   5.217   1.262
 8156SOL    HW225368   6.084   5.175   1.392
 8157SOL     OW25369   5.995   2.832   6.277
 8157SOL    HW125370   5.936   2.805   6.201
 8157SOL    HW225371   6.067   2.892   6.243
 8158SOL     OW25372   5.856   4.639   6.136
 8158SOL    HW125373   5.901   4.721   6.170
 8158SOL    HW225374   5.861   4.636   6.036
 8159SOL     OW25375   3.809   6.334   5.867
 8159SOL    HW125376   3.745   6.409   5.878
 8159SOL    HW225377   3.775   6.253   5.914
 8160SOL     OW25378   5.356   1.644   3.404
 8160SOL    HW125379   5.452   1.668   3.410
 8160SOL    HW225380   5.344   1.547   3.426
 8161SOL     OW25381   5.518   3.395   0.390
 8161SOL    HW125382   5.529   3.443   0.477
 8161SOL    HW225383   5.583   3.432   0.323
 8162SOL     OW25384   0.062   4.912   6.757
 8162SOL    HW125385   0.047   4.982   6.827
 8162SOL    HW225386   0.151   4.925   6.715
 8163SOL     OW25387   4.534   4.555   5.379
 8163SOL    HW125388   4.630   4.544   5.354
 8163SOL    HW225389   4.522   4.537   5.477
 8164SOL     OW25390   5.150   1.040   6.897
 8164SOL    HW125391   5.229   0.988   6.928
 8164SOL    HW225392   5.109   0.995   6.817
 8165SOL     OW25393   6.270   2.837   6.443
 8165SOL    HW125394   6.331   2.884   6.380
 8165SOL    HW225395   6.246   2.898   6.518
 8166SOL     OW25396   1.352   2.024   4.070
 8166SOL    HW125397   1.364   1.931   4.034
 8166SOL    HW225398   1.411   2.037   4.149
 8167SOL     OW25399   6.383   1.269   3.912
 8167SOL    HW125400   6.421   1.232   3.997
 8167SOL    HW225401   6.298   1.317   3.931
 8168SOL     OW25402   2.050   0.565   1.377
 8168SOL    HW125403   1.976   0.631   1.367
 8168SOL    HW225404   2.099   0.582   1.462
 8169SOL     OW25405   5.096   1.974   0.360
 8169SOL    HW125406   5.144   2.052   0.400
 8169SOL    HW225407   5.009   1.960   0.407
 8170SOL     OW25408   6.676   4.304   2.309
 8170SOL    HW125409   6.770   4.303   2.343
 8170SOL    HW225410   6.678   4.307   2.209
 8171SOL     OW25411   1.542   1.436   6.913
 8171SOL    HW125412   1.471   1.367   6.903
 8171SOL    HW225413   1.520   1.495   6.991
 8172SOL     OW25414   0.663   2.148   1.616
 8172SOL    HW125415   0.618   2.116   1.699
 8172SOL    HW225416   0.633   2.242   1.596
 8173SOL     OW25417   5.729   2.120   2.273
 8173SOL    HW125418   5.736   2.189   2.344
 8173SOL    HW225419   5.788   2.042   2.295
 8174SOL     OW25420   1.352   6.029   2.706
 8174SOL    HW125421   1.383   5.956   2.646
 8174SOL    HW225422   1.297   6.094   2.653
 8175SOL     OW25423   1.025   2.287   4.217
 8175SOL    HW125424   1.047   2.206   4.271
 8175SOL    HW225425   1.091   2.296   4.143
 8176SOL     OW25426   1.818   4.527   1.448
 8176SOL    HW125427   1.883   4.507   1.522
 8176SOL    HW225428   1.776   4.441   1.417
 8177SOL     OW25429   3.760   1.160   2.889
 8177SOL    HW125430   3.767   1.185   2.793
 8177SOL    HW225431   3.705   1.228   2.937
 8178SOL     OW25432   2.654   6.730   0.707
 8178SOL    HW125433   2.573   6.770   0.750
 8178SOL    HW225434   2.710   6.803   0.667
 8179SOL     OW25435   5.050   0.928   4.116
 8179SOL    HW125436   5.066   0.830   4.121
 8179SOL    HW225437   5.041   0.966   4.208
 8180SOL     OW25438   5.750   6.595   6.667
 8180SOL    HW125439   5.732   6.606   6.765
 8180SOL    HW225440   5.830   6.650   6.642
 8181SOL     OW25441   0.842   0.989   0.992
 8181SOL    HW125442   0.778   1.027   1.059
 8181SOL    HW225443   0.835   0.890   0.993
 8182SOL     OW25444   3.507   3.832   4.758
 8182SOL    HW125445   3.427   3.876   4.716
 8182SOL    HW225446   3.560   3.786   4.687
 8183SOL     OW25447   6.501   0.785   5.168
 8183SOL    HW125448   6.578   0.831   5.125
 8183SOL    HW225449   6.417   0.806   5.118
 8184SOL     OW25450   1.111   6.657   6.693
 8184SOL    HW125451   1.046   6.711   6.638
 8184SOL    HW225452   1.073   6.642   6.784
 8185SOL     OW25453   1.177   0.586   0.448
 8185SOL    HW125454   1.113   0.509   0.448
 8185SOL    HW225455   1.188   0.620   0.354
 8186SOL     OW25456   1.660   5.200   6.490
 8186SOL    HW125457   1.565   5.170   6.495
 8186SOL    HW225458   1.718   5.122   6.469
 8187SOL     OW25459   1.732   1.774   5.207
 8187SOL    HW125460   1.693   1.741   5.293
 8187SOL    HW225461   1.796   1.848   5.226
 8188SOL     OW25462   4.326   1.965   3.938
 8188SOL    HW125463   4.333   1.941   3.841
 8188SOL    HW225464   4.230   1.969   3.965
 8189SOL     OW25465   4.963   4.998   3.480
 8189SOL    HW125466   5.008   4.941   3.550
 8189SOL    HW225467   4.892   5.054   3.524
 8190SOL     OW25468   5.257   3.685   3.208
 8190SOL    HW125469   5.236   3.751   3.136
 8190SOL    HW225470   5.333   3.627   3.179
 8191SOL     OW25471   4.364   4.947   1.944
 8191SOL    HW125472   4.361   4.848   1.930
 8191SOL    HW225473   4.417   4.968   2.025
 8192SOL     OW25474   1.633   4.971   3.333
 8192SOL    HW125475   1.714   5.028   3.320
 8192SOL    HW225476   1.638   4.925   3.422
 8193SOL     OW25477   6.923   5.237   4.997
 8193SOL    HW125478   6.996   5.236   4.929
 8193SOL    HW225479   6.838   5.204   4.955
 8194SOL     OW25480   4.364   6.838   1.146
 8194SOL    HW125481   4.439   6.851   1.211
 8194SOL    HW225482   4.339   6.741   1.144
 8195SOL     OW25483   5.961   6.847   3.743
 8195SOL    HW125484   5.950   6.794   3.826
 8195SOL    HW225485   5.959   6.945   3.764
 8196SOL     OW25486   4.758   1.163   0.213
 8196SOL    HW125487   4.670   1.208   0.232
 8196SOL    HW225488   4.794   1.124   0.298
 8197SOL     OW25489   4.478   1.746   1.531
 8197SOL    HW125490   4.463   1.819   1.464
 8197SOL    HW225491   4.524   1.669   1.487
 8198SOL     OW25492   2.726   0.593   1.770
 8198SOL    HW125493   2.775   0.661   1.716
 8198SOL    HW225494   2.629   0.616   1.773
 8199SOL     OW25495   4.922   2.469   5.899
 8199SOL    HW125496   4.896   2.548   5.954
 8199SOL    HW225497   4.879   2.387   5.937
 8200SOL     OW25498   5.728   4.123   1.830
 8200SOL    HW125499   5.653   4.167   1.877
 8200SOL    HW225500   5.803   4.107   1.894
 8201SOL     OW25501   0.649   0.885   5.284
 8201SOL    HW125502   0.603   0.801   5.313
 8201SOL    HW225503   0.704   0.920   5.359
 8202SOL     OW25504   0.050   6.351   2.079
 8202SOL    HW125505   6.982   6.371   2.114
 8202SOL    HW225506   0.053   6.256   2.046
 8203SOL     OW25507   1.637   2.862   6.875
 8203SOL    HW125508   1.588   2.933   6.925
 8203SOL    HW225509   1.572   2.805   6.825
 8204SOL     OW25510   4.483   3.515   0.777
 8204SOL    HW125511   4.437   3.429   0.801
 8204SOL    HW225512   4.577   3.512   0.810
 8205SOL     OW25513   0.871   2.838   0.257
 8205SOL    HW125514   0.835   2.875   0.342
 8205SOL    HW225515   0.803   2.850   0.184
 8206SOL     OW25516   4.301   1.367   0.102
 8206SOL    HW125517   4.296   1.298   0.029
 8206SOL    HW225518   4.294   1.459   0.062
 8207SOL     OW25519   3.571   3.066   4.328
 8207SOL    HW125520   3.609   3.086   4.418
 8207SOL    HW225521   3.487   3.120   4.314
 8208SOL     OW25522   0.679   1.156   6.970
 8208SOL    HW125523   0.633   1.155   0.035
 8208SOL    HW225524   0.612   1.139   6.898
 8209SOL     OW25525   0.454   0.572   5.076
 8209SOL    HW125526   0.474   0.595   5.171
 8209SOL    HW225527   0.372   0.515   5.072
 8210SOL     OW25528   1.885   3.009   6.906
 8210SOL    HW125529   1.892   3.057   6.819
 8210SOL    HW225530   1.816   2.936   6.899
 8211SOL     OW25531   3.594   4.387   1.121
 8211SOL    HW125532   3.656   4.417   1.193
 8211SOL    HW225533   3.633   4.308   1.074
 8212SOL     OW25534   1.439   2.188   2.940
 8212SOL    HW125535   1.473   2.160   2.850
 8212SOL    HW225536   1.403   2.281   2.935
 8213SOL     OW25537   0.098   4.984   2.246
 8213SOL    HW125538   7.022   4.979   2.245
 8213SOL    HW225539   0.136   4.916   2.183
 8214SOL     OW25540   5.778   4.707   3.519
 8214SOL    HW125541   5.757   4.703   3.421
 8214SOL    HW225542   5.844   4.780   3.536
 8215SOL     OW25543   3.427   5.502   4.859
 8215SOL    HW125544   3.402   5.411   4.890
 8215SOL    HW225545   3.526   5.512   4.859
 8216SOL     OW25546   5.301   5.357   4.098
 8216SOL    HW125547   5.206   5.326   4.097
 8216SOL    HW225548   5.335   5.367   4.005
 8217SOL     OW25549   1.908   5.065   0.697
 8217SOL    HW125550   1.862   5.023   0.775
 8217SOL    HW225551   1.958   4.995   0.646
 8218SOL     OW25552   0.598   2.034   6.743
 8218SOL    HW125553   0.599   2.131   6.718
 8218SOL    HW225554   0.530   1.987   6.686
 8219SOL     OW25555   4.851   2.115   0.740
 8219SOL    HW125556   4.885   2.042   0.680
 8219SOL    HW225557   4.923   2.184   0.752
 8220SOL     OW25558   4.002   3.087   2.983
 8220SOL    HW125559   4.074   3.131   2.928
 8220SOL    HW225560   3.914   3.097   2.936
 8221SOL     OW25561   4.871   6.139   4.161
 8221SOL    HW125562   4.844   6.074   4.232
 8221SOL    HW225563   4.935   6.095   4.098
 8222SOL     OW25564   5.401   1.711   2.182
 8222SOL    HW125565   5.310   1.687   2.215
 8222SOL    HW225566   5.411   1.810   2.179
 8223SOL     OW25567   0.556   4.780   5.653
 8223SOL    HW125568   0.618   4.713   5.693
 8223SOL    HW225569   0.579   4.871   5.687
 8224SOL     OW25570   1.163   2.750   3.179
 8224SOL    HW125571   1.187   2.708   3.091
 8224SOL    HW225572   1.120   2.839   3.162
 8225SOL     OW25573   4.259   1.116   0.544
 8225SOL    HW125574   4.292   1.181   0.475
 8225SOL    HW225575   4.265   1.159   0.635
 8226SOL     OW25576   5.248   0.401   1.808
 8226SOL    HW125577   5.244   0.499   1.786
 8226SOL    HW225578   5.341   0.376   1.836
 8227SOL     OW25579   0.568   2.390   3.896
 8227SOL    HW125580   0.647   2.333   3.875
 8227SOL    HW225581   0.562   2.405   3.995
 8228SOL     OW25582   6.994   2.743   5.610
 8228SOL    HW125583   6.894   2.751   5.605
 8228SOL    HW225584   0.002   2.784   5.695
 8229SOL     OW25585   3.342   5.250   0.210
 8229SOL    HW125586   3.321   5.283   0.119
 8229SOL    HW225587   3.258   5.249   0.266
 8230SOL     OW25588   5.641   6.787   5.405
 8230SOL    HW125589   5.713   6.855   5.393
 8230SOL    HW225590   5.618   6.780   5.502
 8231SOL     OW25591   4.196   5.855   1.686
 8231SOL    HW125592   4.152   5.789   1.747
 8231SOL    HW225593   4.150   5.944   1.695
 8232SOL     OW25594   4.614   1.308   0.724
 8232SOL    HW125595   4.611   1.297   0.625
 8232SOL    HW225596   4.572   1.395   0.749
 8233SOL     OW25597   0.900   5.814   6.470
 8233SOL    HW125598   0.859   5.807   6.379
 8233SOL    HW225599   0.889   5.727   6.518
 8234SOL     OW25600   2.582   3.055   0.096
 8234SOL    HW125601   2.526   3.035   0.176
 8234SOL    HW225602   2.558   2.991   0.022
 8235SOL     OW25603   2.201   2.829   0.499
 8235SOL    HW125604   2.194   2.899   0.428
 8235SOL    HW225605   2.296   2.821   0.530
 8236SOL     OW25606   6.683   3.722   6.959
 8236SOL    HW125607   6.716   3.685   0.023
 8236SOL    HW225608   6.755   3.712   6.890
 8237SOL     OW25609   4.960   6.229   4.472
 8237SOL    HW125610   4.924   6.240   4.564
 8237SOL    HW225611   5.047   6.279   4.464
 8238SOL     OW25612   1.719   4.246   0.292
 8238SOL    HW125613   1.638   4.201   0.328
 8238SOL    HW225614   1.704   4.272   0.197
 8239SOL     OW25615   6.050   2.241   5.623
 8239SOL    HW125616   6.101   2.155   5.612
 8239SOL    HW225617   6.019   2.249   5.717
 8240SOL     OW25618   3.815   3.623   2.602
 8240SOL    HW125619   3.851   3.715   2.590
 8240SOL    HW225620   3.791   3.608   2.698
 8241SOL     OW25621   3.022   6.829   0.431
 8241SOL    HW125622   3.083   6.753   0.454
 8241SOL    HW225623   3.072   6.915   0.436
 8242SOL     OW25624   1.325   4.389   6.060
 8242SOL    HW125625   1.271   4.362   5.980
 8242SOL    HW225626   1.409   4.433   6.031
 8243SOL     OW25627   0.759   3.199   6.649
 8243SOL    HW125628   0.759   3.110   6.603
 8243SOL    HW225629   0.678   3.251   6.621
 8244SOL     OW25630   0.972   6.679   3.645
 8244SOL    HW125631   1.008   6.596   3.686
 8244SOL    HW225632   0.874   6.669   3.629
 8245SOL     OW25633   4.056   1.561   2.723
 8245SOL    HW125634   4.049   1.605   2.633
 8245SOL    HW225635   3.974   1.507   2.739
 8246SOL     OW25636   6.604   4.439   5.770
 8246SOL    HW125637   6.538   4.514   5.774
 8246SOL    HW225638   6.576   4.366   5.833
 8247SOL     OW25639   0.940   1.420   1.452
 8247SOL    HW125640   1.029   1.445   1.414
 8247SOL    HW225641   0.879   1.500   1.449
 8248SOL     OW25642   6.264   4.667   3.677
 8248SOL    HW125643   6.284   4.757   3.638
 8248SOL    HW225644   6.279   4.670   3.776
 8249SOL     OW25645   1.762   3.984   4.602
 8249SOL    HW125646   1.846   4.014   4.557
 8249SOL    HW225647   1.689   3.977   4.535
 8250SOL     OW25648   3.311   4.129   2.429
 8250SOL    HW125649   3.327   4.156   2.334
 8250SOL    HW225650   3.251   4.196   2.473
 8251SOL     OW25651   5.940   2.424   4.776
 8251SOL    HW125652   5.936   2.420   4.676
 8251SOL    HW225653   5.847   2.419   4.813
 8252SOL     OW25654   3.215   3.734   0.031
 8252SOL    HW125655   3.151   3.805   0.003
 8252SOL    HW225656   3.163   3.653   0.060
 8253SOL     OW25657   3.491   3.217   5.306
 8253SOL    HW125658   3.400   3.204   5.347
 8253SOL    HW225659   3.501   3.312   5.277
 8254SOL     OW25660   4.048   4.835   4.731
 8254SOL    HW125661   4.128   4.825   4.672
 8254SOL    HW225662   4.074   4.817   4.826
 8255SOL     OW25663   3.699   6.226   4.610
 8255SOL    HW125664   3.719   6.270   4.522
 8255SOL    HW225665   3.773   6.243   4.674
 8256SOL     OW25666   6.133   7.012   3.244
 8256SOL    HW125667   6.114   6.916   3.226
 8256SOL    HW225668   6.062   0.046   3.203
 8257SOL     OW25669   6.783   4.390   3.308
 8257SOL    HW125670   6.781   4.383   3.407
 8257SOL    HW225671   6.803   4.301   3.268
 8258SOL     OW25672   5.238   1.444   0.688
 8258SOL    HW125673   5.216   1.349   0.707
 8258SOL    HW225674   5.207   1.467   0.595
 8259SOL     OW25675   4.116   1.572   3.868
 8259SOL    HW125676   4.164   1.515   3.802
 8259SOL    HW225677   4.181   1.613   3.932
 8260SOL     OW25678   2.832   0.703   1.298
 8260SOL    HW125679   2.828   0.611   1.338
 8260SOL    HW225680   2.774   0.765   1.349
 8261SOL     OW25681   5.626   1.116   1.781
 8261SOL    HW125682   5.715   1.074   1.768
 8261SOL    HW225683   5.602   1.115   1.878
 8262SOL     OW25684   0.603   2.303   0.842
 8262SOL    HW125685   0.687   2.250   0.857
 8262SOL    HW225686   0.539   2.249   0.788
 8263SOL     OW25687   0.383   2.215   0.335
 8263SOL    HW125688   0.330   2.269   0.270
 8263SOL    HW225689   0.340   2.125   0.346
 8264SOL     OW25690   1.446   5.786   2.492
 8264SOL    HW125691   1.501   5.841   2.554
 8264SOL    HW225692   1.494   5.701   2.471
 8265SOL     OW25693   1.481   6.973   1.919
 8265SOL    HW125694   1.428   6.904   1.870
 8265SOL    HW225695   1.503   6.941   2.011
 8266SOL     OW25696   2.153   0.348   2.754
 8266SOL    HW125697   2.164   0.254   2.788
 8266SOL    HW225698   2.077   0.391   2.802
 8267SOL     OW25699   2.076   3.377   1.517
 8267SOL    HW125700   2.053   3.296   1.463
 8267SOL    HW225701   2.146   3.353   1.584
 8268SOL     OW25702   2.338   6.518   6.358
 8268SOL    HW125703   2.355   6.617   6.360
 8268SOL    HW225704   2.293   6.493   6.273
 8269SOL     OW25705   5.535   1.246   1.366
 8269SOL    HW125706   5.463   1.182   1.339
 8269SOL    HW225707   5.609   1.243   1.299
 8270SOL     OW25708   2.412   0.201   4.563
 8270SOL    HW125709   2.417   0.106   4.592
 8270SOL    HW225710   2.465   0.214   4.479
 8271SOL     OW25711   6.943   0.466   2.230
 8271SOL    HW125712   6.874   0.400   2.260
 8271SOL    HW225713   7.019   0.467   2.295
 8272SOL     OW25714   4.758   0.951   1.205
 8272SOL    HW125715   4.771   0.855   1.230
 8272SOL    HW225716   4.790   1.009   1.280
 8273SOL     OW25717   1.456   6.384   0.965
 8273SOL    HW125718   1.486   6.376   0.870
 8273SOL    HW225719   1.527   6.350   1.026
 8274SOL     OW25720   4.644   4.801   3.350
 8274SOL    HW125721   4.558   4.852   3.350
 8274SOL    HW225722   4.648   4.742   3.269
 8275SOL     OW25723   4.519   1.741   6.400
 8275SOL    HW125724   4.565   1.737   6.312
 8275SOL    HW225725   4.449   1.813   6.399
 8276SOL     OW25726   1.046   2.284   3.774
 8276SOL    HW125727   1.063   2.194   3.816
 8276SOL    HW225728   1.067   2.279   3.677
 8277SOL     OW25729   0.394   0.697   6.925
 8277SOL    HW125730   0.404   0.600   6.945
 8277SOL    HW225731   0.383   0.710   6.826
 8278SOL     OW25732   2.452   2.117   6.604
 8278SOL    HW125733   2.375   2.080   6.655
 8278SOL    HW225734   2.430   2.210   6.572
 8279SOL     OW25735   1.242   0.180   4.283
 8279SOL    HW125736   1.204   0.213   4.196
 8279SOL    HW225737   1.168   0.173   4.350
 8280SOL     OW25738   2.687   3.193   0.481
 8280SOL    HW125739   2.703   3.290   0.463
 8280SOL    HW225740   2.773   3.143   0.471
 8281SOL     OW25741   1.252   5.389   1.275
 8281SOL    HW125742   1.252   5.453   1.198
 8281SOL    HW225743   1.345   5.357   1.292
 8282SOL     OW25744   5.560   3.516   6.530
 8282SOL    HW125745   5.632   3.560   6.583
 8282SOL    HW225746   5.487   3.583   6.512
 8283SOL     OW25747   1.055   4.497   6.625
 8283SOL    HW125748   1.114   4.467   6.699
 8283SOL    HW225749   1.071   4.441   6.544
 8284SOL     OW25750   0.658   3.583   1.783
 8284SOL    HW125751   0.673   3.637   1.700
 8284SOL    HW225752   0.615   3.640   1.853
 8285SOL     OW25753   4.052   3.280   5.289
 8285SOL    HW125754   3.959   3.243   5.289
 8285SOL    HW225755   4.083   3.291   5.194
 8286SOL     OW25756   5.391   3.362   6.653
 8286SOL    HW125757   5.429   3.310   6.730
 8286SOL    HW225758   5.463   3.418   6.612
 8287SOL     OW25759   1.834   5.279   4.700
 8287SOL    HW125760   1.774   5.199   4.695
 8287SOL    HW225761   1.918   5.260   4.649
 8288SOL     OW25762   2.952   1.740   2.431
 8288SOL    HW125763   3.031   1.753   2.370
 8288SOL    HW225764   2.878   1.801   2.403
 8289SOL     OW25765   0.253   6.934   1.495
 8289SOL    HW125766   0.261   7.010   1.560
 8289SOL    HW225767   0.157   6.917   1.476
 8290SOL     OW25768   6.368   1.006   0.152
 8290SOL    HW125769   6.276   1.027   0.118
 8290SOL    HW225770   6.431   1.079   0.124
 8291SOL     OW25771   4.980   6.935   6.539
 8291SOL    HW125772   4.936   6.862   6.590
 8291SOL    HW225773   4.977   6.913   6.441
 8292SOL     OW25774   2.344   6.472   0.008
 8292SOL    HW125775   2.390   6.384   0.018
 8292SOL    HW225776   2.398   6.531   6.972
 8293SOL     OW25777   3.267   0.240   0.366
 8293SOL    HW125778   3.199   0.283   0.307
 8293SOL    HW225779   3.306   0.308   0.428
 8294SOL     OW25780   5.948   4.244   5.354
 8294SOL    HW125781   5.852   4.234   5.380
 8294SOL    HW225782   5.981   4.334   5.381
 8295SOL     OW25783   5.111   5.372   2.067
 8295SOL    HW125784   5.071   5.361   2.159
 8295SOL    HW225785   5.170   5.293   2.048
 8296SOL     OW25786   1.959   6.820   6.266
 8296SOL    HW125787   2.000   6.872   6.190
 8296SOL    HW225788   1.874   6.863   6.294
 8297SOL     OW25789   6.490   2.831   2.437
 8297SOL    HW125790   6.406   2.876   2.468
 8297SOL    HW225791   6.469   2.772   2.359
 8298SOL     OW25792   5.883   2.183   1.530
 8298SOL    HW125793   5.898   2.201   1.627
 8298SOL    HW225794   5.868   2.085   1.516
 8299SOL     OW25795   0.283   2.749   2.099
 8299SOL    HW125796   0.195   2.788   2.074
 8299SOL    HW225797   0.342   2.820   2.138
 8300SOL     OW25798   1.096   5.711   5.914
 8300SOL    HW125799   1.071   5.689   5.819
 8300SOL    HW225800   1.188   5.751   5.915
 8301SOL     OW25801   3.461   1.521   1.115
 8301SOL    HW125802   3.401   1.593   1.150
 8301SOL    HW225803   3.496   1.466   1.191
 8302SOL     OW25804   5.999   5.812   5.374
 8302SOL    HW125805   5.932   5.877   5.410
 8302SOL    HW225806   5.963   5.772   5.289
 8303SOL     OW25807   6.829   0.446   3.824
 8303SOL    HW125808   6.909   0.385   3.829
 8303SOL    HW225809   6.758   0.401   3.770
 8304SOL     OW25810   1.122   3.433   6.813
 8304SOL    HW125811   1.149   3.437   6.909
 8304SOL    HW225812   1.181   3.493   6.759
 8305SOL     OW25813   3.660   4.997   4.533
 8305SOL    HW125814   3.691   4.990   4.439
 8305SOL    HW225815   3.739   4.998   4.595
 8306SOL     OW25816   0.396   3.009   4.925
 8306SOL    HW125817   0.365   2.984   5.016
 8306SOL    HW225818   0.496   3.015   4.924
 8307SOL     OW25819   4.306   5.243   1.877
 8307SOL    HW125820   4.333   5.224   1.783
 8307SOL    HW225821   4.381   5.290   1.925
 8308SOL     OW25822   4.579   5.731   1.340
 8308SOL    HW125823   4.486   5.766   1.347
 8308SOL    HW225824   4.619   5.725   1.431
 8309SOL     OW25825   6.248   5.785   3.650
 8309SOL    HW125826   6.322   5.739   3.698
 8309SOL    HW225827   6.286   5.853   3.587
 8310SOL     OW25828   1.433   4.246   1.046
 8310SOL    HW125829   1.395   4.213   0.959
 8310SOL    HW225830   1.367   4.306   1.090
 8311SOL     OW25831   0.276   1.174   5.210
 8311SOL    HW125832   0.367   1.189   5.247
 8311SOL    HW225833   0.209   1.173   5.285
 8312SOL     OW25834   4.443   5.858   1.804
 8312SOL    HW125835   4.416   5.927   1.872
 8312SOL    HW225836   4.362   5.822   1.759
 8313SOL     OW25837   4.163   1.070   2.016
 8313SOL    HW125838   4.108   1.139   1.968
 8313SOL    HW225839   4.255   1.067   1.977
 8314SOL     OW25840   5.055   6.430   1.087
 8314SOL    HW125841   5.137   6.378   1.114
 8314SOL    HW225842   4.976   6.394   1.136
 8315SOL     OW25843   4.140   3.229   0.639
 8315SOL    HW125844   4.228   3.226   0.685
 8315SOL    HW225845   4.096   3.139   0.646
 8316SOL     OW25846   0.709   2.840   1.635
 8316SOL    HW125847   0.742   2.759   1.587
 8316SOL    HW225848   0.711   2.824   1.734
 8317SOL     OW25849   2.116   3.231   2.191
 8317SOL    HW125850   2.030   3.187   2.218
 8317SOL    HW225851   2.098   3.295   2.116
 8318SOL     OW25852   4.589   1.700   4.557
 8318SOL    HW125853   4.661   1.768   4.572
 8318SOL    HW225854   4.543   1.718   4.470
 8319SOL     OW25855   2.936   1.908   6.321
 8319SOL    HW125856   2.901   1.975   6.255
 8319SOL    HW225857   3.030   1.885   6.298
 8320SOL     OW25858   3.528   4.879   1.395
 8320SOL    HW125859   3.565   4.807   1.336
 8320SOL    HW225860   3.527   4.847   1.489
 8321SOL     OW25861   0.035   1.213   6.863
 8321SOL    HW125862   0.086   1.297   6.847
 8321SOL    HW225863   6.975   1.234   6.914
 8322SOL     OW25864   0.459   7.001   0.336
 8322SOL    HW125865   0.529   0.029   0.385
 8322SOL    HW225866   0.386   6.976   0.400
 8323SOL     OW25867   0.031   6.715   2.760
 8323SOL    HW125868   0.037   6.723   2.859
 8323SOL    HW225869   0.106   6.767   2.717
 8324SOL     OW25870   6.564   0.157   2.270
 8324SOL    HW125871   6.567   0.115   2.361
 8324SOL    HW225872   6.482   0.214   2.262
 8325SOL     OW25873   3.324   3.426   4.474
 8325SOL    HW125874   3.405   3.484   4.478
 8325SOL    HW225875   3.324   3.376   4.387
 8326SOL     OW25876   4.526   3.293   5.312
 8326SOL    HW125877   4.493   3.386   5.295
 8326SOL    HW225878   4.448   3.230   5.313
 8327SOL     OW25879   5.553   2.210   6.082
 8327SOL    HW125880   5.584   2.250   5.996
 8327SOL    HW225881   5.483   2.269   6.124
 8328SOL     OW25882   2.622   4.344   6.245
 8328SOL    HW125883   2.608   4.441   6.224
 8328SOL    HW225884   2.569   4.288   6.181
 8329SOL     OW25885   0.321   3.740   6.106
 8329SOL    HW125886   0.411   3.700   6.089
 8329SOL    HW225887   0.331   3.838   6.123
 8330SOL     OW25888   1.710   0.192   0.245
 8330SOL    HW125889   1.613   0.214   0.246
 8330SOL    HW225890   1.730   0.127   0.318
 8331SOL     OW25891   2.757   0.567   0.780
 8331SOL    HW125892   2.774   0.618   0.864
 8331SOL    HW225893   2.820   0.597   0.709
 8332SOL     OW25894   5.178   4.781   2.723
 8332SOL    HW125895   5.113   4.760   2.795
 8332SOL    HW225896   5.266   4.738   2.743
 8333SOL     OW25897   0.320   5.803   6.831
 8333SOL    HW125898   0.379   5.800   6.751
 8333SOL    HW225899   0.345   5.881   6.888
 8334SOL     OW25900   5.621   1.781   3.770
 8334SOL    HW125901   5.684   1.813   3.699
 8334SOL    HW225902   5.626   1.681   3.777
 8335SOL     OW25903   6.504   5.566   5.456
 8335SOL    HW125904   6.530   5.614   5.372
 8335SOL    HW225905   6.415   5.598   5.487
 8336SOL     OW25906   0.188   0.863   1.599
 8336SOL    HW125907   0.249   0.793   1.562
 8336SOL    HW225908   0.095   0.847   1.566
 8337SOL     OW25909   1.409   6.720   3.257
 8337SOL    HW125910   1.486   6.758   3.206
 8337SOL    HW225911   1.329   6.780   3.246
 8338SOL     OW25912   1.886   4.726   2.406
 8338SOL    HW125913   1.858   4.822   2.412
 8338SOL    HW225914   1.806   4.668   2.422
 8339SOL     OW25915   5.865   0.845   1.485
 8339SOL    HW125916   5.964   0.833   1.475
 8339SOL    HW225917   5.844   0.943   1.486
 8340SOL     OW25918   4.793   3.867   0.825
 8340SOL    HW125919   4.885   3.880   0.863
 8340SOL    HW225920   4.783   3.922   0.742
 8341SOL     OW25921   2.571   6.354   0.412
 8341SOL    HW125922   2.532   6.443   0.436
 8341SOL    HW225923   2.634   6.325   0.484
 8342SOL     OW25924   3.474   0.208   1.684
 8342SOL    HW125925   3.407   0.226   1.612
 8342SOL    HW225926   3.520   0.293   1.709
 8343SOL     OW25927   1.097   5.039   6.274
 8343SOL    HW125928   1.164   5.084   6.333
 8343SOL    HW225929   1.007   5.045   6.317
 8344SOL     OW25930   4.963   6.718   5.535
 8344SOL    HW125931   4.917   6.635   5.566
 8344SOL    HW225932   4.926   6.797   5.584
 8345SOL     OW25933   5.179   2.149   3.363
 8345SOL    HW125934   5.201   2.245   3.379
 8345SOL    HW225935   5.155   2.135   3.267
 8346SOL     OW25936   3.001   4.791   0.104
 8346SOL    HW125937   2.922   4.763   0.158
 8346SOL    HW225938   3.063   4.714   0.093
 8347SOL     OW25939   3.281   6.773   5.044
 8347SOL    HW125940   3.363   6.725   5.074
 8347SOL    HW225941   3.305   6.867   5.019
 8348SOL     OW25942   1.465   0.044   1.662
 8348SOL    HW125943   1.543   0.001   1.616
 8348SOL    HW225944   1.476   0.035   1.761
 8349SOL     OW25945   5.702   4.765   1.544
 8349SOL    HW125946   5.605   4.789   1.537
 8349SOL    HW225947   5.742   4.810   1.624
 8350SOL     OW25948   4.423   0.881   4.748
 8350SOL    HW125949   4.437   0.893   4.649
 8350SOL    HW225950   4.413   0.784   4.769
 8351SOL     OW25951   4.422   4.895   4.906
 8351SOL    HW125952   4.438   4.806   4.864
 8351SOL    HW225953   4.491   4.960   4.875
 8352SOL     OW25954   6.670   0.014   2.049
 8352SOL    HW125955   6.753   0.059   2.019
 8352SOL    HW225956   6.647   0.044   2.142
 8353SOL     OW25957   5.720   3.796   2.068
 8353SOL    HW125958   5.720   3.847   2.154
 8353SOL    HW225959   5.814   3.774   2.043
 8354SOL     OW25960   3.550   0.563   6.699
 8354SOL    HW125961   3.495   0.578   6.782
 8354SOL    HW225962   3.647   0.562   6.724
 8355SOL     OW25963   3.136   0.442   6.778
 8355SOL    HW125964   3.104   0.408   6.867
 8355SOL    HW225965   3.121   0.541   6.773
 8356SOL     OW25966   1.263   6.890   0.426
 8356SOL    HW125967   1.298   6.800   0.452
 8356SOL    HW225968   1.207   6.882   0.344
 8357SOL     OW25969   3.818   6.595   6.115
 8357SOL    HW125970   3.720   6.577   6.107
 8357SOL    HW225971   3.841   6.677   6.063
 8358SOL     OW25972   1.896   2.994   5.065
 8358SOL    HW125973   1.845   2.920   5.021
 8358SOL    HW225974   1.977   2.957   5.110
 8359SOL     OW25975   3.309   6.319   4.464
 8359SOL    HW125976   3.211   6.321   4.485
 8359SOL    HW225977   3.334   6.227   4.433
 8360SOL     OW25978   3.481   6.544   2.536
 8360SOL    HW125979   3.384   6.532   2.558
 8360SOL    HW225980   3.490   6.603   2.456
 8361SOL     OW25981   1.490   1.190   1.911
 8361SOL    HW125982   1.580   1.150   1.890
 8361SOL    HW225983   1.502   1.286   1.939
 8362SOL     OW25984   2.505   2.138   0.125
 8362SOL    HW125985   2.526   2.225   0.170
 8362SOL    HW225986   2.475   2.072   0.194
 8363SOL     OW25987   1.097   2.923   0.120
 8363SOL    HW125988   1.115   3.021   0.113
 8363SOL    HW225989   0.999   2.908   0.129
 8364SOL     OW25990   7.018   3.417   3.404
 8364SOL    HW125991   0.036   3.507   3.392
 8364SOL    HW225992   6.944   3.405   3.337
 8365SOL     OW25993   1.465   4.207   1.742
 8365SOL    HW125994   1.563   4.191   1.757
 8365SOL    HW225995   1.450   4.236   1.648
 8366SOL     OW25996   4.087   5.659   2.227
 8366SOL    HW125997   4.162   5.706   2.180
 8366SOL    HW225998   4.110   5.563   2.238
 8367SOL     OW25999   4.033   6.169   4.272
 8367SOL    HW126000   3.984   6.092   4.232
 8367SOL    HW226001   4.052   6.152   4.368
 8368SOL     OW26002   3.272   6.447   6.106
 8368SOL    HW126003   3.330   6.432   6.186
 8368SOL    HW226004   3.298   6.383   6.034
 8369SOL     OW26005   1.767   0.952   6.611
 8369SOL    HW126006   1.793   0.879   6.674
 8369SOL    HW226007   1.794   1.041   6.649
 8370SOL     OW26008   3.346   2.033   5.969
 8370SOL    HW126009   3.334   1.947   5.919
 8370SOL    HW226010   3.439   2.067   5.956
 8371SOL     OW26011   1.704   4.338   1.154
 8371SOL    HW126012   1.755   4.405   1.100
 8371SOL    HW226013   1.606   4.349   1.137
 8372SOL     OW26014   0.917   6.104   2.586
 8372SOL    HW126015   0.873   6.047   2.517
 8372SOL    HW226016   0.847   6.155   2.637
 8373SOL     OW26017   0.893   0.319   4.919
 8373SOL    HW126018   0.832   0.398   4.929
 8373SOL    HW226019   0.984   0.351   4.890
 8374SOL     OW26020   6.823   0.372   6.604
 8374SOL    HW126021   6.773   0.457   6.619
 8374SOL    HW226022   6.919   0.392   6.588
 8375SOL     OW26023   3.353   6.275   5.909
 8375SOL    HW126024   3.396   6.188   5.932
 8375SOL    HW226025   3.294   6.262   5.829
 8376SOL     OW26026   2.209   0.226   4.415
 8376SOL    HW126027   2.274   0.238   4.490
 8376SOL    HW226028   2.258   0.235   4.328
 8377SOL     OW26029   5.661   5.600   1.978
 8377SOL    HW126030   5.626   5.692   1.996
 8377SOL    HW226031   5.752   5.606   1.937
 8378SOL     OW26032   4.348   4.568   2.932
 8378SOL    HW126033   4.442   4.549   2.903
 8378SOL    HW226034   4.304   4.484   2.963
 8379SOL     OW26035   6.685   2.916   1.009
 8379SOL    HW126036   6.725   3.008   1.005
 8379SOL    HW226037   6.757   2.848   1.018
 8380SOL     OW26038   6.356   0.917   2.364
 8380SOL    HW126039   6.296   0.986   2.405
 8380SOL    HW226040   6.432   0.899   2.426
 8381SOL     OW26041   0.749   4.467   4.672
 8381SOL    HW126042   0.718   4.375   4.649
 8381SOL    HW226043   0.773   4.516   4.589
 8382SOL     OW26044   1.171   1.554   2.060
 8382SOL    HW126045   1.206   1.620   1.994
 8382SOL    HW226046   1.181   1.590   2.152
 8383SOL     OW26047   2.291   1.824   6.415
 8383SOL    HW126048   2.274   1.864   6.506
 8383SOL    HW226049   2.372   1.866   6.375
 8384SOL     OW26050   0.297   6.812   0.494
 8384SOL    HW126051   0.335   6.799   0.586
 8384SOL    HW226052   0.198   6.814   0.499
 8385SOL     OW26053   6.213   2.759   1.906
 8385SOL    HW126054   6.164   2.677   1.877
 8385SOL    HW226055   6.220   2.822   1.828
 8386SOL     OW26056   0.879   4.210   2.747
 8386SOL    HW126057   0.908   4.294   2.700
 8386SOL    HW226058   0.905   4.215   2.843
 8387SOL     OW26059   1.084   1.634   1.319
 8387SOL    HW126060   1.036   1.643   1.232
 8387SOL    HW226061   1.123   1.722   1.345
 8388SOL     OW26062   1.592   6.310   1.360
 8388SOL    HW126063   1.623   6.225   1.402
 8388SOL    HW226064   1.610   6.307   1.262
 8389SOL     OW26065   5.261   3.441   2.239
 8389SOL    HW126066   5.353   3.463   2.207
 8389SOL    HW226067   5.211   3.395   2.166
 8390SOL     OW26068   3.686   1.498   6.232
 8390SOL    HW126069   3.714   1.486   6.136
 8390SOL    HW226070   3.643   1.588   6.243
 8391SOL     OW26071   5.820   6.152   0.955
 8391SOL    HW126072   5.850   6.202   1.037
 8391SOL    HW226073   5.769   6.215   0.896
 8392SOL     OW26074   5.887   3.961   3.719
 8392SOL    HW126075   5.987   3.969   3.720
 8392SOL    HW226076   5.861   3.867   3.742
 8393SOL     OW26077   5.652   0.351   2.621
 8393SOL    HW126078   5.710   0.383   2.546
 8393SOL    HW226079   5.707   0.341   2.704
 8394SOL     OW26080   5.994   3.558   1.809
 8394SOL    HW126081   6.051   3.512   1.741
 8394SOL    HW226082   5.948   3.636   1.768
 8395SOL     OW26083   2.883   6.533   5.764
 8395SOL    HW126084   2.937   6.579   5.834
 8395SOL    HW226085   2.861   6.440   5.794
 8396SOL     OW26086   4.453   4.538   3.496
 8396SOL    HW126087   4.536   4.531   3.553
 8396SOL    HW226088   4.455   4.467   3.426
 8397SOL     OW26089   0.863   0.988   3.607
 8397SOL    HW126090   0.926   0.981   3.530
 8397SOL    HW226091   0.794   1.057   3.587
 8398SOL     OW26092   5.107   1.863   6.661
 8398SOL    HW126093   5.071   1.863   6.753
 8398SOL    HW226094   5.058   1.796   6.605
 8399SOL     OW26095   6.571   6.329   6.731
 8399SOL    HW126096   6.551   6.427   6.729
 8399SOL    HW226097   6.658   6.313   6.777
 8400SOL     OW26098   1.623   2.300   4.233
 8400SOL    HW126099   1.534   2.338   4.206
 8400SOL    HW226100   1.690   2.317   4.161
 8401SOL     OW26101   2.200   1.154   5.302
 8401SOL    HW126102   2.154   1.241   5.281
 8401SOL    HW226103   2.280   1.145   5.244
 8402SOL     OW26104   5.149   1.307   6.030
 8402SOL    HW126105   5.106   1.391   5.999
 8402SOL    HW226106   5.185   1.320   6.123
 8403SOL     OW26107   0.231   4.169   4.465
 8403SOL    HW126108   0.155   4.154   4.527
 8403SOL    HW226109   0.284   4.248   4.496
 8404SOL     OW26110   3.193   0.872   5.658
 8404SOL    HW126111   3.102   0.907   5.679
 8404SOL    HW226112   3.185   0.783   5.612
 8405SOL     OW26113   4.034   1.660   6.118
 8405SOL    HW126114   4.102   1.659   6.045
 8405SOL    HW226115   3.995   1.752   6.126
 8406SOL     OW26116   4.535   0.543   0.770
 8406SOL    HW126117   4.573   0.584   0.853
 8406SOL    HW226118   4.544   0.608   0.694
 8407SOL     OW26119   4.738   6.022   3.869
 8407SOL    HW126120   4.686   6.097   3.911
 8407SOL    HW226121   4.702   5.934   3.901
 8408SOL     OW26122   4.973   5.927   6.956
 8408SOL    HW126123   4.963   5.982   0.014
 8408SOL    HW226124   5.025   5.844   6.977
 8409SOL     OW26125   4.582   2.364   1.935
 8409SOL    HW126126   4.629   2.318   1.860
 8409SOL    HW226127   4.488   2.330   1.942
 8410SOL     OW26128   5.950   2.130   1.817
 8410SOL    HW126129   5.906   2.052   1.862
 8410SOL    HW226130   5.918   2.215   1.858
 8411SOL     OW26131   0.242   6.161   1.137
 8411SOL    HW126132   0.320   6.124   1.187
 8411SOL    HW226133   0.270   6.242   1.086
 8412SOL     OW26134   3.750   2.754   0.901
 8412SOL    HW126135   3.689   2.833   0.902
 8412SOL    HW226136   3.825   2.769   0.966
 8413SOL     OW26137   3.939   5.912   6.087
 8413SOL    HW126138   3.854   5.907   6.139
 8413SOL    HW226139   4.016   5.888   6.147
 8414SOL     OW26140   1.983   1.520   2.458
 8414SOL    HW126141   2.054   1.579   2.495
 8414SOL    HW226142   1.894   1.564   2.468
 8415SOL     OW26143   2.623   6.709   3.702
 8415SOL    HW126144   2.541   6.766   3.697
 8415SOL    HW226145   2.674   6.730   3.785
 8416SOL     OW26146   6.318   1.799   4.878
 8416SOL    HW126147   6.350   1.812   4.784
 8416SOL    HW226148   6.320   1.702   4.901
 8417SOL     OW26149   2.109   3.068   5.418
 8417SOL    HW126150   2.100   3.162   5.388
 8417SOL    HW226151   2.193   3.058   5.471
 8418SOL     OW26152   0.599   5.664   2.222
 8418SOL    HW126153   0.596   5.752   2.174
 8418SOL    HW226154   0.577   5.678   2.319
 8419SOL     OW26155   6.185   1.398   3.591
 8419SOL    HW126156   6.137   1.322   3.634
 8419SOL    HW226157   6.119   1.471   3.570
 8420SOL     OW26158   3.312   6.877   2.039
 8420SOL    HW126159   3.322   6.779   2.019
 8420SOL    HW226160   3.323   6.930   1.955
 8421SOL     OW26161   2.731   6.069   6.932
 8421SOL    HW126162   2.740   6.168   6.946
 8421SOL    HW226163   2.644   6.049   6.888
 8422SOL     OW26164   4.527   2.433   2.229
 8422SOL    HW126165   4.449   2.381   2.263
 8422SOL    HW226166   4.555   2.398   2.139
 8423SOL     OW26167   4.427   4.432   5.885
 8423SOL    HW126168   4.402   4.482   5.968
 8423SOL    HW226169   4.493   4.361   5.907
 8424SOL     OW26170   2.064   1.443   3.700
 8424SOL    HW126171   2.154   1.472   3.733
 8424SOL    HW226172   2.060   1.344   3.698
 8425SOL     OW26173   3.284   3.919   4.617
 8425SOL    HW126174   3.263   3.899   4.521
 8425SOL    HW226175   3.210   3.973   4.657
 8426SOL     OW26176   3.616   3.249   2.508
 8426SOL    HW126177   3.592   3.174   2.445
 8426SOL    HW226178   3.591   3.223   2.601
 8427SOL     OW26179   3.102   3.627   3.366
 8427SOL    HW126180   3.082   3.718   3.401
 8427SOL    HW226181   3.133   3.633   3.271
 8428SOL     OW26182   0.243   0.395   1.422
 8428SOL    HW126183   0.303   0.319   1.449
 8428SOL    HW226184   0.177   0.363   1.354
 8429SOL     OW26185   2.043   5.472   5.957
 8429SOL    HW126186   2.080   5.390   5.915
 8429SOL    HW226187   2.115   5.518   6.009
 8430SOL     OW26188   3.924   4.855   4.077
 8430SOL    HW126189   3.961   4.786   4.139
 8430SOL    HW226190   3.970   4.848   3.988
 8431SOL     OW26191   3.080   3.928   6.691
 8431SOL    HW126192   3.066   4.021   6.659
 8431SOL    HW226193   3.015   3.866   6.646
 8432SOL     OW26194   6.634   5.348   5.845
 8432SOL    HW126195   6.585   5.359   5.758
 8432SOL    HW226196   6.665   5.438   5.877
 8433SOL     OW26197   4.337   2.532   0.986
 8433SOL    HW126198   4.291   2.530   1.075
 8433SOL    HW226199   4.272   2.562   0.915
 8434SOL     OW26200   2.218   5.507   5.328
 8434SOL    HW126201   2.211   5.408   5.340
 8434SOL    HW226202   2.266   5.527   5.242
 8435SOL     OW26203   5.413   0.573   2.998
 8435SOL    HW126204   5.417   0.513   3.078
 8435SOL    HW226205   5.399   0.667   3.027
 8436SOL     OW26206   2.455   6.183   3.820
 8436SOL    HW126207   2.527   6.137   3.871
 8436SOL    HW226208   2.435   6.132   3.736
 8437SOL     OW26209   1.755   2.760   2.373
 8437SOL    HW126210   1.773   2.807   2.287
 8437SOL    HW226211   1.835   2.767   2.432
 8438SOL     OW26212   2.162   3.938   2.918
 8438SOL    HW126213   2.230   4.011   2.932
 8438SOL    HW226214   2.093   3.942   2.990
 8439SOL     OW26215   6.439   5.664   3.795
 8439SOL    HW126216   6.521   5.682   3.850
 8439SOL    HW226217   6.402   5.575   3.818
 8440SOL     OW26218   2.631   1.808   3.716
 8440SOL    HW126219   2.581   1.779   3.797
 8440SOL    HW226220   2.705   1.869   3.743
 8441SOL     OW26221   5.339   5.411   5.134
 8441SOL    HW126222   5.292   5.472   5.070
 8441SOL    HW226223   5.293   5.414   5.222
 8442SOL     OW26224   3.430   0.301   5.200
 8442SOL    HW126225   3.440   0.311   5.299
 8442SOL    HW226226   3.347   0.249   5.180
 8443SOL     OW26227   2.101   5.079   3.767
 8443SOL    HW126228   2.062   5.151   3.710
 8443SOL    HW226229   2.110   4.995   3.713
 8444SOL     OW26230   3.641   6.473   3.499
 8444SOL    HW126231   3.640   6.377   3.469
 8444SOL    HW226232   3.593   6.481   3.586
 8445SOL     OW26233   2.287   0.424   6.920
 8445SOL    HW126234   2.217   0.353   6.908
 8445SOL    HW226235   2.293   0.449   7.016
 8446SOL     OW26236   0.714   6.317   4.824
 8446SOL    HW126237   0.666   6.254   4.885
 8446SOL    HW226238   0.792   6.271   4.781
 8447SOL     OW26239   3.660   1.235   2.391
 8447SOL    HW126240   3.561   1.248   2.399
 8447SOL    HW226241   3.699   1.313   2.342
 8448SOL     OW26242   5.015   5.994   3.956
 8448SOL    HW126243   4.923   6.002   3.918
 8448SOL    HW226244   5.043   5.898   3.954
 8449SOL     OW26245   0.911   3.456   3.961
 8449SOL    HW126246   0.827   3.414   3.994
 8449SOL    HW226247   0.986   3.390   3.967
 8450SOL     OW26248   0.284   0.649   0.287
 8450SOL    HW126249   0.354   0.625   0.354
 8450SOL    HW226250   0.229   0.568   0.267
 8451SOL     OW26251   3.370   1.153   0.596
 8451SOL    HW126252   3.304   1.227   0.609
 8451SOL    HW226253   3.405   1.155   0.503
 8452SOL     OW26254   4.983   2.394   4.450
 8452SOL    HW126255   5.026   2.439   4.371
 8452SOL    HW226256   5.048   2.389   4.525
 8453SOL     OW26257   0.548   5.098   6.756
 8453SOL    HW126258   0.527   5.149   6.673
 8453SOL    HW226259   0.544   5.000   6.738
 8454SOL     OW26260   0.570   4.614   0.282
 8454SOL    HW126261   0.566   4.684   0.210
 8454SOL    HW226262   0.528   4.530   0.248
 8455SOL     OW26263   0.228   0.756   2.641
 8455SOL    HW126264   0.182   0.667   2.641
 8455SOL    HW226265   0.273   0.771   2.729
 8456SOL     OW26266   4.968   0.550   3.348
 8456SOL    HW126267   5.056   0.535   3.392
 8456SOL    HW226268   4.905   0.595   3.412
 8457SOL     OW26269   6.399   6.373   4.604
 8457SOL    HW126270   6.409   6.345   4.508
 8457SOL    HW226271   6.309   6.414   4.617
 8458SOL     OW26272   0.614   0.395   0.279
 8458SOL    HW126273   0.520   0.399   0.315
 8458SOL    HW226274   0.647   0.487   0.262
 8459SOL     OW26275   1.845   5.695   3.200
 8459SOL    HW126276   1.865   5.733   3.291
 8459SOL    HW226277   1.753   5.722   3.172
 8460SOL     OW26278   4.338   3.962   5.396
 8460SOL    HW126279   4.344   4.054   5.359
 8460SOL    HW226280   4.416   3.908   5.363
 8461SOL     OW26281   0.242   2.344   5.218
 8461SOL    HW126282   0.154   2.381   5.186
 8461SOL    HW226283   0.302   2.328   5.140
 8462SOL     OW26284   3.291   1.707   1.231
 8462SOL    HW126285   3.213   1.709   1.294
 8462SOL    HW226286   3.351   1.785   1.250
 8463SOL     OW26287   6.094   7.003   2.069
 8463SOL    HW126288   6.072   6.909   2.042
 8463SOL    HW226289   6.136   7.002   2.160
 8464SOL     OW26290   5.769   3.762   4.553
 8464SOL    HW126291   5.705   3.732   4.481
 8464SOL    HW226292   5.730   3.841   4.601
 8465SOL     OW26293   1.391   1.952   0.280
 8465SOL    HW126294   1.397   1.853   0.279
 8465SOL    HW226295   1.301   1.980   0.314
 8466SOL     OW26296   1.314   5.842   3.763
 8466SOL    HW126297   1.386   5.832   3.832
 8466SOL    HW226298   1.259   5.923   3.782
 8467SOL     OW26299   2.648   5.908   1.170
 8467SOL    HW126300   2.657   6.003   1.138
 8467SOL    HW226301   2.659   5.905   1.269
 8468SOL     OW26302   3.731   2.044   0.258
 8468SOL    HW126303   3.699   2.135   0.285
 8468SOL    HW226304   3.763   2.046   0.163
 8469SOL     OW26305   3.312   3.017   0.012
 8469SOL    HW126306   3.378   2.984   0.080
 8469SOL    HW226307   3.249   3.082   0.055
 8470SOL     OW26308   1.978   2.728   0.897
 8470SOL    HW126309   2.017   2.801   0.955
 8470SOL    HW226310   1.879   2.741   0.890
 8471SOL     OW26311   2.376   0.645   3.977
 8471SOL    HW126312   2.377   0.633   4.076
 8471SOL    HW226313   2.404   0.560   3.932
 8472SOL     OW26314   0.493   0.017   4.441
 8472SOL    HW126315   0.513   7.008   4.533
 8472SOL    HW226316   0.549   6.990   4.375
 8473SOL     OW26317   0.081   5.794   0.077
 8473SOL    HW126318   0.134   5.845   0.145
 8473SOL    HW226319   0.004   5.850   0.045
 8474SOL     OW26320   3.149   3.233   1.701
 8474SOL    HW126321   3.107   3.200   1.786
 8474SOL    HW226322   3.225   3.172   1.676
 8475SOL     OW26323   5.995   1.995   2.227
 8475SOL    HW126324   5.962   1.915   2.276
 8475SOL    HW226325   6.091   1.981   2.201
 8476SOL     OW26326   6.004   6.605   2.107
 8476SOL    HW126327   5.971   6.630   2.198
 8476SOL    HW226328   5.926   6.574   2.052
 8477SOL     OW26329   2.815   6.750   1.169
 8477SOL    HW126330   2.791   6.677   1.105
 8477SOL    HW226331   2.780   6.728   1.260
 8478SOL     OW26332   1.804   0.720   5.661
 8478SOL    HW126333   1.901   0.728   5.640
 8478SOL    HW226334   1.787   0.633   5.707
 8479SOL     OW26335   6.100   1.049   0.086
 8479SOL    HW126336   6.103   0.955   0.119
 8479SOL    HW226337   6.031   1.101   0.138
 8480SOL     OW26338   2.773   0.672   1.037
 8480SOL    HW126339   2.735   0.759   1.004
 8480SOL    HW226340   2.797   0.681   1.133
 8481SOL     OW26341   4.262   1.467   4.671
 8481SOL    HW126342   4.281   1.389   4.730
 8481SOL    HW226343   4.317   1.460   4.587
 8482SOL     OW26344   2.109   0.063   2.209
 8482SOL    HW126345   2.071   0.056   2.117
 8482SOL    HW226346   2.110   6.996   2.252
 8483SOL     OW26347   3.383   5.636   2.413
 8483SOL    HW126348   3.417   5.670   2.325
 8483SOL    HW226349   3.461   5.613   2.472
 8484SOL     OW26350   0.210   4.690   3.316
 8484SOL    HW126351   0.151   4.613   3.341
 8484SOL    HW226352   0.154   4.766   3.283
 8485SOL     OW26353   1.899   3.650   0.861
 8485SOL    HW126354   1.909   3.719   0.932
 8485SOL    HW226355   1.893   3.560   0.902
 8486SOL     OW26356   5.367   1.176   2.752
 8486SOL    HW126357   5.378   1.162   2.654
 8486SOL    HW226358   5.292   1.239   2.769
 8487SOL     OW26359   5.172   0.040   0.906
 8487SOL    HW126360   5.208   0.088   0.826
 8487SOL    HW226361   5.135   6.975   0.878
 8488SOL     OW26362   5.556   4.966   4.600
 8488SOL    HW126363   5.527   4.871   4.607
 8488SOL    HW226364   5.554   4.995   4.505
 8489SOL     OW26365   5.667   5.103   1.531
 8489SOL    HW126366   5.592   5.039   1.549
 8489SOL    HW226367   5.635   5.176   1.471
 8490SOL     OW26368   4.566   5.591   3.116
 8490SOL    HW126369   4.542   5.623   3.208
 8490SOL    HW226370   4.483   5.577   3.062
 8491SOL     OW26371   2.245   0.408   1.798
 8491SOL    HW126372   2.220   0.478   1.865
 8491SOL    HW226373   2.345   0.398   1.796
 8492SOL     OW26374   4.958   3.355   5.464
 8492SOL    HW126375   5.020   3.418   5.418
 8492SOL    HW226376   4.886   3.326   5.400
 8493SOL     OW26377   3.587   1.616   0.247
 8493SOL    HW126378   3.640   1.689   0.289
 8493SOL    HW226379   3.614   1.528   0.286
 8494SOL     OW26380   2.323   5.640   6.659
 8494SOL    HW126381   2.356   5.546   6.650
 8494SOL    HW226382   2.277   5.651   6.747
 8495SOL     OW26383   6.440   3.176   0.485
 8495SOL    HW126384   6.393   3.244   0.429
 8495SOL    HW226385   6.514   3.219   0.536
 8496SOL     OW26386   0.409   1.718   3.866
 8496SOL    HW126387   0.369   1.670   3.945
 8496SOL    HW226388   0.441   1.808   3.895
 8497SOL     OW26389   5.341   5.810   4.274
 8497SOL    HW126390   5.436   5.798   4.303
 8497SOL    HW226391   5.338   5.859   4.187
 8498SOL     OW26392   0.235   0.109   1.675
 8498SOL    HW126393   0.317   0.163   1.660
 8498SOL    HW226394   0.157   0.154   1.632
 8499SOL     OW26395   2.751   5.058   6.429
 8499SOL    HW126396   2.725   5.072   6.333
 8499SOL    HW226397   2.725   5.138   6.482
 8500SOL     OW26398   2.781   0.062   5.674
 8500SOL    HW126399   2.691   0.077   5.634
 8500SOL    HW226400   2.851   0.067   5.602
 8501SOL     OW26401   1.600   3.364   6.661
 8501SOL    HW126402   1.554   3.356   6.749
 8501SOL    HW226403   1.679   3.424   6.669
 8502SOL     OW26404   0.872   5.632   1.701
 8502SOL    HW126405   0.814   5.676   1.769
 8502SOL    HW226406   0.816   5.579   1.638
 8503SOL     OW26407   1.310   5.137   3.589
 8503SOL    HW126408   1.353   5.159   3.502
 8503SOL    HW226409   1.212   5.158   3.584
 8504SOL     OW26410   1.717   6.183   3.868
 8504SOL    HW126411   1.695   6.175   3.771
 8504SOL    HW226412   1.809   6.221   3.879
 8505SOL     OW26413   5.435   4.401   3.625
 8505SOL    HW126414   5.354   4.382   3.570
 8505SOL    HW226415   5.417   4.377   3.720
 8506SOL     OW26416   0.972   6.189   0.381
 8506SOL    HW126417   0.883   6.233   0.389
 8506SOL    HW226418   1.003   6.195   0.286
 8507SOL     OW26419   2.483   1.091   5.629
 8507SOL    HW126420   2.555   1.030   5.662
 8507SOL    HW226421   2.426   1.120   5.706
 8508SOL     OW26422   6.514   2.801   5.305
 8508SOL    HW126423   6.450   2.840   5.238
 8508SOL    HW226424   6.503   2.702   5.307
 8509SOL     OW26425   6.448   0.969   4.445
 8509SOL    HW126426   6.525   0.972   4.382
 8509SOL    HW226427   6.399   1.056   4.443
 8510SOL     OW26428   6.484   5.570   3.059
 8510SOL    HW126429   6.546   5.492   3.054
 8510SOL    HW226430   6.471   5.596   3.155
 8511SOL     OW26431   5.386   4.220   1.545
 8511SOL    HW126432   5.360   4.143   1.604
 8511SOL    HW226433   5.480   4.247   1.566
 8512SOL     OW26434   4.291   1.867   0.315
 8512SOL    HW126435   4.314   1.962   0.296
 8512SOL    HW226436   4.247   1.860   0.405
 8513SOL     OW26437   4.964   3.764   0.435
 8513SOL    HW126438   4.952   3.665   0.431
 8513SOL    HW226439   4.989   3.791   0.528
 8514SOL     OW26440   2.659   2.467   3.683
 8514SOL    HW126441   2.685   2.426   3.596
 8514SOL    HW226442   2.567   2.436   3.708
 8515SOL     OW26443   0.387   1.379   6.833
 8515SOL    HW126444   0.362   1.371   6.930
 8515SOL    HW226445   0.444   1.302   6.807
 8516SOL     OW26446   6.219   2.720   2.665
 8516SOL    HW126447   6.135   2.666   2.657
 8516SOL    HW226448   6.299   2.660   2.662
 8517SOL     OW26449   1.768   2.834   5.948
 8517SOL    HW126450   1.815   2.875   6.026
 8517SOL    HW226451   1.673   2.815   5.974
 8518SOL     OW26452   4.828   4.043   6.191
 8518SOL    HW126453   4.846   3.980   6.115
 8518SOL    HW226454   4.774   3.996   6.261
 8519SOL     OW26455   1.019   4.394   0.458
 8519SOL    HW126456   0.937   4.424   0.410
 8519SOL    HW226457   0.994   4.333   0.533
 8520SOL     OW26458   3.377   3.506   5.372
 8520SOL    HW126459   3.304   3.504   5.304
 8520SOL    HW226460   3.341   3.545   5.457
 8521SOL     OW26461   2.207   6.563   5.498
 8521SOL    HW126462   2.242   6.544   5.407
 8521SOL    HW226463   2.275   6.615   5.550
 8522SOL     OW26464   1.195   0.732   1.086
 8522SOL    HW126465   1.116   0.671   1.084
 8522SOL    HW226466   1.211   0.762   1.180
 8523SOL     OW26467   2.909   6.830   6.685
 8523SOL    HW126468   2.997   6.806   6.724
 8523SOL    HW226469   2.846   6.856   6.759
 8524SOL     OW26470   1.000   4.585   4.806
 8524SOL    HW126471   0.941   4.658   4.842
 8524SOL    HW226472   0.944   4.517   4.759
 8525SOL     OW26473   5.609   4.795   1.160
 8525SOL    HW126474   5.540   4.749   1.217
 8525SOL    HW226475   5.698   4.752   1.174
 8526SOL     OW26476   3.192   6.649   0.763
 8526SOL    HW126477   3.251   6.716   0.809
 8526SOL    HW226478   3.161   6.580   0.829
 8527SOL     OW26479   3.402   0.348   6.745
 8527SOL    HW126480   3.313   0.383   6.776
 8527SOL    HW226481   3.461   0.425   6.721
 8528SOL     OW26482   4.940   1.533   1.244
 8528SOL    HW126483   4.984   1.501   1.160
 8528SOL    HW226484   5.009   1.545   1.316
 8529SOL     OW26485   1.248   6.454   0.113
 8529SOL    HW126486   1.306   6.503   0.049
 8529SOL    HW226487   1.200   6.380   0.065
 8530SOL     OW26488   2.997   3.677   4.293
 8530SOL    HW126489   3.021   3.773   4.300
 8530SOL    HW226490   2.955   3.659   4.204
 8531SOL     OW26491   0.038   5.375   3.395
 8531SOL    HW126492   0.067   5.400   3.303
 8531SOL    HW226493   0.084   5.432   3.463
 8532SOL     OW26494   3.385   6.655   4.128
 8532SOL    HW126495   3.484   6.668   4.130
 8532SOL    HW226496   3.345   6.713   4.057
 8533SOL     OW26497   1.028   5.940   0.151
 8533SOL    HW126498   0.972   5.937   0.233
 8533SOL    HW226499   1.006   5.862   0.092
 8534SOL     OW26500   4.724   2.840   3.642
 8534SOL    HW126501   4.769   2.904   3.703
 8534SOL    HW226502   4.694   2.888   3.559
 8535SOL     OW26503   6.349   1.394   4.612
 8535SOL    HW126504   6.401   1.365   4.692
 8535SOL    HW226505   6.361   1.327   4.539
 8536SOL     OW26506   1.263   2.287   5.208
 8536SOL    HW126507   1.236   2.305   5.303
 8536SOL    HW226508   1.185   2.302   5.148
 8537SOL     OW26509   6.370   1.390   3.395
 8537SOL    HW126510   6.370   1.290   3.397
 8537SOL    HW226511   6.292   1.424   3.447
 8538SOL     OW26512   1.842   1.803   0.191
 8538SOL    HW126513   1.840   1.896   0.152
 8538SOL    HW226514   1.906   1.747   0.138
 8539SOL     OW26515   6.473   2.202   2.196
 8539SOL    HW126516   6.550   2.264   2.184
 8539SOL    HW226517   6.504   2.117   2.238
 8540SOL     OW26518   4.871   0.184   6.593
 8540SOL    HW126519   4.784   0.214   6.633
 8540SOL    HW226520   4.885   0.087   6.612
 8541SOL     OW26521   2.986   1.816   4.003
 8541SOL    HW126522   3.071   1.779   3.966
 8541SOL    HW226523   2.921   1.741   4.017
 8542SOL     OW26524   3.163   4.940   6.102
 8542SOL    HW126525   3.218   4.951   6.019
 8542SOL    HW226526   3.126   4.847   6.106
 8543SOL     OW26527   1.541   2.090   0.548
 8543SOL    HW126528   1.558   2.113   0.452
 8543SOL    HW226529   1.625   2.102   0.601
 8544SOL     OW26530   5.602   3.083   4.080
 8544SOL    HW126531   5.652   3.158   4.037
 8544SOL    HW226532   5.505   3.090   4.056
 8545SOL     OW26533   4.833   6.555   6.412
 8545SOL    HW126534   4.786   6.482   6.462
 8545SOL    HW226535   4.929   6.530   6.400
 8546SOL     OW26536   6.346   1.851   3.237
 8546SOL    HW126537   6.325   1.889   3.147
 8546SOL    HW226538   6.361   1.752   3.229
 8547SOL     OW26539   1.818   5.698   6.185
 8547SOL    HW126540   1.892   5.653   6.235
 8547SOL    HW226541   1.808   5.792   6.218
 8548SOL     OW26542   6.162   2.395   5.209
 8548SOL    HW126543   6.123   2.303   5.217
 8548SOL    HW226544   6.165   2.421   5.113
 8549SOL     OW26545   7.021   4.222   4.083
 8549SOL    HW126546   6.988   4.141   4.132
 8549SOL    HW226547   6.965   4.236   4.001
 8550SOL     OW26548   2.078   4.712   0.375
 8550SOL    HW126549   1.987   4.730   0.339
 8550SOL    HW226550   2.137   4.678   0.303
 8551SOL     OW26551   3.334   4.424   6.405
 8551SOL    HW126552   3.318   4.426   6.306
 8551SOL    HW226553   3.247   4.412   6.453
 8552SOL     OW26554   2.924   5.683   3.312
 8552SOL    HW126555   2.920   5.672   3.411
 8552SOL    HW226556   3.004   5.635   3.276
 8553SOL     OW26557   5.294   6.001   0.122
 8553SOL    HW126558   5.208   5.952   0.135
 8553SOL    HW226559   5.367   5.952   0.170
 8554SOL     OW26560   0.269   4.700   0.503
 8554SOL    HW126561   0.316   4.781   0.467
 8554SOL    HW226562   0.335   4.628   0.522
 8555SOL     OW26563   1.242   0.456   2.675
 8555SOL    HW126564   1.284   0.444   2.585
 8555SOL    HW226565   1.153   0.501   2.664
 8556SOL     OW26566   0.677   0.429   3.060
 8556SOL    HW126567   0.722   0.401   2.975
 8556SOL    HW226568   0.740   0.483   3.115
 8557SOL     OW26569   6.423   0.183   1.951
 8557SOL    HW126570   6.398   0.240   2.030
 8557SOL    HW226571   6.516   0.149   1.963
 8558SOL     OW26572   2.014   5.484   2.679
 8558SOL    HW126573   2.045   5.446   2.766
 8558SOL    HW226574   2.013   5.584   2.685
 8559SOL     OW26575   0.712   0.754   1.957
 8559SOL    HW126576   0.756   0.750   2.047
 8559SOL    HW226577   0.749   0.832   1.906
 8560SOL     OW26578   6.941   0.452   0.721
 8560SOL    HW126579   6.846   0.482   0.726
 8560SOL    HW226580   6.957   0.407   0.633
 8561SOL     OW26581   4.266   5.941   2.390
 8561SOL    HW126582   4.308   6.019   2.437
 8561SOL    HW226583   4.167   5.952   2.388
 8562SOL     OW26584   4.659   6.391   4.556
 8562SOL    HW126585   4.729   6.355   4.618
 8562SOL    HW226586   4.697   6.396   4.463
 8563SOL     OW26587   3.012   3.457   6.754
 8563SOL    HW126588   2.921   3.429   6.721
 8563SOL    HW226589   3.053   3.521   6.689
 8564SOL     OW26590   1.308   0.680   3.195
 8564SOL    HW126591   1.338   0.630   3.277
 8564SOL    HW226592   1.377   0.748   3.171
 8565SOL     OW26593   4.134   6.986   1.374
 8565SOL    HW126594   4.037   6.990   1.396
 8565SOL    HW226595   4.166   0.051   1.341
 8566SOL     OW26596   1.249   1.989   2.994
 8566SOL    HW126597   1.321   1.992   3.063
 8566SOL    HW226598   1.180   2.059   3.015
 8567SOL     OW26599   6.183   1.136   1.634
 8567SOL    HW126600   6.137   1.051   1.662
 8567SOL    HW226601   6.162   1.155   1.538
 8568SOL     OW26602   5.150   1.550   6.939
 8568SOL    HW126603   5.075   1.512   6.993
 8568SOL    HW226604   5.231   1.559   6.997
 8569SOL     OW26605   4.735   1.260   5.280
 8569SOL    HW126606   4.728   1.228   5.185
 8569SOL    HW226607   4.644   1.262   5.322
 8570SOL     OW26608   1.552   4.623   6.297
 8570SOL    HW126609   1.547   4.524   6.289
 8570SOL    HW226610   1.590   4.662   6.214
 8571SOL     OW26611   0.118   5.226   5.563
 8571SOL    HW126612   0.107   5.302   5.498
 8571SOL    HW226613   0.068   5.146   5.530
 8572SOL     OW26614   2.166   5.218   5.748
 8572SOL    HW126615   2.096   5.197   5.680
 8572SOL    HW226616   2.153   5.161   5.829
 8573SOL     OW26617   4.335   6.326   6.810
 8573SOL    HW126618   4.237   6.319   6.824
 8573SOL    HW226619   4.381   6.334   6.898
 8574SOL     OW26620   0.926   4.703   6.216
 8574SOL    HW126621   0.882   4.634   6.273
 8574SOL    HW226622   1.015   4.669   6.184
 8575SOL     OW26623   2.905   2.503   6.631
 8575SOL    HW126624   2.923   2.571   6.702
 8575SOL    HW226625   2.854   2.427   6.670
 8576SOL     OW26626   0.586   0.030   1.665
 8576SOL    HW126627   0.561   0.101   1.599
 8576SOL    HW226628   0.503   7.012   1.701
 8577SOL     OW26629   6.433   5.264   4.124
 8577SOL    HW126630   6.389   5.307   4.045
 8577SOL    HW226631   6.531   5.258   4.108
 8578SOL     OW26632   4.688   0.039   4.624
 8578SOL    HW126633   4.712   0.083   4.537
 8578SOL    HW226634   4.590   0.017   4.624
 8579SOL     OW26635   1.129   4.933   3.412
 8579SOL    HW126636   1.093   5.025   3.397
 8579SOL    HW226637   1.053   4.870   3.430
 8580SOL     OW26638   2.186   6.679   1.839
 8580SOL    HW126639   2.144   6.743   1.776
 8580SOL    HW226640   2.176   6.586   1.804
 8581SOL     OW26641   3.430   1.924   1.293
 8581SOL    HW126642   3.479   1.893   1.374
 8581SOL    HW226643   3.387   2.012   1.311
 8582SOL     OW26644   4.918   4.501   2.232
 8582SOL    HW126645   4.908   4.409   2.270
 8582SOL    HW226646   4.874   4.505   2.142
 8583SOL     OW26647   6.081   0.681   6.395
 8583SOL    HW126648   6.029   0.646   6.473
 8583SOL    HW226649   6.115   0.604   6.340
 8584SOL     OW26650   0.129   4.333   0.461
 8584SOL    HW126651   0.067   4.402   0.497
 8584SOL    HW226652   0.155   4.356   0.368
 8585SOL     OW26653   0.399   0.511   0.709
 8585SOL    HW126654   0.438   0.422   0.683
 8585SOL    HW226655   0.313   0.496   0.758
 8586SOL     OW26656   3.058   6.076   3.078
 8586SOL    HW126657   2.960   6.092   3.073
 8586SOL    HW226658   3.100   6.100   2.991
 8587SOL     OW26659   0.406   1.530   2.973
 8587SOL    HW126660   0.497   1.558   3.003
 8587SOL    HW226661   0.337   1.586   3.021
 8588SOL     OW26662   3.239   1.789   0.823
 8588SOL    HW126663   3.232   1.829   0.915
 8588SOL    HW226664   3.211   1.856   0.755
 8589SOL     OW26665   3.759   1.287   4.932
 8589SOL    HW126666   3.799   1.349   5.000
 8589SOL    HW226667   3.833   1.238   4.885
 8590SOL     OW26668   6.603   5.832   4.762
 8590SOL    HW126669   6.565   5.896   4.828
 8590SOL    HW226670   6.620   5.744   4.806
 8591SOL     OW26671   0.677   4.795   6.480
 8591SOL    HW126672   0.694   4.874   6.421
 8591SOL    HW226673   0.696   4.711   6.430
 8592SOL     OW26674   0.097   4.546   0.217
 8592SOL    HW126675   0.023   4.481   0.209
 8592SOL    HW226676   0.071   4.619   0.281
 8593SOL     OW26677   1.084   6.894   2.016
 8593SOL    HW126678   1.156   6.933   2.073
 8593SOL    HW226679   1.009   6.862   2.074
 8594SOL     OW26680   3.275   3.897   4.341
 8594SOL    HW126681   3.332   3.976   4.317
 8594SOL    HW226682   3.184   3.908   4.300
 8595SOL     OW26683   2.064   2.257   2.719
 8595SOL    HW126684   2.117   2.342   2.724
 8595SOL    HW226685   1.993   2.266   2.650
 8596SOL     OW26686   5.594   5.206   1.887
 8596SOL    HW126687   5.688   5.239   1.895
 8596SOL    HW226688   5.544   5.228   1.971
 8597SOL     OW26689   3.327   2.145   0.867
 8597SOL    HW126690   3.255   2.100   0.813
 8597SOL    HW226691   3.288   2.222   0.917
 8598SOL     OW26692   6.934   5.305   1.016
 8598SOL    HW126693   6.982   5.229   1.059
 8598SOL    HW226694   6.977   5.392   1.043
 8599SOL     OW26695   0.993   2.821   3.914
 8599SOL    HW126696   0.919   2.888   3.927
 8599SOL    HW226697   0.954   2.729   3.913
 8600SOL     OW26698   6.362   4.592   6.526
 8600SOL    HW126699   6.448   4.559   6.488
 8600SOL    HW226700   6.380   4.670   6.586
 8601SOL     OW26701   0.003   1.576   4.783
 8601SOL    HW126702   7.016   1.599   4.686
 8601SOL    HW226703   0.081   1.626   4.820
 8602SOL     OW26704   2.675   6.388   2.857
 8602SOL    HW126705   2.736   6.453   2.814
 8602SOL    HW226706   2.583   6.427   2.863
 8603SOL     OW26707   3.530   4.020   0.332
 8603SOL    HW126708   3.507   4.106   0.286
 8603SOL    HW226709   3.496   3.943   0.279
 8604SOL     OW26710   6.523   2.744   3.884
 8604SOL    HW126711   6.466   2.698   3.952
 8604SOL    HW226712   6.490   2.838   3.872
 8605SOL     OW26713   3.708   5.294   3.843
 8605SOL    HW126714   3.667   5.274   3.754
 8605SOL    HW226715   3.741   5.389   3.843
 8606SOL     OW26716   2.589   4.227   5.925
 8606SOL    HW126717   2.682   4.260   5.914
 8606SOL    HW226718   2.526   4.305   5.922
 8607SOL     OW26719   3.355   5.963   1.181
 8607SOL    HW126720   3.354   5.863   1.172
 8607SOL    HW226721   3.427   6.000   1.122
 8608SOL     OW26722   4.489   4.840   2.529
 8608SOL    HW126723   4.588   4.834   2.543
 8608SOL    HW226724   4.451   4.747   2.525
 8609SOL     OW26725   3.701   0.278   4.494
 8609SOL    HW126726   3.617   0.322   4.464
 8609SOL    HW226727   3.780   0.333   4.466
 8610SOL     OW26728   1.085   0.389   3.105
 8610SOL    HW126729   1.161   0.354   3.161
 8610SOL    HW226730   1.103   0.371   3.009
 8611SOL     OW26731   1.131   2.272   4.928
 8611SOL    HW126732   1.169   2.233   4.845
 8611SOL    HW226733   1.042   2.230   4.947
 8612SOL     OW26734   3.102   3.613   6.568
 8612SOL    HW126735   3.038   3.684   6.538
 8612SOL    HW226736   3.166   3.593   6.494
 8613SOL     OW26737   2.310   1.467   1.151
 8613SOL    HW126738   2.285   1.465   1.054
 8613SOL    HW226739   2.229   1.487   1.206
 8614SOL     OW26740   0.796   3.904   2.882
 8614SOL    HW126741   0.891   3.930   2.894
 8614SOL    HW226742   0.771   3.911   2.785
 8615SOL     OW26743   4.641   1.957   5.227
 8615SOL    HW126744   4.607   2.034   5.281
 8615SOL    HW226745   4.664   1.988   5.135
 8616SOL     OW26746   0.658   4.803   0.486
 8616SOL    HW126747   0.586   4.872   0.498
 8616SOL    HW226748   0.617   4.718   0.452
 8617SOL     OW26749   6.584   1.743   0.380
 8617SOL    HW126750   6.655   1.766   0.314
 8617SOL    HW226751   6.564   1.823   0.437
 8618SOL     OW26752   4.364   6.629   2.411
 8618SOL    HW126753   4.320   6.703   2.360
 8618SOL    HW226754   4.327   6.626   2.504
 8619SOL     OW26755   4.301   5.246   0.236
 8619SOL    HW126756   4.355   5.279   0.314
 8619SOL    HW226757   4.239   5.174   0.267
 8620SOL     OW26758   6.216   6.684   2.647
 8620SOL    HW126759   6.275   6.675   2.567
 8620SOL    HW226760   6.121   6.669   2.620
 8621SOL     OW26761   6.317   1.050   3.735
 8621SOL    HW126762   6.338   1.129   3.793
 8621SOL    HW226763   6.351   0.967   3.779
 8622SOL     OW26764   4.495   4.139   0.078
 8622SOL    HW126765   4.495   4.178   7.010
 8622SOL    HW226766   4.580   4.087   0.092
 8623SOL     OW26767   0.845   4.807   3.216
 8623SOL    HW126768   0.826   4.866   3.138
 8623SOL    HW226769   0.832   4.711   3.189
 8624SOL     OW26770   1.376   4.316   3.609
 8624SOL    HW126771   1.402   4.274   3.522
 8624SOL    HW226772   1.291   4.275   3.642
 8625SOL     OW26773   4.437   0.599   4.174
 8625SOL    HW126774   4.386   0.606   4.260
 8625SOL    HW226775   4.401   0.666   4.109
 8626SOL     OW26776   3.589   3.459   4.023
 8626SOL    HW126777   3.613   3.501   4.111
 8626SOL    HW226778   3.502   3.412   4.031
 8627SOL     OW26779   1.712   1.155   1.479
 8627SOL    HW126780   1.635   1.116   1.530
 8627SOL    HW226781   1.798   1.125   1.522
 8628SOL     OW26782   6.587   0.135   0.164
 8628SOL    HW126783   6.593   0.058   0.102
 8628SOL    HW226784   6.559   0.103   0.255
 8629SOL     OW26785   1.507   4.808   4.066
 8629SOL    HW126786   1.520   4.788   4.163
 8629SOL    HW226787   1.567   4.884   4.040
 8630SOL     OW26788   5.889   4.135   4.449
 8630SOL    HW126789   5.926   4.077   4.377
 8630SOL    HW226790   5.844   4.077   4.518
 8631SOL     OW26791   3.929   5.985   5.813
 8631SOL    HW126792   3.989   6.064   5.825
 8631SOL    HW226793   3.914   5.940   5.901
 8632SOL     OW26794   3.385   6.866   3.897
 8632SOL    HW126795   3.334   6.784   3.870
 8632SOL    HW226796   3.348   6.903   3.982
 8633SOL     OW26797   5.472   1.132   4.091
 8633SOL    HW126798   5.449   1.035   4.088
 8633SOL    HW226799   5.391   1.185   4.116
 8634SOL     OW26800   6.488   3.954   1.408
 8634SOL    HW126801   6.549   4.021   1.448
 8634SOL    HW226802   6.412   4.000   1.362
 8635SOL     OW26803   5.811   3.448   5.625
 8635SOL    HW126804   5.855   3.521   5.678
 8635SOL    HW226805   5.781   3.484   5.537
 8636SOL     OW26806   5.903   5.148   6.786
 8636SOL    HW126807   5.922   5.121   6.881
 8636SOL    HW226808   5.935   5.076   6.724
 8637SOL     OW26809   1.882   0.914   0.486
 8637SOL    HW126810   1.789   0.914   0.522
 8637SOL    HW226811   1.878   0.908   0.386
 8638SOL     OW26812   2.144   3.749   0.399
 8638SOL    HW126813   2.164   3.843   0.425
 8638SOL    HW226814   2.161   3.689   0.477
 8639SOL     OW26815   5.382   2.512   1.831
 8639SOL    HW126816   5.431   2.426   1.845
 8639SOL    HW226817   5.284   2.493   1.826
 8640SOL     OW26818   4.238   4.016   0.481
 8640SOL    HW126819   4.296   4.060   0.550
 8640SOL    HW226820   4.250   4.063   0.393
 8641SOL     OW26821   6.910   3.926   3.482
 8641SOL    HW126822   6.983   3.996   3.483
 8641SOL    HW226823   6.919   3.868   3.563
 8642SOL     OW26824   4.618   0.338   2.393
 8642SOL    HW126825   4.637   0.419   2.447
 8642SOL    HW226826   4.651   0.351   2.300
 8643SOL     OW26827   4.879   0.240   6.961
 8643SOL    HW126828   4.893   0.336   6.988
 8643SOL    HW226829   4.782   0.218   6.966
 8644SOL     OW26830   5.636   2.270   5.167
 8644SOL    HW126831   5.680   2.304   5.250
 8644SOL    HW226832   5.563   2.333   5.139
 8645SOL     OW26833   5.893   4.720   1.212
 8645SOL    HW126834   5.875   4.796   1.275
 8645SOL    HW226835   5.845   4.638   1.244
 8646SOL     OW26836   4.919   1.241   0.881
 8646SOL    HW126837   4.874   1.157   0.852
 8646SOL    HW226838   4.859   1.292   0.944
 8647SOL     OW26839   3.800   5.105   6.983
 8647SOL    HW126840   3.751   5.018   6.976
 8647SOL    HW226841   3.741   5.180   6.952
 8648SOL     OW26842   6.090   0.947   4.478
 8648SOL    HW126843   6.135   0.938   4.567
 8648SOL    HW226844   6.091   1.043   4.449
 8649SOL     OW26845   6.233   4.401   5.864
 8649SOL    HW126846   6.182   4.429   5.783
 8649SOL    HW226847   6.244   4.302   5.865
 8650SOL     OW26848   2.058   4.731   3.932
 8650SOL    HW126849   2.025   4.792   3.860
 8650SOL    HW226850   2.118   4.782   3.994
 8651SOL     OW26851   3.902   0.856   0.574
 8651SOL    HW126852   3.879   0.922   0.646
 8651SOL    HW226853   3.940   0.774   0.615
 8652SOL     OW26854   1.707   4.027   3.522
 8652SOL    HW126855   1.666   4.115   3.497
 8652SOL    HW226856   1.796   4.043   3.564
 8653SOL     OW26857   6.820   2.355   6.434
 8653SOL    HW126858   6.797   2.262   6.463
 8653SOL    HW226859   6.826   2.358   6.334
 8654SOL     OW26860   0.244   6.223   2.668
 8654SOL    HW126861   0.297   6.160   2.723
 8654SOL    HW226862   0.199   6.291   2.727
 8655SOL     OW26863   5.728   0.318   3.721
 8655SOL    HW126864   5.768   0.343   3.810
 8655SOL    HW226865   5.731   0.219   3.710
 8656SOL     OW26866   6.011   1.000   1.171
 8656SOL    HW126867   6.077   1.015   1.098
 8656SOL    HW226868   5.963   0.913   1.156
 8657SOL     OW26869   4.158   5.328   6.290
 8657SOL    HW126870   4.085   5.268   6.322
 8657SOL    HW226871   4.168   5.317   6.191
 8658SOL     OW26872   5.035   5.027   7.015
 8658SOL    HW126873   4.984   5.015   0.077
 8658SOL    HW226874   5.116   5.082   0.008
 8659SOL     OW26875   4.504   0.703   3.371
 8659SOL    HW126876   4.476   0.796   3.350
 8659SOL    HW226877   4.600   0.690   3.348
 8660SOL     OW26878   5.903   3.988   0.425
 8660SOL    HW126879   5.928   3.904   0.376
 8660SOL    HW226880   5.804   3.989   0.440
 8661SOL     OW26881   5.950   4.115   2.024
 8661SOL    HW126882   5.924   4.135   2.118
 8661SOL    HW226883   6.020   4.044   2.023
 8662SOL     OW26884   5.375   6.358   1.683
 8662SOL    HW126885   5.443   6.429   1.701
 8662SOL    HW226886   5.295   6.399   1.638
 8663SOL     OW26887   2.654   5.697   0.515
 8663SOL    HW126888   2.710   5.741   0.586
 8663SOL    HW226889   2.657   5.752   0.432
 8664SOL     OW26890   4.354   5.190   7.003
 8664SOL    HW126891   4.322   5.223   0.068
 8664SOL    HW226892   4.315   5.100   6.985
 8665SOL     OW26893   4.975   5.715   5.476
 8665SOL    HW126894   4.927   5.647   5.531
 8665SOL    HW226895   4.909   5.768   5.423
 8666SOL     OW26896   5.124   1.664   4.754
 8666SOL    HW126897   5.127   1.688   4.850
 8666SOL    HW226898   5.039   1.615   4.734
 8667SOL     OW26899   5.193   1.728   3.133
 8667SOL    HW126900   5.247   1.720   3.217
 8667SOL    HW226901   5.156   1.821   3.126
 8668SOL     OW26902   5.389   2.435   3.644
 8668SOL    HW126903   5.348   2.440   3.553
 8668SOL    HW226904   5.459   2.364   3.645
 8669SOL     OW26905   3.589   0.296   6.222
 8669SOL    HW126906   3.577   0.356   6.300
 8669SOL    HW226907   3.503   0.247   6.204
 8670SOL     OW26908   3.879   5.581   5.124
 8670SOL    HW126909   3.893   5.661   5.183
 8670SOL    HW226910   3.965   5.556   5.080
 8671SOL     OW26911   5.499   0.465   3.815
 8671SOL    HW126912   5.571   0.443   3.749
 8671SOL    HW226913   5.500   0.397   3.889
 8672SOL     OW26914   2.483   5.638   4.702
 8672SOL    HW126915   2.551   5.707   4.725
 8672SOL    HW226916   2.526   5.565   4.649
 8673SOL     OW26917   0.181   1.035   0.106
 8673SOL    HW126918   0.267   0.986   0.091
 8673SOL    HW226919   0.118   1.014   0.031
 8674SOL     OW26920   0.049   6.226   2.404
 8674SOL    HW126921   0.137   6.238   2.358
 8674SOL    HW226922   0.053   6.147   2.464
 8675SOL     OW26923   3.630   2.068   4.342
 8675SOL    HW126924   3.704   2.134   4.350
 8675SOL    HW226925   3.626   2.013   4.426
 8676SOL     OW26926   3.168   0.627   2.845
 8676SOL    HW126927   3.257   0.624   2.889
 8676SOL    HW226928   3.096   0.637   2.914
 8677SOL     OW26929   2.382   5.394   6.207
 8677SOL    HW126930   2.419   5.463   6.145
 8677SOL    HW226931   2.306   5.346   6.163
 8678SOL     OW26932   0.472   7.008   0.068
 8678SOL    HW126933   0.478   7.007   0.168
 8678SOL    HW226934   0.386   6.965   0.039
 8679SOL     OW26935   5.756   2.165   4.546
 8679SOL    HW126936   5.692   2.190   4.619
 8679SOL    HW226937   5.763   2.066   4.540
 8680SOL     OW26938   1.037   3.893   1.377
 8680SOL    HW126939   1.085   3.887   1.289
 8680SOL    HW226940   1.097   3.859   1.449
 8681SOL     OW26941   4.901   4.804   6.795
 8681SOL    HW126942   4.803   4.812   6.778
 8681SOL    HW226943   4.916   4.745   6.875
 8682SOL     OW26944   3.684   6.346   3.115
 8682SOL    HW126945   3.634   6.396   3.186
 8682SOL    HW226946   3.632   6.350   3.029
 8683SOL     OW26947   1.264   2.559   2.273
 8683SOL    HW126948   1.363   2.550   2.275
 8683SOL    HW226949   1.224   2.513   2.352
 8684SOL     OW26950   0.694   2.827   4.550
 8684SOL    HW126951   0.683   2.871   4.639
 8684SOL    HW226952   0.743   2.741   4.561
 8685SOL     OW26953   1.391   2.140   5.937
 8685SOL    HW126954   1.307   2.116   5.889
 8685SOL    HW226955   1.377   2.133   6.036
 8686SOL     OW26956   6.699   2.119   1.938
 8686SOL    HW126957   6.777   2.072   1.981
 8686SOL    HW226958   6.657   2.181   2.005
 8687SOL     OW26959   3.550   6.342   2.696
 8687SOL    HW126960   3.524   6.418   2.637
 8687SOL    HW226961   3.641   6.359   2.734
 8688SOL     OW26962   2.550   6.640   0.429
 8688SOL    HW126963   2.631   6.675   0.476
 8688SOL    HW226964   2.468   6.663   0.481
 8689SOL     OW26965   3.946   6.091   0.137
 8689SOL    HW126966   3.953   6.031   0.057
 8689SOL    HW226967   3.879   6.054   0.201
 8690SOL     OW26968   1.780   2.358   4.011
 8690SOL    HW126969   1.821   2.267   4.002
 8690SOL    HW226970   1.751   2.389   3.921
 8691SOL     OW26971   4.172   2.432   6.526
 8691SOL    HW126972   4.080   2.405   6.501
 8691SOL    HW226973   4.191   2.524   6.492
 8692SOL     OW26974   3.485   2.014   2.867
 8692SOL    HW126975   3.405   2.071   2.848
 8692SOL    HW226976   3.554   2.069   2.914
 8693SOL     OW26977   5.243   1.715   1.088
 8693SOL    HW126978   5.148   1.719   1.056
 8693SOL    HW226979   5.270   1.804   1.124
 8694SOL     OW26980   4.703   0.037   6.125
 8694SOL    HW126981   4.604   0.026   6.119
 8694SOL    HW226982   4.726   0.084   6.210
 8695SOL     OW26983   4.678   2.672   5.834
 8695SOL    HW126984   4.722   2.646   5.920
 8695SOL    HW226985   4.654   2.590   5.782
 8696SOL     OW26986   3.359   5.666   0.976
 8696SOL    HW126987   3.289   5.654   0.907
 8696SOL    HW226988   3.449   5.644   0.937
 8697SOL     OW26989   6.478   3.721   0.502
 8697SOL    HW126990   6.393   3.770   0.517
 8697SOL    HW226991   6.530   3.765   0.428
 8698SOL     OW26992   5.414   5.770   3.749
 8698SOL    HW126993   5.492   5.830   3.733
 8698SOL    HW226994   5.434   5.708   3.824
 8699SOL     OW26995   0.712   1.990   5.378
 8699SOL    HW126996   0.721   1.935   5.295
 8699SOL    HW226997   0.788   2.054   5.385
 8700SOL     OW26998   2.132   0.827   4.952
 8700SOL    HW126999   2.044   0.825   4.905
 8700SOL    HW227000   2.117   0.845   5.049
 8701SOL     OW27001   1.098   0.772   5.956
 8701SOL    HW127002   1.104   0.680   5.918
 8701SOL    HW227003   1.151   0.777   6.040
 8702SOL     OW27004   5.331   4.670   0.018
 8702SOL    HW127005   5.281   4.622   0.090
 8702SOL    HW227006   5.282   4.659   6.955
 8703SOL     OW27007   3.136   5.632   1.377
 8703SOL    HW127008   3.188   5.547   1.381
 8703SOL    HW227009   3.159   5.689   1.456
 8704SOL     OW27010   6.208   3.799   2.642
 8704SOL    HW127011   6.243   3.772   2.552
 8704SOL    HW227012   6.120   3.845   2.631
 8705SOL     OW27013   5.318   0.960   6.359
 8705SOL    HW127014   5.354   1.031   6.299
 8705SOL    HW227015   5.288   0.881   6.305
 8706SOL     OW27016   5.070   2.463   5.659
 8706SOL    HW127017   5.146   2.527   5.647
 8706SOL    HW227018   5.040   2.463   5.754
 8707SOL     OW27019   4.774   2.542   0.522
 8707SOL    HW127020   4.778   2.630   0.569
 8707SOL    HW227021   4.711   2.481   0.569
 8708SOL     OW27022   3.723   0.915   1.949
 8708SOL    HW127023   3.801   0.895   1.890
 8708SOL    HW227024   3.697   1.011   1.939
 8709SOL     OW27025   6.575   4.837   0.015
 8709SOL    HW127026   6.521   4.870   0.092
 8709SOL    HW227027   6.530   4.756   7.000
 8710SOL     OW27028   1.965   2.780   3.057
 8710SOL    HW127029   2.016   2.798   3.141
 8710SOL    HW227030   1.883   2.726   3.079
 8711SOL     OW27031   6.951   6.455   2.511
 8711SOL    HW127032   7.003   6.376   2.477
 8711SOL    HW227033   7.004   6.539   2.497
 8712SOL     OW27034   3.915   2.139   3.753
 8712SOL    HW127035   3.921   2.042   3.777
 8712SOL    HW227036   3.821   2.170   3.766
 8713SOL     OW27037   0.074   4.127   3.503
 8713SOL    HW127038   0.021   4.200   3.545
 8713SOL    HW227039   0.133   4.165   3.431
 8714SOL     OW27040   1.040   1.026   5.678
 8714SOL    HW127041   1.034   0.961   5.602
 8714SOL    HW227042   0.949   1.063   5.698
 8715SOL     OW27043   5.769   0.705   1.046
 8715SOL    HW127044   5.822   0.674   0.968
 8715SOL    HW227045   5.744   0.625   1.102
 8716SOL     OW27046   1.203   1.911   1.152
 8716SOL    HW127047   1.106   1.916   1.129
 8716SOL    HW227048   1.258   1.947   1.076
 8717SOL     OW27049   4.051   3.652   2.375
 8717SOL    HW127050   4.121   3.642   2.447
 8717SOL    HW227051   3.986   3.576   2.382
 8718SOL     OW27052   0.377   1.984   5.097
 8718SOL    HW127053   0.426   2.059   5.051
 8718SOL    HW227054   0.365   2.006   5.193
 8719SOL     OW27055   1.733   0.470   5.755
 8719SOL    HW127056   1.747   0.408   5.832
 8719SOL    HW227057   1.773   0.430   5.673
 8720SOL     OW27058   0.006   5.489   5.456
 8720SOL    HW127059   0.020   5.531   5.546
 8720SOL    HW227060   6.943   5.440   5.455
 8721SOL     OW27061   5.742   2.023   4.022
 8721SOL    HW127062   5.811   2.095   4.013
 8721SOL    HW227063   5.768   1.963   4.097
 8722SOL     OW27064   3.830   0.845   0.954
 8722SOL    HW127065   3.912   0.836   1.010
 8722SOL    HW227066   3.835   0.929   0.900
 8723SOL     OW27067   5.902   5.890   0.961
 8723SOL    HW127068   5.871   5.983   0.944
 8723SOL    HW227069   5.834   5.842   1.017
 8724SOL     OW27070   5.938   0.102   4.624
 8724SOL    HW127071   5.971   0.023   4.675
 8724SOL    HW227072   5.964   0.186   4.672
 8725SOL     OW27073   1.843   0.703   6.777
 8725SOL    HW127074   1.830   0.747   6.866
 8725SOL    HW227075   1.895   0.618   6.790
 8726SOL     OW27076   6.263   0.228   1.432
 8726SOL    HW127077   6.212   0.271   1.507
 8726SOL    HW227078   6.350   0.275   1.420
 8727SOL     OW27079   6.370   6.659   2.014
 8727SOL    HW127080   6.333   6.669   1.922
 8727SOL    HW227081   6.470   6.663   2.011
 8728SOL     OW27082   4.231   0.185   4.975
 8728SOL    HW127083   4.314   0.196   4.921
 8728SOL    HW227084   4.203   0.089   4.974
 8729SOL     OW27085   5.274   5.619   3.362
 8729SOL    HW127086   5.231   5.532   3.337
 8729SOL    HW227087   5.218   5.666   3.430
 8730SOL     OW27088   6.979   5.356   2.918
 8730SOL    HW127089   6.916   5.433   2.931
 8730SOL    HW227090   0.006   5.369   2.833
 8731SOL     OW27091   1.984   1.790   3.537
 8731SOL    HW127092   1.949   1.728   3.467
 8731SOL    HW227093   1.908   1.825   3.592
 8732SOL     OW27094   5.497   4.166   2.022
 8732SOL    HW127095   5.470   4.070   2.033
 8732SOL    HW227096   5.492   4.213   2.110
 8733SOL     OW27097   1.088   6.057   3.240
 8733SOL    HW127098   1.080   6.116   3.160
 8733SOL    HW227099   1.020   5.984   3.235
 8734SOL     OW27100   1.010   4.819   2.206
 8734SOL    HW127101   0.996   4.725   2.173
 8734SOL    HW227102   0.939   4.878   2.167
 8735SOL     OW27103   0.662   1.956   7.005
 8735SOL    HW127104   0.622   1.980   6.916
 8735SOL    HW227105   0.755   1.924   6.992
 8736SOL     OW27106   0.486   6.345   0.283
 8736SOL    HW127107   0.497   6.435   0.324
 8736SOL    HW227108   0.388   6.324   0.275
 8737SOL     OW27109   4.254   6.812   6.301
 8737SOL    HW127110   4.212   6.802   6.211
 8737SOL    HW227111   4.196   6.869   6.359
 8738SOL     OW27112   1.235   3.888   4.739
 8738SOL    HW127113   1.324   3.917   4.774
 8738SOL    HW227114   1.217   3.933   4.652
 8739SOL     OW27115   6.438   4.771   6.708
 8739SOL    HW127116   6.433   4.721   6.795
 8739SOL    HW227117   6.487   4.856   6.721
 8740SOL     OW27118   4.003   0.789   6.147
 8740SOL    HW127119   4.069   0.721   6.115
 8740SOL    HW227120   4.036   0.830   6.232
 8741SOL     OW27121   1.987   1.905   1.479
 8741SOL    HW127122   1.913   1.879   1.541
 8741SOL    HW227123   2.023   1.994   1.506
 8742SOL     OW27124   4.930   6.090   1.744
 8742SOL    HW127125   4.830   6.100   1.742
 8742SOL    HW227126   4.966   6.100   1.651
 8743SOL     OW27127   2.275   5.998   2.370
 8743SOL    HW127128   2.253   6.095   2.363
 8743SOL    HW227129   2.190   5.946   2.377
 8744SOL     OW27130   3.964   2.345   5.954
 8744SOL    HW127131   3.868   2.347   5.923
 8744SOL    HW227132   4.021   2.394   5.888
 8745SOL     OW27133   6.261   2.348   5.476
 8745SOL    HW127134   6.237   2.389   5.388
 8745SOL    HW227135   6.179   2.338   5.532
 8746SOL     OW27136   4.253   4.439   5.485
 8746SOL    HW127137   4.308   4.389   5.418
 8746SOL    HW227138   4.175   4.383   5.513
 8747SOL     OW27139   0.632   2.431   3.466
 8747SOL    HW127140   0.539   2.465   3.478
 8747SOL    HW227141   0.695   2.482   3.524
 8748SOL     OW27142   0.645   0.592   6.634
 8748SOL    HW127143   0.639   0.497   6.604
 8748SOL    HW227144   0.553   0.633   6.632
 8749SOL     OW27145   2.816   0.373   4.304
 8749SOL    HW127146   2.856   0.333   4.386
 8749SOL    HW227147   2.840   0.318   4.224
 8750SOL     OW27148   2.481   2.816   5.371
 8750SOL    HW127149   2.419   2.743   5.340
 8750SOL    HW227150   2.476   2.893   5.307
 8751SOL     OW27151   6.914   0.094   2.009
 8751SOL    HW127152   6.898   0.189   1.981
 8751SOL    HW227153   6.995   0.059   1.962
 8752SOL     OW27154   3.147   4.179   0.085
 8752SOL    HW127155   3.130   4.273   0.114
 8752SOL    HW227156   3.226   4.142   0.135
 8753SOL     OW27157   4.902   1.052   4.680
 8753SOL    HW127158   4.992   1.032   4.719
 8753SOL    HW227159   4.838   0.981   4.708
 8754SOL     OW27160   0.615   1.855   5.651
 8754SOL    HW127161   0.636   1.912   5.572
 8754SOL    HW227162   0.578   1.912   5.724
 8755SOL     OW27163   2.820   1.513   6.620
 8755SOL    HW127164   2.737   1.565   6.644
 8755SOL    HW227165   2.892   1.577   6.592
 8756SOL     OW27166   2.171   2.642   3.280
 8756SOL    HW127167   2.127   2.717   3.329
 8756SOL    HW227168   2.111   2.563   3.280
 8757SOL     OW27169   5.866   6.414   5.959
 8757SOL    HW127170   5.898   6.473   6.032
 8757SOL    HW227171   5.914   6.437   5.874
 8758SOL     OW27172   5.414   6.208   2.118
 8758SOL    HW127173   5.420   6.184   2.021
 8758SOL    HW227174   5.319   6.224   2.142
 8759SOL     OW27175   4.404   1.549   6.557
 8759SOL    HW127176   4.454   1.621   6.509
 8759SOL    HW227177   4.330   1.515   6.498
 8760SOL     OW27178   1.947   1.731   4.407
 8760SOL    HW127179   1.953   1.683   4.495
 8760SOL    HW227180   2.000   1.681   4.338
 8761SOL     OW27181   4.985   0.514   1.144
 8761SOL    HW127182   5.034   0.529   1.059
 8761SOL    HW227183   5.049   0.490   1.216
 8762SOL     OW27184   1.208   3.442   2.907
 8762SOL    HW127185   1.287   3.418   2.850
 8762SOL    HW227186   1.235   3.444   3.003
 8763SOL     OW27187   6.323   6.320   5.055
 8763SOL    HW127188   6.313   6.419   5.051
 8763SOL    HW227189   6.293   6.280   4.969
 8764SOL     OW27190   5.221   1.769   3.864
 8764SOL    HW127191   5.287   1.697   3.885
 8764SOL    HW227192   5.216   1.781   3.764
 8765SOL     OW27193   5.909   6.860   4.746
 8765SOL    HW127194   5.817   6.822   4.753
 8765SOL    HW227195   5.961   6.810   4.676
 8766SOL     OW27196   3.610   4.952   3.670
 8766SOL    HW127197   3.650   4.946   3.761
 8766SOL    HW227198   3.511   4.937   3.676
 8767SOL     OW27199   4.172   0.477   2.572
 8767SOL    HW127200   4.077   0.505   2.559
 8767SOL    HW227201   4.209   0.522   2.654
 8768SOL     OW27202   1.976   3.344   0.084
 8768SOL    HW127203   2.062   3.388   0.059
 8768SOL    HW227204   1.956   3.271   0.019
 8769SOL     OW27205   0.555   0.146   5.186
 8769SOL    HW127206   0.557   0.125   5.089
 8769SOL    HW227207   0.510   0.233   5.201
 8770SOL     OW27208   4.741   4.014   1.856
 8770SOL    HW127209   4.696   4.098   1.886
 8770SOL    HW227210   4.673   3.953   1.814
 8771SOL     OW27211   1.848   1.478   6.232
 8771SOL    HW127212   1.873   1.571   6.206
 8771SOL    HW227213   1.752   1.475   6.260
 8772SOL     OW27214   5.810   0.656   6.852
 8772SOL    HW127215   5.795   0.753   6.834
 8772SOL    HW227216   5.861   0.645   6.937
 8773SOL     OW27217   4.174   2.262   3.724
 8773SOL    HW127218   4.079   2.231   3.732
 8773SOL    HW227219   4.210   2.283   3.815
 8774SOL     OW27220   1.126   1.504   0.431
 8774SOL    HW127221   1.159   1.560   0.507
 8774SOL    HW227222   1.133   1.557   0.346
 8775SOL     OW27223   5.546   7.014   4.110
 8775SOL    HW127224   5.500   6.947   4.168
 8775SOL    HW227225   5.625   6.972   4.066
 8776SOL     OW27226   3.784   3.133   4.850
 8776SOL    HW127227   3.753   3.063   4.915
 8776SOL    HW227228   3.715   3.205   4.843
 8777SOL     OW27229   0.151   4.977   1.422
 8777SOL    HW127230   0.168   4.886   1.384
 8777SOL    HW227231   0.062   4.978   1.469
 8778SOL     OW27232   0.248   1.811   3.665
 8778SOL    HW127233   0.317   1.853   3.607
 8778SOL    HW227234   0.292   1.769   3.745
 8779SOL     OW27235   1.584   5.001   2.470
 8779SOL    HW127236   1.576   5.100   2.452
 8779SOL    HW227237   1.631   4.957   2.393
 8780SOL     OW27238   1.788   5.776   3.470
 8780SOL    HW127239   1.708   5.725   3.503
 8780SOL    HW227240   1.763   5.871   3.454
 8781SOL     OW27241   6.832   0.978   3.092
 8781SOL    HW127242   6.909   0.935   3.138
 8781SOL    HW227243   6.747   0.931   3.117
 8782SOL     OW27244   5.929   0.949   2.063
 8782SOL    HW127245   5.918   0.989   1.972
 8782SOL    HW227246   6.026   0.948   2.087
 8783SOL     OW27247   6.136   3.951   3.836
 8783SOL    HW127248   6.200   3.995   3.898
 8783SOL    HW227249   6.163   3.855   3.822
 8784SOL     OW27250   5.397   4.472   5.145
 8784SOL    HW127251   5.417   4.474   5.047
 8784SOL    HW227252   5.483   4.474   5.197
 8785SOL     OW27253   5.384   4.051   0.433
 8785SOL    HW127254   5.362   4.121   0.501
 8785SOL    HW227255   5.302   3.996   0.415
 8786SOL     OW27256   1.965   6.594   0.078
 8786SOL    HW127257   1.941   6.688   0.103
 8786SOL    HW227258   2.024   6.555   0.149
 8787SOL     OW27259   1.463   3.341   2.282
 8787SOL    HW127260   1.495   3.401   2.355
 8787SOL    HW227261   1.536   3.328   2.215
 8788SOL     OW27262   6.569   1.991   5.673
 8788SOL    HW127263   6.505   2.032   5.608
 8788SOL    HW227264   6.656   2.040   5.669
 8789SOL     OW27265   6.162   0.432   6.646
 8789SOL    HW127266   6.210   0.506   6.693
 8789SOL    HW227267   6.217   0.401   6.568
 8790SOL     OW27268   6.997   1.584   6.979
 8790SOL    HW127269   7.021   1.567   0.051
 8790SOL    HW227270   6.941   1.666   6.972
 8791SOL     OW27271   5.267   6.830   5.869
 8791SOL    HW127272   5.258   6.830   5.968
 8791SOL    HW227273   5.188   6.875   5.828
 8792SOL     OW27274   3.922   6.696   3.297
 8792SOL    HW127275   3.845   6.759   3.296
 8792SOL    HW227276   3.929   6.653   3.387
 8793SOL     OW27277   2.325   5.785   4.524
 8793SOL    HW127278   2.368   5.708   4.571
 8793SOL    HW227279   2.384   5.816   4.449
 8794SOL     OW27280   3.183   6.704   3.222
 8794SOL    HW127281   3.115   6.766   3.183
 8794SOL    HW227282   3.272   6.723   3.182
 8795SOL     OW27283   1.686   6.520   5.373
 8795SOL    HW127284   1.777   6.487   5.347
 8795SOL    HW227285   1.617   6.451   5.350
 8796SOL     OW27286   4.704   1.872   5.504
 8796SOL    HW127287   4.719   1.917   5.416
 8796SOL    HW227288   4.607   1.852   5.515
 8797SOL     OW27289   1.948   6.533   6.363
 8797SOL    HW127290   1.980   6.609   6.308
 8797SOL    HW227291   1.854   6.551   6.393
 8798SOL     OW27292   5.634   4.032   5.633
 8798SOL    HW127293   5.564   3.991   5.692
 8798SOL    HW227294   5.603   4.121   5.602
 8799SOL     OW27295   2.276   4.163   3.672
 8799SOL    HW127296   2.345   4.216   3.721
 8799SOL    HW227297   2.228   4.223   3.608
 8800SOL     OW27298   4.885   4.043   5.653
 8800SOL    HW127299   4.909   3.969   5.591
 8800SOL    HW227300   4.963   4.105   5.663
 8801SOL     OW27301   2.296   1.492   4.234
 8801SOL    HW127302   2.202   1.502   4.203
 8801SOL    HW227303   2.330   1.580   4.267
 8802SOL     OW27304   1.195   0.054   1.325
 8802SOL    HW127305   1.250   0.099   1.254
 8802SOL    HW227306   1.137   7.008   1.282
 8803SOL     OW27307   1.728   5.146   6.844
 8803SOL    HW127308   1.720   5.073   6.776
 8803SOL    HW227309   1.759   5.108   6.930
 8804SOL     OW27310   4.076   0.895   1.685
 8804SOL    HW127311   4.085   0.863   1.779
 8804SOL    HW227312   4.028   0.982   1.683
 8805SOL     OW27313   1.686   0.487   3.754
 8805SOL    HW127314   1.725   0.562   3.807
 8805SOL    HW227315   1.611   0.521   3.697
 8806SOL     OW27316   2.080   5.459   1.012
 8806SOL    HW127317   2.073   5.552   0.977
 8806SOL    HW227318   2.026   5.397   0.955
 8807SOL     OW27319   6.233   5.347   6.061
 8807SOL    HW127320   6.142   5.310   6.081
 8807SOL    HW227321   6.303   5.289   6.101
 8808SOL     OW27322   5.650   1.541   0.707
 8808SOL    HW127323   5.576   1.601   0.678
 8808SOL    HW227324   5.684   1.489   0.629
 8809SOL     OW27325   5.506   3.557   1.531
 8809SOL    HW127326   5.429   3.620   1.523
 8809SOL    HW227327   5.479   3.478   1.586
 8810SOL     OW27328   5.676   1.494   4.493
 8810SOL    HW127329   5.604   1.544   4.445
 8810SOL    HW227330   5.743   1.558   4.529
 8811SOL     OW27331   2.594   1.791   4.164
 8811SOL    HW127332   2.617   1.887   4.181
 8811SOL    HW227333   2.512   1.767   4.215
 8812SOL     OW27334   0.627   1.007   0.221
 8812SOL    HW127335   0.540   0.971   0.187
 8812SOL    HW227336   0.646   0.967   0.311
 8813SOL     OW27337   0.774   5.499   1.498
 8813SOL    HW127338   0.845   5.492   1.427
 8813SOL    HW227339   0.694   5.544   1.459
 8814SOL     OW27340   0.144   0.451   6.857
 8814SOL    HW127341   0.232   0.455   6.904
 8814SOL    HW227342   0.070   0.465   6.923
 8815SOL     OW27343   6.903   5.626   1.609
 8815SOL    HW127344   6.858   5.554   1.557
 8815SOL    HW227345   6.880   5.715   1.568
 8816SOL     OW27346   1.021   6.855   1.207
 8816SOL    HW127347   1.070   6.789   1.150
 8816SOL    HW227348   0.931   6.872   1.167
 8817SOL     OW27349   1.063   6.149   5.658
 8817SOL    HW127350   1.060   6.199   5.745
 8817SOL    HW227351   1.014   6.201   5.588
 8818SOL     OW27352   0.107   3.736   3.568
 8818SOL    HW127353   0.139   3.829   3.587
 8818SOL    HW227354   0.172   3.690   3.508
 8819SOL     OW27355   4.271   6.293   4.203
 8819SOL    HW127356   4.309   6.260   4.116
 8819SOL    HW227357   4.179   6.256   4.215
 8820SOL     OW27358   1.982   2.800   4.264
 8820SOL    HW127359   1.928   2.877   4.230
 8820SOL    HW227360   1.936   2.714   4.241
 8821SOL     OW27361   1.935   0.043   6.534
 8821SOL    HW127362   1.975   6.976   6.532
 8821SOL    HW227363   1.979   0.101   6.465
 8822SOL     OW27364   0.623   0.765   2.775
 8822SOL    HW127365   0.649   0.820   2.696
 8822SOL    HW227366   0.704   0.723   2.815
 8823SOL     OW27367   2.043   0.334   1.197
 8823SOL    HW127368   1.989   0.265   1.245
 8823SOL    HW227369   2.041   0.420   1.248
 8824SOL     OW27370   2.407   3.988   0.949
 8824SOL    HW127371   2.450   3.935   0.876
 8824SOL    HW227372   2.368   4.072   0.912
 8825SOL     OW27373   1.325   1.003   2.740
 8825SOL    HW127374   1.291   1.085   2.786
 8825SOL    HW227375   1.385   1.030   2.664
 8826SOL     OW27376   6.121   1.883   0.133
 8826SOL    HW127377   6.131   1.886   0.033
 8826SOL    HW227378   6.113   1.976   0.169
 8827SOL     OW27379   2.881   0.919   3.272
 8827SOL    HW127380   2.840   0.952   3.187
 8827SOL    HW227381   2.812   0.872   3.327
 8828SOL     OW27382   3.802   5.557   3.771
 8828SOL    HW127383   3.858   5.619   3.716
 8828SOL    HW227384   3.729   5.518   3.715
 8829SOL     OW27385   0.071   3.603   0.153
 8829SOL    HW127386   0.097   3.699   0.158
 8829SOL    HW227387   0.133   3.548   0.209
 8830SOL     OW27388   6.604   1.168   6.897
 8830SOL    HW127389   6.637   1.073   6.904
 8830SOL    HW227390   6.628   1.218   6.979
 8831SOL     OW27391   5.568   1.038   3.627
 8831SOL    HW127392   5.570   1.048   3.528
 8831SOL    HW227393   5.526   0.951   3.651
 8832SOL     OW27394   0.391   6.903   1.788
 8832SOL    HW127395   0.308   6.945   1.824
 8832SOL    HW227396   0.441   6.859   1.863
 8833SOL     OW27397   1.622   5.651   5.029
 8833SOL    HW127398   1.702   5.666   5.087
 8833SOL    HW227399   1.652   5.615   4.940
 8834SOL     OW27400   5.627   3.241   4.673
 8834SOL    HW127401   5.619   3.266   4.576
 8834SOL    HW227402   5.588   3.314   4.729
 8835SOL     OW27403   6.325   0.086   5.466
 8835SOL    HW127404   6.374   0.173   5.463
 8835SOL    HW227405   6.358   0.028   5.392
 8836SOL     OW27406   4.140   0.743   0.788
 8836SOL    HW127407   4.157   0.833   0.826
 8836SOL    HW227408   4.155   0.673   0.858
 8837SOL     OW27409   0.954   0.631   2.134
 8837SOL    HW127410   0.956   0.595   2.041
 8837SOL    HW227411   1.047   0.648   2.166
 8838SOL     OW27412   2.653   5.191   3.682
 8838SOL    HW127413   2.639   5.121   3.613
 8838SOL    HW227414   2.569   5.206   3.733
 8839SOL     OW27415   6.220   6.143   3.021
 8839SOL    HW127416   6.278   6.223   3.008
 8839SOL    HW227417   6.180   6.146   3.113
 8840SOL     OW27418   6.078   2.244   2.118
 8840SOL    HW127419   6.023   2.268   2.038
 8840SOL    HW227420   6.055   2.151   2.148
 8841SOL     OW27421   1.029   1.347   5.102
 8841SOL    HW127422   0.983   1.299   5.028
 8841SOL    HW227423   1.118   1.304   5.119
 8842SOL     OW27424   3.312   3.021   1.151
 8842SOL    HW127425   3.305   3.003   1.249
 8842SOL    HW227426   3.408   3.039   1.128
 8843SOL     OW27427   1.114   3.041   5.571
 8843SOL    HW127428   1.034   2.989   5.601
 8843SOL    HW227429   1.135   3.019   5.476
 8844SOL     OW27430   5.883   1.315   6.126
 8844SOL    HW127431   5.889   1.324   6.225
 8844SOL    HW227432   5.933   1.234   6.097
 8845SOL     OW27433   4.138   4.003   0.005
 8845SOL    HW127434   4.178   3.918   0.039
 8845SOL    HW227435   4.181   4.027   6.941
 8846SOL     OW27436   1.905   5.109   3.546
 8846SOL    HW127437   1.950   5.198   3.557
 8846SOL    HW227438   1.869   5.102   3.454
 8847SOL     OW27439   2.799   0.466   2.594
 8847SOL    HW127440   2.836   0.485   2.504
 8847SOL    HW227441   2.778   0.551   2.641
 8848SOL     OW27442   2.258   1.162   1.148
 8848SOL    HW127443   2.292   1.255   1.144
 8848SOL    HW227444   2.262   1.120   1.057
 8849SOL     OW27445   1.815   5.736   2.472
 8849SOL    HW127446   1.824   5.651   2.420
 8849SOL    HW227447   1.821   5.814   2.409
 8850SOL     OW27448   2.373   1.636   7.017
 8850SOL    HW127449   2.352   1.697   6.941
 8850SOL    HW227450   2.312   1.557   7.015
 8851SOL     OW27451   1.637   4.761   2.650
 8851SOL    HW127452   1.732   4.788   2.666
 8851SOL    HW227453   1.590   4.833   2.598
 8852SOL     OW27454   1.070   1.950   5.497
 8852SOL    HW127455   1.166   1.975   5.484
 8852SOL    HW227456   1.013   2.031   5.484
 8853SOL     OW27457   2.872   0.773   1.568
 8853SOL    HW127458   2.778   0.761   1.537
 8853SOL    HW227459   2.920   0.834   1.504
 8854SOL     OW27460   1.629   2.618   5.170
 8854SOL    HW127461   1.539   2.575   5.171
 8854SOL    HW227462   1.623   2.710   5.208
 8855SOL     OW27463   6.122   5.589   1.394
 8855SOL    HW127464   6.146   5.685   1.376
 8855SOL    HW227465   6.022   5.581   1.399
 8856SOL     OW27466   6.212   5.625   6.061
 8856SOL    HW127467   6.124   5.673   6.055
 8856SOL    HW227468   6.198   5.527   6.052
 8857SOL     OW27469   6.551   1.761   5.519
 8857SOL    HW127470   6.550   1.813   5.604
 8857SOL    HW227471   6.463   1.770   5.473
 8858SOL     OW27472   0.260   4.943   5.510
 8858SOL    HW127473   0.219   4.990   5.588
 8858SOL    HW227474   0.358   4.928   5.529
 8859SOL     OW27475   0.932   0.588   3.661
 8859SOL    HW127476   0.979   0.601   3.748
 8859SOL    HW227477   0.838   0.624   3.668
 8860SOL     OW27478   6.969   2.770   1.007
 8860SOL    HW127479   6.994   2.737   1.098
 8860SOL    HW227480   0.013   2.739   0.941
 8861SOL     OW27481   3.953   1.301   0.827
 8861SOL    HW127482   3.877   1.333   0.884
 8861SOL    HW227483   4.036   1.298   0.883
 8862SOL     OW27484   4.656   5.999   4.487
 8862SOL    HW127485   4.734   5.972   4.431
 8862SOL    HW227486   4.643   6.098   4.481
 8863SOL     OW27487   1.942   4.095   3.639
 8863SOL    HW127488   1.949   4.188   3.601
 8863SOL    HW227489   2.032   4.066   3.670
 8864SOL     OW27490   5.461   3.343   6.330
 8864SOL    HW127491   5.498   3.400   6.403
 8864SOL    HW227492   5.415   3.263   6.370
 8865SOL     OW27493   3.002   1.735   6.034
 8865SOL    HW127494   3.000   1.654   6.091
 8865SOL    HW227495   2.942   1.722   5.954
 8866SOL     OW27496   5.648   6.208   2.821
 8866SOL    HW127497   5.610   6.293   2.858
 8866SOL    HW227498   5.721   6.229   2.757
 8867SOL     OW27499   6.256   3.665   2.895
 8867SOL    HW127500   6.218   3.687   2.805
 8867SOL    HW227501   6.328   3.596   2.884
 8868SOL     OW27502   0.108   3.440   2.774
 8868SOL    HW127503   0.073   3.479   2.690
 8868SOL    HW227504   0.056   3.357   2.796
 8869SOL     OW27505   3.882   5.464   4.678
 8869SOL    HW127506   3.812   5.511   4.732
 8869SOL    HW227507   3.915   5.384   4.729
 8870SOL     OW27508   1.809   6.911   1.833
 8870SOL    HW127509   1.783   6.824   1.874
 8870SOL    HW227510   1.898   6.940   1.870
 8871SOL     OW27511   1.917   0.919   3.023
 8871SOL    HW127512   1.992   0.902   2.959
 8871SOL    HW227513   1.901   0.837   3.078
 8872SOL     OW27514   0.514   4.246   6.219
 8872SOL    HW127515   0.608   4.244   6.186
 8872SOL    HW227516   0.513   4.273   6.316
 8873SOL     OW27517   1.860   0.249   2.088
 8873SOL    HW127518   1.804   0.249   2.005
 8873SOL    HW227519   1.820   0.187   2.155
 8874SOL     OW27520   1.957   5.307   0.840
 8874SOL    HW127521   1.946   5.219   0.794
 8874SOL    HW227522   1.890   5.373   0.805
 8875SOL     OW27523   6.957   2.984   3.625
 8875SOL    HW127524   6.993   3.078   3.619
 8875SOL    HW227525   6.880   2.982   3.688
 8876SOL     OW27526   3.168   0.497   5.974
 8876SOL    HW127527   3.180   0.417   5.916
 8876SOL    HW227528   3.203   0.477   6.066
 8877SOL     OW27529   1.062   3.556   1.579
 8877SOL    HW127530   1.063   3.492   1.502
 8877SOL    HW227531   1.121   3.634   1.558
 8878SOL     OW27532   3.988   4.677   0.612
 8878SOL    HW127533   4.026   4.595   0.568
 8878SOL    HW227534   3.918   4.650   0.677
 8879SOL     OW27535   6.398   4.779   2.676
 8879SOL    HW127536   6.432   4.837   2.750
 8879SOL    HW227537   6.318   4.728   2.707
 8880SOL     OW27538   4.327   6.622   3.558
 8880SOL    HW127539   4.395   6.687   3.593
 8880SOL    HW227540   4.235   6.660   3.572
 8881SOL     OW27541   4.362   5.436   4.054
 8881SOL    HW127542   4.426   5.408   3.983
 8881SOL    HW227543   4.299   5.504   4.016
 8882SOL     OW27544   4.001   1.029   0.412
 8882SOL    HW127545   4.080   1.077   0.448
 8882SOL    HW227546   3.968   0.964   0.480
 8883SOL     OW27547   0.105   6.459   6.369
 8883SOL    HW127548   0.093   6.361   6.360
 8883SOL    HW227549   0.071   6.489   6.458
 8884SOL     OW27550   5.750   4.005   4.695
 8884SOL    HW127551   5.659   4.043   4.711
 8884SOL    HW227552   5.778   3.950   4.774
 8885SOL     OW27553   5.606   5.491   7.007
 8885SOL    HW127554   5.699   5.527   7.003
 8885SOL    HW227555   5.596   5.432   0.064
 8886SOL     OW27556   3.673   5.292   6.812
 8886SOL    HW127557   3.738   5.351   6.764
 8886SOL    HW227558   3.645   5.217   6.751
 8887SOL     OW27559   4.446   0.150   0.440
 8887SOL    HW127560   4.376   0.219   0.459
 8887SOL    HW227561   4.509   0.146   0.517
 8888SOL     OW27562   2.297   1.532   3.834
 8888SOL    HW127563   2.320   1.454   3.892
 8888SOL    HW227564   2.376   1.592   3.825
 8889SOL     OW27565   6.787   6.606   6.077
 8889SOL    HW127566   6.787   6.652   6.166
 8889SOL    HW227567   6.731   6.523   6.083
 8890SOL     OW27568   0.002   6.546   0.321
 8890SOL    HW127569   0.017   6.612   0.248
 8890SOL    HW227570   6.942   6.494   0.302
 8891SOL     OW27571   5.437   4.490   6.591
 8891SOL    HW127572   5.401   4.438   6.668
 8891SOL    HW227573   5.524   4.532   6.617
 8892SOL     OW27574   3.345   4.978   3.653
 8892SOL    HW127575   3.333   4.964   3.555
 8892SOL    HW227576   3.322   5.072   3.676
 8893SOL     OW27577   1.696   5.054   4.764
 8893SOL    HW127578   1.643   5.088   4.842
 8893SOL    HW227579   1.635   5.019   4.694
 8894SOL     OW27580   4.648   2.380   0.680
 8894SOL    HW127581   4.685   2.296   0.719
 8894SOL    HW227582   4.548   2.375   0.677
 8895SOL     OW27583   0.745   3.304   0.796
 8895SOL    HW127584   0.788   3.303   0.886
 8895SOL    HW227585   0.701   3.216   0.779
 8896SOL     OW27586   0.570   2.349   4.539
 8896SOL    HW127587   0.578   2.251   4.523
 8896SOL    HW227588   0.614   2.399   4.464
 8897SOL     OW27589   1.516   3.857   3.639
 8897SOL    HW127590   1.453   3.832   3.565
 8897SOL    HW227591   1.599   3.896   3.600
 8898SOL     OW27592   4.926   3.573   2.822
 8898SOL    HW127593   4.901   3.477   2.810
 8898SOL    HW227594   4.945   3.614   2.733
 8899SOL     OW27595   7.000   4.524   6.450
 8899SOL    HW127596   6.922   4.585   6.467
 8899SOL    HW227597   6.983   4.436   6.493
 8900SOL     OW27598   5.790   1.834   3.555
 8900SOL    HW127599   5.885   1.808   3.569
 8900SOL    HW227600   5.786   1.925   3.514
 8901SOL     OW27601   0.589   2.157   3.570
 8901SOL    HW127602   0.685   2.129   3.571
 8901SOL    HW227603   0.583   2.251   3.535
 8902SOL     OW27604   1.455   4.598   0.245
 8902SOL    HW127605   1.552   4.576   0.251
 8902SOL    HW227606   1.444   4.692   0.213
 8903SOL     OW27607   1.933   1.561   4.703
 8903SOL    HW127608   1.927   1.494   4.777
 8903SOL    HW227609   1.847   1.612   4.697
 8904SOL     OW27610   0.516   1.193   2.379
 8904SOL    HW127611   0.555   1.221   2.467
 8904SOL    HW227612   0.561   1.243   2.305
 8905SOL     OW27613   1.681   3.408   2.459
 8905SOL    HW127614   1.703   3.311   2.472
 8905SOL    HW227615   1.765   3.462   2.467
 8906SOL     OW27616   0.480   6.881   0.873
 8906SOL    HW127617   0.542   6.808   0.900
 8906SOL    HW227618   0.398   6.842   0.832
 8907SOL     OW27619   3.426   2.551   5.357
 8907SOL    HW127620   3.355   2.499   5.308
 8907SOL    HW227621   3.396   2.645   5.369
 8908SOL     OW27622   1.281   5.072   0.678
 8908SOL    HW127623   1.200   5.122   0.647
 8908SOL    HW227624   1.316   5.113   0.762
 8909SOL     OW27625   2.552   1.439   6.494
 8909SOL    HW127626   2.556   1.514   6.560
 8909SOL    HW227627   2.529   1.354   6.542
 8910SOL     OW27628   0.874   2.414   5.238
 8910SOL    HW127629   0.911   2.474   5.167
 8910SOL    HW227630   0.911   2.441   5.327
 8911SOL     OW27631   5.333   1.951   4.081
 8911SOL    HW127632   5.398   2.011   4.034
 8911SOL    HW227633   5.276   1.904   4.014
 8912SOL     OW27634   3.723   3.827   5.296
 8912SOL    HW127635   3.693   3.836   5.201
 8912SOL    HW227636   3.786   3.750   5.304
 8913SOL     OW27637   5.278   5.137   0.005
 8913SOL    HW127638   5.319   5.059   0.052
 8913SOL    HW227639   5.349   5.187   6.980
 8914SOL     OW27640   5.267   6.448   4.685
 8914SOL    HW127641   5.354   6.400   4.672
 8914SOL    HW227642   5.283   6.536   4.729
 8915SOL     OW27643   1.106   1.259   4.082
 8915SOL    HW127644   1.036   1.308   4.135
 8915SOL    HW227645   1.101   1.161   4.103
 8916SOL     OW27646   5.760   1.627   6.295
 8916SOL    HW127647   5.840   1.642   6.236
 8916SOL    HW227648   5.767   1.686   6.376
 8917SOL     OW27649   6.301   1.836   0.461
 8917SOL    HW127650   6.215   1.879   0.489
 8917SOL    HW227651   6.376   1.901   0.471
 8918SOL     OW27652   1.616   5.652   1.260
 8918SOL    HW127653   1.612   5.577   1.326
 8918SOL    HW227654   1.711   5.683   1.250
 8919SOL     OW27655   5.433   4.246   6.412
 8919SOL    HW127656   5.528   4.219   6.430
 8919SOL    HW227657   5.406   4.318   6.475
 8920SOL     OW27658   0.100   1.051   6.436
 8920SOL    HW127659   0.175   1.021   6.496
 8920SOL    HW227660   0.068   0.974   6.381
 8921SOL     OW27661   1.070   2.933   1.040
 8921SOL    HW127662   1.026   2.851   1.076
 8921SOL    HW227663   1.090   2.997   1.114
 8922SOL     OW27664   3.487   6.466   3.292
 8922SOL    HW127665   3.525   6.495   3.380
 8922SOL    HW227666   3.388   6.451   3.302
 8923SOL     OW27667   1.470   1.963   5.659
 8923SOL    HW127668   1.548   1.903   5.641
 8923SOL    HW227669   1.400   1.913   5.709
 8924SOL     OW27670   5.563   5.374   4.540
 8924SOL    HW127671   5.535   5.349   4.447
 8924SOL    HW227672   5.657   5.406   4.539
 8925SOL     OW27673   1.045   0.989   2.940
 8925SOL    HW127674   1.020   0.989   2.843
 8925SOL    HW227675   1.107   0.913   2.958
 8926SOL     OW27676   5.964   3.615   5.775
 8926SOL    HW127677   5.995   3.657   5.690
 8926SOL    HW227678   6.038   3.559   5.813
 8927SOL     OW27679   6.452   2.455   5.656
 8927SOL    HW127680   6.382   2.436   5.588
 8927SOL    HW227681   6.539   2.472   5.610
 8928SOL     OW27682   2.639   0.343   5.364
 8928SOL    HW127683   2.556   0.368   5.315
 8928SOL    HW227684   2.615   0.287   5.444
 8929SOL     OW27685   6.365   2.613   4.984
 8929SOL    HW127686   6.345   2.699   5.032
 8929SOL    HW227687   6.280   2.564   4.967
 8930SOL     OW27688   1.054   3.869   2.943
 8930SOL    HW127689   1.140   3.919   2.956
 8930SOL    HW227690   1.062   3.809   2.864
 8931SOL     OW27691   3.440   2.855   1.617
 8931SOL    HW127692   3.513   2.815   1.674
 8931SOL    HW227693   3.351   2.834   1.658
 8932SOL     OW27694   0.503   1.842   3.164
 8932SOL    HW127695   0.520   1.806   3.255
 8932SOL    HW227696   0.566   1.918   3.146
 8933SOL     OW27697   3.542   2.687   6.867
 8933SOL    HW127698   3.594   2.618   6.917
 8933SOL    HW227699   3.586   2.776   6.878
 8934SOL     OW27700   3.711   5.656   3.981
 8934SOL    HW127701   3.737   5.618   3.892
 8934SOL    HW227702   3.612   5.647   3.993
 8935SOL     OW27703   0.029   5.566   1.054
 8935SOL    HW127704   0.110   5.607   1.012
 8935SOL    HW227705   6.971   5.590   1.000
 8936SOL     OW27706   1.836   3.393   0.517
 8936SOL    HW127707   1.824   3.338   0.600
 8936SOL    HW227708   1.747   3.420   0.482
 8937SOL     OW27709   0.349   6.657   5.053
 8937SOL    HW127710   0.255   6.626   5.063
 8937SOL    HW227711   0.393   6.608   4.978
 8938SOL     OW27712   6.914   5.193   1.510
 8938SOL    HW127713   6.899   5.095   1.523
 8938SOL    HW227714   6.978   5.226   1.579
 8939SOL     OW27715   5.180   2.252   4.618
 8939SOL    HW127716   5.202   2.327   4.680
 8939SOL    HW227717   5.188   2.165   4.666
 8940SOL     OW27718   7.010   0.721   4.182
 8940SOL    HW127719   6.911   0.710   4.187
 8940SOL    HW227720   0.013   0.805   4.229
 8941SOL     OW27721   5.751   2.239   5.634
 8941SOL    HW127722   5.745   2.140   5.645
 8941SOL    HW227723   5.845   2.264   5.610
 8942SOL     OW27724   6.873   3.112   5.561
 8942SOL    HW127725   6.843   3.069   5.476
 8942SOL    HW227726   6.965   3.081   5.584
 8943SOL     OW27727   5.349   4.222   0.617
 8943SOL    HW127728   5.319   4.231   0.712
 8943SOL    HW227729   5.298   4.287   0.560
 8944SOL     OW27730   5.227   5.541   5.942
 8944SOL    HW127731   5.290   5.505   6.010
 8944SOL    HW227732   5.139   5.494   5.949
 8945SOL     OW27733   2.156   0.502   4.404
 8945SOL    HW127734   2.154   0.403   4.417
 8945SOL    HW227735   2.066   0.534   4.372
 8946SOL     OW27736   3.255   2.006   5.098
 8946SOL    HW127737   3.222   1.980   5.007
 8946SOL    HW227738   3.245   2.105   5.111
 8947SOL     OW27739   2.000   3.533   5.470
 8947SOL    HW127740   1.938   3.463   5.504
 8947SOL    HW227741   2.071   3.491   5.414
 8948SOL     OW27742   5.708   5.377   3.566
 8948SOL    HW127743   5.741   5.455   3.620
 8948SOL    HW227744   5.615   5.397   3.534
 8949SOL     OW27745   2.128   0.032   6.751
 8949SOL    HW127746   2.215   0.065   6.714
 8949SOL    HW227747   2.063   0.019   6.676
 8950SOL     OW27748   4.713   3.017   5.828
 8950SOL    HW127749   4.706   2.922   5.798
 8950SOL    HW227750   4.772   3.068   5.766
 8951SOL     OW27751   1.530   2.430   5.488
 8951SOL    HW127752   1.445   2.435   5.435
 8951SOL    HW227753   1.530   2.346   5.542
 8952SOL     OW27754   1.151   1.313   2.356
 8952SOL    HW127755   1.092   1.260   2.294
 8952SOL    HW227756   1.141   1.410   2.336
 8953SOL     OW27757   1.436   3.776   0.126
 8953SOL    HW127758   1.512   3.810   0.180
 8953SOL    HW227759   1.370   3.730   0.186
 8954SOL     OW27760   6.994   5.973   5.503
 8954SOL    HW127761   6.923   5.993   5.436
 8954SOL    HW227762   0.027   6.055   5.516
 8955SOL     OW27763   6.846   4.144   3.194
 8955SOL    HW127764   6.784   4.104   3.261
 8955SOL    HW227765   6.936   4.100   3.201
 8956SOL     OW27766   0.242   1.027   6.740
 8956SOL    HW127767   0.175   1.097   6.766
 8956SOL    HW227768   0.237   0.951   6.805
 8957SOL     OW27769   3.181   4.882   1.693
 8957SOL    HW127770   3.161   4.901   1.789
 8957SOL    HW227771   3.161   4.786   1.673
 8958SOL     OW27772   0.707   6.994   4.238
 8958SOL    HW127773   0.678   7.014   4.144
 8958SOL    HW227774   0.807   7.001   4.244
 8959SOL     OW27775   1.281   4.747   1.138
 8959SOL    HW127776   1.189   4.785   1.150
 8959SOL    HW227777   1.348   4.821   1.142
 8960SOL     OW27778   4.415   5.448   2.833
 8960SOL    HW127779   4.372   5.538   2.823
 8960SOL    HW227780   4.396   5.394   2.751
 8961SOL     OW27781   1.603   2.021   4.215
 8961SOL    HW127782   1.620   2.118   4.226
 8961SOL    HW227783   1.631   1.972   4.298
 8962SOL     OW27784   5.957   6.629   2.576
 8962SOL    HW127785   5.948   6.683   2.660
 8962SOL    HW227786   5.895   6.551   2.580
 8963SOL     OW27787   4.659   6.562   3.768
 8963SOL    HW127788   4.598   6.639   3.788
 8963SOL    HW227789   4.730   6.592   3.705
 8964SOL     OW27790   5.722   4.610   2.499
 8964SOL    HW127791   5.672   4.689   2.462
 8964SOL    HW227792   5.751   4.551   2.423
 8965SOL     OW27793   1.587   4.895   1.248
 8965SOL    HW127794   1.635   4.983   1.248
 8965SOL    HW227795   1.570   4.866   1.342
 8966SOL     OW27796   1.807   3.002   5.738
 8966SOL    HW127797   1.906   2.991   5.725
 8966SOL    HW227798   1.779   2.956   5.822
 8967SOL     OW27799   3.452   6.648   1.817
 8967SOL    HW127800   3.415   6.596   1.741
 8967SOL    HW227801   3.408   6.619   1.902
 8968SOL     OW27802   4.890   5.272   2.831
 8968SOL    HW127803   4.820   5.344   2.832
 8968SOL    HW227804   4.980   5.313   2.816
 8969SOL     OW27805   5.941   0.950   3.503
 8969SOL    HW127806   6.028   0.914   3.537
 8969SOL    HW227807   5.952   0.981   3.409
 8970SOL     OW27808   3.005   2.714   1.173
 8970SOL    HW127809   3.096   2.727   1.135
 8970SOL    HW227810   3.006   2.738   1.270
 8971SOL     OW27811   3.536   6.149   2.490
 8971SOL    HW127812   3.493   6.066   2.526
 8971SOL    HW227813   3.524   6.224   2.555
 8972SOL     OW27814   4.996   6.148   0.107
 8972SOL    HW127815   4.926   6.192   0.049
 8972SOL    HW227816   5.078   6.205   0.108
 8973SOL     OW27817   0.974   4.100   1.942
 8973SOL    HW127818   1.064   4.121   1.902
 8973SOL    HW227819   0.964   4.001   1.952
 8974SOL     OW27820   0.708   4.555   6.348
 8974SOL    HW127821   0.666   4.538   6.259
 8974SOL    HW227822   0.738   4.469   6.388
 8975SOL     OW27823   2.572   0.876   0.087
 8975SOL    HW127824   2.484   0.844   0.054
 8975SOL    HW227825   2.607   0.813   0.157
 8976SOL     OW27826   1.285   5.341   4.964
 8976SOL    HW127827   1.304   5.314   4.869
 8976SOL    HW227828   1.351   5.297   5.025
 8977SOL     OW27829   6.478   1.489   6.500
 8977SOL    HW127830   6.560   1.434   6.487
 8977SOL    HW227831   6.461   1.500   6.598
 8978SOL     OW27832   6.135   6.059   6.773
 8978SOL    HW127833   6.106   6.016   6.688
 8978SOL    HW227834   6.082   6.143   6.788
 8979SOL     OW27835   1.570   3.637   4.627
 8979SOL    HW127836   1.512   3.655   4.707
 8979SOL    HW227837   1.666   3.650   4.652
 8980SOL     OW27838   2.725   3.568   5.510
 8980SOL    HW127839   2.804   3.562   5.572
 8980SOL    HW227840   2.680   3.657   5.523
 8981SOL     OW27841   4.152   1.639   4.836
 8981SOL    HW127842   4.190   1.708   4.898
 8981SOL    HW227843   4.226   1.603   4.779
 8982SOL     OW27844   2.216   3.139   0.425
 8982SOL    HW127845   2.226   3.112   0.329
 8982SOL    HW227846   2.138   3.200   0.435
 8983SOL     OW27847   3.118   6.165   6.575
 8983SOL    HW127848   3.153   6.083   6.621
 8983SOL    HW227849   3.099   6.235   6.644
 8984SOL     OW27850   1.822   6.694   2.855
 8984SOL    HW127851   1.724   6.680   2.868
 8984SOL    HW227852   1.872   6.643   2.926
 8985SOL     OW27853   3.657   2.278   0.363
 8985SOL    HW127854   3.748   2.316   0.382
 8985SOL    HW227855   3.598   2.293   0.442
 8986SOL     OW27856   3.633   4.891   3.013
 8986SOL    HW127857   3.621   4.983   3.051
 8986SOL    HW227858   3.729   4.878   2.987
 8987SOL     OW27859   4.071   6.181   3.284
 8987SOL    HW127860   4.166   6.164   3.312
 8987SOL    HW227861   4.070   6.254   3.215
 8988SOL     OW27862   0.595   5.325   3.947
 8988SOL    HW127863   0.629   5.377   4.025
 8988SOL    HW227864   0.608   5.227   3.964
 8989SOL     OW27865   4.249   3.216   6.705
 8989SOL    HW127866   4.191   3.290   6.673
 8989SOL    HW227867   4.237   3.136   6.646
 8990SOL     OW27868   0.503   4.777   4.003
 8990SOL    HW127869   0.437   4.717   4.048
 8990SOL    HW227870   0.595   4.743   4.021
 8991SOL     OW27871   1.055   3.365   4.643
 8991SOL    HW127872   1.050   3.407   4.733
 8991SOL    HW227873   0.963   3.338   4.614
 8992SOL     OW27874   5.068   1.429   1.028
 8992SOL    HW127875   5.014   1.361   0.978
 8992SOL    HW227876   5.152   1.388   1.061
 8993SOL     OW27877   3.697   3.084   0.211
 8993SOL    HW127878   3.733   3.155   0.149
 8993SOL    HW227879   3.614   3.045   0.172
 8994SOL     OW27880   1.612   4.654   4.609
 8994SOL    HW127881   1.677   4.691   4.542
 8994SOL    HW227882   1.635   4.559   4.628
 8995SOL     OW27883   6.901   2.021   0.291
 8995SOL    HW127884   6.931   2.021   0.386
 8995SOL    HW227885   6.895   2.116   0.259
 8996SOL     OW27886   5.464   3.905   6.522
 8996SOL    HW127887   5.428   3.826   6.471
 8996SOL    HW227888   5.389   3.966   6.546
 8997SOL     OW27889   4.781   0.842   5.853
 8997SOL    HW127890   4.690   0.881   5.841
 8997SOL    HW227891   4.788   0.804   5.945
 8998SOL     OW27892   6.015   3.228   4.402
 8998SOL    HW127893   5.970   3.260   4.486
 8998SOL    HW227894   5.953   3.167   4.352
 8999SOL     OW27895   5.134   6.521   6.261
 8999SOL    HW127896   5.171   6.574   6.336
 8999SOL    HW227897   5.121   6.426   6.290
 9000SOL     OW27898   1.877   3.107   2.245
 9000SOL    HW127899   1.818   3.104   2.326
 9000SOL    HW227900   1.879   3.017   2.201
 9001SOL     OW27901   0.550   5.423   1.734
 9001SOL    HW127902   0.616   5.348   1.730
 9001SOL    HW227903   0.497   5.425   1.649
 9002SOL     OW27904   1.624   4.346   5.240
 9002SOL    HW127905   1.553   4.401   5.283
 9002SOL    HW227906   1.698   4.405   5.208
 9003SOL     OW27907   5.149   3.482   1.362
 9003SOL    HW127908   5.143   3.384   1.382
 9003SOL    HW227909   5.213   3.525   1.426
 9004SOL     OW27910   4.586   5.047   0.959
 9004SOL    HW127911   4.540   4.966   0.922
 9004SOL    HW227912   4.590   5.041   1.059
 9005SOL     OW27913   6.202   1.752   5.598
 9005SOL    HW127914   6.126   1.738   5.535
 9005SOL    HW227915   6.200   1.680   5.668
 9006SOL     OW27916   3.152   6.517   1.033
 9006SOL    HW127917   3.088   6.442   1.051
 9006SOL    HW227918   3.157   6.577   1.114
 9007SOL     OW27919   2.789   1.387   2.214
 9007SOL    HW127920   2.790   1.483   2.188
 9007SOL    HW227921   2.861   1.371   2.282
 9008SOL     OW27922   6.727   5.182   2.811
 9008SOL    HW127923   6.793   5.111   2.838
 9008SOL    HW227924   6.714   5.179   2.712
 9009SOL     OW27925   3.469   5.421   0.813
 9009SOL    HW127926   3.458   5.403   0.911
 9009SOL    HW227927   3.563   5.399   0.786
 9010SOL     OW27928   2.276   6.232   4.255
 9010SOL    HW127929   2.209   6.304   4.274
 9010SOL    HW227930   2.368   6.269   4.265
 9011SOL     OW27931   4.055   0.764   1.388
 9011SOL    HW127932   4.121   0.689   1.386
 9011SOL    HW227933   4.046   0.798   1.482
 9012SOL     OW27934   2.375   5.550   0.246
 9012SOL    HW127935   2.342   5.625   0.303
 9012SOL    HW227936   2.464   5.574   0.208
 9013SOL     OW27937   0.995   0.600   5.593
 9013SOL    HW127938   1.026   0.688   5.629
 9013SOL    HW227939   1.051   0.573   5.515
 9014SOL     OW27940   6.378   2.548   0.839
 9014SOL    HW127941   6.463   2.536   0.889
 9014SOL    HW227942   6.372   2.480   0.766
 9015SOL     OW27943   4.836   2.160   1.619
 9015SOL    HW127944   4.761   2.129   1.677
 9015SOL    HW227945   4.809   2.152   1.523
 9016SOL     OW27946   5.549   5.456   6.556
 9016SOL    HW127947   5.565   5.526   6.626
 9016SOL    HW227948   5.559   5.365   6.597
 9017SOL     OW27949   4.506   1.278   3.996
 9017SOL    HW127950   4.490   1.195   4.049
 9017SOL    HW227951   4.501   1.358   4.056
 9018SOL     OW27952   2.564   3.970   5.897
 9018SOL    HW127953   2.653   3.944   5.858
 9018SOL    HW227954   2.562   4.068   5.912
 9019SOL     OW27955   0.815   4.489   2.864
 9019SOL    HW127956   0.772   4.463   2.777
 9019SOL    HW227957   0.751   4.473   2.939
 9020SOL     OW27958   6.995   4.461   1.083
 9020SOL    HW127959   6.933   4.517   1.027
 9020SOL    HW227960   0.012   4.390   1.025
 9021SOL     OW27961   6.610   0.873   3.221
 9021SOL    HW127962   6.551   0.917   3.154
 9021SOL    HW227963   6.558   0.803   3.270
 9022SOL     OW27964   3.650   1.306   0.050
 9022SOL    HW127965   3.692   1.371   0.113
 9022SOL    HW227966   3.554   1.329   0.036
 9023SOL     OW27967   4.263   3.469   1.612
 9023SOL    HW127968   4.179   3.483   1.664
 9023SOL    HW227969   4.318   3.552   1.614
 9024SOL     OW27970   1.230   4.570   5.483
 9024SOL    HW127971   1.329   4.569   5.481
 9024SOL    HW227972   1.196   4.630   5.411
 9025SOL     OW27973   6.811   5.649   0.966
 9025SOL    HW127974   6.774   5.737   0.934
 9025SOL    HW227975   6.753   5.575   0.933
 9026SOL     OW27976   3.479   2.284   0.586
 9026SOL    HW127977   3.443   2.371   0.622
 9026SOL    HW227978   3.501   2.223   0.662
 9027SOL     OW27979   0.556   3.410   3.061
 9027SOL    HW127980   0.582   3.495   3.107
 9027SOL    HW227981   0.460   3.416   3.031
 9028SOL     OW27982   3.771   3.214   5.337
 9028SOL    HW127983   3.793   3.174   5.426
 9028SOL    HW227984   3.672   3.214   5.324
 9029SOL     OW27985   4.206   6.946   4.917
 9029SOL    HW127986   4.305   6.940   4.926
 9029SOL    HW227987   4.166   6.855   4.929
 9030SOL     OW27988   2.201   2.087   4.126
 9030SOL    HW127989   2.214   2.024   4.203
 9030SOL    HW227990   2.286   2.097   4.075
 9031SOL     OW27991   4.128   6.877   4.433
 9031SOL    HW127992   4.030   6.865   4.447
 9031SOL    HW227993   4.176   6.861   4.519
 9032SOL     OW27994   4.735   3.745   1.087
 9032SOL    HW127995   4.660   3.759   1.152
 9032SOL    HW227996   4.750   3.828   1.035
 9033SOL     OW27997   0.303   4.806   2.511
 9033SOL    HW127998   0.216   4.850   2.487
 9033SOL    HW227999   0.291   4.754   2.595
 9034SOL     OW28000   3.590   5.989   4.558
 9034SOL    HW128001   3.550   5.961   4.645
 9034SOL    HW228002   3.622   6.083   4.564
 9035SOL     OW28003   2.365   5.885   7.012
 9035SOL    HW128004   2.273   5.915   0.014
 9035SOL    HW228005   2.387   5.800   0.036
 9036SOL     OW28006   1.710   3.961   5.433
 9036SOL    HW128007   1.737   4.057   5.434
 9036SOL    HW228008   1.785   3.905   5.397
 9037SOL     OW28009   1.073   3.203   3.986
 9037SOL    HW128010   0.998   3.137   3.981
 9037SOL    HW228011   1.115   3.199   4.076
 9038SOL     OW28012   4.750   2.878   6.926
 9038SOL    HW128013   4.775   2.966   6.885
 9038SOL    HW228014   4.735   2.811   6.853
 9039SOL     OW28015   3.248   4.848   6.645
 9039SOL    HW128016   3.317   4.776   6.651
 9039SOL    HW228017   3.194   4.835   6.562
 9040SOL     OW28018   2.538   2.234   2.266
 9040SOL    HW128019   2.581   2.261   2.180
 9040SOL    HW228020   2.596   2.262   2.343
 9041SOL     OW28021   1.541   2.429   1.047
 9041SOL    HW128022   1.517   2.366   0.973
 9041SOL    HW228023   1.494   2.401   1.131
 9042SOL     OW28024   3.647   0.021   4.666
 9042SOL    HW128025   3.712   0.015   4.742
 9042SOL    HW228026   3.664   0.105   4.615
 9043SOL     OW28027   2.279   1.473   6.358
 9043SOL    HW128028   2.225   1.499   6.438
 9043SOL    HW228029   2.367   1.436   6.388
 9044SOL     OW28030   0.257   1.306   0.042
 9044SOL    HW128031   0.210   1.375   0.098
 9044SOL    HW228032   0.227   1.215   0.070
 9045SOL     OW28033   3.737   0.377   3.155
 9045SOL    HW128034   3.724   0.376   3.056
 9045SOL    HW228035   3.678   0.447   3.196
 9046SOL     OW28036   4.021   3.836   2.610
 9046SOL    HW128037   4.064   3.808   2.524
 9046SOL    HW228038   4.077   3.804   2.687
 9047SOL     OW28039   1.006   3.794   4.861
 9047SOL    HW128040   0.924   3.839   4.827
 9047SOL    HW228041   1.087   3.840   4.823
 9048SOL     OW28042   6.127   2.333   6.388
 9048SOL    HW128043   6.113   2.356   6.484
 9048SOL    HW228044   6.133   2.417   6.334
 9049SOL     OW28045   4.007   6.542   5.607
 9049SOL    HW128046   3.918   6.574   5.640
 9049SOL    HW228047   3.995   6.460   5.551
 9050SOL     OW28048   0.328   3.265   1.330
 9050SOL    HW128049   0.257   3.202   1.299
 9050SOL    HW228050   0.346   3.333   1.258
 9051SOL     OW28051   2.392   0.108   1.918
 9051SOL    HW128052   2.300   0.099   1.880
 9051SOL    HW228053   2.429   0.198   1.895
 9052SOL     OW28054   2.063   3.320   4.039
 9052SOL    HW128055   2.069   3.220   4.039
 9052SOL    HW228056   1.967   3.347   4.041
 9053SOL     OW28057   1.580   1.524   0.844
 9053SOL    HW128058   1.637   1.521   0.762
 9053SOL    HW228059   1.636   1.542   0.924
 9054SOL     OW28060   2.153   6.023   4.557
 9054SOL    HW128061   2.192   5.935   4.529
 9054SOL    HW228062   2.089   6.055   4.487
 9055SOL     OW28063   6.265   3.163   4.565
 9055SOL    HW128064   6.185   3.118   4.604
 9055SOL    HW228065   6.250   3.180   4.467
 9056SOL     OW28066   6.549   1.757   2.108
 9056SOL    HW128067   6.558   1.722   2.201
 9056SOL    HW228068   6.637   1.752   2.061
 9057SOL     OW28069   4.751   2.436   4.822
 9057SOL    HW128070   4.655   2.448   4.845
 9057SOL    HW228071   4.759   2.393   4.732
 9058SOL     OW28072   1.345   0.401   0.833
 9058SOL    HW128073   1.379   0.436   0.920
 9058SOL    HW228074   1.390   0.448   0.757
 9059SOL     OW28075   1.247   2.391   3.022
 9059SOL    HW128076   1.177   2.444   2.976
 9059SOL    HW228077   1.213   2.298   3.040
 9060SOL     OW28078   5.930   2.833   4.322
 9060SOL    HW128079   5.877   2.754   4.352
 9060SOL    HW228080   5.872   2.914   4.322
 9061SOL     OW28081   3.360   5.193   2.643
 9061SOL    HW128082   3.385   5.265   2.709
 9061SOL    HW228083   3.428   5.191   2.570
 9062SOL     OW28084   1.297   5.837   1.709
 9062SOL    HW128085   1.234   5.801   1.640
 9062SOL    HW228086   1.249   5.847   1.796
 9063SOL     OW28087   2.176   0.631   3.681
 9063SOL    HW128088   2.196   0.655   3.776
 9063SOL    HW228089   2.255   0.654   3.624
 9064SOL     OW28090   6.618   3.731   6.209
 9064SOL    HW128091   6.569   3.796   6.152
 9064SOL    HW228092   6.689   3.686   6.155
 9065SOL     OW28093   3.808   6.792   0.301
 9065SOL    HW128094   3.831   6.706   0.254
 9065SOL    HW228095   3.715   6.786   0.336
 9066SOL     OW28096   5.226   0.172   0.671
 9066SOL    HW128097   5.153   0.112   0.639
 9066SOL    HW228098   5.195   0.267   0.664
 9067SOL     OW28099   1.731   0.282   3.560
 9067SOL    HW128100   1.782   0.316   3.481
 9067SOL    HW228101   1.711   0.359   3.621
 9068SOL     OW28102   0.864   6.909   4.641
 9068SOL    HW128103   0.889   6.848   4.566
 9068SOL    HW228104   0.765   6.925   4.640
 9069SOL     OW28105   1.122   3.103   6.701
 9069SOL    HW128106   1.083   3.193   6.722
 9069SOL    HW228107   1.131   3.094   6.601
 9070SOL     OW28108   2.201   3.938   4.737
 9070SOL    HW128109   2.167   3.847   4.715
 9070SOL    HW228110   2.255   3.935   4.821
 9071SOL     OW28111   6.442   5.995   1.015
 9071SOL    HW128112   6.346   6.022   1.000
 9071SOL    HW228113   6.477   6.043   1.095
 9072SOL     OW28114   6.605   3.370   0.869
 9072SOL    HW128115   6.696   3.383   0.909
 9072SOL    HW228116   6.578   3.452   0.819
 9073SOL     OW28117   1.727   0.157   1.840
 9073SOL    HW128118   1.710   0.200   1.751
 9073SOL    HW228119   1.740   0.058   1.827
 9074SOL     OW28120   1.558   0.641   2.589
 9074SOL    HW128121   1.557   0.543   2.569
 9074SOL    HW228122   1.504   0.658   2.672
 9075SOL     OW28123   6.515   0.594   2.199
 9075SOL    HW128124   6.453   0.670   2.218
 9075SOL    HW228125   6.474   0.509   2.230
 9076SOL     OW28126   0.464   1.084   6.274
 9076SOL    HW128127   0.394   1.042   6.216
 9076SOL    HW228128   0.421   1.154   6.331
 9077SOL     OW28129   4.479   6.413   2.278
 9077SOL    HW128130   4.456   6.501   2.320
 9077SOL    HW228131   4.395   6.365   2.253
 9078SOL     OW28132   3.922   3.439   5.053
 9078SOL    HW128133   4.006   3.481   5.088
 9078SOL    HW228134   3.939   3.343   5.034
 9079SOL     OW28135   3.219   0.348   4.317
 9079SOL    HW128136   3.298   0.380   4.265
 9079SOL    HW228137   3.172   0.426   4.359
 9080SOL     OW28138   5.252   2.265   6.851
 9080SOL    HW128139   5.156   2.264   6.824
 9080SOL    HW228140   5.267   2.333   6.923
 9081SOL     OW28141   5.497   6.401   2.952
 9081SOL    HW128142   5.502   6.477   2.887
 9081SOL    HW228143   5.444   6.429   3.032
 9082SOL     OW28144   2.180   0.246   3.503
 9082SOL    HW128145   2.149   0.204   3.588
 9082SOL    HW228146   2.210   0.175   3.439
 9083SOL     OW28147   4.824   4.781   5.571
 9083SOL    HW128148   4.815   4.714   5.498
 9083SOL    HW228149   4.755   4.852   5.560
 9084SOL     OW28150   3.175   3.655   3.052
 9084SOL    HW128151   3.267   3.665   3.015
 9084SOL    HW228152   3.139   3.565   3.027
 9085SOL     OW28153   2.238   1.070   0.896
 9085SOL    HW128154   2.232   0.979   0.855
 9085SOL    HW228155   2.281   1.133   0.832
 9086SOL     OW28156   0.985   3.986   0.552
 9086SOL    HW128157   0.916   4.032   0.496
 9086SOL    HW228158   1.039   4.054   0.601
 9087SOL     OW28159   4.919   2.983   2.580
 9087SOL    HW128160   4.940   2.914   2.510
 9087SOL    HW228161   4.978   3.063   2.566
 9088SOL     OW28162   6.145   0.262   0.189
 9088SOL    HW128163   6.119   0.261   0.285
 9088SOL    HW228164   6.193   0.348   0.169
 9089SOL     OW28165   4.928   6.343   5.838
 9089SOL    HW128166   4.926   6.393   5.925
 9089SOL    HW228167   5.004   6.279   5.838
 9090SOL     OW28168   6.123   0.539   4.774
 9090SOL    HW128169   6.073   0.617   4.811
 9090SOL    HW228170   6.203   0.521   4.831
 9091SOL     OW28171   2.964   4.161   6.581
 9091SOL    HW128172   2.890   4.181   6.645
 9091SOL    HW228173   2.928   4.163   6.487
 9092SOL     OW28174   6.887   1.868   6.953
 9092SOL    HW128175   6.863   1.940   7.017
 9092SOL    HW228176   6.986   1.868   6.938
 9093SOL     OW28177   1.458   6.282   5.438
 9093SOL    HW128178   1.442   6.184   5.427
 9093SOL    HW228179   1.380   6.324   5.485
 9094SOL     OW28180   0.598   3.200   2.667
 9094SOL    HW128181   0.604   3.253   2.583
 9094SOL    HW228182   0.504   3.199   2.700
 9095SOL     OW28183   4.556   5.060   5.725
 9095SOL    HW128184   4.585   4.973   5.687
 9095SOL    HW228185   4.635   5.108   5.763
 9096SOL     OW28186   6.689   5.354   3.292
 9096SOL    HW128187   6.784   5.368   3.319
 9096SOL    HW228188   6.682   5.354   3.192
 9097SOL     OW28189   0.568   2.543   6.195
 9097SOL    HW128190   0.641   2.517   6.258
 9097SOL    HW228191   0.555   2.470   6.128
 9098SOL     OW28192   2.247   2.175   5.073
 9098SOL    HW128193   2.229   2.081   5.047
 9098SOL    HW228194   2.238   2.184   5.173
 9099SOL     OW28195   2.085   2.995   5.745
 9099SOL    HW128196   2.084   2.930   5.821
 9099SOL    HW228197   2.167   2.982   5.690
 9100SOL     OW28198   1.423   4.066   2.137
 9100SOL    HW128199   1.334   4.023   2.148
 9100SOL    HW228200   1.413   4.165   2.144
 9101SOL     OW28201   3.038   1.155   2.000
 9101SOL    HW128202   2.940   1.164   1.984
 9101SOL    HW228203   3.061   1.192   2.090
 9102SOL     OW28204   4.812   6.366   2.667
 9102SOL    HW128205   4.908   6.391   2.680
 9102SOL    HW228206   4.794   6.357   2.569
 9103SOL     OW28207   6.331   1.848   6.755
 9103SOL    HW128208   6.353   1.930   6.807
 9103SOL    HW228209   6.232   1.831   6.761
 9104SOL     OW28210   0.490   0.596   0.465
 9104SOL    HW128211   0.589   0.602   0.449
 9104SOL    HW228212   0.473   0.593   0.563
 9105SOL     OW28213   2.176   0.107   5.928
 9105SOL    HW128214   2.108   0.170   5.889
 9105SOL    HW228215   2.243   0.159   5.980
 9106SOL     OW28216   0.776   4.236   0.055
 9106SOL    HW128217   0.755   4.194   6.990
 9106SOL    HW228218   0.857   4.293   0.046
 9107SOL     OW28219   2.544   0.857   6.334
 9107SOL    HW128220   2.643   0.859   6.319
 9107SOL    HW228221   2.506   0.772   6.297
 9108SOL     OW28222   5.146   5.122   5.358
 9108SOL    HW128223   5.181   5.045   5.304
 9108SOL    HW228224   5.221   5.160   5.412
 9109SOL     OW28225   5.458   2.839   1.986
 9109SOL    HW128226   5.555   2.856   2.003
 9109SOL    HW228227   5.420   2.787   2.062
 9110SOL     OW28228   1.554   5.613   5.319
 9110SOL    HW128229   1.506   5.700   5.315
 9110SOL    HW228230   1.652   5.628   5.306
 9111SOL     OW28231   4.746   2.765   5.343
 9111SOL    HW128232   4.832   2.715   5.354
 9111SOL    HW228233   4.697   2.765   5.430
 9112SOL     OW28234   2.118   5.043   3.014
 9112SOL    HW128235   2.048   5.114   3.002
 9112SOL    HW228236   2.075   4.953   3.009
 9113SOL     OW28237   5.108   2.037   3.103
 9113SOL    HW128238   5.189   2.075   3.057
 9113SOL    HW228239   5.043   2.004   3.035
 9114SOL     OW28240   1.545   6.045   5.089
 9114SOL    HW128241   1.520   6.140   5.105
 9114SOL    HW228242   1.583   6.006   5.174
 9115SOL     OW28243   6.008   4.621   3.704
 9115SOL    HW128244   5.950   4.672   3.640
 9115SOL    HW228245   6.099   4.611   3.665
 9116SOL     OW28246   0.973   6.673   3.358
 9116SOL    HW128247   1.048   6.623   3.314
 9116SOL    HW228248   1.000   6.699   3.451
 9117SOL     OW28249   4.121   0.904   6.912
 9117SOL    HW128250   4.089   0.934   6.822
 9117SOL    HW228251   4.101   0.807   6.923
 9118SOL     OW28252   6.131   4.133   0.528
 9118SOL    HW128253   6.044   4.096   0.497
 9118SOL    HW228254   6.144   4.226   0.492
 9119SOL     OW28255   3.510   6.591   1.019
 9119SOL    HW128256   3.465   6.549   1.098
 9119SOL    HW228257   3.449   6.658   0.977
 9120SOL     OW28258   6.306   3.073   5.864
 9120SOL    HW128259   6.270   2.988   5.824
 9120SOL    HW228260   6.249   3.150   5.836
 9121SOL     OW28261   3.912   0.277   5.774
 9121SOL    HW128262   3.837   0.282   5.840
 9121SOL    HW228263   3.876   0.257   5.683
 9122SOL     OW28264   2.507   4.580   1.762
 9122SOL    HW128265   2.585   4.543   1.712
 9122SOL    HW228266   2.532   4.668   1.803
 9123SOL     OW28267   0.963   0.692   3.417
 9123SOL    HW128268   1.056   0.727   3.412
 9123SOL    HW228269   0.954   0.636   3.500
 9124SOL     OW28270   3.415   5.172   1.448
 9124SOL    HW128271   3.443   5.136   1.536
 9124SOL    HW228272   3.415   5.099   1.380
 9125SOL     OW28273   3.495   6.822   0.372
 9125SOL    HW128274   3.421   6.782   0.425
 9125SOL    HW228275   3.459   6.855   0.284
 9126SOL     OW28276   4.121   5.077   0.353
 9126SOL    HW128277   4.214   5.050   0.376
 9126SOL    HW228278   4.058   5.001   0.369
 9127SOL     OW28279   6.814   3.351   5.350
 9127SOL    HW128280   6.899   3.353   5.404
 9127SOL    HW228281   6.803   3.259   5.310
 9128SOL     OW28282   5.877   2.889   4.832
 9128SOL    HW128283   5.835   2.979   4.835
 9128SOL    HW228284   5.808   2.820   4.809
 9129SOL     OW28285   2.249   1.494   0.375
 9129SOL    HW128286   2.340   1.535   0.381
 9129SOL    HW228287   2.197   1.517   0.458
 9130SOL     OW28288   2.899   4.060   5.355
 9130SOL    HW128289   2.898   3.987   5.287
 9130SOL    HW228290   2.901   4.148   5.308
 9131SOL     OW28291   5.922   2.795   0.674
 9131SOL    HW128292   5.985   2.812   0.749
 9131SOL    HW228293   5.895   2.699   0.674
 9132SOL     OW28294   0.961   4.064   3.597
 9132SOL    HW128295   0.903   4.024   3.668
 9132SOL    HW228296   1.036   4.001   3.576
 9133SOL     OW28297   4.420   0.859   1.028
 9133SOL    HW128298   4.424   0.922   1.106
 9133SOL    HW228299   4.336   0.877   0.976
 9134SOL     OW28300   4.494   5.324   1.092
 9134SOL    HW128301   4.443   5.410   1.088
 9134SOL    HW228302   4.589   5.343   1.119
 9135SOL     OW28303   0.976   6.128   2.080
 9135SOL    HW128304   0.902   6.078   2.126
 9135SOL    HW228305   0.958   6.227   2.086
 9136SOL     OW28306   5.900   4.573   6.458
 9136SOL    HW128307   5.850   4.660   6.454
 9136SOL    HW228308   5.985   4.581   6.405
 9137SOL     OW28309   4.579   6.187   6.773
 9137SOL    HW128310   4.574   6.113   6.841
 9137SOL    HW228311   4.502   6.249   6.786
 9138SOL     OW28312   3.228   3.245   0.869
 9138SOL    HW128313   3.326   3.268   0.867
 9138SOL    HW228314   3.190   3.273   0.957
 9139SOL     OW28315   0.049   0.302   1.267
 9139SOL    HW128316   6.985   0.337   1.299
 9139SOL    HW228317   0.034   0.227   1.203
 9140SOL     OW28318   0.605   4.511   2.469
 9140SOL    HW128319   0.536   4.439   2.456
 9140SOL    HW228320   0.695   4.476   2.446
 9141SOL     OW28321   6.676   5.429   6.228
 9141SOL    HW128322   6.590   5.476   6.206
 9141SOL    HW228323   6.691   5.432   6.326
 9142SOL     OW28324   1.264   4.087   2.981
 9142SOL    HW128325   1.286   4.181   2.957
 9142SOL    HW228326   1.320   4.025   2.926
 9143SOL     OW28327   0.295   3.464   2.987
 9143SOL    HW128328   0.238   3.490   2.909
 9143SOL    HW228329   0.331   3.546   3.030
 9144SOL     OW28330   2.903   4.843   5.475
 9144SOL    HW128331   2.820   4.867   5.424
 9144SOL    HW228332   2.910   4.744   5.483
 9145SOL     OW28333   1.282   6.894   6.261
 9145SOL    HW128334   1.286   6.798   6.287
 9145SOL    HW228335   1.274   6.950   6.344
 9146SOL     OW28336   5.550   3.606   3.507
 9146SOL    HW128337   5.468   3.643   3.464
 9146SOL    HW228338   5.623   3.673   3.502
 9147SOL     OW28339   4.982   0.435   4.229
 9147SOL    HW128340   4.891   0.405   4.260
 9147SOL    HW228341   5.011   0.378   4.152
 9148SOL     OW28342   6.274   6.982   1.604
 9148SOL    HW128343   6.284   0.057   1.605
 9148SOL    HW228344   6.284   6.946   1.697
 9149SOL     OW28345   6.352   4.326   1.271
 9149SOL    HW128346   6.314   4.409   1.230
 9149SOL    HW228347   6.444   4.345   1.304
 9150SOL     OW28348   2.890   3.645   6.912
 9150SOL    HW128349   2.897   3.741   6.885
 9150SOL    HW228350   2.954   3.590   6.858
 9151SOL     OW28351   1.676   3.549   3.527
 9151SOL    HW128352   1.636   3.559   3.618
 9151SOL    HW228353   1.722   3.633   3.501
 9152SOL     OW28354   1.960   3.988   3.952
 9152SOL    HW128355   2.056   3.961   3.954
 9152SOL    HW228356   1.902   3.907   3.961
 9153SOL     OW28357   0.161   3.138   6.628
 9153SOL    HW128358   0.199   3.230   6.628
 9153SOL    HW228359   0.061   3.143   6.620
 9154SOL     OW28360   6.151   4.971   3.196
 9154SOL    HW128361   6.126   4.986   3.292
 9154SOL    HW228362   6.239   4.923   3.192
 9155SOL     OW28363   0.412   5.766   2.818
 9155SOL    HW128364   0.412   5.849   2.873
 9155SOL    HW228365   0.494   5.713   2.838
 9156SOL     OW28366   6.570   3.970   6.898
 9156SOL    HW128367   6.580   3.885   6.950
 9156SOL    HW228368   6.489   4.019   6.929
 9157SOL     OW28369   2.911   4.805   6.140
 9157SOL    HW128370   2.926   4.784   6.044
 9157SOL    HW228371   2.921   4.903   6.156
 9158SOL     OW28372   0.090   3.570   4.020
 9158SOL    HW128373   0.097   3.553   3.921
 9158SOL    HW228374   0.121   3.488   4.069
 9159SOL     OW28375   3.661   0.926   3.196
 9159SOL    HW128376   3.700   0.846   3.240
 9159SOL    HW228377   3.732   0.995   3.182
 9160SOL     OW28378   0.421   4.513   6.595
 9160SOL    HW128379   0.422   4.491   6.692
 9160SOL    HW228380   0.469   4.599   6.580
 9161SOL     OW28381   6.161   4.080   1.555
 9161SOL    HW128382   6.161   4.070   1.456
 9161SOL    HW228383   6.068   4.070   1.590
 9162SOL     OW28384   4.738   2.115   2.075
 9162SOL    HW128385   4.662   2.058   2.105
 9162SOL    HW228386   4.731   2.206   2.117
 9163SOL     OW28387   1.433   2.516   3.277
 9163SOL    HW128388   1.369   2.480   3.210
 9163SOL    HW228389   1.439   2.616   3.267
 9164SOL     OW28390   2.462   0.613   6.790
 9164SOL    HW128391   2.419   0.526   6.812
 9164SOL    HW228392   2.407   0.662   6.722
 9165SOL     OW28393   5.267   2.660   5.706
 9165SOL    HW128394   5.361   2.625   5.702
 9165SOL    HW228395   5.266   2.756   5.679
 9166SOL     OW28396   5.132   5.352   1.726
 9166SOL    HW128397   5.198   5.358   1.801
 9166SOL    HW228398   5.040   5.365   1.763
 9167SOL     OW28399   1.869   0.868   5.377
 9167SOL    HW128400   1.777   0.829   5.387
 9167SOL    HW228401   1.934   0.795   5.358
 9168SOL     OW28402   6.810   6.206   4.636
 9168SOL    HW128403   6.774   6.167   4.721
 9168SOL    HW228404   6.742   6.195   4.563
 9169SOL     OW28405   6.355   6.139   0.669
 9169SOL    HW128406   6.261   6.138   0.702
 9169SOL    HW228407   6.366   6.069   0.599
 9170SOL     OW28408   1.472   1.361   5.455
 9170SOL    HW128409   1.571   1.352   5.467
 9170SOL    HW228410   1.436   1.425   5.523
 9171SOL     OW28411   3.232   4.700   0.725
 9171SOL    HW128412   3.160   4.710   0.656
 9171SOL    HW228413   3.267   4.790   0.750
 9172SOL     OW28414   5.208   1.637   4.172
 9172SOL    HW128415   5.140   1.688   4.121
 9172SOL    HW228416   5.165   1.596   4.253
 9173SOL     OW28417   6.387   2.611   4.090
 9173SOL    HW128418   6.321   2.622   4.164
 9173SOL    HW228419   6.451   2.538   4.113
 9174SOL     OW28420   7.003   5.476   0.311
 9174SOL    HW128421   0.066   5.509   0.347
 9174SOL    HW228422   7.016   5.444   0.217
 9175SOL     OW28423   1.421   0.131   6.603
 9175SOL    HW128424   1.405   0.203   6.671
 9175SOL    HW228425   1.334   0.107   6.559
 9176SOL     OW28426   1.223   1.620   2.320
 9176SOL    HW128427   1.214   1.713   2.285
 9176SOL    HW228428   1.226   1.622   2.420
 9177SOL     OW28429   0.352   4.519   4.140
 9177SOL    HW128430   0.443   4.488   4.113
 9177SOL    HW228431   0.282   4.466   4.092
 9178SOL     OW28432   1.351   6.752   0.687
 9178SOL    HW128433   1.395   6.761   0.777
 9178SOL    HW228434   1.361   6.658   0.654
 9179SOL     OW28435   4.279   5.949   5.141
 9179SOL    HW128436   4.373   5.976   5.159
 9179SOL    HW228437   4.247   5.992   5.056
 9180SOL     OW28438   0.279   1.281   3.982
 9180SOL    HW128439   0.355   1.221   4.008
 9180SOL    HW228440   0.204   1.226   3.945
 9181SOL     OW28441   3.649   2.041   3.617
 9181SOL    HW128442   3.644   2.086   3.706
 9181SOL    HW228443   3.670   1.944   3.630
 9182SOL     OW28444   1.774   1.041   3.249
 9182SOL    HW128445   1.731   1.130   3.232
 9182SOL    HW228446   1.801   1.000   3.161
 9183SOL     OW28447   6.123   2.841   5.728
 9183SOL    HW128448   6.053   2.843   5.799
 9183SOL    HW228449   6.188   2.768   5.748
 9184SOL     OW28450   3.754   3.008   1.073
 9184SOL    HW128451   3.826   3.076   1.063
 9184SOL    HW228452   3.670   3.052   1.103
 9185SOL     OW28453   0.825   0.220   6.205
 9185SOL    HW128454   0.771   0.185   6.282
 9185SOL    HW228455   0.793   0.178   6.120
 9186SOL     OW28456   5.538   0.520   5.992
 9186SOL    HW128457   5.489   0.593   5.945
 9186SOL    HW228458   5.548   0.542   6.089
 9187SOL     OW28459   5.359   1.509   0.094
 9187SOL    HW128460   5.335   1.412   0.090
 9187SOL    HW228461   5.420   1.525   0.172
 9188SOL     OW28462   0.961   0.429   1.950
 9188SOL    HW128463   0.964   0.332   1.972
 9188SOL    HW228464   0.889   0.447   1.883
 9189SOL     OW28465   3.700   1.790   3.686
 9189SOL    HW128466   3.733   1.724   3.619
 9189SOL    HW228467   3.778   1.836   3.728
 9190SOL     OW28468   5.919   3.772   5.254
 9190SOL    HW128469   5.871   3.768   5.342
 9190SOL    HW228470   5.905   3.861   5.212
 9191SOL     OW28471   5.455   6.068   6.654
 9191SOL    HW128472   5.432   6.061   6.751
 9191SOL    HW228473   5.527   6.137   6.642
 9192SOL     OW28474   6.584   4.462   5.495
 9192SOL    HW128475   6.488   4.446   5.519
 9192SOL    HW228476   6.642   4.414   5.560
 9193SOL     OW28477   3.428   2.946   3.683
 9193SOL    HW128478   3.509   2.894   3.710
 9193SOL    HW228479   3.369   2.959   3.762
 9194SOL     OW28480   2.630   5.239   3.086
 9194SOL    HW128481   2.596   5.240   3.180
 9194SOL    HW228482   2.722   5.279   3.084
 9195SOL     OW28483   0.244   3.174   2.905
 9195SOL    HW128484   0.248   3.257   2.960
 9195SOL    HW228485   0.175   3.112   2.943
 9196SOL     OW28486   4.795   0.339   3.423
 9196SOL    HW128487   4.855   0.259   3.428
 9196SOL    HW228488   4.848   0.420   3.397
 9197SOL     OW28489   3.328   3.182   6.332
 9197SOL    HW128490   3.394   3.113   6.302
 9197SOL    HW228491   3.263   3.140   6.396
 9198SOL     OW28492   6.027   2.968   5.507
 9198SOL    HW128493   6.051   2.900   5.437
 9198SOL    HW228494   6.059   2.936   5.596
 9199SOL     OW28495   1.180   4.131   6.694
 9199SOL    HW128496   1.172   4.080   6.609
 9199SOL    HW228497   1.262   4.189   6.691
 9200SOL     OW28498   6.482   0.247   0.476
 9200SOL    HW128499   6.435   0.167   0.512
 9200SOL    HW228500   6.425   0.328   0.488
 9201SOL     OW28501   0.494   3.723   2.249
 9201SOL    HW128502   0.516   3.628   2.230
 9201SOL    HW228503   0.409   3.728   2.301
 9202SOL     OW28504   3.148   5.512   4.276
 9202SOL    HW128505   3.218   5.500   4.345
 9202SOL    HW228506   3.069   5.558   4.315
 9203SOL     OW28507   5.252   1.013   5.319
 9203SOL    HW128508   5.168   1.042   5.274
 9203SOL    HW228509   5.229   0.960   5.401
 9204SOL     OW28510   4.942   4.203   2.821
 9204SOL    HW128511   4.953   4.105   2.803
 9204SOL    HW228512   4.910   4.216   2.915
 9205SOL     OW28513   5.189   2.502   2.520
 9205SOL    HW128514   5.220   2.552   2.439
 9205SOL    HW228515   5.134   2.423   2.491
 9206SOL     OW28516   0.752   6.354   3.494
 9206SOL    HW128517   0.825   6.286   3.504
 9206SOL    HW228518   0.772   6.412   3.415
 9207SOL     OW28519   4.230   6.395   0.414
 9207SOL    HW128520   4.196   6.489   0.419
 9207SOL    HW228521   4.319   6.394   0.369
 9208SOL     OW28522   5.307   3.669   1.953
 9208SOL    HW128523   5.290   3.611   1.873
 9208SOL    HW228524   5.220   3.707   1.985
 9209SOL     OW28525   4.287   1.190   2.339
 9209SOL    HW128526   4.384   1.166   2.333
 9209SOL    HW228527   4.232   1.106   2.339
 9210SOL     OW28528   1.319   0.055   1.070
 9210SOL    HW128529   1.251   0.038   0.999
 9210SOL    HW228530   1.356   6.992   1.103
 9211SOL     OW28531   5.038   1.486   6.701
 9211SOL    HW128532   5.107   1.490   6.630
 9211SOL    HW228533   5.082   1.490   6.791
 9212SOL     OW28534   5.535   3.546   4.469
 9212SOL    HW128535   5.600   3.584   4.404
 9212SOL    HW228536   5.528   3.447   4.456
 9213SOL     OW28537   5.838   6.791   3.432
 9213SOL    HW128538   5.868   6.858   3.501
 9213SOL    HW228539   5.800   6.712   3.479
 9214SOL     OW28540   2.347   2.232   4.729
 9214SOL    HW128541   2.384   2.162   4.790
 9214SOL    HW228542   2.372   2.322   4.763
 9215SOL     OW28543   0.536   3.650   2.871
 9215SOL    HW128544   0.622   3.599   2.864
 9215SOL    HW228545   0.499   3.666   2.780
 9216SOL     OW28546   1.995   5.684   4.818
 9216SOL    HW128547   2.073   5.625   4.796
 9216SOL    HW228548   1.953   5.716   4.733
 9217SOL     OW28549   4.497   1.302   6.480
 9217SOL    HW128550   4.436   1.336   6.408
 9217SOL    HW228551   4.504   1.371   6.552
 9218SOL     OW28552   5.927   5.673   6.017
 9218SOL    HW128553   5.920   5.611   5.939
 9218SOL    HW228554   5.837   5.712   6.037
 9219SOL     OW28555   3.595   2.781   5.472
 9219SOL    HW128556   3.543   2.848   5.418
 9219SOL    HW228557   3.631   2.710   5.411
 9220SOL     OW28558   1.772   6.067   3.247
 9220SOL    HW128559   1.807   6.020   3.166
 9220SOL    HW228560   1.677   6.039   3.263
 9221SOL     OW28561   2.493   0.850   6.587
 9221SOL    HW128562   2.580   0.844   6.635
 9221SOL    HW228563   2.508   0.843   6.488
 9222SOL     OW28564   1.324   3.784   3.406
 9222SOL    HW128565   1.320   3.877   3.369
 9222SOL    HW228566   1.355   3.721   3.335
 9223SOL     OW28567   1.044   3.624   4.542
 9223SOL    HW128568   0.982   3.648   4.616
 9223SOL    HW228569   1.078   3.531   4.556
 9224SOL     OW28570   1.887   4.086   4.206
 9224SOL    HW128571   1.942   4.163   4.237
 9224SOL    HW228572   1.921   4.054   4.118
 9225SOL     OW28573   4.655   0.026   6.736
 9225SOL    HW128574   4.727   7.010   6.793
 9225SOL    HW228575   4.657   7.008   6.645
 9226SOL     OW28576   0.696   0.902   0.540
 9226SOL    HW128577   0.629   0.946   0.601
 9226SOL    HW228578   0.765   0.970   0.513
 9227SOL     OW28579   2.580   5.543   0.861
 9227SOL    HW128580   2.615   5.471   0.921
 9227SOL    HW228581   2.617   5.529   0.769
 9228SOL     OW28582   2.988   2.815   5.773
 9228SOL    HW128583   2.975   2.724   5.813
 9228SOL    HW228584   3.056   2.865   5.826
 9229SOL     OW28585   6.960   4.650   6.800
 9229SOL    HW128586   0.022   4.609   6.834
 9229SOL    HW228587   6.968   4.750   6.803
 9230SOL     OW28588   4.658   1.864   4.188
 9230SOL    HW128589   4.560   1.884   4.190
 9230SOL    HW228590   4.709   1.946   4.216
 9231SOL     OW28591   0.197   5.656   4.288
 9231SOL    HW128592   0.104   5.680   4.316
 9231SOL    HW228593   0.257   5.659   4.368
 9232SOL     OW28594   1.228   5.524   1.823
 9232SOL    HW128595   1.195   5.573   1.742
 9232SOL    HW228596   1.314   5.479   1.801
 9233SOL     OW28597   0.915   0.020   0.067
 9233SOL    HW128598   1.001   0.039   0.115
 9233SOL    HW228599   0.840   0.067   0.114
 9234SOL     OW28600   2.197   4.552   0.716
 9234SOL    HW128601   2.288   4.590   0.735
 9234SOL    HW228602   2.133   4.583   0.786
 9235SOL     OW28603   2.459   2.166   4.057
 9235SOL    HW128604   2.484   2.209   3.971
 9235SOL    HW228605   2.409   2.232   4.114
 9236SOL     OW28606   2.337   3.688   6.523
 9236SOL    HW128607   2.352   3.607   6.465
 9236SOL    HW228608   2.383   3.675   6.611
 9237SOL     OW28609   6.384   5.156   3.799
 9237SOL    HW128610   6.483   5.152   3.811
 9237SOL    HW228611   6.355   5.088   3.732
 9238SOL     OW28612   1.599   3.157   5.381
 9238SOL    HW128613   1.681   3.203   5.348
 9238SOL    HW228614   1.533   3.148   5.306
 9239SOL     OW28615   0.520   4.856   0.155
 9239SOL    HW128616   0.435   4.839   0.105
 9239SOL    HW228617   0.571   4.928   0.108
 9240SOL     OW28618   4.468   2.431   2.731
 9240SOL    HW128619   4.461   2.522   2.691
 9240SOL    HW228620   4.425   2.432   2.822
 9241SOL     OW28621   5.643   6.921   1.025
 9241SOL    HW128622   5.593   6.933   1.111
 9241SOL    HW228623   5.728   6.871   1.042
 9242SOL     OW28624   1.299   2.435   0.769
 9242SOL    HW128625   1.388   2.480   0.764
 9242SOL    HW228626   1.304   2.346   0.723
 9243SOL     OW28627   1.184   0.583   0.168
 9243SOL    HW128628   1.117   0.509   0.161
 9243SOL    HW228629   1.185   0.636   0.083
 9244SOL     OW28630   4.456   6.379   5.053
 9244SOL    HW128631   4.358   6.362   5.046
 9244SOL    HW228632   4.506   6.294   5.036
 9245SOL     OW28633   1.009   4.228   3.013
 9245SOL    HW128634   1.099   4.191   2.995
 9245SOL    HW228635   1.018   4.322   3.048
 9246SOL     OW28636   6.758   0.670   4.956
 9246SOL    HW128637   6.764   0.625   5.046
 9246SOL    HW228638   6.789   0.764   4.964
 9247SOL     OW28639   3.930   5.703   3.576
 9247SOL    HW128640   4.018   5.737   3.543
 9247SOL    HW228641   3.901   5.626   3.521
 9248SOL     OW28642   2.919   0.970   5.428
 9248SOL    HW128643   2.879   1.057   5.398
 9248SOL    HW228644   2.952   0.920   5.348
 9249SOL     OW28645   3.775   5.017   1.900
 9249SOL    HW128646   3.754   5.055   1.810
 9249SOL    HW228647   3.748   4.921   1.903
 9250SOL     OW28648   0.366   2.934   3.923
 9250SOL    HW128649   0.333   2.960   4.014
 9250SOL    HW228650   0.322   2.849   3.895
 9251SOL     OW28651   3.074   3.017   0.798
 9251SOL    HW128652   3.093   3.109   0.833
 9251SOL    HW228653   3.156   2.960   0.807
 9252SOL     OW28654   5.657   0.446   5.729
 9252SOL    HW128655   5.645   0.508   5.806
 9252SOL    HW228656   5.746   0.462   5.686
 9253SOL     OW28657   0.867   4.678   5.437
 9253SOL    HW128658   0.944   4.693   5.375
 9253SOL    HW228659   0.833   4.766   5.471
 9254SOL     OW28660   6.617   5.053   3.194
 9254SOL    HW128661   6.619   5.148   3.227
 9254SOL    HW228662   6.622   5.052   3.094
 9255SOL     OW28663   6.912   4.448   0.589
 9255SOL    HW128664   6.907   4.349   0.604
 9255SOL    HW228665   6.897   4.496   0.675
 9256SOL     OW28666   1.686   6.556   1.440
 9256SOL    HW128667   1.660   6.460   1.431
 9256SOL    HW228668   1.747   6.567   1.519
 9257SOL     OW28669   0.138   5.765   4.043
 9257SOL    HW128670   0.172   5.713   3.965
 9257SOL    HW228671   0.175   5.727   4.128
 9258SOL     OW28672   3.750   4.544   0.834
 9258SOL    HW128673   3.730   4.446   0.830
 9258SOL    HW228674   3.684   4.594   0.778
 9259SOL     OW28675   2.181   1.939   6.640
 9259SOL    HW128676   2.084   1.951   6.662
 9259SOL    HW228677   2.234   1.944   6.725
 9260SOL     OW28678   5.351   3.150   4.619
 9260SOL    HW128679   5.450   3.135   4.610
 9260SOL    HW228680   5.308   3.067   4.655
 9261SOL     OW28681   3.938   2.277   1.716
 9261SOL    HW128682   3.924   2.181   1.694
 9261SOL    HW228683   3.872   2.306   1.785
 9262SOL     OW28684   6.252   6.227   3.793
 9262SOL    HW128685   6.237   6.320   3.760
 9262SOL    HW228686   6.340   6.221   3.839
 9263SOL     OW28687   2.150   3.731   3.903
 9263SOL    HW128688   2.055   3.707   3.924
 9263SOL    HW228689   2.212   3.673   3.955
 9264SOL     OW28690   4.541   3.872   6.870
 9264SOL    HW128691   4.594   3.788   6.857
 9264SOL    HW228692   4.447   3.848   6.895
 9265SOL     OW28693   5.331   2.137   0.202
 9265SOL    HW128694   5.308   2.221   0.250
 9265SOL    HW228695   5.380   2.075   0.263
 9266SOL     OW28696   0.118   3.984   0.990
 9266SOL    HW128697   0.076   3.926   1.060
 9266SOL    HW228698   0.071   4.072   0.987
 9267SOL     OW28699   0.495   1.175   4.198
 9267SOL    HW128700   0.456   1.217   4.280
 9267SOL    HW228701   0.450   1.087   4.181
 9268SOL     OW28702   0.518   6.723   2.271
 9268SOL    HW128703   0.538   6.754   2.364
 9268SOL    HW228704   0.601   6.684   2.231
 9269SOL     OW28705   3.634   0.743   1.168
 9269SOL    HW128706   3.617   0.710   1.075
 9269SOL    HW228707   3.717   0.701   1.204
 9270SOL     OW28708   2.186   1.025   5.902
 9270SOL    HW128709   2.242   1.107   5.891
 9270SOL    HW228710   2.246   0.946   5.919
 9271SOL     OW28711   1.372   0.285   5.577
 9271SOL    HW128712   1.279   0.247   5.578
 9271SOL    HW228713   1.379   0.360   5.642
 9272SOL     OW28714   6.654   6.361   5.992
 9272SOL    HW128715   6.685   6.289   6.054
 9272SOL    HW228716   6.628   6.321   5.905
 9273SOL     OW28717   4.641   5.035   4.609
 9273SOL    HW128718   4.612   5.091   4.532
 9273SOL    HW228719   4.593   5.065   4.692
 9274SOL     OW28720   0.798   3.245   0.282
 9274SOL    HW128721   0.751   3.309   0.222
 9274SOL    HW228722   0.896   3.243   0.258
 9275SOL     OW28723   0.577   6.600   0.918
 9275SOL    HW128724   0.549   6.548   0.999
 9275SOL    HW228725   0.675   6.591   0.904
 9276SOL     OW28726   3.385   5.005   0.121
 9276SOL    HW128727   3.396   5.097   0.159
 9276SOL    HW228728   3.437   4.998   0.036
 9277SOL     OW28729   5.217   4.950   2.325
 9277SOL    HW128730   5.238   4.860   2.363
 9277SOL    HW228731   5.122   4.974   2.345
 9278SOL     OW28732   0.600   0.877   4.637
 9278SOL    HW128733   0.549   0.819   4.701
 9278SOL    HW228734   0.678   0.827   4.601
 9279SOL     OW28735   4.625   5.659   1.672
 9279SOL    HW128736   4.609   5.742   1.727
 9279SOL    HW228737   4.565   5.586   1.704
 9280SOL     OW28738   1.474   0.818   2.848
 9280SOL    HW128739   1.543   0.866   2.902
 9280SOL    HW228740   1.415   0.885   2.803
 9281SOL     OW28741   3.234   4.656   0.249
 9281SOL    HW128742   3.224   4.755   0.256
 9281SOL    HW228743   3.279   4.621   0.330
 9282SOL     OW28744   3.192   0.223   4.681
 9282SOL    HW128745   3.168   0.137   4.726
 9282SOL    HW228746   3.287   0.246   4.702
 9283SOL     OW28747   4.637   6.715   6.795
 9283SOL    HW128748   4.626   6.716   6.696
 9283SOL    HW228749   4.674   6.626   6.823
 9284SOL     OW28750   3.304   4.148   5.221
 9284SOL    HW128751   3.227   4.201   5.256
 9284SOL    HW228752   3.389   4.184   5.258
 9285SOL     OW28753   6.936   4.296   2.371
 9285SOL    HW128754   6.975   4.384   2.344
 9285SOL    HW228755   6.994   4.254   2.440
 9286SOL     OW28756   4.838   5.517   1.618
 9286SOL    HW128757   4.877   5.468   1.696
 9286SOL    HW228758   4.759   5.571   1.649
 9287SOL     OW28759   3.070   4.483   5.936
 9287SOL    HW128760   3.028   4.426   5.866
 9287SOL    HW228761   3.056   4.580   5.913
 9288SOL     OW28762   4.422   2.232   3.645
 9288SOL    HW128763   4.335   2.238   3.693
 9288SOL    HW228764   4.454   2.138   3.645
 9289SOL     OW28765   4.601   6.702   6.514
 9289SOL    HW128766   4.670   6.655   6.460
 9289SOL    HW228767   4.533   6.637   6.546
 9290SOL     OW28768   5.483   0.285   4.622
 9290SOL    HW128769   5.433   0.241   4.697
 9290SOL    HW228770   5.422   0.298   4.544
 9291SOL     OW28771   1.525   5.006   5.724
 9291SOL    HW128772   1.425   5.002   5.723
 9291SOL    HW228773   1.555   5.077   5.788
 9292SOL     OW28774   1.806   1.887   6.091
 9292SOL    HW128775   1.837   1.926   6.178
 9292SOL    HW228776   1.751   1.954   6.042
 9293SOL     OW28777   5.035   2.962   5.947
 9293SOL    HW128778   4.964   2.973   5.877
 9293SOL    HW228779   4.992   2.958   6.037
 9294SOL     OW28780   4.552   1.420   0.203
 9294SOL    HW128781   4.620   1.442   0.133
 9294SOL    HW228782   4.470   1.384   0.159
 9295SOL     OW28783   0.838   1.366   5.716
 9295SOL    HW128784   0.825   1.362   5.617
 9295SOL    HW228785   0.825   1.275   5.755
 9296SOL     OW28786   2.203   4.520   0.197
 9296SOL    HW128787   2.187   4.425   0.224
 9296SOL    HW228788   2.299   4.544   0.212
 9297SOL     OW28789   5.873   6.607   2.986
 9297SOL    HW128790   5.913   6.516   2.978
 9297SOL    HW228791   5.908   6.665   2.913
 9298SOL     OW28792   1.677   6.245   5.867
 9298SOL    HW128793   1.760   6.244   5.924
 9298SOL    HW228794   1.597   6.231   5.925
 9299SOL     OW28795   2.109   2.793   4.822
 9299SOL    HW128796   2.042   2.737   4.870
 9299SOL    HW228797   2.137   2.746   4.738
 9300SOL     OW28798   1.833   6.436   6.073
 9300SOL    HW128799   1.803   6.523   6.112
 9300SOL    HW228800   1.897   6.452   5.999
 9301SOL     OW28801   0.270   4.111   4.842
 9301SOL    HW128802   0.291   4.036   4.904
 9301SOL    HW228803   0.170   4.122   4.835
 9302SOL     OW28804   2.071   3.670   4.994
 9302SOL    HW128805   2.134   3.735   5.034
 9302SOL    HW228806   1.978   3.705   5.000
 9303SOL     OW28807   2.472   4.946   1.072
 9303SOL    HW128808   2.423   5.005   1.008
 9303SOL    HW228809   2.406   4.888   1.119
 9304SOL     OW28810   4.850   5.161   0.569
 9304SOL    HW128811   4.907   5.166   0.487
 9304SOL    HW228812   4.887   5.222   0.640
 9305SOL     OW28813   2.591   1.461   1.465
 9305SOL    HW128814   2.547   1.492   1.381
 9305SOL    HW228815   2.603   1.362   1.462
 9306SOL     OW28816   0.464   5.386   4.485
 9306SOL    HW128817   0.516   5.448   4.427
 9306SOL    HW228818   0.480   5.408   4.581
 9307SOL     OW28819   2.841   3.087   1.797
 9307SOL    HW128820   2.776   3.018   1.765
 9307SOL    HW228821   2.921   3.041   1.837
 9308SOL     OW28822   1.957   3.758   1.863
 9308SOL    HW128823   1.962   3.838   1.923
 9308SOL    HW228824   2.048   3.718   1.852
 9309SOL     OW28825   4.755   5.880   5.450
 9309SOL    HW128826   4.748   5.979   5.437
 9309SOL    HW228827   4.711   5.854   5.536
 9310SOL     OW28828   5.164   6.037   6.253
 9310SOL    HW128829   5.254   6.011   6.287
 9310SOL    HW228830   5.173   6.073   6.160
 9311SOL     OW28831   4.710   3.302   1.518
 9311SOL    HW128832   4.691   3.393   1.479
 9311SOL    HW228833   4.734   3.312   1.615
 9312SOL     OW28834   0.734   2.360   1.217
 9312SOL    HW128835   0.641   2.396   1.220
 9312SOL    HW228836   0.790   2.418   1.158
 9313SOL     OW28837   0.822   6.673   1.724
 9313SOL    HW128838   0.914   6.639   1.706
 9313SOL    HW228839   0.826   6.770   1.747
 9314SOL     OW28840   4.942   2.713   0.016
 9314SOL    HW128841   4.872   2.781   7.018
 9314SOL    HW228842   4.946   2.700   0.115
 9315SOL     OW28843   5.811   0.907   6.449
 9315SOL    HW128844   5.858   0.842   6.389
 9315SOL    HW228845   5.790   0.991   6.399
 9316SOL     OW28846   4.308   1.129   5.686
 9316SOL    HW128847   4.260   1.068   5.748
 9316SOL    HW228848   4.279   1.111   5.592
 9317SOL     OW28849   4.038   5.945   3.444
 9317SOL    HW128850   3.969   5.882   3.408
 9317SOL    HW228851   4.048   6.023   3.382
 9318SOL     OW28852   5.161   5.892   1.149
 9318SOL    HW128853   5.184   5.989   1.157
 9318SOL    HW228854   5.115   5.861   1.232
 9319SOL     OW28855   2.436   4.348   0.498
 9319SOL    HW128856   2.484   4.285   0.560
 9319SOL    HW228857   2.350   4.306   0.468
 9320SOL     OW28858   6.548   6.859   6.392
 9320SOL    HW128859   6.482   6.930   6.368
 9320SOL    HW228860   6.504   6.769   6.384
 9321SOL     OW28861   0.496   3.589   4.830
 9321SOL    HW128862   0.421   3.624   4.886
 9321SOL    HW228863   0.518   3.496   4.857
 9322SOL     OW28864   5.666   4.083   5.920
 9322SOL    HW128865   5.680   4.178   5.948
 9322SOL    HW228866   5.712   4.067   5.833
 9323SOL     OW28867   1.646   2.754   4.004
 9323SOL    HW128868   1.734   2.734   3.961
 9323SOL    HW228869   1.575   2.698   3.960
 9324SOL     OW28870   0.474   3.941   1.407
 9324SOL    HW128871   0.485   4.035   1.376
 9324SOL    HW228872   0.413   3.892   1.345
 9325SOL     OW28873   1.207   4.959   2.725
 9325SOL    HW128874   1.274   4.958   2.800
 9325SOL    HW228875   1.252   4.938   2.639
 9326SOL     OW28876   4.023   4.194   0.625
 9326SOL    HW128877   4.056   4.148   0.707
 9326SOL    HW228878   3.927   4.170   0.610
 9327SOL     OW28879   4.437   0.435   3.380
 9327SOL    HW128880   4.383   0.374   3.322
 9327SOL    HW228881   4.439   0.526   3.339
 9328SOL     OW28882   2.892   6.248   4.282
 9328SOL    HW128883   2.802   6.213   4.307
 9328SOL    HW228884   2.937   6.185   4.219
 9329SOL     OW28885   0.102   5.339   6.682
 9329SOL    HW128886   0.168   5.402   6.724
 9329SOL    HW228887   0.029   5.391   6.638
 9330SOL     OW28888   5.956   5.846   6.287
 9330SOL    HW128889   5.954   5.746   6.281
 9330SOL    HW228890   6.037   5.881   6.240
 9331SOL     OW28891   1.366   3.089   4.575
 9331SOL    HW128892   1.299   3.083   4.650
 9331SOL    HW228893   1.356   3.177   4.529
 9332SOL     OW28894   4.708   5.574   0.891
 9332SOL    HW128895   4.740   5.611   0.978
 9332SOL    HW228896   4.786   5.562   0.829
 9333SOL     OW28897   3.555   4.885   0.471
 9333SOL    HW128898   3.555   4.820   0.395
 9333SOL    HW228899   3.612   4.963   0.447
 9334SOL     OW28900   5.350   6.141   5.551
 9334SOL    HW128901   5.302   6.229   5.553
 9334SOL    HW228902   5.389   6.122   5.642
 9335SOL     OW28903   2.339   2.823   1.331
 9335SOL    HW128904   2.349   2.778   1.242
 9335SOL    HW228905   2.279   2.767   1.389
 9336SOL     OW28906   6.887   0.717   5.466
 9336SOL    HW128907   6.856   0.812   5.455
 9336SOL    HW228908   6.982   0.710   5.436
 9337SOL     OW28909   2.863   0.316   6.385
 9337SOL    HW128910   2.807   0.322   6.467
 9337SOL    HW228911   2.904   0.405   6.365
 9338SOL     OW28912   6.355   5.966   0.006
 9338SOL    HW128913   6.353   5.867   7.018
 9338SOL    HW228914   6.328   6.011   6.945
 9339SOL     OW28915   6.406   4.793   5.507
 9339SOL    HW128916   6.346   4.716   5.483
 9339SOL    HW228917   6.501   4.760   5.513
 9340SOL     OW28918   3.993   6.071   2.441
 9340SOL    HW128919   3.949   6.149   2.487
 9340SOL    HW228920   3.974   6.077   2.343
 9341SOL     OW28921   5.510   3.984   0.083
 9341SOL    HW128922   5.492   4.061   0.022
 9341SOL    HW228923   5.576   4.012   0.153
 9342SOL     OW28924   2.630   6.969   4.146
 9342SOL    HW128925   2.551   6.914   4.172
 9342SOL    HW228926   2.714   6.920   4.171
 9343SOL     OW28927   4.888   4.164   1.600
 9343SOL    HW128928   4.959   4.197   1.662
 9343SOL    HW228929   4.803   4.215   1.617
 9344SOL     OW28930   5.911   5.417   4.861
 9344SOL    HW128931   5.996   5.445   4.816
 9344SOL    HW228932   5.911   5.318   4.873
 9345SOL     OW28933   0.106   6.555   0.868
 9345SOL    HW128934   0.080   6.487   0.799
 9345SOL    HW228935   0.046   6.635   0.860
 9346SOL     OW28936   5.296   6.735   1.657
 9346SOL    HW128937   5.289   6.640   1.625
 9346SOL    HW228938   5.285   6.737   1.756
 9347SOL     OW28939   4.267   5.662   0.520
 9347SOL    HW128940   4.313   5.706   0.443
 9347SOL    HW228941   4.180   5.622   0.490
 9348SOL     OW28942   2.192   6.028   1.955
 9348SOL    HW128943   2.194   6.125   1.976
 9348SOL    HW228944   2.116   6.009   1.892
 9349SOL     OW28945   6.171   5.102   1.697
 9349SOL    HW128946   6.104   5.045   1.744
 9349SOL    HW228947   6.134   5.194   1.684
 9350SOL     OW28948   0.277   0.903   4.896
 9350SOL    HW128949   0.312   0.996   4.891
 9350SOL    HW228950   0.187   0.898   4.853
 9351SOL     OW28951   3.013   1.292   6.181
 9351SOL    HW128952   3.105   1.294   6.221
 9351SOL    HW228953   2.976   1.200   6.188
 9352SOL     OW28954   3.455   2.193   6.200
 9352SOL    HW128955   3.364   2.177   6.240
 9352SOL    HW228956   3.460   2.147   6.111
 9353SOL     OW28957   0.774   3.887   1.355
 9353SOL    HW128958   0.743   3.980   1.334
 9353SOL    HW228959   0.874   3.887   1.362
 9354SOL     OW28960   5.456   1.724   1.282
 9354SOL    HW128961   5.414   1.805   1.324
 9354SOL    HW228962   5.384   1.658   1.258
 9355SOL     OW28963   6.677   6.920   3.578
 9355SOL    HW128964   6.612   6.847   3.598
 9355SOL    HW228965   6.757   6.910   3.637
 9356SOL     OW28966   4.296   5.107   2.185
 9356SOL    HW128967   4.338   5.197   2.173
 9356SOL    HW228968   4.364   5.042   2.220
 9357SOL     OW28969   3.021   3.081   1.201
 9357SOL    HW128970   3.069   3.025   1.133
 9357SOL    HW228971   2.970   3.153   1.154
 9358SOL     OW28972   6.350   4.206   2.112
 9358SOL    HW128973   6.284   4.228   2.040
 9358SOL    HW228974   6.443   4.219   2.077
 9359SOL     OW28975   0.019   4.246   6.541
 9359SOL    HW128976   0.103   4.219   6.590
 9359SOL    HW228977   0.004   4.184   6.465
 9360SOL     OW28978   2.326   0.854   6.197
 9360SOL    HW128979   2.353   0.835   6.103
 9360SOL    HW228980   2.403   0.896   6.245
 9361SOL     OW28981   3.063   6.288   2.063
 9361SOL    HW128982   2.969   6.268   2.091
 9361SOL    HW228983   3.080   6.386   2.071
 9362SOL     OW28984   2.622   1.560   2.438
 9362SOL    HW128985   2.718   1.533   2.443
 9362SOL    HW228986   2.587   1.545   2.346
 9363SOL     OW28987   3.469   6.155   3.078
 9363SOL    HW128988   3.407   6.096   3.129
 9363SOL    HW228989   3.488   6.237   3.131
 9364SOL     OW28990   4.482   2.858   6.543
 9364SOL    HW128991   4.474   2.810   6.631
 9364SOL    HW228992   4.493   2.792   6.470
 9365SOL     OW28993   2.809   1.666   4.948
 9365SOL    HW128994   2.840   1.572   4.933
 9365SOL    HW228995   2.814   1.717   4.862
 9366SOL     OW28996   3.382   2.050   0.511
 9366SOL    HW128997   3.428   1.999   0.583
 9366SOL    HW228998   3.409   2.146   0.515
 9367SOL     OW28999   6.935   5.798   3.265
 9367SOL    HW129000   6.990   5.730   3.216
 9367SOL    HW229001   6.994   5.867   3.305
 9368SOL     OW29002   3.196   2.235   1.622
 9368SOL    HW129003   3.126   2.215   1.691
 9368SOL    HW229004   3.167   2.312   1.566
 9369SOL     OW29005   6.814   1.656   5.504
 9369SOL    HW129006   6.719   1.675   5.481
 9369SOL    HW229007   6.842   1.712   5.582
 9370SOL     OW29008   6.303   0.787   2.906
 9370SOL    HW129009   6.263   0.764   2.818
 9370SOL    HW229010   6.273   0.720   2.974
 9371SOL     OW29011   1.321   5.835   0.419
 9371SOL    HW129012   1.238   5.866   0.465
 9371SOL    HW229013   1.338   5.893   0.339
 9372SOL     OW29014   5.556   6.682   3.384
 9372SOL    HW129015   5.610   6.706   3.303
 9372SOL    HW229016   5.614   6.632   3.449
 9373SOL     OW29017   4.275   1.470   3.076
 9373SOL    HW129018   4.197   1.408   3.084
 9373SOL    HW229019   4.359   1.423   3.105
 9374SOL     OW29020   5.751   2.596   0.112
 9374SOL    HW129021   5.847   2.622   0.120
 9374SOL    HW229022   5.695   2.661   0.165
 9375SOL     OW29023   6.984   1.063   2.638
 9375SOL    HW129024   0.059   1.073   2.630
 9375SOL    HW229025   6.939   1.112   2.564
 9376SOL     OW29026   3.095   3.676   0.560
 9376SOL    HW129027   3.185   3.677   0.604
 9376SOL    HW229028   3.042   3.754   0.592
 9377SOL     OW29029   6.818   5.487   4.016
 9377SOL    HW129030   6.766   5.401   4.011
 9377SOL    HW229031   6.894   5.484   3.951
 9378SOL     OW29032   2.527   0.123   6.990
 9378SOL    HW129033   2.428   0.137   6.987
 9378SOL    HW229034   2.556   0.113   0.061
 9379SOL     OW29035   4.630   4.735   3.928
 9379SOL    HW129036   4.545   4.782   3.953
 9379SOL    HW229037   4.701   4.757   3.994
 9380SOL     OW29038   6.598   7.013   5.682
 9380SOL    HW129039   6.630   0.079   5.652
 9380SOL    HW229040   6.579   6.956   5.602
 9381SOL     OW29041   2.698   2.653   5.331
 9381SOL    HW129042   2.775   2.716   5.324
 9381SOL    HW229043   2.616   2.703   5.359
 9382SOL     OW29044   3.944   0.941   2.956
 9382SOL    HW129045   3.974   0.930   2.861
 9382SOL    HW229046   3.858   0.992   2.958
 9383SOL     OW29047   3.197   6.930   4.429
 9383SOL    HW129048   3.167   6.834   4.435
 9383SOL    HW229049   3.258   6.950   4.506
 9384SOL     OW29050   5.041   6.110   2.597
 9384SOL    HW129051   5.063   6.052   2.519
 9384SOL    HW229052   4.951   6.152   2.583
 9385SOL     OW29053   3.964   1.315   3.495
 9385SOL    HW129054   4.031   1.259   3.544
 9385SOL    HW229055   3.910   1.367   3.561
 9386SOL     OW29056   3.471   6.591   5.136
 9386SOL    HW129057   3.388   6.535   5.137
 9386SOL    HW229058   3.529   6.562   5.060
 9387SOL     OW29059   3.193   6.662   1.283
 9387SOL    HW129060   3.259   6.737   1.287
 9387SOL    HW229061   3.136   6.663   1.365
 9388SOL     OW29062   0.652   6.672   2.851
 9388SOL    HW129063   0.740   6.624   2.855
 9388SOL    HW229064   0.582   6.615   2.895
 9389SOL     OW29065   2.690   0.636   5.443
 9389SOL    HW129066   2.700   0.573   5.519
 9389SOL    HW229067   2.682   0.585   5.357
 9390SOL     OW29068   3.656   5.693   3.134
 9390SOL    HW129069   3.603   5.722   3.213
 9390SOL    HW229070   3.679   5.773   3.078
 9391SOL     OW29071   1.363   1.346   5.211
 9391SOL    HW129072   1.311   1.260   5.218
 9391SOL    HW229073   1.405   1.366   5.299
 9392SOL     OW29074   0.809   6.554   4.995
 9392SOL    HW129075   0.724   6.595   5.029
 9392SOL    HW229076   0.789   6.463   4.957
 9393SOL     OW29077   4.035   2.006   5.312
 9393SOL    HW129078   3.961   1.997   5.378
 9393SOL    HW229079   4.047   2.102   5.287
 9394SOL     OW29080   6.235   2.581   3.276
 9394SOL    HW129081   6.230   2.598   3.178
 9394SOL    HW229082   6.145   2.552   3.309
 9395SOL     OW29083   2.644   2.651   0.540
 9395SOL    HW129084   2.651   2.642   0.639
 9395SOL    HW229085   2.562   2.603   0.508
 9396SOL     OW29086   6.769   6.485   4.976
 9396SOL    HW129087   6.796   6.578   5.003
 9396SOL    HW229088   6.698   6.490   4.906
 9397SOL     OW29089   1.847   0.842   7.017
 9397SOL    HW129090   1.822   0.764   0.050
 9397SOL    HW229091   1.943   0.866   0.010
 9398SOL     OW29092   2.579   1.373   6.990
 9398SOL    HW129093   2.484   1.344   6.984
 9398SOL    HW229094   2.635   1.319   6.927
 9399SOL     OW29095   6.534   1.934   6.341
 9399SOL    HW129096   6.629   1.922   6.314
 9399SOL    HW229097   6.525   2.017   6.396
 9400SOL     OW29098   5.161   3.266   1.614
 9400SOL    HW129099   5.092   3.213   1.565
 9400SOL    HW229100   5.202   3.209   1.685
 9401SOL     OW29101   2.372   6.429   3.742
 9401SOL    HW129102   2.426   6.347   3.762
 9401SOL    HW229103   2.278   6.403   3.722
 9402SOL     OW29104   2.694   5.319   6.521
 9402SOL    HW129105   2.773   5.337   6.579
 9402SOL    HW229106   2.711   5.356   6.430
 9403SOL     OW29107   5.346   1.381   3.547
 9403SOL    HW129108   5.409   1.352   3.620
 9403SOL    HW229109   5.253   1.380   3.581
 9404SOL     OW29110   0.551   4.847   6.696
 9404SOL    HW129111   0.572   4.765   6.751
 9404SOL    HW229112   0.596   4.839   6.607
 9405SOL     OW29113   5.787   6.482   1.531
 9405SOL    HW129114   5.727   6.503   1.454
 9405SOL    HW229115   5.765   6.392   1.567
 9406SOL     OW29116   6.866   2.140   5.577
 9406SOL    HW129117   6.957   2.157   5.538
 9406SOL    HW229118   6.855   2.193   5.661
 9407SOL     OW29119   2.918   6.585   3.256
 9407SOL    HW129120   2.963   6.673   3.239
 9407SOL    HW229121   2.847   6.596   3.325
 9408SOL     OW29122   4.062   1.278   6.642
 9408SOL    HW129123   4.001   1.210   6.601
 9408SOL    HW229124   4.099   1.242   6.728
 9409SOL     OW29125   5.160   3.977   4.343
 9409SOL    HW129126   5.083   4.029   4.381
 9409SOL    HW229127   5.125   3.913   4.273
 9410SOL     OW29128   3.775   6.215   2.083
 9410SOL    HW129129   3.857   6.243   2.132
 9410SOL    HW229130   3.694   6.244   2.134
 9411SOL     OW29131   4.075   5.410   0.855
 9411SOL    HW129132   4.072   5.441   0.950
 9411SOL    HW229133   4.054   5.486   0.794
 9412SOL     OW29134   0.563   3.108   1.670
 9412SOL    HW129135   0.474   3.076   1.637
 9412SOL    HW229136   0.620   3.030   1.695
 9413SOL     OW29137   4.250   5.775   5.330
 9413SOL    HW129138   4.294   5.823   5.254
 9413SOL    HW229139   4.197   5.698   5.295
 9414SOL     OW29140   2.974   1.472   2.434
 9414SOL    HW129141   2.944   1.565   2.454
 9414SOL    HW229142   3.066   1.457   2.471
 9415SOL     OW29143   1.754   6.913   2.696
 9415SOL    HW129144   1.756   6.895   2.597
 9415SOL    HW229145   1.786   6.831   2.744
 9416SOL     OW29146   0.780   1.652   1.366
 9416SOL    HW129147   0.797   1.748   1.344
 9416SOL    HW229148   0.686   1.641   1.400
 9417SOL     OW29149   3.023   6.096   5.376
 9417SOL    HW129150   2.954   6.147   5.326
 9417SOL    HW229151   3.104   6.154   5.390
 9418SOL     OW29152   2.456   5.684   1.067
 9418SOL    HW129153   2.486   5.777   1.085
 9418SOL    HW229154   2.500   5.649   0.984
 9419SOL     OW29155   3.304   6.685   5.532
 9419SOL    HW129156   3.311   6.740   5.615
 9419SOL    HW229157   3.215   6.699   5.490
 9420SOL     OW29158   0.019   1.545   4.477
 9420SOL    HW129159   0.009   1.643   4.491
 9420SOL    HW229160   0.029   1.526   4.379
 9421SOL     OW29161   2.189   5.126   5.073
 9421SOL    HW129162   2.268   5.167   5.026
 9421SOL    HW229163   2.195   5.027   5.068
 9422SOL     OW29164   5.393   0.173   2.392
 9422SOL    HW129165   5.353   0.166   2.301
 9422SOL    HW229166   5.396   0.269   2.419
 9423SOL     OW29167   4.293   0.541   3.109
 9423SOL    HW129168   4.286   0.629   3.063
 9423SOL    HW229169   4.370   0.490   3.072
 9424SOL     OW29170   5.117   0.056   5.702
 9424SOL    HW129171   5.208   0.029   5.672
 9424SOL    HW229172   5.048   0.018   5.641
 9425SOL     OW29173   0.442   3.428   6.068
 9425SOL    HW129174   0.518   3.485   6.098
 9425SOL    HW229175   0.400   3.469   5.987
 9426SOL     OW29176   2.806   1.683   0.248
 9426SOL    HW129177   2.805   1.779   0.276
 9426SOL    HW229178   2.898   1.658   0.218
 9427SOL     OW29179   2.831   5.139   4.787
 9427SOL    HW129180   2.773   5.063   4.817
 9427SOL    HW229181   2.881   5.175   4.866
 9428SOL     OW29182   5.872   6.771   2.782
 9428SOL    HW129183   5.776   6.801   2.782
 9428SOL    HW229184   5.932   6.850   2.769
 9429SOL     OW29185   1.189   3.921   2.177
 9429SOL    HW129186   1.136   3.908   2.094
 9429SOL    HW229187   1.248   3.842   2.193
 9430SOL     OW29188   6.368   6.767   2.274
 9430SOL    HW129189   6.352   6.732   2.182
 9430SOL    HW229190   6.304   6.842   2.293
 9431SOL     OW29191   6.155   4.018   0.239
 9431SOL    HW129192   6.228   3.950   0.245
 9431SOL    HW229193   6.194   4.110   0.247
 9432SOL     OW29194   6.033   0.105   3.780
 9432SOL    HW129195   6.113   0.073   3.830
 9432SOL    HW229196   6.047   0.091   3.682
 9433SOL     OW29197   3.285   4.954   4.862
 9433SOL    HW129198   3.275   4.908   4.773
 9433SOL    HW229199   3.197   4.951   4.910
 9434SOL     OW29200   5.799   4.412   3.433
 9434SOL    HW129201   5.899   4.417   3.428
 9434SOL    HW229202   5.760   4.499   3.403
 9435SOL     OW29203   1.639   1.280   4.296
 9435SOL    HW129204   1.596   1.263   4.208
 9435SOL    HW229205   1.733   1.246   4.295
 9436SOL     OW29206   1.635   3.742   1.103
 9436SOL    HW129207   1.663   3.774   1.193
 9436SOL    HW229208   1.568   3.669   1.112
 9437SOL     OW29209   1.211   5.832   3.305
 9437SOL    HW129210   1.181   5.926   3.290
 9437SOL    HW229211   1.272   5.829   3.385
 9438SOL     OW29212   0.995   6.319   1.746
 9438SOL    HW129213   0.917   6.326   1.684
 9438SOL    HW229214   1.055   6.398   1.731
 9439SOL     OW29215   6.817   3.031   2.007
 9439SOL    HW129216   6.778   2.952   2.055
 9439SOL    HW229217   6.794   3.115   2.056
 9440SOL     OW29218   4.866   6.275   4.732
 9440SOL    HW129219   4.869   6.332   4.814
 9440SOL    HW229220   4.816   6.191   4.751
 9441SOL     OW29221   1.424   5.351   5.461
 9441SOL    HW129222   1.429   5.423   5.392
 9441SOL    HW229223   1.499   5.287   5.447
 9442SOL     OW29224   6.564   1.859   0.016
 9442SOL    HW129225   6.497   1.793   0.052
 9442SOL    HW229226   6.516   1.941   7.008
 9443SOL     OW29227   1.941   4.619   1.190
 9443SOL    HW129228   2.034   4.654   1.183
 9443SOL    HW229229   1.924   4.587   1.283
 9444SOL     OW29230   0.321   3.295   0.125
 9444SOL    HW129231   0.228   3.261   0.109
 9444SOL    HW229232   0.380   3.218   0.151
 9445SOL     OW29233   5.021   3.685   2.024
 9445SOL    HW129234   4.991   3.717   2.114
 9445SOL    HW229235   4.990   3.591   2.009
 9446SOL     OW29236   6.619   6.553   2.974
 9446SOL    HW129237   6.547   6.526   2.909
 9446SOL    HW229238   6.580   6.609   3.046
 9447SOL     OW29239   5.458   3.354   2.464
 9447SOL    HW129240   5.408   3.343   2.550
 9447SOL    HW229241   5.394   3.380   2.391
 9448SOL     OW29242   5.120   6.152   5.853
 9448SOL    HW129243   5.220   6.145   5.845
 9448SOL    HW229244   5.077   6.078   5.801
 9449SOL     OW29245   6.758   5.346   5.435
 9449SOL    HW129246   6.674   5.362   5.487
 9449SOL    HW229247   6.792   5.254   5.455
 9450SOL     OW29248   2.562   5.016   5.049
 9450SOL    HW129249   2.505   5.085   5.005
 9450SOL    HW229250   2.570   5.036   5.147
 9451SOL     OW29251   4.799   5.869   6.122
 9451SOL    HW129252   4.805   5.964   6.094
 9451SOL    HW229253   4.787   5.810   6.042
 9452SOL     OW29254   2.282   3.350   0.575
 9452SOL    HW129255   2.220   3.367   0.651
 9452SOL    HW229256   2.283   3.253   0.553
 9453SOL     OW29257   1.932   4.269   2.885
 9453SOL    HW129258   1.987   4.352   2.879
 9453SOL    HW229259   1.917   4.232   2.793
 9454SOL     OW29260   1.364   4.161   6.229
 9454SOL    HW129261   1.367   4.066   6.198
 9454SOL    HW229262   1.364   4.222   6.149
 9455SOL     OW29263   3.227   1.438   2.507
 9455SOL    HW129264   3.296   1.366   2.502
 9455SOL    HW229265   3.268   1.525   2.481
 9456SOL     OW29266   0.426   4.376   0.968
 9456SOL    HW129267   0.433   4.337   1.059
 9456SOL    HW229268   0.436   4.304   0.899
 9457SOL     OW29269   1.846   3.915   6.799
 9457SOL    HW129270   1.916   3.987   6.800
 9457SOL    HW229271   1.755   3.957   6.795
 9458SOL     OW29272   0.454   4.992   5.946
 9458SOL    HW129273   0.516   4.997   5.868
 9458SOL    HW229274   0.458   4.901   5.986
 9459SOL     OW29275   6.374   5.229   2.008
 9459SOL    HW129276   6.347   5.143   1.966
 9459SOL    HW229277   6.439   5.212   2.082
 9460SOL     OW29278   0.073   2.432   4.852
 9460SOL    HW129279   0.006   2.388   4.912
 9460SOL    HW229280   0.161   2.386   4.861
 9461SOL     OW29281   6.889   1.249   3.102
 9461SOL    HW129282   6.865   1.154   3.084
 9461SOL    HW229283   6.824   1.289   3.166
 9462SOL     OW29284   1.865   3.175   3.058
 9462SOL    HW129285   1.797   3.248   3.054
 9462SOL    HW229286   1.824   3.089   3.028
 9463SOL     OW29287   0.162   0.508   0.832
 9463SOL    HW129288   0.065   0.494   0.815
 9463SOL    HW229289   0.181   0.502   0.930
 9464SOL     OW29290   5.617   6.537   6.416
 9464SOL    HW129291   5.658   6.579   6.497
 9464SOL    HW229292   5.517   6.537   6.426
 9465SOL     OW29293   6.964   0.354   2.861
 9465SOL    HW129294   6.878   0.307   2.878
 9465SOL    HW229295   6.980   0.423   2.932
 9466SOL     OW29296   2.813   3.246   5.578
 9466SOL    HW129297   2.825   3.158   5.622
 9466SOL    HW229298   2.777   3.232   5.485
 9467SOL     OW29299   1.555   2.461   1.556
 9467SOL    HW129300   1.462   2.483   1.526
 9467SOL    HW229301   1.582   2.523   1.629
 9468SOL     OW29302   5.653   2.601   5.985
 9468SOL    HW129303   5.614   2.577   6.073
 9468SOL    HW229304   5.604   2.680   5.947
 9469SOL     OW29305   6.534   5.487   2.317
 9469SOL    HW129306   6.521   5.587   2.319
 9469SOL    HW229307   6.449   5.443   2.346
 9470SOL     OW29308   5.135   2.723   6.829
 9470SOL    HW129309   5.184   2.805   6.801
 9470SOL    HW229310   5.054   2.749   6.883
 9471SOL     OW29311   6.703   2.507   5.540
 9471SOL    HW129312   6.704   2.605   5.563
 9471SOL    HW229313   6.797   2.475   5.527
 9472SOL     OW29314   6.700   4.092   4.834
 9472SOL    HW129315   6.649   4.137   4.760
 9472SOL    HW229316   6.684   3.993   4.830
 9473SOL     OW29317   3.507   6.775   5.343
 9473SOL    HW129318   3.445   6.740   5.412
 9473SOL    HW229319   3.501   6.719   5.260
 9474SOL     OW29320   5.593   4.472   2.045
 9474SOL    HW129321   5.537   4.427   2.115
 9474SOL    HW229322   5.592   4.417   1.961
 9475SOL     OW29323   3.416   3.444   0.979
 9475SOL    HW129324   3.332   3.442   1.033
 9475SOL    HW229325   3.474   3.519   1.010
 9476SOL     OW29326   3.243   3.468   5.134
 9476SOL    HW129327   3.221   3.556   5.091
 9476SOL    HW229328   3.159   3.428   5.172
 9477SOL     OW29329   0.775   3.251   1.070
 9477SOL    HW129330   0.793   3.159   1.107
 9477SOL    HW229331   0.677   3.259   1.048
 9478SOL     OW29332   5.190   3.803   5.805
 9478SOL    HW129333   5.250   3.768   5.877
 9478SOL    HW229334   5.135   3.729   5.767
 9479SOL     OW29335   5.908   5.566   6.253
 9479SOL    HW129336   5.813   5.539   6.268
 9479SOL    HW229337   5.924   5.578   6.155
 9480SOL     OW29338   4.121   4.402   6.426
 9480SOL    HW129339   4.031   4.443   6.409
 9480SOL    HW229340   4.185   4.471   6.459
 9481SOL     OW29341   6.523   4.023   1.783
 9481SOL    HW129342   6.608   4.036   1.834
 9481SOL    HW229343   6.486   4.111   1.755
 9482SOL     OW29344   5.806   0.733   3.403
 9482SOL    HW129345   5.793   0.760   3.308
 9482SOL    HW229346   5.832   0.814   3.457
 9483SOL     OW29347   1.703   1.779   0.739
 9483SOL    HW129348   1.730   1.785   0.835
 9483SOL    HW229349   1.611   1.817   0.728
 9484SOL     OW29350   6.155   1.414   3.918
 9484SOL    HW129351   6.101   1.495   3.939
 9484SOL    HW229352   6.095   1.344   3.879
 9485SOL     OW29353   1.451   0.574   1.820
 9485SOL    HW129354   1.547   0.560   1.796
 9485SOL    HW229355   1.394   0.508   1.770
 9486SOL     OW29356   2.386   5.327   0.674
 9486SOL    HW129357   2.341   5.290   0.593
 9486SOL    HW229358   2.337   5.408   0.705
 9487SOL     OW29359   3.019   3.873   3.427
 9487SOL    HW129360   3.068   3.878   3.514
 9487SOL    HW229361   3.055   3.942   3.365
 9488SOL     OW29362   1.767   6.068   1.457
 9488SOL    HW129363   1.737   6.046   1.551
 9488SOL    HW229364   1.798   5.984   1.412
 9489SOL     OW29365   3.773   4.096   0.622
 9489SOL    HW129366   3.687   4.063   0.581
 9489SOL    HW229367   3.827   4.018   0.653
 9490SOL     OW29368   5.333   0.278   1.036
 9490SOL    HW129369   5.267   0.233   0.976
 9490SOL    HW229370   5.285   0.315   1.116
 9491SOL     OW29371   0.289   5.012   4.797
 9491SOL    HW129372   0.308   5.107   4.772
 9491SOL    HW229373   0.242   5.009   4.885
 9492SOL     OW29374   3.278   3.862   2.336
 9492SOL    HW129375   3.271   3.902   2.428
 9492SOL    HW229376   3.266   3.934   2.268
 9493SOL     OW29377   4.885   4.871   3.830
 9493SOL    HW129378   4.822   4.842   3.757
 9493SOL    HW229379   4.835   4.878   3.916
 9494SOL     OW29380   5.207   3.854   0.640
 9494SOL    HW129381   5.225   3.922   0.569
 9494SOL    HW229382   5.290   3.839   0.693
 9495SOL     OW29383   6.282   1.873   3.512
 9495SOL    HW129384   6.310   1.863   3.417
 9495SOL    HW229385   6.348   1.829   3.572
 9496SOL     OW29386   5.137   4.104   6.740
 9496SOL    HW129387   5.081   4.054   6.674
 9496SOL    HW229388   5.165   4.191   6.701
 9497SOL     OW29389   4.105   4.098   0.854
 9497SOL    HW129390   4.198   4.064   0.840
 9497SOL    HW229391   4.091   4.118   0.951
 9498SOL     OW29392   4.652   6.801   5.578
 9498SOL    HW129393   4.650   6.887   5.629
 9498SOL    HW229394   4.560   6.762   5.575
 9499SOL     OW29395   2.118   3.729   5.789
 9499SOL    HW129396   2.041   3.756   5.732
 9499SOL    HW229397   2.152   3.809   5.839
 9500SOL     OW29398   3.899   6.624   1.744
 9500SOL    HW129399   3.840   6.544   1.736
 9500SOL    HW229400   3.906   6.669   1.655
 9501SOL     OW29401   3.618   1.985   4.663
 9501SOL    HW129402   3.524   2.012   4.687
 9501SOL    HW229403   3.682   2.030   4.725
 9502SOL     OW29404   6.853   2.209   4.745
 9502SOL    HW129405   6.755   2.226   4.754
 9502SOL    HW229406   6.893   2.278   4.685
 9503SOL     OW29407   6.988   1.219   1.318
 9503SOL    HW129408   0.021   1.199   1.398
 9503SOL    HW229409   0.019   1.265   1.248
 9504SOL     OW29410   6.730   2.599   1.209
 9504SOL    HW129411   6.789   2.530   1.169
 9504SOL    HW229412   6.750   2.688   1.168
 9505SOL     OW29413   5.734   3.807   3.499
 9505SOL    HW129414   5.720   3.906   3.492
 9505SOL    HW229415   5.827   3.788   3.529
 9506SOL     OW29416   0.065   3.224   0.077
 9506SOL    HW129417   0.048   3.127   0.062
 9506SOL    HW229418   0.010   3.278   0.014
 9507SOL     OW29419   2.231   1.213   4.389
 9507SOL    HW129420   2.183   1.273   4.325
 9507SOL    HW229421   2.330   1.229   4.382
 9508SOL     OW29422   5.288   2.573   0.493
 9508SOL    HW129423   5.335   2.487   0.471
 9508SOL    HW229424   5.345   2.628   0.553
 9509SOL     OW29425   1.118   6.591   5.804
 9509SOL    HW129426   1.060   6.552   5.732
 9509SOL    HW229427   1.141   6.685   5.781
 9510SOL     OW29428   0.141   3.826   1.963
 9510SOL    HW129429   0.237   3.818   1.936
 9510SOL    HW229430   0.083   3.820   1.882
 9511SOL     OW29431   0.648   2.023   0.314
 9511SOL    HW129432   0.594   1.990   0.391
 9511SOL    HW229433   0.587   2.064   0.246
 9512SOL     OW29434   6.585   1.820   3.568
 9512SOL    HW129435   6.619   1.865   3.486
 9512SOL    HW229436   6.662   1.795   3.627
 9513SOL     OW29437   1.930   4.004   4.818
 9513SOL    HW129438   1.868   4.026   4.742
 9513SOL    HW229439   2.017   3.973   4.781
 9514SOL     OW29440   1.910   3.643   6.908
 9514SOL    HW129441   1.910   3.725   6.851
 9514SOL    HW229442   1.827   3.640   6.963
 9515SOL     OW29443   1.293   5.949   0.141
 9515SOL    HW129444   1.298   5.968   0.042
 9515SOL    HW229445   1.198   5.933   0.167
 9516SOL     OW29446   4.900   3.203   4.115
 9516SOL    HW129447   4.978   3.142   4.124
 9516SOL    HW229448   4.904   3.250   4.027
 9517SOL     OW29449   1.072   5.107   1.138
 9517SOL    HW129450   1.159   5.120   1.185
 9517SOL    HW229451   1.001   5.160   1.185
 9518SOL     OW29452   1.648   2.440   6.158
 9518SOL    HW129453   1.672   2.529   6.197
 9518SOL    HW229454   1.730   2.394   6.124
 9519SOL     OW29455   2.959   3.228   2.972
 9519SOL    HW129456   3.023   3.199   2.901
 9519SOL    HW229457   2.933   3.324   2.956
 9520SOL     OW29458   6.775   0.929   4.468
 9520SOL    HW129459   6.741   0.967   4.554
 9520SOL    HW229460   6.856   0.980   4.440
 9521SOL     OW29461   3.139   5.058   1.505
 9521SOL    HW129462   3.160   4.975   1.557
 9521SOL    HW229463   3.217   5.121   1.510
 9522SOL     OW29464   4.187   5.353   2.517
 9522SOL    HW129465   4.278   5.315   2.505
 9522SOL    HW229466   4.166   5.359   2.615
 9523SOL     OW29467   2.424   5.236   4.948
 9523SOL    HW129468   2.434   5.236   4.848
 9523SOL    HW229469   2.481   5.307   4.988
 9524SOL     OW29470   1.451   3.580   1.790
 9524SOL    HW129471   1.376   3.586   1.856
 9524SOL    HW229472   1.455   3.663   1.736
 9525SOL     OW29473   2.080   1.713   6.050
 9525SOL    HW129474   2.016   1.700   5.975
 9525SOL    HW229475   2.098   1.810   6.063
 9526SOL     OW29476   5.448   4.879   0.648
 9526SOL    HW129477   5.361   4.834   0.629
 9526SOL    HW229478   5.491   4.837   0.728
 9527SOL     OW29479   2.643   6.660   4.362
 9527SOL    HW129480   2.579   6.722   4.316
 9527SOL    HW229481   2.694   6.608   4.293
 9528SOL     OW29482   5.918   1.061   1.791
 9528SOL    HW129483   5.989   1.128   1.814
 9528SOL    HW229484   5.962   0.975   1.764
 9529SOL     OW29485   5.830   3.590   0.729
 9529SOL    HW129486   5.901   3.638   0.781
 9529SOL    HW229487   5.776   3.533   0.792
 9530SOL     OW29488   1.138   5.170   4.404
 9530SOL    HW129489   1.046   5.132   4.412
 9530SOL    HW229490   1.203   5.095   4.388
 9531SOL     OW29491   4.129   4.731   2.989
 9531SOL    HW129492   4.218   4.688   2.972
 9531SOL    HW229493   4.143   4.826   3.016
 9532SOL     OW29494   6.271   5.026   1.459
 9532SOL    HW129495   6.341   5.096   1.454
 9532SOL    HW229496   6.240   5.016   1.554
 9533SOL     OW29497   0.805   5.791   4.437
 9533SOL    HW129498   0.830   5.712   4.492
 9533SOL    HW229499   0.887   5.831   4.397
 9534SOL     OW29500   6.162   4.203   5.063
 9534SOL    HW129501   6.146   4.111   5.027
 9534SOL    HW229502   6.079   4.258   5.049
 9535SOL     OW29503   2.056   2.015   5.481
 9535SOL    HW129504   2.081   1.935   5.536
 9535SOL    HW229505   1.969   2.052   5.512
 9536SOL     OW29506   3.695   3.028   4.598
 9536SOL    HW129507   3.617   2.975   4.632
 9536SOL    HW229508   3.727   3.089   4.671
 9537SOL     OW29509   2.841   1.616   4.156
 9537SOL    HW129510   2.759   1.650   4.204
 9537SOL    HW229511   2.901   1.570   4.222
 9538SOL     OW29512   4.350   1.117   4.390
 9538SOL    HW129513   4.341   1.215   4.407
 9538SOL    HW229514   4.281   1.068   4.443
 9539SOL     OW29515   3.029   3.196   4.340
 9539SOL    HW129516   3.005   3.224   4.248
 9539SOL    HW229517   2.978   3.250   4.407
 9540SOL     OW29518   4.814   5.282   4.009
 9540SOL    HW129519   4.800   5.381   3.997
 9540SOL    HW229520   4.727   5.235   3.997
 9541SOL     OW29521   1.289   1.000   5.510
 9541SOL    HW129522   1.319   1.002   5.606
 9541SOL    HW229523   1.362   1.037   5.452
 9542SOL     OW29524   5.718   4.755   4.898
 9542SOL    HW129525   5.738   4.749   4.800
 9542SOL    HW229526   5.745   4.845   4.933
 9543SOL     OW29527   3.034   0.294   5.779
 9543SOL    HW129528   3.036   0.307   5.680
 9543SOL    HW229529   2.939   0.283   5.810
 9544SOL     OW29530   4.865   3.913   3.993
 9544SOL    HW129531   4.816   3.977   3.934
 9544SOL    HW229532   4.863   3.822   3.953
 9545SOL     OW29533   0.326   5.581   2.185
 9545SOL    HW129534   0.423   5.602   2.198
 9545SOL    HW229535   0.284   5.651   2.128
 9546SOL     OW29536   3.648   1.735   5.707
 9546SOL    HW129537   3.587   1.721   5.629
 9546SOL    HW229538   3.606   1.698   5.790
 9547SOL     OW29539   2.722   5.714   3.918
 9547SOL    HW129540   2.718   5.640   3.851
 9547SOL    HW229541   2.631   5.732   3.954
 9548SOL     OW29542   0.985   5.643   4.676
 9548SOL    HW129543   1.081   5.625   4.655
 9548SOL    HW229544   0.971   5.638   4.775
 9549SOL     OW29545   3.309   0.524   2.588
 9549SOL    HW129546   3.347   0.432   2.594
 9549SOL    HW229547   3.266   0.548   2.675
 9550SOL     OW29548   6.335   2.360   0.661
 9550SOL    HW129549   6.428   2.328   0.677
 9550SOL    HW229550   6.281   2.286   0.619
 9551SOL     OW29551   5.998   3.183   6.182
 9551SOL    HW129552   5.948   3.200   6.097
 9551SOL    HW229553   6.072   3.118   6.163
 9552SOL     OW29554   2.324   0.263   6.101
 9552SOL    HW129555   2.280   0.349   6.127
 9552SOL    HW229556   2.394   0.240   6.169
 9553SOL     OW29557   5.534   1.922   0.258
 9553SOL    HW129558   5.625   1.939   0.219
 9553SOL    HW229559   5.474   1.884   0.188
 9554SOL     OW29560   2.095   6.815   3.704
 9554SOL    HW129561   2.071   6.854   3.615
 9554SOL    HW229562   2.038   6.734   3.721
 9555SOL     OW29563   0.287   1.647   3.207
 9555SOL    HW129564   0.268   1.718   3.139
 9555SOL    HW229565   0.373   1.667   3.253
 9556SOL     OW29566   1.756   4.805   1.491
 9556SOL    HW129567   1.839   4.850   1.462
 9556SOL    HW229568   1.759   4.708   1.466
 9557SOL     OW29569   4.797   6.911   1.660
 9557SOL    HW129570   4.793   6.882   1.756
 9557SOL    HW229571   4.852   6.994   1.652
 9558SOL     OW29572   5.403   6.389   5.323
 9558SOL    HW129573   5.387   6.476   5.371
 9558SOL    HW229574   5.486   6.346   5.361
 9559SOL     OW29575   1.024   3.866   0.068
 9559SOL    HW129576   1.058   3.772   0.068
 9559SOL    HW229577   1.101   3.929   0.057
 9560SOL     OW29578   2.382   0.986   2.664
 9560SOL    HW129579   2.314   0.925   2.704
 9560SOL    HW229580   2.349   1.020   2.576
 9561SOL     OW29581   0.398   0.732   1.286
 9561SOL    HW129582   0.443   0.693   1.205
 9561SOL    HW229583   0.312   0.774   1.260
 9562SOL     OW29584   2.707   6.720   3.954
 9562SOL    HW129585   2.796   6.729   3.999
 9562SOL    HW229586   2.649   6.659   4.008
 9563SOL     OW29587   0.200   6.374   0.356
 9563SOL    HW129588   0.151   6.460   0.342
 9563SOL    HW229589   0.141   6.297   0.331
 9564SOL     OW29590   2.244   1.423   0.881
 9564SOL    HW129591   2.241   1.505   0.824
 9564SOL    HW229592   2.272   1.345   0.825
 9565SOL     OW29593   3.330   1.441   4.682
 9565SOL    HW129594   3.336   1.462   4.584
 9565SOL    HW229595   3.420   1.451   4.724
 9566SOL     OW29596   2.748   5.855   0.061
 9566SOL    HW129597   2.756   5.935   0.002
 9566SOL    HW229598   2.825   5.793   0.045
 9567SOL     OW29599   5.956   4.195   0.753
 9567SOL    HW129600   5.900   4.114   0.733
 9567SOL    HW229601   6.050   4.178   0.724
 9568SOL     OW29602   4.171   1.333   0.361
 9568SOL    HW129603   4.236   1.337   0.285
 9568SOL    HW229604   4.080   1.359   0.328
 9569SOL     OW29605   0.346   0.966   1.802
 9569SOL    HW129606   0.278   0.936   1.735
 9569SOL    HW229607   0.361   0.893   1.869
 9570SOL     OW29608   0.497   2.841   0.735
 9570SOL    HW129609   0.470   2.767   0.674
 9570SOL    HW229610   0.538   2.803   0.818
 9571SOL     OW29611   2.766   2.644   6.046
 9571SOL    HW129612   2.820   2.608   5.969
 9571SOL    HW229613   2.769   2.580   6.122
 9572SOL     OW29614   2.266   4.671   2.347
 9572SOL    HW129615   2.231   4.581   2.371
 9572SOL    HW229616   2.216   4.741   2.399
 9573SOL     OW29617   6.962   1.229   6.140
 9573SOL    HW129618   6.965   1.235   6.040
 9573SOL    HW229619   0.026   1.260   6.178
 9574SOL     OW29620   3.456   2.815   1.921
 9574SOL    HW129621   3.488   2.732   1.876
 9574SOL    HW229622   3.533   2.859   1.968
 9575SOL     OW29623   6.588   0.982   1.930
 9575SOL    HW129624   6.633   0.910   1.982
 9575SOL    HW229625   6.632   0.992   1.841
 9576SOL     OW29626   1.512   2.030   0.059
 9576SOL    HW129627   1.493   1.967   7.008
 9576SOL    HW229628   1.464   2.000   0.141
 9577SOL     OW29629   0.465   5.904   5.863
 9577SOL    HW129630   0.410   5.936   5.787
 9577SOL    HW229631   0.469   5.804   5.863
 9578SOL     OW29632   1.526   2.897   2.464
 9578SOL    HW129633   1.483   2.834   2.529
 9578SOL    HW229634   1.611   2.856   2.431
 9579SOL     OW29635   7.008   6.162   2.906
 9579SOL    HW129636   6.910   6.144   2.915
 9579SOL    HW229637   7.022   6.253   2.867
 9580SOL     OW29638   5.294   3.617   1.097
 9580SOL    HW129639   5.261   3.658   1.182
 9580SOL    HW229640   5.390   3.641   1.083
 9581SOL     OW29641   0.467   6.742   6.625
 9581SOL    HW129642   0.509   6.741   6.716
 9581SOL    HW229643   0.443   6.649   6.599
 9582SOL     OW29644   3.859   5.876   4.660
 9582SOL    HW129645   3.907   5.809   4.603
 9582SOL    HW229646   3.766   5.888   4.626
 9583SOL     OW29647   2.848   4.243   1.418
 9583SOL    HW129648   2.833   4.340   1.403
 9583SOL    HW229649   2.893   4.229   1.507
 9584SOL     OW29650   1.132   5.029   5.981
 9584SOL    HW129651   1.114   5.008   6.078
 9584SOL    HW229652   1.203   5.099   5.975
 9585SOL     OW29653   5.066   6.431   2.728
 9585SOL    HW129654   5.076   6.388   2.817
 9585SOL    HW229655   5.072   6.530   2.737
 9586SOL     OW29656   4.447   5.290   2.542
 9586SOL    HW129657   4.547   5.293   2.547
 9586SOL    HW229658   4.416   5.196   2.555
 9587SOL     OW29659   1.172   6.814   1.763
 9587SOL    HW129660   1.182   6.899   1.711
 9587SOL    HW229661   1.126   6.834   1.849
 9588SOL     OW29662   6.096   6.167   0.398
 9588SOL    HW129663   6.174   6.227   0.415
 9588SOL    HW229664   6.011   6.219   0.408
 9589SOL     OW29665   1.714   4.191   6.850
 9589SOL    HW129666   1.747   4.285   6.857
 9589SOL    HW229667   1.726   4.144   6.937
 9590SOL     OW29668   6.082   2.543   1.763
 9590SOL    HW129669   6.059   2.561   1.668
 9590SOL    HW229670   6.144   2.465   1.768
 9591SOL     OW29671   3.668   5.833   6.203
 9591SOL    HW129672   3.660   5.883   6.289
 9591SOL    HW229673   3.579   5.829   6.158
 9592SOL     OW29674   3.319   5.018   1.147
 9592SOL    HW129675   3.337   4.920   1.138
 9592SOL    HW229676   3.226   5.031   1.183
 9593SOL     OW29677   1.279   1.664   6.030
 9593SOL    HW129678   1.201   1.618   5.987
 9593SOL    HW229679   1.363   1.615   6.008
 9594SOL     OW29680   2.624   6.128   4.672
 9594SOL    HW129681   2.699   6.118   4.737
 9594SOL    HW229682   2.588   6.221   4.676
 9595SOL     OW29683   0.484   2.587   3.722
 9595SOL    HW129684   0.518   2.513   3.780
 9595SOL    HW229685   0.508   2.675   3.763
 9596SOL     OW29686   0.862   5.153   0.266
 9596SOL    HW129687   0.829   5.085   0.332
 9596SOL    HW229688   0.784   5.196   0.221
 9597SOL     OW29689   0.140   4.057   1.398
 9597SOL    HW129690   0.076   4.106   1.339
 9597SOL    HW229691   0.179   4.121   1.465
 9598SOL     OW29692   2.187   3.949   3.449
 9598SOL    HW129693   2.189   4.014   3.525
 9598SOL    HW229694   2.237   3.988   3.371
 9599SOL     OW29695   2.879   0.407   3.652
 9599SOL    HW129696   2.954   0.351   3.618
 9599SOL    HW229697   2.792   0.364   3.628
 9600SOL     OW29698   3.047   0.508   0.027
 9600SOL    HW129699   3.037   0.596   7.004
 9600SOL    HW229700   2.971   0.495   0.090
 9601SOL     OW29701   5.276   4.448   0.459
 9601SOL    HW129702   5.227   4.455   0.372
 9601SOL    HW229703   5.223   4.494   0.530
 9602SOL     OW29704   5.225   4.072   5.853
 9602SOL    HW129705   5.194   4.127   5.930
 9602SOL    HW229706   5.153   4.006   5.828
 9603SOL     OW29707   4.562   0.220   6.471
 9603SOL    HW129708   4.581   0.125   6.497
 9603SOL    HW229709   4.609   0.241   6.385
 9604SOL     OW29710   4.839   7.019   1.202
 9604SOL    HW129711   4.896   6.995   1.281
 9604SOL    HW229712   4.839   6.942   1.138
 9605SOL     OW29713   1.323   5.429   3.541
 9605SOL    HW129714   1.298   5.425   3.444
 9605SOL    HW229715   1.419   5.406   3.552
 9606SOL     OW29716   1.455   6.686   6.511
 9606SOL    HW129717   1.403   6.642   6.437
 9606SOL    HW229718   1.549   6.701   6.481
 9607SOL     OW29719   2.785   1.267   6.798
 9607SOL    HW129720   2.828   1.339   6.743
 9607SOL    HW229721   2.833   1.181   6.784
 9608SOL     OW29722   0.042   4.453   1.749
 9608SOL    HW129723   7.007   4.462   1.829
 9608SOL    HW229724   0.137   4.443   1.778
 9609SOL     OW29725   3.304   3.114   0.385
 9609SOL    HW129726   3.386   3.169   0.398
 9609SOL    HW229727   3.234   3.141   0.451
 9610SOL     OW29728   1.712   4.371   3.537
 9610SOL    HW129729   1.744   4.415   3.620
 9610SOL    HW229730   1.626   4.414   3.507
 9611SOL     OW29731   1.207   6.417   0.720
 9611SOL    HW129732   1.169   6.429   0.628
 9611SOL    HW229733   1.306   6.408   0.714
 9612SOL     OW29734   0.478   3.236   1.960
 9612SOL    HW129735   0.487   3.270   1.867
 9612SOL    HW229736   0.524   3.147   1.968
 9613SOL     OW29737   4.859   6.304   3.590
 9613SOL    HW129738   4.844   6.333   3.684
 9613SOL    HW229739   4.836   6.207   3.580
 9614SOL     OW29740   3.700   2.000   1.827
 9614SOL    HW129741   3.630   2.025   1.760
 9614SOL    HW229742   3.705   2.071   1.897
 9615SOL     OW29743   2.118   0.942   1.492
 9615SOL    HW129744   2.217   0.940   1.506
 9615SOL    HW229745   2.097   0.999   1.412
 9616SOL     OW29746   3.655   4.117   1.049
 9616SOL    HW129747   3.557   4.097   1.040
 9616SOL    HW229748   3.693   4.063   1.124
 9617SOL     OW29749   1.825   2.770   3.353
 9617SOL    HW129750   1.903   2.803   3.300
 9617SOL    HW229751   1.773   2.847   3.388
 9618SOL     OW29752   2.495   0.268   0.646
 9618SOL    HW129753   2.418   0.215   0.609
 9618SOL    HW229754   2.535   0.218   0.724
 9619SOL     OW29755   1.820   0.309   6.328
 9619SOL    HW129756   1.753   0.257   6.382
 9619SOL    HW229757   1.778   0.395   6.297
 9620SOL     OW29758   4.416   6.930   5.937
 9620SOL    HW129759   4.374   6.873   5.867
 9620SOL    HW229760   4.446   6.873   6.013
 9621SOL     OW29761   1.836   2.857   2.132
 9621SOL    HW129762   1.765   2.863   2.062
 9621SOL    HW229763   1.891   2.775   2.115
 9622SOL     OW29764   0.261   1.579   0.441
 9622SOL    HW129765   0.195   1.653   0.454
 9622SOL    HW229766   0.304   1.556   0.528
 9623SOL     OW29767   2.604   3.369   5.364
 9623SOL    HW129768   2.670   3.327   5.301
 9623SOL    HW229769   2.649   3.444   5.413
 9624SOL     OW29770   6.775   4.480   3.033
 9624SOL    HW129771   6.863   4.485   2.988
 9624SOL    HW229772   6.788   4.460   3.130
 9625SOL     OW29773   4.863   5.726   6.814
 9625SOL    HW129774   4.907   5.810   6.845
 9625SOL    HW229775   4.876   5.715   6.715
 9626SOL     OW29776   4.600   5.227   0.705
 9626SOL    HW129777   4.554   5.225   0.616
 9626SOL    HW229778   4.690   5.185   0.696
 9627SOL     OW29779   0.534   5.645   5.842
 9627SOL    HW129780   0.538   5.632   5.941
 9627SOL    HW229781   0.621   5.681   5.810
 9628SOL     OW29782   5.134   5.094   0.791
 9628SOL    HW129783   5.179   5.013   0.829
 9628SOL    HW229784   5.043   5.103   0.831
 9629SOL     OW29785   1.266   0.718   1.362
 9629SOL    HW129786   1.200   0.682   1.428
 9629SOL    HW229787   1.339   0.651   1.347
 9630SOL     OW29788   6.250   6.999   4.349
 9630SOL    HW129789   6.253   0.075   4.356
 9630SOL    HW229790   6.214   6.961   4.434
 9631SOL     OW29791   0.073   6.528   6.689
 9631SOL    HW129792   0.081   6.521   6.788
 9631SOL    HW229793   0.028   6.446   6.653
 9632SOL     OW29794   1.722   0.432   3.131
 9632SOL    HW129795   1.642   0.443   3.071
 9632SOL    HW229796   1.741   0.335   3.143
 9633SOL     OW29797   5.132   5.071   6.359
 9633SOL    HW129798   5.151   4.974   6.372
 9633SOL    HW229799   5.087   5.085   6.271
 9634SOL     OW29800   1.354   6.487   3.934
 9634SOL    HW129801   1.269   6.436   3.943
 9634SOL    HW229802   1.411   6.470   4.015
 9635SOL     OW29803   1.932   6.052   5.011
 9635SOL    HW129804   1.946   6.083   4.917
 9635SOL    HW229805   2.016   6.010   5.045
 9636SOL     OW29806   4.190   1.462   5.496
 9636SOL    HW129807   4.223   1.368   5.502
 9636SOL    HW229808   4.090   1.462   5.491
 9637SOL     OW29809   2.626   2.442   6.270
 9637SOL    HW129810   2.538   2.468   6.309
 9637SOL    HW229811   2.615   2.425   6.172
 9638SOL     OW29812   0.156   3.537   6.212
 9638SOL    HW129813   0.093   3.568   6.283
 9638SOL    HW229814   0.207   3.615   6.176
 9639SOL     OW29815   3.871   1.662   2.248
 9639SOL    HW129816   3.868   1.694   2.154
 9639SOL    HW229817   3.782   1.623   2.273
 9640SOL     OW29818   2.103   2.708   4.008
 9640SOL    HW129819   2.091   2.722   4.107
 9640SOL    HW229820   2.168   2.634   3.993
 9641SOL     OW29821   4.284   6.851   0.509
 9641SOL    HW129822   4.377   6.864   0.474
 9641SOL    HW229823   4.237   6.783   0.454
 9642SOL     OW29824   3.130   6.975   4.774
 9642SOL    HW129825   3.053   6.935   4.724
 9642SOL    HW229826   3.215   6.959   4.723
 9643SOL     OW29827   5.187   4.805   4.034
 9643SOL    HW129828   5.222   4.896   4.013
 9643SOL    HW229829   5.250   4.736   3.997
 9644SOL     OW29830   1.039   3.868   6.237
 9644SOL    HW129831   1.086   3.879   6.324
 9644SOL    HW229832   1.099   3.822   6.172
 9645SOL     OW29833   2.803   5.380   4.642
 9645SOL    HW129834   2.788   5.284   4.666
 9645SOL    HW229835   2.718   5.419   4.607
 9646SOL     OW29836   3.281   4.911   2.586
 9646SOL    HW129837   3.308   4.937   2.494
 9646SOL    HW229838   3.350   4.944   2.651
 9647SOL     OW29839   6.114   4.828   1.082
 9647SOL    HW129840   6.171   4.850   1.161
 9647SOL    HW229841   6.019   4.815   1.111
 9648SOL     OW29842   4.346   1.271   1.058
 9648SOL    HW129843   4.402   1.353   1.043
 9648SOL    HW229844   4.398   1.205   1.113
 9649SOL     OW29845   2.910   0.206   0.100
 9649SOL    HW129846   2.854   0.283   0.129
 9649SOL    HW229847   2.850   0.129   0.075
 9650SOL     OW29848   6.562   5.245   2.188
 9650SOL    HW129849   6.658   5.226   2.167
 9650SOL    HW229850   6.555   5.337   2.227
 9651SOL     OW29851   6.892   1.995   5.980
 9651SOL    HW129852   6.972   1.934   5.984
 9651SOL    HW229853   6.833   1.977   6.058
 9652SOL     OW29854   1.325   4.664   1.418
 9652SOL    HW129855   1.291   4.570   1.414
 9652SOL    HW229856   1.333   4.701   1.326
 9653SOL     OW29857   4.161   4.811   4.993
 9653SOL    HW129858   4.252   4.842   4.965
 9653SOL    HW229859   4.162   4.712   5.007
 9654SOL     OW29860   2.945   2.076   1.157
 9654SOL    HW129861   2.912   2.143   1.091
 9654SOL    HW229862   2.981   1.996   1.109
 9655SOL     OW29863   0.346   1.294   6.426
 9655SOL    HW129864   0.341   1.392   6.442
 9655SOL    HW229865   0.281   1.247   6.486
 9656SOL     OW29866   2.560   0.730   2.392
 9656SOL    HW129867   2.637   0.775   2.438
 9656SOL    HW229868   2.536   0.781   2.310
 9657SOL     OW29869   5.355   0.898   4.278
 9657SOL    HW129870   5.359   0.873   4.181
 9657SOL    HW229871   5.362   0.815   4.334
 9658SOL     OW29872   0.292   1.842   2.679
 9658SOL    HW129873   0.217   1.792   2.721
 9658SOL    HW229874   0.368   1.780   2.661
 9659SOL     OW29875   6.552   4.228   0.480
 9659SOL    HW129876   6.458   4.228   0.444
 9659SOL    HW229877   6.591   4.319   0.468
 9660SOL     OW29878   0.539   5.954   0.583
 9660SOL    HW129879   0.591   6.040   0.581
 9660SOL    HW229880   0.444   5.974   0.606
 9661SOL     OW29881   4.382   5.550   1.171
 9661SOL    HW129882   4.292   5.560   1.213
 9661SOL    HW229883   4.449   5.604   1.222
 9662SOL     OW29884   6.502   3.041   4.693
 9662SOL    HW129885   6.412   3.073   4.664
 9662SOL    HW229886   6.523   3.075   4.784
 9663SOL     OW29887   1.475   5.814   3.982
 9663SOL    HW129888   1.428   5.732   4.016
 9663SOL    HW229889   1.456   5.891   4.042
 9664SOL     OW29890   4.751   6.983   2.931
 9664SOL    HW129891   4.679   6.921   2.900
 9664SOL    HW229892   4.723   0.054   2.915
 9665SOL     OW29893   5.906   4.784   5.759
 9665SOL    HW129894   5.972   4.819   5.826
 9665SOL    HW229895   5.898   4.848   5.683
 9666SOL     OW29896   5.882   3.972   1.527
 9666SOL    HW129897   5.882   3.972   1.427
 9666SOL    HW229898   5.792   3.998   1.561
 9667SOL     OW29899   3.971   3.232   4.477
 9667SOL    HW129900   3.958   3.135   4.456
 9667SOL    HW229901   3.981   3.244   4.576
 9668SOL     OW29902   6.629   1.700   6.087
 9668SOL    HW129903   6.549   1.674   6.140
 9668SOL    HW229904   6.688   1.760   6.142
 9669SOL     OW29905   0.638   1.192   1.033
 9669SOL    HW129906   0.667   1.182   0.938
 9669SOL    HW229907   0.681   1.274   1.072
 9670SOL     OW29908   4.395   4.746   5.948
 9670SOL    HW129909   4.309   4.712   5.986
 9670SOL    HW229910   4.424   4.828   5.997
 9671SOL     OW29911   0.036   4.727   6.036
 9671SOL    HW129912   0.041   4.821   6.004
 9671SOL    HW229913   0.126   4.697   6.067
 9672SOL     OW29914   1.042   6.815   5.124
 9672SOL    HW129915   1.076   6.723   5.103
 9672SOL    HW229916   1.117   6.881   5.117
 9673SOL     OW29917   4.027   4.745   6.960
 9673SOL    HW129918   4.080   4.746   0.021
 9673SOL    HW229919   4.080   4.702   6.888
 9674SOL     OW29920   2.624   6.307   2.453
 9674SOL    HW129921   2.586   6.307   2.361
 9674SOL    HW229922   2.653   6.399   2.477
 9675SOL     OW29923   5.966   0.799   2.500
 9675SOL    HW129924   5.972   0.814   2.401
 9675SOL    HW229925   6.051   0.830   2.543
 9676SOL     OW29926   1.384   3.872   5.773
 9676SOL    HW129927   1.439   3.834   5.847
 9676SOL    HW229928   1.438   3.875   5.689
 9677SOL     OW29929   2.394   4.462   5.964
 9677SOL    HW129930   2.327   4.398   5.927
 9677SOL    HW229931   2.357   4.505   6.047
 9678SOL     OW29932   3.497   4.073   2.905
 9678SOL    HW129933   3.552   4.097   2.824
 9678SOL    HW229934   3.402   4.101   2.890
 9679SOL     OW29935   0.598   2.337   1.864
 9679SOL    HW129936   0.644   2.285   1.937
 9679SOL    HW229937   0.522   2.283   1.828
 9680SOL     OW29938   5.640   7.007   3.229
 9680SOL    HW129939   5.644   6.920   3.179
 9680SOL    HW229940   5.723   7.017   3.284
 9681SOL     OW29941   2.361   0.950   1.309
 9681SOL    HW129942   2.424   0.896   1.253
 9681SOL    HW229943   2.312   1.016   1.252
 9682SOL     OW29944   5.042   5.402   3.231
 9682SOL    HW129945   5.114   5.407   3.161
 9682SOL    HW229946   4.955   5.432   3.192
 9683SOL     OW29947   4.153   5.334   0.529
 9683SOL    HW129948   4.243   5.375   0.544
 9683SOL    HW229949   4.162   5.236   0.513
 9684SOL     OW29950   0.431   3.645   5.287
 9684SOL    HW129951   0.522   3.607   5.274
 9684SOL    HW229952   0.435   3.745   5.285
 9685SOL     OW29953   2.400   2.721   1.072
 9685SOL    HW129954   2.340   2.764   1.004
 9685SOL    HW229955   2.485   2.773   1.080
 9686SOL     OW29956   6.589   1.597   0.820
 9686SOL    HW129957   6.505   1.648   0.840
 9686SOL    HW229958   6.621   1.552   0.903
 9687SOL     OW29959   1.802   0.753   2.465
 9687SOL    HW129960   1.866   0.798   2.527
 9687SOL    HW229961   1.722   0.722   2.517
 9688SOL     OW29962   6.922   1.864   2.874
 9688SOL    HW129963   6.889   1.770   2.868
 9688SOL    HW229964   6.960   1.880   2.965
 9689SOL     OW29965   2.022   0.023   0.372
 9689SOL    HW129966   1.938   6.999   0.401
 9689SOL    HW229967   2.020   0.117   0.405
 9690SOL     OW29968   5.705   4.572   6.684
 9690SOL    HW129969   5.731   4.483   6.721
 9690SOL    HW229970   5.784   4.633   6.684
 9691SOL     OW29971   2.370   4.979   1.664
 9691SOL    HW129972   2.431   5.028   1.727
 9691SOL    HW229973   2.306   4.923   1.716
 9692SOL     OW29974   2.425   5.394   2.992
 9692SOL    HW129975   2.501   5.345   3.035
 9692SOL    HW229976   2.458   5.443   2.912
 9693SOL     OW29977   0.121   5.730   2.071
 9693SOL    HW129978   0.106   5.814   2.018
 9693SOL    HW229979   0.097   5.651   2.015
 9694SOL     OW29980   1.954   1.649   6.543
 9694SOL    HW129981   2.007   1.695   6.472
 9694SOL    HW229982   1.862   1.631   6.510
 9695SOL     OW29983   5.697   4.301   0.869
 9695SOL    HW129984   5.777   4.263   0.823
 9695SOL    HW229985   5.683   4.255   0.957
 9696SOL     OW29986   3.963   2.446   1.439
 9696SOL    HW129987   3.934   2.463   1.345
 9696SOL    HW229988   4.040   2.506   1.461
 9697SOL     OW29989   0.650   5.055   0.015
 9697SOL    HW129990   0.638   5.141   0.065
 9697SOL    HW229991   0.611   5.064   6.947
 9698SOL     OW29992   6.099   0.735   5.316
 9698SOL    HW129993   6.106   0.768   5.222
 9698SOL    HW229994   6.154   0.794   5.376
 9699SOL     OW29995   0.580   3.750   5.965
 9699SOL    HW129996   0.677   3.728   5.975
 9699SOL    HW229997   0.567   3.811   5.888
 9700SOL     OW29998   3.790   4.926   5.387
 9700SOL    HW129999   3.822   4.836   5.416
 9700SOL    HW230000   3.731   4.915   5.306
 9701SOL     OW30001   4.125   6.068   5.344
 9701SOL    HW130002   4.195   6.016   5.294
 9701SOL    HW230003   4.040   6.065   5.292
 9702SOL     OW30004   5.324   0.647   0.325
 9702SOL    HW130005   5.244   0.705   0.341
 9702SOL    HW230006   5.400   0.704   0.294
 9703SOL     OW30007   3.333   6.042   4.410
 9703SOL    HW130008   3.390   6.031   4.491
 9703SOL    HW230009   3.266   5.968   4.406
 9704SOL     OW30010   3.158   0.105   2.786
 9704SOL    HW130011   3.243   0.054   2.782
 9704SOL    HW230012   3.127   0.126   2.693
 9705SOL     OW30013   4.839   4.814   0.200
 9705SOL    HW130014   4.798   4.823   0.291
 9705SOL    HW230015   4.769   4.829   0.131
 9706SOL     OW30016   6.730   2.082   0.727
 9706SOL    HW130017   6.793   2.052   0.655
 9706SOL    HW230018   6.764   2.053   0.816
 9707SOL     OW30019   0.938   4.365   1.941
 9707SOL    HW130020   0.935   4.265   1.945
 9707SOL    HW230021   0.858   4.398   1.890
 9708SOL     OW30022   1.874   2.405   3.553
 9708SOL    HW130023   1.899   2.311   3.577
 9708SOL    HW230024   1.811   2.404   3.475
 9709SOL     OW30025   0.743   5.856   3.738
 9709SOL    HW130026   0.734   5.859   3.639
 9709SOL    HW230027   0.804   5.782   3.764
 9710SOL     OW30028   0.420   0.876   2.477
 9710SOL    HW130029   0.388   0.878   2.382
 9710SOL    HW230030   0.349   0.836   2.535
 9711SOL     OW30031   1.300   3.529   6.076
 9711SOL    HW130032   1.265   3.503   5.986
 9711SOL    HW230033   1.391   3.490   6.089
 9712SOL     OW30034   5.236   2.935   4.729
 9712SOL    HW130035   5.150   2.887   4.710
 9712SOL    HW230036   5.239   2.961   4.826
 9713SOL     OW30037   0.267   4.893   2.993
 9713SOL    HW130038   0.195   4.849   3.047
 9713SOL    HW230039   0.313   4.963   3.049
 9714SOL     OW30040   1.750   1.833   1.649
 9714SOL    HW130041   1.675   1.767   1.641
 9714SOL    HW230042   1.717   1.923   1.622
 9715SOL     OW30043   6.990   5.571   4.717
 9715SOL    HW130044   6.912   5.524   4.677
 9715SOL    HW230045   6.987   5.668   4.692
 9716SOL     OW30046   3.670   2.080   6.820
 9716SOL    HW130047   3.647   2.010   6.753
 9716SOL    HW230048   3.615   2.162   6.802
 9717SOL     OW30049   5.469   6.113   4.413
 9717SOL    HW130050   5.369   6.116   4.407
 9717SOL    HW230051   5.499   6.017   4.414
 9718SOL     OW30052   4.280   2.566   1.555
 9718SOL    HW130053   4.376   2.554   1.581
 9718SOL    HW230054   4.224   2.496   1.600
 9719SOL     OW30055   0.702   2.238   0.042
 9719SOL    HW130056   0.657   2.151   0.021
 9719SOL    HW230057   0.642   2.293   0.101
 9720SOL     OW30058   0.503   6.186   1.713
 9720SOL    HW130059   0.522   6.272   1.666
 9720SOL    HW230060   0.433   6.135   1.663
 9721SOL     OW30061   0.919   2.859   2.130
 9721SOL    HW130062   0.836   2.901   2.168
 9721SOL    HW230063   0.921   2.762   2.155
 9722SOL     OW30064   0.732   0.247   3.421
 9722SOL    HW130065   0.649   0.274   3.372
 9722SOL    HW230066   0.707   0.211   3.511
 9723SOL     OW30067   0.776   6.348   2.701
 9723SOL    HW130068   0.761   6.375   2.796
 9723SOL    HW230069   0.690   6.312   2.663
 9724SOL     OW30070   3.180   2.845   1.703
 9724SOL    HW130071   3.132   2.760   1.723
 9724SOL    HW230072   3.138   2.888   1.623
 9725SOL     OW30073   4.216   3.417   6.084
 9725SOL    HW130074   4.193   3.449   6.176
 9725SOL    HW230075   4.147   3.449   6.019
 9726SOL     OW30076   5.458   0.626   4.867
 9726SOL    HW130077   5.394   0.703   4.875
 9726SOL    HW230078   5.416   0.544   4.904
 9727SOL     OW30079   1.401   4.117   5.553
 9727SOL    HW130080   1.323   4.098   5.493
 9727SOL    HW230081   1.442   4.030   5.581
 9728SOL     OW30082   1.885   6.407   6.785
 9728SOL    HW130083   1.922   6.318   6.758
 9728SOL    HW230084   1.959   6.464   6.821
 9729SOL     OW30085   1.563   4.696   3.189
 9729SOL    HW130086   1.513   4.610   3.181
 9729SOL    HW230087   1.519   4.754   3.257
 9730SOL     OW30088   0.296   3.240   2.635
 9730SOL    HW130089   0.202   3.235   2.601
 9730SOL    HW230090   0.299   3.213   2.731
 9731SOL     OW30091   4.348   5.109   0.669
 9731SOL    HW130092   4.275   5.050   0.702
 9731SOL    HW230093   4.350   5.106   0.569
 9732SOL     OW30094   6.748   6.126   2.879
 9732SOL    HW130095   6.714   6.186   2.952
 9732SOL    HW230096   6.677   6.115   2.809
 9733SOL     OW30097   6.060   5.058   4.519
 9733SOL    HW130098   6.139   5.027   4.572
 9733SOL    HW230099   5.976   5.024   4.561
 9734SOL     OW30100   5.462   1.566   4.074
 9734SOL    HW130101   5.395   1.624   4.120
 9734SOL    HW230102   5.491   1.492   4.135
 9735SOL     OW30103   2.156   4.801   2.796
 9735SOL    HW130104   2.197   4.888   2.823
 9735SOL    HW230105   2.228   4.741   2.759
 9736SOL     OW30106   5.148   1.214   6.662
 9736SOL    HW130107   5.135   1.151   6.585
 9736SOL    HW230108   5.070   1.207   6.724
 9737SOL     OW30109   4.527   2.622   4.959
 9737SOL    HW130110   4.560   2.690   4.893
 9737SOL    HW230111   4.469   2.556   4.912
 9738SOL     OW30112   1.775   0.318   2.456
 9738SOL    HW130113   1.777   0.392   2.388
 9738SOL    HW230114   1.726   0.350   2.537
 9739SOL     OW30115   0.432   5.311   1.420
 9739SOL    HW130116   0.480   5.397   1.432
 9739SOL    HW230117   0.361   5.321   1.350
 9740SOL     OW30118   5.917   3.585   3.207
 9740SOL    HW130119   5.841   3.650   3.199
 9740SOL    HW230120   6.002   3.631   3.184
 9741SOL     OW30121   4.479   0.947   2.973
 9741SOL    HW130122   4.485   0.928   2.875
 9741SOL    HW230123   4.432   1.034   2.988
 9742SOL     OW30124   4.848   0.307   2.980
 9742SOL    HW130125   4.782   0.295   3.055
 9742SOL    HW230126   4.939   0.320   3.018
 9743SOL     OW30127   1.743   2.641   5.753
 9743SOL    HW130128   1.769   2.736   5.771
 9743SOL    HW230129   1.731   2.627   5.655
 9744SOL     OW30130   1.225   0.631   2.169
 9744SOL    HW130131   1.253   0.658   2.077
 9744SOL    HW230132   1.271   0.689   2.236
 9745SOL     OW30133   0.418   2.492   5.346
 9745SOL    HW130134   0.387   2.580   5.384
 9745SOL    HW230135   0.339   2.433   5.331
 9746SOL     OW30136   5.145   1.429   5.335
 9746SOL    HW130137   5.101   1.497   5.276
 9746SOL    HW230138   5.241   1.419   5.309
 9747SOL     OW30139   1.475   1.752   1.170
 9747SOL    HW130140   1.508   1.843   1.194
 9747SOL    HW230141   1.549   1.700   1.127
 9748SOL     OW30142   0.866   6.761   5.358
 9748SOL    HW130143   0.837   6.666   5.344
 9748SOL    HW230144   0.913   6.793   5.276
 9749SOL     OW30145   1.348   2.614   5.805
 9749SOL    HW130146   1.446   2.628   5.817
 9749SOL    HW230147   1.317   2.658   5.721
 9750SOL     OW30148   5.829   5.269   3.935
 9750SOL    HW130149   5.856   5.173   3.936
 9750SOL    HW230150   5.742   5.279   3.887
 9751SOL     OW30151   1.981   2.209   0.845
 9751SOL    HW130152   2.040   2.280   0.884
 9751SOL    HW230153   2.027   2.121   0.851
 9752SOL     OW30154   4.831   0.651   6.079
 9752SOL    HW130155   4.924   0.628   6.048
 9752SOL    HW230156   4.821   0.624   6.175
 9753SOL     OW30157   6.268   6.249   4.800
 9753SOL    HW130158   6.322   6.289   4.726
 9753SOL    HW230159   6.173   6.240   4.770
 9754SOL     OW30160   1.160   1.558   6.791
 9754SOL    HW130161   1.214   1.476   6.811
 9754SOL    HW230162   1.166   1.579   6.693
 9755SOL     OW30163   4.154   3.592   5.161
 9755SOL    HW130164   4.101   3.637   5.233
 9755SOL    HW230165   4.134   3.633   5.073
 9756SOL     OW30166   5.638   3.011   0.117
 9756SOL    HW130167   5.684   3.097   0.094
 9756SOL    HW230168   5.634   2.953   0.035
 9757SOL     OW30169   5.229   3.197   3.800
 9757SOL    HW130170   5.156   3.141   3.761
 9757SOL    HW230171   5.268   3.255   3.729
 9758SOL     OW30172   2.023   0.319   5.821
 9758SOL    HW130173   1.944   0.283   5.772
 9758SOL    HW230174   2.043   0.412   5.789
 9759SOL     OW30175   2.226   6.765   1.147
 9759SOL    HW130176   2.138   6.719   1.138
 9759SOL    HW230177   2.273   6.732   1.229
 9760SOL     OW30178   5.143   4.309   5.201
 9760SOL    HW130179   5.156   4.212   5.179
 9760SOL    HW230180   5.231   4.356   5.197
 9761SOL     OW30181   5.883   5.240   1.650
 9761SOL    HW130182   5.848   5.281   1.734
 9761SOL    HW230183   5.807   5.203   1.596
 9762SOL     OW30184   2.177   2.126   4.558
 9762SOL    HW130185   2.236   2.155   4.633
 9762SOL    HW230186   2.100   2.074   4.595
 9763SOL     OW30187   4.691   1.433   2.039
 9763SOL    HW130188   4.692   1.410   1.942
 9763SOL    HW230189   4.598   1.460   2.066
 9764SOL     OW30190   1.630   2.136   3.341
 9764SOL    HW130191   1.657   2.232   3.356
 9764SOL    HW230192   1.630   2.088   3.428
 9765SOL     OW30193   6.410   2.106   5.453
 9765SOL    HW130194   6.501   2.116   5.414
 9765SOL    HW230195   6.356   2.188   5.435
 9766SOL     OW30196   2.926   0.576   2.977
 9766SOL    HW130197   2.861   0.582   3.054
 9766SOL    HW230198   2.918   0.485   2.935
 9767SOL     OW30199   5.164   1.786   4.483
 9767SOL    HW130200   5.242   1.847   4.498
 9767SOL    HW230201   5.140   1.741   4.569
 9768SOL     OW30202   4.720   2.300   2.367
 9768SOL    HW130203   4.666   2.366   2.315
 9768SOL    HW230204   4.660   2.228   2.403
 9769SOL     OW30205   1.146   2.552   0.965
 9769SOL    HW130206   1.208   2.510   0.898
 9769SOL    HW230207   1.197   2.610   1.027
 9770SOL     OW30208   5.869   5.483   5.852
 9770SOL    HW130209   5.935   5.410   5.836
 9770SOL    HW230210   5.782   5.444   5.882
 9771SOL     OW30211   4.306   4.560   1.048
 9771SOL    HW130212   4.384   4.621   1.034
 9771SOL    HW230213   4.284   4.556   1.145
 9772SOL     OW30214   6.864   6.857   1.809
 9772SOL    HW130215   6.768   6.844   1.782
 9772SOL    HW230216   6.913   6.770   1.803
 9773SOL     OW30217   5.842   6.026   3.849
 9773SOL    HW130218   5.935   5.990   3.849
 9773SOL    HW230219   5.807   6.030   3.756
 9774SOL     OW30220   5.963   5.032   3.868
 9774SOL    HW130221   5.976   4.949   3.922
 9774SOL    HW230222   6.037   5.096   3.889
 9775SOL     OW30223   1.907   2.437   4.737
 9775SOL    HW130224   1.871   2.464   4.648
 9775SOL    HW230225   1.833   2.436   4.804
 9776SOL     OW30226   6.940   5.440   4.287
 9776SOL    HW130227   6.860   5.455   4.230
 9776SOL    HW230228   6.972   5.527   4.324
 9777SOL     OW30229   6.162   4.743   6.128
 9777SOL    HW130230   6.147   4.646   6.108
 9777SOL    HW230231   6.113   4.799   6.060
 9778SOL     OW30232   4.736   6.931   3.260
 9778SOL    HW130233   4.643   6.967   3.264
 9778SOL    HW230234   4.739   6.851   3.200
 9779SOL     OW30235   2.400   1.386   4.889
 9779SOL    HW130236   2.487   1.339   4.873
 9779SOL    HW230237   2.362   1.415   4.801
 9780SOL     OW30238   1.823   2.869   0.546
 9780SOL    HW130239   1.888   2.895   0.617
 9780SOL    HW230240   1.736   2.841   0.588
 9781SOL     OW30241   1.703   4.406   4.640
 9781SOL    HW130242   1.768   4.366   4.576
 9781SOL    HW230243   1.623   4.346   4.649
 9782SOL     OW30244   6.547   0.329   0.916
 9782SOL    HW130245   6.603   0.246   0.918
 9782SOL    HW230246   6.460   0.310   0.871
 9783SOL     OW30247   6.195   0.796   1.497
 9783SOL    HW130248   6.256   0.865   1.459
 9783SOL    HW230249   6.214   0.707   1.455
 9784SOL     OW30250   4.286   1.289   3.490
 9784SOL    HW130251   4.326   1.366   3.539
 9784SOL    HW230252   4.348   1.260   3.416
 9785SOL     OW30253   6.979   2.799   2.910
 9785SOL    HW130254   6.888   2.837   2.895
 9785SOL    HW230255   6.986   2.710   2.865
 9786SOL     OW30256   2.104   5.019   6.243
 9786SOL    HW130257   2.112   4.924   6.213
 9786SOL    HW230258   2.193   5.050   6.278
 9787SOL     OW30259   4.940   3.408   1.933
 9787SOL    HW130260   4.956   3.349   2.012
 9787SOL    HW230261   4.870   3.368   1.874
 9788SOL     OW30262   0.306   6.925   4.249
 9788SOL    HW130263   0.344   6.978   4.325
 9788SOL    HW230264   0.369   6.930   4.171
 9789SOL     OW30265   2.511   5.271   5.890
 9789SOL    HW130266   2.512   5.357   5.838
 9789SOL    HW230267   2.482   5.197   5.829
 9790SOL     OW30268   5.423   1.697   4.393
 9790SOL    HW130269   5.340   1.656   4.430
 9790SOL    HW230270   5.399   1.782   4.344
 9791SOL     OW30271   1.247   1.792   1.492
 9791SOL    HW130272   1.174   1.725   1.508
 9791SOL    HW230273   1.208   1.884   1.492
 9792SOL     OW30274   4.795   4.966   1.809
 9792SOL    HW130275   4.840   4.904   1.746
 9792SOL    HW230276   4.708   4.996   1.769
 9793SOL     OW30277   5.322   6.159   2.998
 9793SOL    HW130278   5.409   6.117   3.025
 9793SOL    HW230279   5.338   6.254   2.969
 9794SOL     OW30280   5.141   3.380   6.068
 9794SOL    HW130281   5.086   3.402   6.149
 9794SOL    HW230282   5.081   3.353   5.993
 9795SOL     OW30283   0.889   3.085   4.425
 9795SOL    HW130284   0.826   3.030   4.371
 9795SOL    HW230285   0.938   3.149   4.365
 9796SOL     OW30286   2.963   5.312   0.849
 9796SOL    HW130287   2.966   5.213   0.868
 9796SOL    HW230288   3.039   5.357   0.894
 9797SOL     OW30289   4.344   3.400   6.911
 9797SOL    HW130290   4.407   3.457   6.857
 9797SOL    HW230291   4.300   3.334   6.851
 9798SOL     OW30292   2.262   0.318   0.958
 9798SOL    HW130293   2.335   0.369   1.003
 9798SOL    HW230294   2.179   0.322   1.014
 9799SOL     OW30295   3.202   3.066   2.529
 9799SOL    HW130296   3.252   3.064   2.443
 9799SOL    HW230297   3.231   2.989   2.586
 9800SOL     OW30298   4.292   6.083   6.526
 9800SOL    HW130299   4.236   6.001   6.537
 9800SOL    HW230300   4.285   6.139   6.609
 9801SOL     OW30301   5.007   5.644   0.366
 9801SOL    HW130302   4.981   5.554   0.332
 9801SOL    HW230303   5.106   5.646   0.382
 9802SOL     OW30304   0.719   3.389   1.385
 9802SOL    HW130305   0.675   3.402   1.296
 9802SOL    HW230306   0.686   3.459   1.449
 9803SOL     OW30307   5.988   6.919   6.851
 9803SOL    HW130308   6.060   6.980   6.884
 9803SOL    HW230309   5.899   6.952   6.883
 9804SOL     OW30310   0.157   5.098   3.640
 9804SOL    HW130311   0.232   5.134   3.696
 9804SOL    HW230312   0.186   5.012   3.598
 9805SOL     OW30313   1.435   5.144   6.734
 9805SOL    HW130314   1.505   5.205   6.770
 9805SOL    HW230315   1.422   5.067   6.796
 9806SOL     OW30316   0.791   2.590   1.520
 9806SOL    HW130317   0.876   2.539   1.511
 9806SOL    HW230318   0.716   2.526   1.537
 9807SOL     OW30319   4.331   1.446   0.544
 9807SOL    HW130320   4.260   1.405   0.487
 9807SOL    HW230321   4.378   1.517   0.492
 9808SOL     OW30322   6.043   1.489   5.272
 9808SOL    HW130323   6.002   1.448   5.190
 9808SOL    HW230324   6.139   1.461   5.277
 9809SOL     OW30325   0.889   1.573   5.163
 9809SOL    HW130326   0.905   1.632   5.085
 9809SOL    HW230327   0.952   1.495   5.160
 9810SOL     OW30328   2.821   1.295   3.139
 9810SOL    HW130329   2.826   1.285   3.039
 9810SOL    HW230330   2.855   1.385   3.165
 9811SOL     OW30331   0.011   6.168   3.184
 9811SOL    HW130332   0.014   6.257   3.231
 9811SOL    HW230333   0.012   6.183   3.085
 9812SOL     OW30334   4.467   2.264   5.798
 9812SOL    HW130335   4.423   2.217   5.874
 9812SOL    HW230336   4.465   2.207   5.716
 9813SOL     OW30337   6.314   5.539   0.141
 9813SOL    HW130338   6.378   5.478   0.188
 9813SOL    HW230339   6.221   5.518   0.169
 9814SOL     OW30340   6.654   6.950   5.232
 9814SOL    HW130341   6.683   6.906   5.317
 9814SOL    HW230342   6.677   6.892   5.154
 9815SOL     OW30343   6.653   3.354   1.444
 9815SOL    HW130344   6.656   3.453   1.458
 9815SOL    HW230345   6.563   3.319   1.467
 9816SOL     OW30346   6.306   0.485   0.149
 9816SOL    HW130347   6.338   0.546   0.077
 9816SOL    HW230348   6.283   0.538   0.231
 9817SOL     OW30349   3.153   6.084   1.663
 9817SOL    HW130350   3.190   6.062   1.753
 9817SOL    HW230351   3.223   6.070   1.594
 9818SOL     OW30352   2.047   1.203   3.407
 9818SOL    HW130353   2.123   1.221   3.470
 9818SOL    HW230354   2.039   1.105   3.391
 9819SOL     OW30355   5.702   3.629   4.997
 9819SOL    HW130356   5.763   3.572   5.054
 9819SOL    HW230357   5.640   3.569   4.946
 9820SOL     OW30358   2.655   2.033   6.089
 9820SOL    HW130359   2.733   2.015   6.029
 9820SOL    HW230360   2.623   2.127   6.075
 9821SOL     OW30361   4.238   1.978   1.793
 9821SOL    HW130362   4.140   1.964   1.779
 9821SOL    HW230363   4.278   2.021   1.712
 9822SOL     OW30364   4.226   5.876   4.640
 9822SOL    HW130365   4.239   5.945   4.570
 9822SOL    HW230366   4.143   5.824   4.620
 9823SOL     OW30367   1.174   0.796   2.600
 9823SOL    HW130368   1.203   0.867   2.664
 9823SOL    HW230369   1.248   0.777   2.535
 9824SOL     OW30370   2.008   6.552   5.862
 9824SOL    HW130371   2.029   6.478   5.798
 9824SOL    HW230372   2.087   6.613   5.869
 9825SOL     OW30373   4.975   5.895   5.778
 9825SOL    HW130374   4.894   5.953   5.787
 9825SOL    HW230375   4.971   5.847   5.690
 9826SOL     OW30376   3.021   6.747   5.188
 9826SOL    HW130377   3.110   6.783   5.159
 9826SOL    HW230378   3.030   6.649   5.209
 9827SOL     OW30379   1.960   5.591   2.194
 9827SOL    HW130380   2.037   5.528   2.186
 9827SOL    HW230381   1.986   5.681   2.159
 9828SOL     OW30382   4.182   1.875   4.974
 9828SOL    HW130383   4.111   1.854   5.042
 9828SOL    HW230384   4.272   1.869   5.017
 9829SOL     OW30385   4.514   6.052   5.738
 9829SOL    HW130386   4.469   6.136   5.771
 9829SOL    HW230387   4.472   5.973   5.781
 9830SOL     OW30388   5.894   1.958   2.555
 9830SOL    HW130389   5.882   1.880   2.493
 9830SOL    HW230390   5.980   2.004   2.534
 9831SOL     OW30391   0.923   4.072   2.231
 9831SOL    HW130392   0.925   4.067   2.131
 9831SOL    HW230393   1.003   4.026   2.269
 9832SOL     OW30394   4.910   4.448   4.794
 9832SOL    HW130395   4.964   4.532   4.789
 9832SOL    HW230396   4.903   4.419   4.890
 9833SOL     OW30397   3.422   4.115   4.243
 9833SOL    HW130398   3.444   4.170   4.324
 9833SOL    HW230399   3.498   4.118   4.179
 9834SOL     OW30400   2.368   5.439   5.665
 9834SOL    HW130401   2.304   5.508   5.633
 9834SOL    HW230402   2.318   5.362   5.705
 9835SOL     OW30403   3.719   4.271   5.141
 9835SOL    HW130404   3.804   4.239   5.099
 9835SOL    HW230405   3.661   4.312   5.072
 9836SOL     OW30406   0.614   3.464   5.717
 9836SOL    HW130407   0.630   3.537   5.650
 9836SOL    HW230408   0.542   3.403   5.683
 9837SOL     OW30409   5.597   2.002   1.687
 9837SOL    HW130410   5.620   1.906   1.671
 9837SOL    HW230411   5.619   2.055   1.605
 9838SOL     OW30412   0.726   6.149   1.343
 9838SOL    HW130413   0.665   6.108   1.410
 9838SOL    HW230414   0.699   6.244   1.326
 9839SOL     OW30415   4.553   1.137   2.332
 9839SOL    HW130416   4.540   1.046   2.293
 9839SOL    HW230417   4.650   1.159   2.331
 9840SOL     OW30418   6.057   1.820   6.859
 9840SOL    HW130419   5.989   1.757   6.894
 9840SOL    HW230420   6.019   1.913   6.857
 9841SOL     OW30421   0.267   5.885   3.428
 9841SOL    HW130422   0.249   5.925   3.338
 9841SOL    HW230423   0.181   5.864   3.473
 9842SOL     OW30424   3.130   2.131   0.395
 9842SOL    HW130425   3.223   2.103   0.421
 9842SOL    HW230426   3.135   2.199   0.322
 9843SOL     OW30427   6.959   6.196   0.992
 9843SOL    HW130428   6.950   6.123   1.060
 9843SOL    HW230429   0.004   6.262   1.023
 9844SOL     OW30430   4.710   0.181   4.338
 9844SOL    HW130431   4.643   0.235   4.287
 9844SOL    HW230432   4.759   0.241   4.402
 9845SOL     OW30433   1.655   2.583   1.798
 9845SOL    HW130434   1.686   2.678   1.791
 9845SOL    HW230435   1.731   2.521   1.779
 9846SOL     OW30436   5.168   1.232   1.514
 9846SOL    HW130437   5.242   1.172   1.543
 9846SOL    HW230438   5.124   1.194   1.433
 9847SOL     OW30439   3.923   3.382   0.567
 9847SOL    HW130440   3.994   3.330   0.614
 9847SOL    HW230441   3.842   3.389   0.624
 9848SOL     OW30442   3.846   3.560   5.317
 9848SOL    HW130443   3.831   3.525   5.225
 9848SOL    HW230444   3.933   3.526   5.352
 9849SOL     OW30445   0.621   1.307   6.277
 9849SOL    HW130446   0.553   1.380   6.278
 9849SOL    HW230447   0.579   1.222   6.246
 9850SOL     OW30448   0.867   0.436   4.315
 9850SOL    HW130449   0.889   0.414   4.409
 9850SOL    HW230450   0.834   0.354   4.268
 9851SOL     OW30451   3.779   4.999   4.260
 9851SOL    HW130452   3.775   5.077   4.197
 9851SOL    HW230453   3.830   4.925   4.217
 9852SOL     OW30454   1.580   1.489   6.284
 9852SOL    HW130455   1.557   1.432   6.205
 9852SOL    HW230456   1.579   1.586   6.257
 9853SOL     OW30457   0.258   4.292   4.008
 9853SOL    HW130458   0.311   4.244   4.079
 9853SOL    HW230459   0.161   4.271   4.019
 9854SOL     OW30460   0.708   5.483   6.312
 9854SOL    HW130461   0.726   5.434   6.226
 9854SOL    HW230462   0.655   5.566   6.292
 9855SOL     OW30463   1.490   3.512   1.088
 9855SOL    HW130464   1.416   3.506   1.155
 9855SOL    HW230465   1.459   3.475   1.000
 9856SOL     OW30466   5.572   4.278   3.351
 9856SOL    HW130467   5.491   4.333   3.334
 9856SOL    HW230468   5.633   4.283   3.272
 9857SOL     OW30469   4.668   2.076   3.818
 9857SOL    HW130470   4.743   2.124   3.773
 9857SOL    HW230471   4.651   2.116   3.908
 9858SOL     OW30472   0.032   5.998   2.558
 9858SOL    HW130473   6.979   5.950   2.601
 9858SOL    HW230474   0.117   5.951   2.579
 9859SOL     OW30475   0.405   5.716   4.468
 9859SOL    HW130476   0.398   5.688   4.564
 9859SOL    HW230477   0.430   5.813   4.463
 9860SOL     OW30478   1.710   2.634   5.452
 9860SOL    HW130479   1.636   2.569   5.435
 9860SOL    HW230480   1.693   2.718   5.401
 9861SOL     OW30481   3.366   1.478   4.419
 9861SOL    HW130482   3.449   1.527   4.395
 9861SOL    HW230483   3.321   1.444   4.336
 9862SOL     OW30484   1.683   5.168   1.192
 9862SOL    HW130485   1.649   5.212   1.109
 9862SOL    HW230486   1.770   5.208   1.218
 9863SOL     OW30487   3.200   6.003   0.944
 9863SOL    HW130488   3.263   5.926   0.933
 9863SOL    HW230489   3.157   5.997   1.034
 9864SOL     OW30490   3.154   6.142   5.052
 9864SOL    HW130491   3.070   6.178   5.092
 9864SOL    HW230492   3.175   6.191   4.968
 9865SOL     OW30493   0.777   6.294   5.701
 9865SOL    HW130494   0.727   6.365   5.750
 9865SOL    HW230495   0.852   6.335   5.650
 9866SOL     OW30496   6.275   4.561   4.586
 9866SOL    HW130497   6.248   4.475   4.631
 9866SOL    HW230498   6.348   4.604   4.639
 9867SOL     OW30499   4.954   1.923   1.693
 9867SOL    HW130500   4.941   1.918   1.792
 9867SOL    HW230501   4.932   2.016   1.661
 9868SOL     OW30502   1.274   4.650   3.125
 9868SOL    HW130503   1.198   4.588   3.148
 9868SOL    HW230504   1.317   4.682   3.209
 9869SOL     OW30505   0.050   2.838   1.451
 9869SOL    HW130506   0.104   2.816   1.533
 9869SOL    HW230507   6.984   2.871   1.480
 9870SOL     OW30508   3.263   1.155   1.822
 9870SOL    HW130509   3.251   1.072   1.767
 9870SOL    HW230510   3.186   1.217   1.806
 9871SOL     OW30511   0.015   3.500   5.178
 9871SOL    HW130512   7.009   3.433   5.110
 9871SOL    HW230513   0.104   3.473   5.215
 9872SOL     OW30514   1.820   4.828   5.458
 9872SOL    HW130515   1.837   4.794   5.366
 9872SOL    HW230516   1.866   4.916   5.470
 9873SOL     OW30517   2.528   1.879   5.687
 9873SOL    HW130518   2.536   1.860   5.784
 9873SOL    HW230519   2.603   1.940   5.659
 9874SOL     OW30520   6.978   2.732   4.908
 9874SOL    HW130521   6.947   2.667   4.839
 9874SOL    HW230522   6.906   2.799   4.924
 9875SOL     OW30523   6.863   5.750   0.672
 9875SOL    HW130524   6.802   5.814   0.718
 9875SOL    HW230525   6.843   5.749   0.574
 9876SOL     OW30526   1.958   6.512   3.037
 9876SOL    HW130527   1.915   6.447   3.100
 9876SOL    HW230528   1.995   6.589   3.089
 9877SOL     OW30529   1.021   4.908   5.063
 9877SOL    HW130530   0.997   4.811   5.065
 9877SOL    HW230531   1.085   4.925   4.988
 9878SOL     OW30532   2.074   3.004   0.078
 9878SOL    HW130533   2.038   3.005   0.172
 9878SOL    HW230534   1.998   3.018   0.014
 9879SOL     OW30535   0.463   4.768   6.086
 9879SOL    HW130536   0.541   4.707   6.098
 9879SOL    HW230537   0.378   4.716   6.097
 9880SOL     OW30538   3.014   1.878   0.152
 9880SOL    HW130539   3.074   1.891   0.231
 9880SOL    HW230540   2.962   1.961   0.135
 9881SOL     OW30541   5.281   0.423   5.022
 9881SOL    HW130542   5.314   0.468   5.105
 9881SOL    HW230543   5.193   0.380   5.041
 9882SOL     OW30544   4.146   3.381   4.330
 9882SOL    HW130545   4.224   3.360   4.390
 9882SOL    HW230546   4.075   3.312   4.344
 9883SOL     OW30547   2.095   6.974   1.322
 9883SOL    HW130548   2.187   6.979   1.361
 9883SOL    HW230549   2.077   6.880   1.291
 9884SOL     OW30550   1.950   3.905   6.532
 9884SOL    HW130551   1.902   3.887   6.617
 9884SOL    HW230552   1.989   3.997   6.534
 9885SOL     OW30553   6.545   3.245   4.259
 9885SOL    HW130554   6.621   3.308   4.270
 9885SOL    HW230555   6.578   3.150   4.262
 9886SOL     OW30556   4.857   6.412   1.635
 9886SOL    HW130557   4.915   6.374   1.562
 9886SOL    HW230558   4.763   6.378   1.623
 9887SOL     OW30559   3.841   6.894   0.547
 9887SOL    HW130560   3.845   6.855   0.455
 9887SOL    HW230561   3.823   6.822   0.614
 9888SOL     OW30562   5.978   5.429   2.273
 9888SOL    HW130563   6.025   5.517   2.270
 9888SOL    HW230564   5.952   5.409   2.368
 9889SOL     OW30565   0.517   4.968   3.435
 9889SOL    HW130566   0.457   4.935   3.508
 9889SOL    HW230567   0.559   5.054   3.464
 9890SOL     OW30568   6.766   4.139   1.873
 9890SOL    HW130569   6.817   4.186   1.801
 9890SOL    HW230570   6.830   4.090   1.932
 9891SOL     OW30571   5.151   4.538   0.909
 9891SOL    HW130572   5.123   4.447   0.880
 9891SOL    HW230573   5.204   4.531   0.994
 9892SOL     OW30574   1.891   5.575   4.289
 9892SOL    HW130575   1.987   5.590   4.311
 9892SOL    HW230576   1.882   5.542   4.195
 9893SOL     OW30577   6.379   5.017   3.574
 9893SOL    HW130578   6.295   4.967   3.551
 9893SOL    HW230579   6.457   4.970   3.533
 9894SOL     OW30580   3.681   2.739   5.777
 9894SOL    HW130581   3.610   2.727   5.707
 9894SOL    HW230582   3.656   2.688   5.859
 9895SOL     OW30583   5.061   2.486   6.688
 9895SOL    HW130584   5.149   2.459   6.649
 9895SOL    HW230585   5.067   2.580   6.721
 9896SOL     OW30586   4.030   3.917   0.329
 9896SOL    HW130587   4.103   3.970   0.373
 9896SOL    HW230588   4.069   3.861   0.257
 9897SOL     OW30589   6.001   2.221   2.800
 9897SOL    HW130590   6.026   2.153   2.731
 9897SOL    HW230591   5.988   2.176   2.889
 9898SOL     OW30592   1.665   5.246   5.882
 9898SOL    HW130593   1.578   5.283   5.851
 9898SOL    HW230594   1.735   5.262   5.811
 9899SOL     OW30595   5.307   4.722   2.437
 9899SOL    HW130596   5.298   4.631   2.397
 9899SOL    HW230597   5.260   4.724   2.525
 9900SOL     OW30598   1.372   2.426   4.210
 9900SOL    HW130599   1.353   2.521   4.236
 9900SOL    HW230600   1.318   2.401   4.130
 9901SOL     OW30601   2.943   2.175   6.099
 9901SOL    HW130602   3.032   2.199   6.059
 9901SOL    HW230603   2.914   2.248   6.161
 9902SOL     OW30604   3.807   3.471   0.319
 9902SOL    HW130605   3.716   3.500   0.346
 9902SOL    HW230606   3.858   3.441   0.400
 9903SOL     OW30607   3.938   1.439   1.894
 9903SOL    HW130608   3.899   1.470   1.807
 9903SOL    HW230609   3.978   1.517   1.942
 9904SOL     OW30610   6.521   1.996   0.502
 9904SOL    HW130611   6.522   2.025   0.597
 9904SOL    HW230612   6.520   2.076   0.442
 9905SOL     OW30613   1.443   6.777   6.048
 9905SOL    HW130614   1.413   6.683   6.061
 9905SOL    HW230615   1.387   6.837   6.106
 9906SOL     OW30616   2.434   3.417   6.372
 9906SOL    HW130617   2.418   3.328   6.414
 9906SOL    HW230618   2.533   3.434   6.366
 9907SOL     OW30619   2.810   6.093   3.118
 9907SOL    HW130620   2.767   6.176   3.155
 9907SOL    HW230621   2.749   6.015   3.130
 9908SOL     OW30622   0.830   3.717   6.040
 9908SOL    HW130623   0.827   3.714   6.140
 9908SOL    HW230624   0.914   3.673   6.008
 9909SOL     OW30625   3.315   1.223   2.924
 9909SOL    HW130626   3.305   1.310   2.876
 9909SOL    HW230627   3.312   1.148   2.857
 9910SOL     OW30628   6.223   4.587   0.803
 9910SOL    HW130629   6.144   4.644   0.826
 9910SOL    HW230630   6.237   4.588   0.704
 9911SOL     OW30631   3.823   4.926   3.459
 9911SOL    HW130632   3.882   4.859   3.505
 9911SOL    HW230633   3.735   4.931   3.506
 9912SOL     OW30634   5.153   0.379   1.558
 9912SOL    HW130635   5.181   0.383   1.653
 9912SOL    HW230636   5.091   0.455   1.538
 9913SOL     OW30637   5.482   2.558   3.011
 9913SOL    HW130638   5.475   2.508   2.924
 9913SOL    HW230639   5.405   2.534   3.070
 9914SOL     OW30640   1.072   0.501   4.779
 9914SOL    HW130641   1.078   0.600   4.789
 9914SOL    HW230642   1.160   0.460   4.803
 9915SOL     OW30643   4.894   3.304   3.878
 9915SOL    HW130644   4.966   3.373   3.893
 9915SOL    HW230645   4.884   3.288   3.780
 9916SOL     OW30646   2.266   2.858   2.519
 9916SOL    HW130647   2.303   2.833   2.609
 9916SOL    HW230648   2.272   2.780   2.457
 9917SOL     OW30649   3.143   4.024   5.504
 9917SOL    HW130650   3.063   4.065   5.460
 9917SOL    HW230651   3.159   3.933   5.465
 9918SOL     OW30652   2.177   2.138   5.853
 9918SOL    HW130653   2.172   2.065   5.786
 9918SOL    HW230654   2.115   2.212   5.827
 9919SOL     OW30655   0.659   5.648   2.749
 9919SOL    HW130656   0.641   5.628   2.653
 9919SOL    HW230657   0.661   5.562   2.801
 9920SOL     OW30658   3.771   6.482   1.260
 9920SOL    HW130659   3.708   6.464   1.335
 9920SOL    HW230660   3.757   6.415   1.187
 9921SOL     OW30661   5.971   0.217   2.815
 9921SOL    HW130662   6.016   0.306   2.805
 9921SOL    HW230663   5.877   0.231   2.845
 9922SOL     OW30664   4.309   4.749   0.569
 9922SOL    HW130665   4.353   4.659   0.570
 9922SOL    HW230666   4.237   4.752   0.639
 9923SOL     OW30667   6.709   2.579   5.859
 9923SOL    HW130668   6.628   2.522   5.852
 9923SOL    HW230669   6.730   2.595   5.956
 9924SOL     OW30670   6.667   0.705   2.777
 9924SOL    HW130671   6.751   0.738   2.820
 9924SOL    HW230672   6.638   0.620   2.822
 9925SOL     OW30673   2.812   2.999   5.668
 9925SOL    HW130674   2.884   2.938   5.703
 9925SOL    HW230675   2.733   2.944   5.641
 9926SOL     OW30676   0.873   1.118   0.512
 9926SOL    HW130677   0.963   1.146   0.478
 9926SOL    HW230678   0.879   1.098   0.610
 9927SOL     OW30679   0.253   1.741   2.341
 9927SOL    HW130680   0.351   1.758   2.328
 9927SOL    HW230681   0.214   1.811   2.401
 9928SOL     OW30682   0.047   3.754   2.228
 9928SOL    HW130683   0.080   3.780   2.137
 9928SOL    HW230684   0.095   3.671   2.258
 9929SOL     OW30685   2.767   4.654   0.168
 9929SOL    HW130686   2.671   4.625   0.168
 9929SOL    HW230687   2.824   4.583   0.210
 9930SOL     OW30688   6.971   6.933   6.025
 9930SOL    HW130689   0.027   6.992   6.020
 9930SOL    HW230690   6.995   6.841   5.996
 9931SOL     OW30691   1.628   5.901   5.755
 9931SOL    HW130692   1.557   5.942   5.697
 9931SOL    HW230693   1.615   5.802   5.759
 9932SOL     OW30694   1.432   1.544   0.123
 9932SOL    HW130695   1.460   1.585   0.210
 9932SOL    HW230696   1.390   1.614   0.065
 9933SOL     OW30697   2.428   1.915   3.043
 9933SOL    HW130698   2.338   1.912   3.086
 9933SOL    HW230699   2.420   1.889   2.947
 9934SOL     OW30700   5.235   1.665   5.541
 9934SOL    HW130701   5.241   1.565   5.548
 9934SOL    HW230702   5.326   1.704   5.553
 9935SOL     OW30703   3.034   2.224   0.636
 9935SOL    HW130704   3.068   2.189   0.549
 9935SOL    HW230705   3.046   2.156   0.707
 9936SOL     OW30706   5.821   5.696   5.183
 9936SOL    HW130707   5.750   5.626   5.188
 9936SOL    HW230708   5.781   5.787   5.195
 9937SOL     OW30709   0.533   0.051   2.987
 9937SOL    HW130710   0.629   0.079   2.988
 9937SOL    HW230711   0.503   0.030   3.080
 9938SOL     OW30712   6.741   0.613   4.098
 9938SOL    HW130713   6.789   0.540   4.051
 9938SOL    HW230714   6.661   0.575   4.145
 9939SOL     OW30715   2.352   4.326   1.134
 9939SOL    HW130716   2.369   4.308   1.037
 9939SOL    HW230717   2.419   4.277   1.189
 9940SOL     OW30718   0.826   0.381   2.827
 9940SOL    HW130719   0.885   0.459   2.845
 9940SOL    HW230720   0.862   0.328   2.750
 9941SOL     OW30721   4.457   5.013   6.036
 9941SOL    HW130722   4.436   5.065   5.953
 9941SOL    HW230723   4.468   5.076   6.113
 9942SOL     OW30724   4.417   4.926   3.730
 9942SOL    HW130725   4.374   5.016   3.722
 9942SOL    HW230726   4.435   4.906   3.826
 9943SOL     OW30727   2.636   4.144   6.964
 9943SOL    HW130728   2.695   4.194   6.900
 9943SOL    HW230729   2.693   4.094   0.006
 9944SOL     OW30730   1.382   4.924   0.233
 9944SOL    HW130731   1.426   5.009   0.204
 9944SOL    HW230732   1.440   4.877   0.300
 9945SOL     OW30733   5.915   4.024   0.124
 9945SOL    HW130734   5.934   4.019   0.026
 9945SOL    HW230735   6.001   4.022   0.175
 9946SOL     OW30736   5.475   1.477   2.751
 9946SOL    HW130737   5.478   1.380   2.727
 9946SOL    HW230738   5.393   1.519   2.712
 9947SOL     OW30739   1.837   1.462   3.979
 9947SOL    HW130740   1.794   1.482   3.891
 9947SOL    HW230741   1.835   1.364   3.995
 9948SOL     OW30742   6.451   0.523   4.489
 9948SOL    HW130743   6.480   0.588   4.559
 9948SOL    HW230744   6.351   0.524   4.481
 9949SOL     OW30745   6.588   4.256   4.632
 9949SOL    HW130746   6.633   4.345   4.622
 9949SOL    HW230747   6.502   4.267   4.682
 9950SOL     OW30748   6.296   5.050   5.916
 9950SOL    HW130749   6.323   5.104   5.996
 9950SOL    HW230750   6.376   5.003   5.879
 9951SOL     OW30751   0.701   2.577   2.629
 9951SOL    HW130752   0.629   2.617   2.686
 9951SOL    HW230753   0.670   2.489   2.593
 9952SOL     OW30754   0.246   4.136   1.700
 9952SOL    HW130755   0.254   4.037   1.688
 9952SOL    HW230756   0.274   4.161   1.793
 9953SOL     OW30757   5.848   2.185   3.227
 9953SOL    HW130758   5.936   2.175   3.181
 9953SOL    HW230759   5.845   2.124   3.306
 9954SOL     OW30760   2.881   2.031   5.884
 9954SOL    HW130761   2.845   1.938   5.899
 9954SOL    HW230762   2.912   2.068   5.971
 9955SOL     OW30763   5.375   3.126   1.167
 9955SOL    HW130764   5.326   3.054   1.118
 9955SOL    HW230765   5.311   3.200   1.190
 9956SOL     OW30766   1.984   4.073   3.257
 9956SOL    HW130767   2.051   4.110   3.193
 9956SOL    HW230768   2.030   4.039   3.338
 9957SOL     OW30769   5.604   6.527   1.323
 9957SOL    HW130770   5.612   6.534   1.224
 9957SOL    HW230771   5.555   6.607   1.358
 9958SOL     OW30772   4.620   4.885   6.750
 9958SOL    HW130773   4.549   4.815   6.738
 9958SOL    HW230774   4.649   4.919   6.660
 9959SOL     OW30775   4.147   4.180   1.147
 9959SOL    HW130776   4.115   4.209   1.237
 9959SOL    HW230777   4.169   4.260   1.092
 9960SOL     OW30778   6.676   6.936   6.648
 9960SOL    HW130779   6.759   6.990   6.633
 9960SOL    HW230780   6.618   6.941   6.567
 9961SOL     OW30781   2.634   4.961   2.273
 9961SOL    HW130782   2.569   4.886   2.261
 9961SOL    HW230783   2.726   4.924   2.287
 9962SOL     OW30784   3.069   5.993   2.556
 9962SOL    HW130785   3.045   6.018   2.649
 9962SOL    HW230786   3.056   5.895   2.542
 9963SOL     OW30787   1.552   1.736   6.186
 9963SOL    HW130788   1.611   1.808   6.224
 9963SOL    HW230789   1.543   1.748   6.088
 9964SOL     OW30790   4.777   4.152   5.411
 9964SOL    HW130791   4.721   4.156   5.493
 9964SOL    HW230792   4.798   4.245   5.380
 9965SOL     OW30793   2.864   5.473   4.901
 9965SOL    HW130794   2.922   5.402   4.940
 9965SOL    HW230795   2.855   5.459   4.802
 9966SOL     OW30796   3.411   4.992   2.311
 9966SOL    HW130797   3.450   4.991   2.219
 9966SOL    HW230798   3.464   4.931   2.370
 9967SOL     OW30799   6.846   6.778   3.164
 9967SOL    HW130800   6.747   6.788   3.162
 9967SOL    HW230801   6.889   6.851   3.111
 9968SOL     OW30802   3.856   6.336   0.634
 9968SOL    HW130803   3.839   6.237   0.631
 9968SOL    HW230804   3.846   6.368   0.729
 9969SOL     OW30805   1.580   5.015   3.649
 9969SOL    HW130806   1.487   5.039   3.622
 9969SOL    HW230807   1.626   5.096   3.686
 9970SOL     OW30808   6.041   4.336   1.197
 9970SOL    HW130809   6.040   4.238   1.178
 9970SOL    HW230810   6.127   4.375   1.165
 9971SOL     OW30811   1.344   3.727   2.245
 9971SOL    HW130812   1.438   3.692   2.239
 9971SOL    HW230813   1.296   3.679   2.318
 9972SOL     OW30814   3.577   3.870   0.545
 9972SOL    HW130815   3.659   3.831   0.502
 9972SOL    HW230816   3.534   3.935   0.482
 9973SOL     OW30817   3.889   1.660   3.507
 9973SOL    HW130818   3.875   1.564   3.530
 9973SOL    HW230819   3.937   1.706   3.582
 9974SOL     OW30820   0.201   2.087   3.408
 9974SOL    HW130821   0.104   2.060   3.411
 9974SOL    HW230822   0.208   2.185   3.393
 9975SOL     OW30823   1.163   4.980   6.580
 9975SOL    HW130824   1.167   4.916   6.503
 9975SOL    HW230825   1.114   4.938   6.656
 9976SOL     OW30826   2.587   4.626   6.253
 9976SOL    HW130827   2.489   4.617   6.274
 9976SOL    HW230828   2.628   4.694   6.314
 9977SOL     OW30829   5.223   5.615   5.000
 9977SOL    HW130830   5.303   5.651   4.952
 9977SOL    HW230831   5.201   5.673   5.078
 9978SOL     OW30832   0.502   2.339   6.009
 9978SOL    HW130833   0.544   2.270   5.950
 9978SOL    HW230834   0.406   2.350   5.984
 9979SOL     OW30835   5.101   3.015   5.337
 9979SOL    HW130836   5.027   3.051   5.393
 9979SOL    HW230837   5.070   3.006   5.242
 9980SOL     OW30838   0.827   0.791   6.747
 9980SOL    HW130839   0.742   0.761   6.703
 9980SOL    HW230840   0.806   0.837   6.833
 9981SOL     OW30841   0.232   2.235   1.176
 9981SOL    HW130842   0.250   2.308   1.242
 9981SOL    HW230843   0.139   2.200   1.190
 9982SOL     OW30844   2.547   1.768   4.817
 9982SOL    HW130845   2.506   1.722   4.895
 9982SOL    HW230846   2.579   1.858   4.844
 9983SOL     OW30847   0.157   3.230   2.133
 9983SOL    HW130848   0.137   3.301   2.065
 9983SOL    HW230849   0.074   3.210   2.185
 9984SOL     OW30850   6.775   6.081   1.469
 9984SOL    HW130851   6.866   6.089   1.509
 9984SOL    HW230852   6.718   6.157   1.499
 9985SOL     OW30853   4.357   5.436   0.766
 9985SOL    HW130854   4.262   5.439   0.797
 9985SOL    HW230855   4.402   5.523   0.789
 9986SOL     OW30856   4.734   4.408   0.044
 9986SOL    HW130857   4.806   4.344   0.017
 9986SOL    HW230858   4.691   4.376   0.129
 9987SOL     OW30859   5.403   2.680   1.485
 9987SOL    HW130860   5.448   2.659   1.572
 9987SOL    HW230861   5.461   2.652   1.409
 9988SOL     OW30862   5.751   6.193   4.441
 9988SOL    HW130863   5.753   6.201   4.541
 9988SOL    HW230864   5.658   6.170   4.412
 9989SOL     OW30865   6.640   4.803   2.286
 9989SOL    HW130866   6.564   4.782   2.225
 9989SOL    HW230867   6.633   4.748   2.369
 9990SOL     OW30868   0.477   0.021   3.262
 9990SOL    HW130869   0.393   6.996   3.287
 9990SOL    HW230870   0.553   7.005   3.314
 9991SOL     OW30871   1.160   4.315   4.050
 9991SOL    HW130872   1.160   4.400   4.103
 9991SOL    HW230873   1.249   4.304   4.005
 9992SOL     OW30874   3.456   4.716   0.978
 9992SOL    HW130875   3.521   4.647   0.946
 9992SOL    HW230876   3.485   4.806   0.947
 9993SOL     OW30877   3.646   6.814   3.837
 9993SOL    HW130878   3.550   6.830   3.860
 9993SOL    HW230879   3.699   6.897   3.853
 9994SOL     OW30880   7.013   3.988   4.848
 9994SOL    HW130881   6.968   3.968   4.935
 9994SOL    HW230882   0.014   3.902   4.803
 9995SOL     OW30883   2.701   0.692   4.673
 9995SOL    HW130884   2.612   0.737   4.665
 9995SOL    HW230885   2.689   0.593   4.663
 9996SOL     OW30886   2.323   4.270   0.877
 9996SOL    HW130887   2.226   4.269   0.902
 9996SOL    HW230888   2.333   4.241   0.781
 9997SOL     OW30889   6.285   2.046   4.365
 9997SOL    HW130890   6.262   2.105   4.288
 9997SOL    HW230891   6.301   1.953   4.333
 9998SOL     OW30892   4.896   3.597   3.088
 9998SOL    HW130893   4.900   3.595   2.989
 9998SOL    HW230894   4.944   3.518   3.125
 9999SOL     OW30895   0.447   6.715   3.708
 9999SOL    HW130896   0.477   6.718   3.803
 9999SOL    HW230897   0.349   6.694   3.705
10000SOL     OW30898   5.332   1.664   1.662
10000SOL    HW130899   5.349   1.616   1.575
10000SOL    HW230900   5.281   1.748   1.644
10001SOL     OW30901   2.816   6.193   2.709
10001SOL    HW130902   2.879   6.238   2.646
10001SOL    HW230903   2.788   6.258   2.780
10002SOL     OW30904   2.368   1.243   0.698
10002SOL    HW130905   2.340   1.224   0.604
10002SOL    HW230906   2.460   1.282   0.699
10003SOL     OW30907   2.207   2.029   2.776
10003SOL    HW130908   2.144   1.952   2.784
10003SOL    HW230909   2.154   2.114   2.772
10004SOL     OW30910   5.435   4.497   4.873
10004SOL    HW130911   5.379   4.537   4.800
10004SOL    HW230912   5.530   4.491   4.841
10005SOL     OW30913   2.911   5.702   3.594
10005SOL    HW130914   2.886   5.799   3.603
10005SOL    HW230915   2.990   5.682   3.652
10006SOL     OW30916   5.581   0.407   5.397
10006SOL    HW130917   5.629   0.400   5.310
10006SOL    HW230918   5.646   0.436   5.468
10007SOL     OW30919   0.913   4.077   4.793
10007SOL    HW130920   0.868   4.136   4.726
10007SOL    HW230921   0.866   4.085   4.881
10008SOL     OW30922   3.627   1.852   4.059
10008SOL    HW130923   3.576   1.919   4.005
10008SOL    HW230924   3.574   1.827   4.140
10009SOL     OW30925   2.354   4.284   1.887
10009SOL    HW130926   2.416   4.303   1.811
10009SOL    HW230927   2.264   4.324   1.868
10010SOL     OW30928   2.867   4.884   6.692
10010SOL    HW130929   2.774   4.915   6.675
10010SOL    HW230930   2.924   4.962   6.720
10011SOL     OW30931   0.487   4.192   0.514
10011SOL    HW130932   0.408   4.131   0.505
10011SOL    HW230933   0.491   4.253   0.435
10012SOL     OW30934   5.069   0.606   2.213
10012SOL    HW130935   5.148   0.597   2.152
10012SOL    HW230936   5.054   0.702   2.235
10013SOL     OW30937   1.626   5.157   5.113
10013SOL    HW130938   1.721   5.139   5.086
10013SOL    HW230939   1.618   5.253   5.142
10014SOL     OW30940   0.497   6.489   2.990
10014SOL    HW130941   0.401   6.478   2.965
10014SOL    HW230942   0.503   6.533   3.079
10015SOL     OW30943   3.559   5.740   6.565
10015SOL    HW130944   3.655   5.759   6.544
10015SOL    HW230945   3.500   5.808   6.521
10016SOL     OW30946   1.652   0.410   4.693
10016SOL    HW130947   1.710   0.486   4.724
10016SOL    HW230948   1.628   0.353   4.772
10017SOL     OW30949   2.674   1.980   2.985
10017SOL    HW130950   2.593   1.946   3.031
10017SOL    HW230951   2.708   2.061   3.033
10018SOL     OW30952   6.765   4.189   6.130
10018SOL    HW130953   6.813   4.196   6.043
10018SOL    HW230954   6.701   4.112   6.127
10019SOL     OW30955   0.231   1.125   2.560
10019SOL    HW130956   0.205   1.202   2.501
10019SOL    HW230957   0.294   1.065   2.510
10020SOL     OW30958   6.782   0.998   1.730
10020SOL    HW130959   6.764   0.911   1.686
10020SOL    HW230960   6.881   1.011   1.740
10021SOL     OW30961   1.728   3.476   1.453
10021SOL    HW130962   1.741   3.477   1.354
10021SOL    HW230963   1.784   3.547   1.495
10022SOL     OW30964   2.442   6.213   0.059
10022SOL    HW130965   2.500   6.132   0.061
10022SOL    HW230966   2.372   6.204   0.130
10023SOL     OW30967   2.350   6.818   5.608
10023SOL    HW130968   2.394   6.893   5.659
10023SOL    HW230969   2.364   6.832   5.510
10024SOL     OW30970   1.727   4.879   3.052
10024SOL    HW130971   1.821   4.846   3.045
10024SOL    HW230972   1.671   4.811   3.099
10025SOL     OW30973   1.584   3.821   1.679
10025SOL    HW130974   1.675   3.863   1.683
10025SOL    HW230975   1.515   3.889   1.704
10026SOL     OW30976   5.030   1.228   2.567
10026SOL    HW130977   4.940   1.192   2.592
10026SOL    HW230978   5.021   1.289   2.488
10027SOL     OW30979   1.492   2.890   5.017
10027SOL    HW130980   1.497   2.790   5.018
10027SOL    HW230981   1.511   2.924   4.925
10028SOL     OW30982   3.302   0.910   1.639
10028SOL    HW130983   3.385   0.911   1.584
10028SOL    HW230984   3.242   0.836   1.607
10029SOL     OW30985   6.924   2.551   4.184
10029SOL    HW130986   6.938   2.606   4.102
10029SOL    HW230987   7.009   2.547   4.237
10030SOL     OW30988   2.555   7.007   4.749
10030SOL    HW130989   2.560   7.015   4.848
10030SOL    HW230990   2.619   6.937   4.717
10031SOL     OW30991   4.022   5.044   5.052
10031SOL    HW130992   3.987   5.112   4.988
10031SOL    HW230993   4.066   4.970   5.002
10032SOL     OW30994   3.425   6.457   5.648
10032SOL    HW130995   3.355   6.388   5.668
10032SOL    HW230996   3.384   6.535   5.602
10033SOL     OW30997   4.618   1.614   3.619
10033SOL    HW130998   4.646   1.590   3.712
10033SOL    HW230999   4.662   1.552   3.554
10034SOL     OW31000   1.722   0.822   3.711
10034SOL    HW131001   1.684   0.890   3.648
10034SOL    HW231002   1.802   0.779   3.669
10035SOL     OW31003   6.072   3.737   0.346
10035SOL    HW131004   6.097   3.695   0.259
10035SOL    HW231005   6.025   3.669   0.403
10036SOL     OW31006   6.468   0.551   6.873
10036SOL    HW131007   6.382   0.576   6.828
10036SOL    HW231008   6.544   0.571   6.812
10037SOL     OW31009   6.261   0.166   6.054
10037SOL    HW131010   6.333   0.099   6.038
10037SOL    HW231011   6.197   0.130   6.122
10038SOL     OW31012   4.844   6.889   6.848
10038SOL    HW131013   4.881   6.888   6.941
10038SOL    HW231014   4.764   6.828   6.843
10039SOL     OW31015   5.057   5.550   4.456
10039SOL    HW131016   5.042   5.517   4.362
10039SOL    HW231017   5.038   5.476   4.520
10040SOL     OW31018   4.443   6.390   0.710
10040SOL    HW131019   4.465   6.309   0.657
10040SOL    HW231020   4.472   6.472   0.660
10041SOL     OW31021   6.451   5.000   5.320
10041SOL    HW131022   6.399   4.921   5.354
10041SOL    HW231023   6.526   5.021   5.382
10042SOL     OW31024   0.556   0.975   5.619
10042SOL    HW131025   0.648   0.942   5.596
10042SOL    HW231026   0.551   1.073   5.602
10043SOL     OW31027   0.603   0.695   2.371
10043SOL    HW131028   0.645   0.627   2.431
10043SOL    HW231029   0.535   0.748   2.423
10044SOL     OW31030   2.720   1.515   4.577
10044SOL    HW131031   2.622   1.509   4.597
10044SOL    HW231032   2.762   1.585   4.634
10045SOL     OW31033   4.343   0.280   4.178
10045SOL    HW131034   4.369   0.194   4.136
10045SOL    HW231035   4.425   0.331   4.205
10046SOL     OW31036   0.032   1.933   1.825
10046SOL    HW131037   0.071   1.968   1.740
10046SOL    HW231038   6.957   1.927   1.817
10047SOL     OW31039   6.102   2.834   5.272
10047SOL    HW131040   6.148   2.762   5.324
10047SOL    HW231041   6.046   2.793   5.200
10048SOL     OW31042   2.910   1.628   1.487
10048SOL    HW131043   2.827   1.583   1.522
10048SOL    HW231044   2.986   1.564   1.488
10049SOL     OW31045   0.726   0.871   6.997
10049SOL    HW131046   0.736   0.970   6.991
10049SOL    HW231047   0.643   0.849   0.024
10050SOL     OW31048   5.572   2.915   4.866
10050SOL    HW131049   5.534   2.996   4.820
10050SOL    HW231050   5.560   2.835   4.807
10051SOL     OW31051   7.017   3.189   4.690
10051SOL    HW131052   0.018   3.122   4.760
10051SOL    HW231053   6.922   3.175   4.661
10052SOL     OW31054   1.981   2.973   1.511
10052SOL    HW131055   1.955   2.990   1.607
10052SOL    HW231056   2.058   3.031   1.486
10053SOL     OW31057   3.623   4.883   2.464
10053SOL    HW131058   3.711   4.927   2.446
10053SOL    HW231059   3.616   4.863   2.562
10054SOL     OW31060   4.453   5.790   6.318
10054SOL    HW131061   4.395   5.856   6.271
10054SOL    HW231062   4.397   5.718   6.358
10055SOL     OW31063   6.236   2.364   4.611
10055SOL    HW131064   6.194   2.303   4.679
10055SOL    HW231065   6.280   2.440   4.658
10056SOL     OW31066   5.861   5.053   0.930
10056SOL    HW131067   5.960   5.045   0.936
10056SOL    HW231068   5.826   4.988   0.862
10057SOL     OW31069   3.831   1.676   4.020
10057SOL    HW131070   3.797   1.583   4.004
10057SOL    HW231071   3.754   1.738   4.035
10058SOL     OW31072   6.828   4.241   5.024
10058SOL    HW131073   6.785   4.188   4.952
10058SOL    HW231074   6.889   4.183   5.077
10059SOL     OW31075   5.322   6.245   0.894
10059SOL    HW131076   5.303   6.185   0.972
10059SOL    HW231077   5.237   6.286   0.861
10060SOL     OW31078   2.150   2.032   2.181
10060SOL    HW131079   2.052   2.023   2.163
10060SOL    HW231080   2.181   2.123   2.151
10061SOL     OW31081   5.248   1.307   4.121
10061SOL    HW131082   5.264   1.395   4.075
10061SOL    HW231083   5.184   1.252   4.065
10062SOL     OW31084   6.344   6.860   4.634
10062SOL    HW131085   6.278   6.871   4.709
10062SOL    HW231086   6.411   6.934   4.638
10063SOL     OW31087   1.443   2.062   3.176
10063SOL    HW131088   1.509   2.112   3.233
10063SOL    HW231089   1.458   2.086   3.080
10064SOL     OW31090   5.993   5.640   5.649
10064SOL    HW131091   5.973   5.737   5.662
10064SOL    HW231092   5.939   5.586   5.713
10065SOL     OW31093   1.370   0.816   1.917
10065SOL    HW131094   1.397   0.729   1.876
10065SOL    HW231095   1.321   0.871   1.849
10066SOL     OW31096   1.486   0.972   4.054
10066SOL    HW131097   1.499   1.067   4.026
10066SOL    HW231098   1.411   0.966   4.119
10067SOL     OW31099   5.532   4.744   5.093
10067SOL    HW131100   5.619   4.765   5.048
10067SOL    HW231101   5.528   4.647   5.113
10068SOL     OW31102   5.361   3.032   3.951
10068SOL    HW131103   5.320   3.114   3.911
10068SOL    HW231104   5.408   2.980   3.880
10069SOL     OW31105   1.967   6.460   3.543
10069SOL    HW131106   1.867   6.462   3.544
10069SOL    HW231107   2.001   6.508   3.462
10070SOL     OW31108   0.415   6.851   4.665
10070SOL    HW131109   0.447   6.847   4.760
10070SOL    HW231110   0.405   6.759   4.629
10071SOL     OW31111   4.561   4.984   4.256
10071SOL    HW131112   4.599   4.900   4.295
10071SOL    HW231113   4.565   5.057   4.323
10072SOL     OW31114   1.147   6.763   4.103
10072SOL    HW131115   1.069   6.706   4.078
10072SOL    HW231116   1.213   6.763   4.027
10073SOL     OW31117   6.533   4.009   5.183
10073SOL    HW131118   6.434   3.999   5.194
10073SOL    HW231119   6.560   4.102   5.208
10074SOL     OW31120   0.435   0.320   6.040
10074SOL    HW131121   0.514   0.369   6.002
10074SOL    HW231122   0.358   0.384   6.048
10075SOL     OW31123   1.188   2.415   2.513
10075SOL    HW131124   1.274   2.374   2.544
10075SOL    HW231125   1.128   2.432   2.591
10076SOL     OW31126   5.607   0.259   4.031
10076SOL    HW131127   5.556   0.173   4.030
10076SOL    HW231128   5.594   0.305   4.119
10077SOL     OW31129   3.521   2.339   6.745
10077SOL    HW131130   3.424   2.326   6.726
10077SOL    HW231131   3.536   2.429   6.785
10078SOL     OW31132   6.431   6.504   4.316
10078SOL    HW131133   6.337   6.518   4.285
10078SOL    HW231134   6.461   6.583   4.369
10079SOL     OW31135   1.575   2.677   2.044
10079SOL    HW131136   1.495   2.737   2.041
10079SOL    HW231137   1.594   2.643   1.952
10080SOL     OW31138   3.205   2.143   6.334
10080SOL    HW131139   3.161   2.233   6.337
10080SOL    HW231140   3.152   2.083   6.274
10081SOL     OW31141   0.450   6.890   6.393
10081SOL    HW131142   0.462   6.836   6.476
10081SOL    HW231143   0.360   6.871   6.353
10082SOL     OW31144   6.907   2.621   2.693
10082SOL    HW131145   6.841   2.683   2.652
10082SOL    HW231146   6.983   2.607   2.629
10083SOL     OW31147   5.080   0.916   3.449
10083SOL    HW131148   4.989   0.932   3.487
10083SOL    HW231149   5.076   0.923   3.350
10084SOL     OW31150   3.738   0.314   5.958
10084SOL    HW131151   3.646   0.353   5.952
10084SOL    HW231152   3.768   0.313   6.053
10085SOL     OW31153   0.166   5.055   2.786
10085SOL    HW131154   0.221   4.991   2.840
10085SOL    HW231155   0.174   5.032   2.689
10086SOL     OW31156   5.690   5.492   2.449
10086SOL    HW131157   5.639   5.542   2.519
10086SOL    HW231158   5.633   5.479   2.368
10087SOL     OW31159   1.017   0.994   4.152
10087SOL    HW131160   1.036   0.984   4.054
10087SOL    HW231161   0.923   0.966   4.171
10088SOL     OW31162   0.027   6.684   5.927
10088SOL    HW131163   6.980   6.648   5.988
10088SOL    HW231164   7.021   6.673   5.832
10089SOL     OW31165   2.554   1.775   3.260
10089SOL    HW131166   2.480   1.818   3.209
10089SOL    HW231167   2.640   1.822   3.240
10090SOL     OW31168   0.209   4.725   1.372
10090SOL    HW131169   0.262   4.705   1.290
10090SOL    HW231170   0.212   4.646   1.433
10091SOL     OW31171   1.181   3.044   4.776
10091SOL    HW131172   1.127   2.975   4.824
10091SOL    HW231173   1.142   3.134   4.792
10092SOL     OW31174   1.414   3.587   5.155
10092SOL    HW131175   1.332   3.644   5.146
10092SOL    HW231176   1.478   3.632   5.218
10093SOL     OW31177   1.335   5.028   4.247
10093SOL    HW131178   1.400   5.096   4.214
10093SOL    HW231179   1.384   4.946   4.274
10094SOL     OW31180   2.774   6.519   1.956
10094SOL    HW131181   2.809   6.428   1.979
10094SOL    HW231182   2.849   6.576   1.922
10095SOL     OW31183   6.333   1.469   5.283
10095SOL    HW131184   6.307   1.385   5.331
10095SOL    HW231185   6.427   1.494   5.306
10096SOL     OW31186   6.390   5.094   2.873
10096SOL    HW131187   6.486   5.067   2.868
10096SOL    HW231188   6.382   5.176   2.931
10097SOL     OW31189   0.925   1.337   6.653
10097SOL    HW131190   1.002   1.308   6.597
10097SOL    HW231191   0.941   1.313   6.748
10098SOL     OW31192   2.016   6.976   5.683
10098SOL    HW131193   1.918   6.967   5.699
10098SOL    HW231194   2.060   7.015   5.764
10099SOL     OW31195   6.603   4.507   6.465
10099SOL    HW131196   6.634   4.480   6.373
10099SOL    HW231197   6.668   4.570   6.505
10100SOL     OW31198   5.281   0.224   4.837
10100SOL    HW131199   5.294   0.284   4.915
10100SOL    HW231200   5.184   0.200   4.829
10101SOL     OW31201   5.605   4.546   1.706
10101SOL    HW131202   5.637   4.456   1.675
10101SOL    HW231203   5.653   4.617   1.654
10102SOL     OW31204   2.200   0.621   2.676
10102SOL    HW131205   2.276   0.635   2.612
10102SOL    HW231206   2.190   0.523   2.695
10103SOL     OW31207   2.611   1.225   4.848
10103SOL    HW131208   2.605   1.218   4.748
10103SOL    HW231209   2.608   1.133   4.887
10104SOL     OW31210   1.009   3.418   5.218
10104SOL    HW131211   0.930   3.366   5.248
10104SOL    HW231212   1.028   3.491   5.283
10105SOL     OW31213   1.044   1.352   6.373
10105SOL    HW131214   1.131   1.374   6.418
10105SOL    HW231215   1.045   1.256   6.345
10106SOL     OW31216   5.115   4.741   1.287
10106SOL    HW131217   5.152   4.832   1.271
10106SOL    HW231218   5.141   4.681   1.211
10107SOL     OW31219   6.720   1.691   6.379
10107SOL    HW131220   6.696   1.750   6.456
10107SOL    HW231221   6.704   1.595   6.403
10108SOL     OW31222   6.622   6.313   0.130
10108SOL    HW131223   6.655   6.404   0.104
10108SOL    HW231224   6.523   6.314   0.135
10109SOL     OW31225   3.725   6.446   2.421
10109SOL    HW131226   3.691   6.407   2.335
10109SOL    HW231227   3.647   6.472   2.478
10110SOL     OW31228   4.169   6.551   5.225
10110SOL    HW131229   4.170   6.517   5.131
10110SOL    HW231230   4.100   6.501   5.278
10111SOL     OW31231   6.477   3.218   3.960
10111SOL    HW131232   6.476   3.247   4.055
10111SOL    HW231233   6.414   3.275   3.907
10112SOL     OW31234   5.491   4.110   4.697
10112SOL    HW131235   5.417   4.165   4.655
10112SOL    HW231236   5.451   4.034   4.748
10113SOL     OW31237   3.706   1.320   6.449
10113SOL    HW131238   3.749   1.332   6.539
10113SOL    HW231239   3.740   1.391   6.387
10114SOL     OW31240   5.480   0.499   0.943
10114SOL    HW131241   5.560   0.494   1.003
10114SOL    HW231242   5.416   0.426   0.965
10115SOL     OW31243   3.032   1.795   3.127
10115SOL    HW131244   3.067   1.711   3.168
10115SOL    HW231245   3.105   1.842   3.078
10116SOL     OW31246   0.745   6.351   0.476
10116SOL    HW131247   0.648   6.343   0.453
10116SOL    HW231248   0.764   6.444   0.507
10117SOL     OW31249   6.292   0.147   4.743
10117SOL    HW131250   6.357   0.216   4.710
10117SOL    HW231251   6.337   0.088   4.810
10118SOL     OW31252   7.023   4.840   3.202
10118SOL    HW131253   7.007   4.917   3.264
10118SOL    HW231254   6.940   4.821   3.150
10119SOL     OW31255   1.653   6.476   4.862
10119SOL    HW131256   1.638   6.517   4.772
10119SOL    HW231257   1.747   6.443   4.868
10120SOL     OW31258   0.314   3.504   4.217
10120SOL    HW131259   0.373   3.525   4.139
10120SOL    HW231260   0.262   3.585   4.243
10121SOL     OW31261   6.606   5.053   5.578
10121SOL    HW131262   6.592   5.146   5.614
10121SOL    HW231263   6.703   5.031   5.579
10122SOL     OW31264   5.598   3.131   0.490
10122SOL    HW131265   5.562   3.201   0.429
10122SOL    HW231266   5.685   3.161   0.529
10123SOL     OW31267   6.463   6.016   0.421
10123SOL    HW131268   6.487   5.974   0.509
10123SOL    HW231269   6.482   5.951   0.347
10124SOL     OW31270   1.987   3.870   0.092
10124SOL    HW131271   1.974   3.790   0.150
10124SOL    HW231272   1.927   3.864   0.012
10125SOL     OW31273   1.784   1.137   2.450
10125SOL    HW131274   1.740   1.220   2.416
10125SOL    HW231275   1.860   1.112   2.389
10126SOL     OW31276   6.566   6.410   6.293
10126SOL    HW131277   6.628   6.385   6.368
10126SOL    HW231278   6.522   6.497   6.314
10127SOL     OW31279   2.861   5.363   5.748
10127SOL    HW131280   2.957   5.376   5.723
10127SOL    HW231281   2.821   5.292   5.690
10128SOL     OW31282   0.950   1.936   1.026
10128SOL    HW131283   0.903   1.850   1.004
10128SOL    HW231284   0.896   1.988   1.092
10129SOL     OW31285   4.841   2.806   4.079
10129SOL    HW131286   4.807   2.764   3.994
10129SOL    HW231287   4.937   2.783   4.091
10130SOL     OW31288   2.307   4.304   2.681
10130SOL    HW131289   2.403   4.282   2.701
10130SOL    HW231290   2.292   4.299   2.582
10131SOL     OW31291   0.516   1.246   3.385
10131SOL    HW131292   0.440   1.311   3.385
10131SOL    HW231293   0.546   1.230   3.479
10132SOL     OW31294   2.254   6.473   3.274
10132SOL    HW131295   2.303   6.500   3.356
10132SOL    HW231296   2.167   6.522   3.268
10133SOL     OW31297   4.567   6.192   2.349
10133SOL    HW131298   4.555   6.288   2.324
10133SOL    HW231299   4.538   6.134   2.273
10134SOL     OW31300   6.882   0.062   3.906
10134SOL    HW131301   6.948   0.137   3.914
10134SOL    HW231302   6.895   7.021   3.981
10135SOL     OW31303   5.329   3.343   3.494
10135SOL    HW131304   5.273   3.276   3.447
10135SOL    HW231305   5.276   3.427   3.508
10136SOL     OW31306   5.572   0.080   2.584
10136SOL    HW131307   5.590   0.176   2.603
10136SOL    HW231308   5.511   0.072   2.506
10137SOL     OW31309   6.740   5.018   4.200
10137SOL    HW131310   6.820   4.961   4.178
10137SOL    HW231311   6.701   4.989   4.287
10138SOL     OW31312   4.234   2.154   1.212
10138SOL    HW131313   4.187   2.233   1.173
10138SOL    HW231314   4.327   2.149   1.176
10139SOL     OW31315   4.089   3.320   3.148
10139SOL    HW131316   4.061   3.224   3.138
10139SOL    HW231317   4.047   3.359   3.229
10140SOL     OW31318   6.224   5.845   5.642
10140SOL    HW131319   6.167   5.798   5.574
10140SOL    HW231320   6.257   5.778   5.709
10141SOL     OW31321   3.348   1.379   4.147
10141SOL    HW131322   3.354   1.281   4.128
10141SOL    HW231323   3.275   1.419   4.092
10142SOL     OW31324   5.730   6.504   4.552
10142SOL    HW131325   5.796   6.431   4.568
10142SOL    HW231326   5.749   6.581   4.613
10143SOL     OW31327   4.705   0.290   0.920
10143SOL    HW131328   4.730   0.379   0.957
10143SOL    HW231329   4.776   0.223   0.942
10144SOL     OW31330   4.409   6.498   6.583
10144SOL    HW131331   4.371   6.468   6.671
10144SOL    HW231332   4.476   6.430   6.551
10145SOL     OW31333   3.700   6.112   6.109
10145SOL    HW131334   3.650   6.139   6.191
10145SOL    HW231335   3.795   6.144   6.115
10146SOL     OW31336   3.659   5.233   5.000
10146SOL    HW131337   3.657   5.146   4.952
10146SOL    HW231338   3.722   5.227   5.078
10147SOL     OW31339   5.014   4.704   4.844
10147SOL    HW131340   5.067   4.675   4.924
10147SOL    HW231341   5.037   4.798   4.822
10148SOL     OW31342   5.671   5.184   6.633
10148SOL    HW131343   5.619   5.111   6.677
10148SOL    HW231344   5.760   5.193   6.678
10149SOL     OW31345   5.360   2.036   0.723
10149SOL    HW131346   5.398   1.944   0.714
10149SOL    HW231347   5.273   2.031   0.774
10150SOL     OW31348   4.645   3.631   0.353
10150SOL    HW131349   4.594   3.565   0.407
10150SOL    HW231350   4.708   3.682   0.412
10151SOL     OW31351   0.683   6.615   6.527
10151SOL    HW131352   0.593   6.658   6.528
10151SOL    HW231353   0.754   6.685   6.526
10152SOL     OW31354   1.590   6.333   4.430
10152SOL    HW131355   1.539   6.419   4.428
10152SOL    HW231356   1.529   6.257   4.406
10153SOL     OW31357   5.142   5.626   4.166
10153SOL    HW131358   5.204   5.690   4.212
10153SOL    HW231359   5.183   5.534   4.166
10154SOL     OW31360   5.784   0.107   4.227
10154SOL    HW131361   5.701   0.073   4.183
10154SOL    HW231362   5.779   0.089   4.325
10155SOL     OW31363   4.221   1.824   5.617
10155SOL    HW131364   4.220   1.788   5.524
10155SOL    HW231365   4.275   1.764   5.676
10156SOL     OW31366   6.168   6.954   2.325
10156SOL    HW131367   6.090   6.893   2.342
10156SOL    HW231368   6.182   7.012   2.405
10157SOL     OW31369   5.876   2.722   6.077
10157SOL    HW131370   5.795   2.665   6.063
10157SOL    HW231371   5.873   2.801   6.015
10158SOL     OW31372   4.570   3.258   0.556
10158SOL    HW131373   4.563   3.199   0.636
10158SOL    HW231374   4.480   3.296   0.534
10159SOL     OW31375   2.754   3.378   6.370
10159SOL    HW131376   2.767   3.464   6.321
10159SOL    HW231377   2.715   3.310   6.308
10160SOL     OW31378   1.701   3.317   2.126
10160SOL    HW131379   1.731   3.413   2.129
10160SOL    HW231380   1.782   3.258   2.125
10161SOL     OW31381   3.502   3.689   6.730
10161SOL    HW131382   3.454   3.771   6.697
10161SOL    HW231383   3.555   3.650   6.655
10162SOL     OW31384   2.425   4.697   0.438
10162SOL    HW131385   2.374   4.656   0.513
10162SOL    HW231386   2.502   4.638   0.413
10163SOL     OW31387   5.375   5.293   6.363
10163SOL    HW131388   5.377   5.367   6.430
10163SOL    HW231389   5.295   5.235   6.380
10164SOL     OW31390   5.896   3.283   4.667
10164SOL    HW131391   5.801   3.253   4.680
10164SOL    HW231392   5.896   3.368   4.615
10165SOL     OW31393   0.785   1.677   3.681
10165SOL    HW131394   0.800   1.673   3.583
10165SOL    HW231395   0.755   1.587   3.714
10166SOL     OW31396   3.319   1.427   2.214
10166SOL    HW131397   3.256   1.504   2.206
10166SOL    HW231398   3.290   1.368   2.289
10167SOL     OW31399   3.929   2.334   6.452
10167SOL    HW131400   3.964   2.346   6.359
10167SOL    HW231401   3.850   2.273   6.451
10168SOL     OW31402   6.333   4.133   5.349
10168SOL    HW131403   6.240   4.099   5.365
10168SOL    HW231404   6.328   4.223   5.304
10169SOL     OW31405   5.952   3.967   3.237
10169SOL    HW131406   5.972   3.987   3.141
10169SOL    HW231407   5.872   3.907   3.242
10170SOL     OW31408   1.145   4.359   5.850
10170SOL    HW131409   1.075   4.430   5.863
10170SOL    HW231410   1.112   4.273   5.889
10171SOL     OW31411   6.193   3.679   5.521
10171SOL    HW131412   6.284   3.682   5.562
10171SOL    HW231413   6.201   3.688   5.421
10172SOL     OW31414   6.070   6.965   4.115
10172SOL    HW131415   6.137   6.994   4.183
10172SOL    HW231416   6.110   6.974   4.023
10173SOL     OW31417   0.687   3.039   0.791
10173SOL    HW131418   0.783   3.011   0.805
10173SOL    HW231419   0.636   2.962   0.753
10174SOL     OW31420   5.402   5.430   2.634
10174SOL    HW131421   5.345   5.457   2.557
10174SOL    HW231422   5.432   5.335   2.623
10175SOL     OW31423   6.688   2.217   3.389
10175SOL    HW131424   6.607   2.162   3.410
10175SOL    HW231425   6.771   2.163   3.408
10176SOL     OW31426   1.553   3.693   5.911
10176SOL    HW131427   1.559   3.618   5.977
10176SOL    HW231428   1.634   3.693   5.852
10177SOL     OW31429   1.763   1.565   0.331
10177SOL    HW131430   1.762   1.644   0.270
10177SOL    HW231431   1.802   1.486   0.284
10178SOL     OW31432   6.882   1.964   5.298
10178SOL    HW131433   6.928   2.019   5.368
10178SOL    HW231434   6.944   1.950   5.221
10179SOL     OW31435   1.103   1.497   5.856
10179SOL    HW131436   1.054   1.557   5.793
10179SOL    HW231437   1.047   1.416   5.875
10180SOL     OW31438   3.594   0.063   0.017
10180SOL    HW131439   3.579   0.081   0.114
10180SOL    HW231440   3.692   0.063   7.022
10181SOL     OW31441   5.154   3.237   2.094
10181SOL    HW131442   5.076   3.178   2.113
10181SOL    HW231443   5.197   3.208   2.008
10182SOL     OW31444   5.393   1.009   1.967
10182SOL    HW131445   5.374   0.962   2.054
10182SOL    HW231446   5.417   1.104   1.985
10183SOL     OW31447   0.488   1.932   6.287
10183SOL    HW131448   0.482   1.898   6.381
10183SOL    HW231449   0.447   2.022   6.282
10184SOL     OW31450   3.649   0.850   6.311
10184SOL    HW131451   3.671   0.764   6.263
10184SOL    HW231452   3.554   0.873   6.295
10185SOL     OW31453   5.302   5.601   1.743
10185SOL    HW131454   5.286   5.607   1.841
10185SOL    HW231455   5.398   5.578   1.726
10186SOL     OW31456   5.862   3.424   3.006
10186SOL    HW131457   5.864   3.328   3.032
10186SOL    HW231458   5.888   3.481   3.084
10187SOL     OW31459   0.645   2.544   0.713
10187SOL    HW131460   0.649   2.453   0.754
10187SOL    HW231461   0.650   2.613   0.786
10188SOL     OW31462   3.196   5.743   0.780
10188SOL    HW131463   3.184   5.812   0.709
10188SOL    HW231464   3.185   5.652   0.741
10189SOL     OW31465   1.276   0.677   5.643
10189SOL    HW131466   1.326   0.611   5.699
10189SOL    HW231467   1.242   0.751   5.701
10190SOL     OW31468   4.630   3.071   1.437
10190SOL    HW131469   4.642   3.159   1.483
10190SOL    HW231470   4.551   3.023   1.476
10191SOL     OW31471   5.035   4.495   6.355
10191SOL    HW131472   4.998   4.427   6.292
10191SOL    HW231473   5.027   4.586   6.314
10192SOL     OW31474   4.811   1.119   5.831
10192SOL    HW131475   4.789   1.185   5.902
10192SOL    HW231476   4.815   1.027   5.870
10193SOL     OW31477   4.088   3.525   1.837
10193SOL    HW131478   4.094   3.426   1.853
10193SOL    HW231479   4.107   3.573   1.923
10194SOL     OW31480   5.904   4.321   5.096
10194SOL    HW131481   5.923   4.281   5.185
10194SOL    HW231482   5.838   4.264   5.046
10195SOL     OW31483   5.864   4.986   1.363
10195SOL    HW131484   5.863   5.050   1.286
10195SOL    HW231485   5.798   5.016   1.432
10196SOL     OW31486   4.385   1.691   4.278
10196SOL    HW131487   4.289   1.681   4.303
10196SOL    HW231488   4.399   1.782   4.238
10197SOL     OW31489   6.734   1.848   4.906
10197SOL    HW131490   6.680   1.926   4.874
10197SOL    HW231491   6.715   1.833   5.003
10198SOL     OW31492   3.112   0.610   1.346
10198SOL    HW131493   3.028   0.656   1.318
10198SOL    HW231494   3.140   0.643   1.436
10199SOL     OW31495   2.406   2.883   5.996
10199SOL    HW131496   2.380   2.872   6.091
10199SOL    HW231497   2.448   2.973   5.983
10200SOL     OW31498   4.686   1.630   1.195
10200SOL    HW131499   4.693   1.701   1.265
10200SOL    HW231500   4.777   1.596   1.173
10201SOL     OW31501   1.247   4.469   1.098
10201SOL    HW131502   1.153   4.504   1.100
10201SOL    HW231503   1.311   4.543   1.116
10202SOL     OW31504   4.056   2.762   6.747
10202SOL    HW131505   4.151   2.768   6.717
10202SOL    HW231506   4.032   2.667   6.763
10203SOL     OW31507   6.328   2.955   3.833
10203SOL    HW131508   6.239   2.923   3.864
10203SOL    HW231509   6.359   3.031   3.890
10204SOL     OW31510   5.248   6.775   6.408
10204SOL    HW131511   5.245   6.694   6.466
10204SOL    HW231512   5.226   6.856   6.462
10205SOL     OW31513   1.245   1.235   0.740
10205SOL    HW131514   1.225   1.226   0.642
10205SOL    HW231515   1.182   1.302   0.780
10206SOL     OW31516   0.304   0.665   6.316
10206SOL    HW131517   0.356   0.581   6.334
10206SOL    HW231518   0.206   0.645   6.321
10207SOL     OW31519   1.247   1.702   6.519
10207SOL    HW131520   1.274   1.613   6.483
10207SOL    HW231521   1.148   1.704   6.534
10208SOL     OW31522   5.815   4.855   4.138
10208SOL    HW131523   5.873   4.831   4.060
10208SOL    HW231524   5.855   4.931   4.189
10209SOL     OW31525   6.435   6.977   6.057
10209SOL    HW131526   6.528   7.014   6.046
10209SOL    HW231527   6.441   6.879   6.076
10210SOL     OW31528   4.819   6.704   1.388
10210SOL    HW131529   4.784   6.642   1.318
10210SOL    HW231530   4.855   6.650   1.465
10211SOL     OW31531   3.865   6.807   4.067
10211SOL    HW131532   3.853   6.894   4.019
10211SOL    HW231533   3.922   6.746   4.011
10212SOL     OW31534   0.713   0.356   5.376
10212SOL    HW131535   0.732   0.275   5.320
10212SOL    HW231536   0.658   0.329   5.455
10213SOL     OW31537   4.052   2.791   1.302
10213SOL    HW131538   4.090   2.883   1.290
10213SOL    HW231539   3.978   2.793   1.369
10214SOL     OW31540   0.866   1.996   1.492
10214SOL    HW131541   0.815   2.034   1.569
10214SOL    HW231542   0.833   2.037   1.407
10215SOL     OW31543   3.920   3.058   3.267
10215SOL    HW131544   3.949   3.022   3.178
10215SOL    HW231545   3.824   3.084   3.263
10216SOL     OW31546   6.701   0.770   0.818
10216SOL    HW131547   6.612   0.816   0.819
10216SOL    HW231548   6.761   0.815   0.751
10217SOL     OW31549   2.950   1.170   3.406
10217SOL    HW131550   2.890   1.241   3.371
10217SOL    HW231551   2.936   1.086   3.355
10218SOL     OW31552   1.299   3.098   1.907
10218SOL    HW131553   1.392   3.131   1.923
10218SOL    HW231554   1.268   3.047   1.987
10219SOL     OW31555   0.477   1.650   2.701
10219SOL    HW131556   0.457   1.568   2.647
10219SOL    HW231557   0.517   1.623   2.789
10220SOL     OW31558   3.720   2.825   1.286
10220SOL    HW131559   3.749   2.863   1.198
10220SOL    HW231560   3.621   2.816   1.288
10221SOL     OW31561   0.881   5.894   3.161
10221SOL    HW131562   0.884   5.815   3.100
10221SOL    HW231563   0.834   5.970   3.115
10222SOL     OW31564   2.835   3.254   5.249
10222SOL    HW131565   2.806   3.158   5.252
10222SOL    HW231566   2.885   3.271   5.164
10223SOL     OW31567   0.699   4.508   1.265
10223SOL    HW131568   0.642   4.585   1.237
10223SOL    HW231569   0.783   4.542   1.306
10224SOL     OW31570   6.777   2.864   3.888
10224SOL    HW131571   6.776   2.962   3.908
10224SOL    HW231572   6.684   2.833   3.867
10225SOL     OW31573   2.161   4.690   5.657
10225SOL    HW131574   2.121   4.606   5.620
10225SOL    HW231575   2.238   4.719   5.599
10226SOL     OW31576   3.286   0.858   6.528
10226SOL    HW131577   3.246   0.802   6.601
10226SOL    HW231578   3.383   0.872   6.546
10227SOL     OW31579   4.632   4.309   0.280
10227SOL    HW131580   4.536   4.288   0.296
10227SOL    HW231581   4.689   4.239   0.324
10228SOL     OW31582   6.713   0.102   0.862
10228SOL    HW131583   6.812   0.099   0.870
10228SOL    HW231584   6.674   0.013   0.885
10229SOL     OW31585   0.970   2.547   5.002
10229SOL    HW131586   1.059   2.507   4.984
10229SOL    HW231587   0.982   2.637   5.045
10230SOL     OW31588   6.055   5.778   2.913
10230SOL    HW131589   6.000   5.698   2.888
10230SOL    HW231590   6.110   5.756   2.994
10231SOL     OW31591   1.399   5.813   5.006
10231SOL    HW131592   1.478   5.752   5.015
10231SOL    HW231593   1.427   5.906   5.029
10232SOL     OW31594   2.602   0.958   3.127
10232SOL    HW131595   2.525   0.895   3.116
10232SOL    HW231596   2.628   0.995   3.037
10233SOL     OW31597   3.869   4.033   5.372
10233SOL    HW131598   3.811   3.954   5.353
10233SOL    HW231599   3.907   4.067   5.286
10234SOL     OW31600   6.199   6.840   1.202
10234SOL    HW131601   6.103   6.840   1.231
10234SOL    HW231602   6.204   6.835   1.102
10235SOL     OW31603   1.946   1.828   2.250
10235SOL    HW131604   1.926   1.890   2.326
10235SOL    HW231605   1.878   1.755   2.248
10236SOL     OW31606   2.150   6.793   0.346
10236SOL    HW131607   2.238   6.803   0.298
10236SOL    HW231608   2.106   6.882   0.354
10237SOL     OW31609   6.796   3.578   0.158
10237SOL    HW131610   6.895   3.570   0.169
10237SOL    HW231611   6.751   3.510   0.216
10238SOL     OW31612   3.994   4.843   1.624
10238SOL    HW131613   3.983   4.845   1.724
10238SOL    HW231614   4.078   4.794   1.601
10239SOL     OW31615   1.482   2.900   4.745
10239SOL    HW131616   1.408   2.832   4.743
10239SOL    HW231617   1.461   2.973   4.680
10240SOL     OW31618   2.889   6.093   2.373
10240SOL    HW131619   2.968   6.061   2.424
10240SOL    HW231620   2.846   6.169   2.422
10241SOL     OW31621   5.444   1.982   2.211
10241SOL    HW131622   5.450   2.029   2.122
10241SOL    HW231623   5.487   2.040   2.281
10242SOL     OW31624   0.013   1.741   0.450
10242SOL    HW131625   7.010   1.822   0.397
10242SOL    HW231626   6.960   1.679   0.457
10243SOL     OW31627   2.259   4.817   1.422
10243SOL    HW131628   2.273   4.721   1.446
10243SOL    HW231629   2.335   4.872   1.458
10244SOL     OW31630   2.340   4.099   0.657
10244SOL    HW131631   2.251   4.059   0.679
10244SOL    HW231632   2.360   4.084   0.560
10245SOL     OW31633   3.380   4.498   1.395
10245SOL    HW131634   3.287   4.460   1.396
10245SOL    HW231635   3.409   4.517   1.488
10246SOL     OW31636   3.034   3.478   4.492
10246SOL    HW131637   3.133   3.470   4.503
10246SOL    HW231638   3.014   3.529   4.409
10247SOL     OW31639   0.772   4.071   6.152
10247SOL    HW131640   0.789   4.015   6.233
10247SOL    HW231641   0.798   4.020   6.070
10248SOL     OW31642   0.991   0.619   2.693
10248SOL    HW131643   0.945   0.644   2.778
10248SOL    HW231644   1.053   0.693   2.665
10249SOL     OW31645   2.390   4.726   7.012
10249SOL    HW131646   2.477   4.774   7.006
10249SOL    HW231647   2.349   4.741   0.078
10250SOL     OW31648   6.543   3.595   0.743
10250SOL    HW131649   6.465   3.586   0.681
10250SOL    HW231650   6.615   3.647   0.698
10251SOL     OW31651   2.004   1.286   4.214
10251SOL    HW131652   1.949   1.359   4.255
10251SOL    HW231653   1.971   1.197   4.245
10252SOL     OW31654   4.386   3.499   5.856
10252SOL    HW131655   4.339   3.426   5.904
10252SOL    HW231656   4.393   3.477   5.758
10253SOL     OW31657   3.635   6.788   0.838
10253SOL    HW131658   3.635   6.705   0.781
10253SOL    HW231659   3.725   6.798   0.880
10254SOL     OW31660   4.679   1.294   5.642
10254SOL    HW131661   4.746   1.252   5.704
10254SOL    HW231662   4.605   1.335   5.696
10255SOL     OW31663   2.369   6.994   1.063
10255SOL    HW131664   2.412   7.015   1.151
10255SOL    HW231665   2.296   6.926   1.077
10256SOL     OW31666   4.529   0.887   2.217
10256SOL    HW131667   4.620   0.913   2.182
10256SOL    HW231668   4.516   0.789   2.205
10257SOL     OW31669   2.082   4.467   3.870
10257SOL    HW131670   2.166   4.475   3.817
10257SOL    HW231671   2.057   4.556   3.907
10258SOL     OW31672   3.736   2.138   3.392
10258SOL    HW131673   3.654   2.107   3.345
10258SOL    HW231674   3.722   2.133   3.491
10259SOL     OW31675   0.805   3.801   3.621
10259SOL    HW131676   0.846   3.818   3.711
10259SOL    HW231677   0.722   3.746   3.632
10260SOL     OW31678   1.020   1.042   3.358
10260SOL    HW131679   1.062   1.133   3.366
10260SOL    HW231680   0.961   1.040   3.277
10261SOL     OW31681   6.961   4.773   0.628
10261SOL    HW131682   6.952   4.689   0.681
10261SOL    HW231683   6.873   4.820   0.624
10262SOL     OW31684   3.411   6.817   6.195
10262SOL    HW131685   3.426   6.888   6.126
10262SOL    HW231686   3.313   6.803   6.207
10263SOL     OW31687   5.914   0.747   0.452
10263SOL    HW131688   5.902   0.655   0.489
10263SOL    HW231689   5.922   0.743   0.353
10264SOL     OW31690   5.673   5.473   6.299
10264SOL    HW131691   5.647   5.449   6.392
10264SOL    HW231692   5.601   5.530   6.258
10265SOL     OW31693   2.879   2.719   0.423
10265SOL    HW131694   2.793   2.701   0.471
10265SOL    HW231695   2.956   2.699   0.484
10266SOL     OW31696   3.295   2.874   2.707
10266SOL    HW131697   3.227   2.869   2.780
10266SOL    HW231698   3.382   2.836   2.740
10267SOL     OW31699   5.447   1.423   0.952
10267SOL    HW131700   5.461   1.350   0.885
10267SOL    HW231701   5.483   1.509   0.916
10268SOL     OW31702   5.753   6.291   2.162
10268SOL    HW131703   5.749   6.349   2.081
10268SOL    HW231704   5.846   6.292   2.200
10269SOL     OW31705   1.088   2.743   6.380
10269SOL    HW131706   1.122   2.798   6.456
10269SOL    HW231707   1.117   2.648   6.393
10270SOL     OW31708   3.366   5.926   2.516
10270SOL    HW131709   3.383   5.898   2.421
10270SOL    HW231710   3.275   5.897   2.544
10271SOL     OW31711   2.870   3.101   0.156
10271SOL    HW131712   2.798   3.114   0.225
10271SOL    HW231713   2.913   3.011   0.170
10272SOL     OW31714   1.029   0.561   3.923
10272SOL    HW131715   0.954   0.605   3.972
10272SOL    HW231716   1.114   0.571   3.975
10273SOL     OW31717   2.972   4.802   4.388
10273SOL    HW131718   3.032   4.867   4.340
10273SOL    HW231719   2.964   4.829   4.484
10274SOL     OW31720   0.598   4.502   6.102
10274SOL    HW131721   0.630   4.461   6.016
10274SOL    HW231722   0.518   4.452   6.135
10275SOL     OW31723   0.124   0.656   2.003
10275SOL    HW131724   0.203   0.701   1.961
10275SOL    HW231725   0.156   0.583   2.064
10276SOL     OW31726   4.391   5.800   5.847
10276SOL    HW131727   4.359   5.750   5.766
10276SOL    HW231728   4.317   5.860   5.879
10277SOL     OW31729   1.287   0.098   4.709
10277SOL    HW131730   1.342   0.042   4.647
10277SOL    HW231731   1.190   0.091   4.684
10278SOL     OW31732   0.828   0.632   4.092
10278SOL    HW131733   0.769   0.704   4.129
10278SOL    HW231734   0.842   0.562   4.162
10279SOL     OW31735   2.738   5.354   4.143
10279SOL    HW131736   2.834   5.326   4.142
10279SOL    HW231737   2.701   5.350   4.051
10280SOL     OW31738   5.284   3.806   0.143
10280SOL    HW131739   5.322   3.716   0.121
10280SOL    HW231740   5.354   3.876   0.132
10281SOL     OW31741   6.971   2.390   3.064
10281SOL    HW131742   6.995   2.294   3.049
10281SOL    HW231743   6.895   2.396   3.128
10282SOL     OW31744   5.604   3.308   3.464
10282SOL    HW131745   5.505   3.299   3.455
10282SOL    HW231746   5.627   3.403   3.484
10283SOL     OW31747   0.966   2.996   0.803
10283SOL    HW131748   1.041   2.967   0.742
10283SOL    HW231749   0.993   2.983   0.898
10284SOL     OW31750   6.154   2.273   3.715
10284SOL    HW131751   6.142   2.331   3.795
10284SOL    HW231752   6.244   2.229   3.719
10285SOL     OW31753   4.129   6.397   3.041
10285SOL    HW131754   4.121   6.359   2.948
10285SOL    HW231755   4.089   6.488   3.044
10286SOL     OW31756   3.008   0.651   3.603
10286SOL    HW131757   2.980   0.569   3.652
10286SOL    HW231758   3.098   0.681   3.636
10287SOL     OW31759   1.819   5.924   2.017
10287SOL    HW131760   1.724   5.918   2.047
10287SOL    HW231761   1.858   5.832   2.009
10288SOL     OW31762   3.920   0.141   4.264
10288SOL    HW131763   3.891   0.054   4.303
10288SOL    HW231764   3.841   0.189   4.226
10289SOL     OW31765   2.557   5.925   0.784
10289SOL    HW131766   2.584   5.832   0.810
10289SOL    HW231767   2.599   5.991   0.847
10290SOL     OW31768   3.169   3.195   2.803
10290SOL    HW131769   3.255   3.245   2.805
10290SOL    HW231770   3.156   3.154   2.712
10291SOL     OW31771   3.912   1.452   3.069
10291SOL    HW131772   3.964   1.537   3.080
10291SOL    HW231773   3.815   1.471   3.085
10292SOL     OW31774   0.581   1.254   5.906
10292SOL    HW131775   0.654   1.314   5.939
10292SOL    HW231776   0.516   1.236   5.981
10293SOL     OW31777   0.681   3.218   3.657
10293SOL    HW131778   0.624   3.210   3.739
10293SOL    HW231779   0.734   3.303   3.661
10294SOL     OW31780   4.375   1.924   3.028
10294SOL    HW131781   4.315   1.844   3.023
10294SOL    HW231782   4.321   2.005   3.048
10295SOL     OW31783   1.203   2.615   5.363
10295SOL    HW131784   1.128   2.565   5.406
10295SOL    HW231785   1.250   2.672   5.431
10296SOL     OW31786   5.831   1.548   5.954
10296SOL    HW131787   5.840   1.471   6.017
10296SOL    HW231788   5.870   1.630   5.996
10297SOL     OW31789   2.304   1.316   6.960
10297SOL    HW131790   2.282   1.218   6.951
10297SOL    HW231791   2.231   1.361   7.011
10298SOL     OW31792   1.328   4.626   2.187
10298SOL    HW131793   1.367   4.661   2.102
10298SOL    HW231794   1.288   4.702   2.239
10299SOL     OW31795   3.960   5.787   2.449
10299SOL    HW131796   3.977   5.885   2.442
10299SOL    HW231797   3.990   5.741   2.365
10300SOL     OW31798   1.926   4.289   1.901
10300SOL    HW131799   1.837   4.330   1.923
10300SOL    HW231800   1.985   4.294   1.982
10301SOL     OW31801   4.738   1.647   5.144
10301SOL    HW131802   4.660   1.588   5.164
10301SOL    HW231803   4.721   1.738   5.182
10302SOL     OW31804   2.471   5.851   4.038
10302SOL    HW131805   2.441   5.799   3.957
10302SOL    HW231806   2.432   5.942   4.035
10303SOL     OW31807   1.058   5.206   3.555
10303SOL    HW131808   1.020   5.192   3.464
10303SOL    HW231809   0.998   5.266   3.608
10304SOL     OW31810   5.937   0.179   0.902
10304SOL    HW131811   5.985   0.091   0.910
10304SOL    HW231812   5.847   0.172   0.946
10305SOL     OW31813   2.511   4.100   5.608
10305SOL    HW131814   2.445   4.061   5.544
10305SOL    HW231815   2.542   4.029   5.672
10306SOL     OW31816   5.481   5.850   0.285
10306SOL    HW131817   5.573   5.817   0.261
10306SOL    HW231818   5.423   5.773   0.309
10307SOL     OW31819   3.111   1.526   4.805
10307SOL    HW131820   3.038   1.458   4.811
10307SOL    HW231821   3.188   1.488   4.754
10308SOL     OW31822   2.412   4.345   2.161
10308SOL    HW131823   2.472   4.420   2.135
10308SOL    HW231824   2.417   4.272   2.093
10309SOL     OW31825   6.717   1.380   6.488
10309SOL    HW131826   6.801   1.343   6.446
10309SOL    HW231827   6.732   1.393   6.586
10310SOL     OW31828   3.067   3.596   0.235
10310SOL    HW131829   2.984   3.556   0.196
10310SOL    HW231830   3.062   3.593   0.335
10311SOL     OW31831   6.460   5.738   0.286
10311SOL    HW131832   6.415   5.669   0.229
10311SOL    HW231833   6.499   5.693   0.367
10312SOL     OW31834   4.846   6.821   2.626
10312SOL    HW131835   4.860   6.789   2.532
10312SOL    HW231836   4.855   6.920   2.630
10313SOL     OW31837   3.870   5.964   2.180
10313SOL    HW131838   3.817   6.031   2.129
10313SOL    HW231839   3.817   5.931   2.258
10314SOL     OW31840   6.611   0.430   0.248
10314SOL    HW131841   6.515   0.441   0.221
10314SOL    HW231842   6.640   0.336   0.230
10315SOL     OW31843   6.080   6.214   4.069
10315SOL    HW131844   5.993   6.171   4.091
10315SOL    HW231845   6.066   6.310   4.046
10316SOL     OW31846   6.729   2.713   6.117
10316SOL    HW131847   6.746   2.680   6.210
10316SOL    HW231848   6.804   2.772   6.089
10317SOL     OW31849   3.929   6.260   6.153
10317SOL    HW131850   4.016   6.246   6.201
10317SOL    HW231851   3.910   6.358   6.145
10318SOL     OW31852   4.833   1.106   6.522
10318SOL    HW131853   4.911   1.044   6.509
10318SOL    HW231854   4.842   1.153   6.610
10319SOL     OW31855   0.920   3.977   5.530
10319SOL    HW131856   0.847   3.915   5.502
10319SOL    HW231857   0.891   4.071   5.514
10320SOL     OW31858   0.569   6.214   2.615
10320SOL    HW131859   0.526   6.261   2.537
10320SOL    HW231860   0.500   6.164   2.667
10321SOL     OW31861   5.907   1.647   2.042
10321SOL    HW131862   6.005   1.632   2.035
10321SOL    HW231863   5.864   1.567   2.085
10322SOL     OW31864   4.420   4.631   4.783
10322SOL    HW131865   4.500   4.601   4.731
10322SOL    HW231866   4.411   4.575   4.866
10323SOL     OW31867   6.194   4.795   5.157
10323SOL    HW131868   6.162   4.889   5.149
10323SOL    HW231869   6.292   4.792   5.139
10324SOL     OW31870   3.708   3.274   2.782
10324SOL    HW131871   3.796   3.319   2.799
10324SOL    HW231872   3.713   3.179   2.815
10325SOL     OW31873   6.840   4.959   2.225
10325SOL    HW131874   6.805   5.040   2.177
10325SOL    HW231875   6.763   4.903   2.255
10326SOL     OW31876   6.119   3.890   6.613
10326SOL    HW131877   6.069   3.945   6.546
10326SOL    HW231878   6.215   3.886   6.586
10327SOL     OW31879   2.521   2.961   1.482
10327SOL    HW131880   2.460   2.884   1.465
10327SOL    HW231881   2.604   2.951   1.427
10328SOL     OW31882   6.172   2.895   1.057
10328SOL    HW131883   6.261   2.937   1.042
10328SOL    HW231884   6.149   2.899   1.155
10329SOL     OW31885   2.606   1.158   2.930
10329SOL    HW131886   2.543   1.234   2.914
10329SOL    HW231887   2.664   1.145   2.849
10330SOL     OW31888   4.016   0.837   1.949
10330SOL    HW131889   4.045   0.920   1.997
10330SOL    HW231890   3.997   0.765   2.015
10331SOL     OW31891   6.672   6.090   6.128
10331SOL    HW131892   6.741   6.027   6.094
10331SOL    HW231893   6.591   6.038   6.157
10332SOL     OW31894   6.788   7.014   6.991
10332SOL    HW131895   6.768   6.938   6.930
10332SOL    HW231896   6.805   0.073   6.938
10333SOL     OW31897   0.674   5.414   5.046
10333SOL    HW131898   0.635   5.359   4.971
10333SOL    HW231899   0.613   5.491   5.066
10334SOL     OW31900   3.559   0.724   4.624
10334SOL    HW131901   3.495   0.647   4.629
10334SOL    HW231902   3.587   0.738   4.529
10335SOL     OW31903   1.646   4.011   0.084
10335SOL    HW131904   1.681   3.979   0.172
10335SOL    HW231905   1.564   4.066   0.099
10336SOL     OW31906   6.173   0.155   1.846
10336SOL    HW131907   6.138   0.069   1.882
10336SOL    HW231908   6.265   0.171   1.882
10337SOL     OW31909   0.477   5.763   6.617
10337SOL    HW131910   0.513   5.857   6.615
10337SOL    HW231911   0.452   5.736   6.524
10338SOL     OW31912   1.609   6.169   2.351
10338SOL    HW131913   1.659   6.163   2.438
10338SOL    HW231914   1.633   6.254   2.304
10339SOL     OW31915   5.529   3.550   5.867
10339SOL    HW131916   5.540   3.512   5.959
10339SOL    HW231917   5.599   3.619   5.851
10340SOL     OW31918   1.429   3.206   0.003
10340SOL    HW131919   1.388   3.135   6.970
10340SOL    HW231920   1.490   3.262   6.971
10341SOL     OW31921   2.093   3.652   2.172
10341SOL    HW131922   2.135   3.605   2.095
10341SOL    HW231923   2.110   3.600   2.256
10342SOL     OW31924   1.895   0.610   4.354
10342SOL    HW131925   1.928   0.692   4.307
10342SOL    HW231926   1.843   0.553   4.290
10343SOL     OW31927   3.268   5.031   6.845
10343SOL    HW131928   3.261   4.960   6.775
10343SOL    HW231929   3.364   5.043   6.871
10344SOL     OW31930   4.419   3.450   0.159
10344SOL    HW131931   4.407   3.425   0.063
10344SOL    HW231932   4.465   3.538   0.165
10345SOL     OW31933   1.963   2.514   5.846
10345SOL    HW131934   1.877   2.556   5.819
10345SOL    HW231935   1.998   2.458   5.770
10346SOL     OW31936   0.098   5.527   1.460
10346SOL    HW131937   0.122   5.609   1.408
10346SOL    HW231938   0.020   5.547   1.520
10347SOL     OW31939   4.555   1.236   3.364
10347SOL    HW131940   4.559   1.257   3.267
10347SOL    HW231941   4.640   1.264   3.408
10348SOL     OW31942   6.145   2.606   0.526
10348SOL    HW131943   6.121   2.649   0.613
10348SOL    HW231944   6.238   2.570   0.530
10349SOL     OW31945   1.063   0.701   6.597
10349SOL    HW131946   0.990   0.734   6.657
10349SOL    HW231947   1.114   0.629   6.643
10350SOL     OW31948   3.098   5.435   5.315
10350SOL    HW131949   3.186   5.404   5.350
10350SOL    HW231950   3.093   5.419   5.217
10351SOL     OW31951   4.588   5.311   6.996
10351SOL    HW131952   4.497   5.273   6.981
10351SOL    HW231953   4.657   5.251   6.956
10352SOL     OW31954   3.286   0.703   6.257
10352SOL    HW131955   3.282   0.615   6.304
10352SOL    HW231956   3.340   0.694   6.173
10353SOL     OW31957   0.085   2.987   4.836
10353SOL    HW131958   0.184   2.989   4.851
10353SOL    HW231959   0.052   2.894   4.847
10354SOL     OW31960   6.081   1.600   2.272
10354SOL    HW131961   6.114   1.571   2.183
10354SOL    HW231962   6.032   1.525   2.316
10355SOL     OW31963   2.563   6.584   1.545
10355SOL    HW131964   2.570   6.484   1.544
10355SOL    HW231965   2.539   6.615   1.637
10356SOL     OW31966   0.212   4.936   5.799
10356SOL    HW131967   0.124   4.965   5.837
10356SOL    HW231968   0.285   4.968   5.859
10357SOL     OW31969   1.858   2.936   6.541
10357SOL    HW131970   1.814   2.847   6.533
10357SOL    HW231971   1.789   3.006   6.560
10358SOL     OW31972   0.564   2.733   3.143
10358SOL    HW131973   0.587   2.812   3.085
10358SOL    HW231974   0.536   2.766   3.233
10359SOL     OW31975   1.112   1.413   0.882
10359SOL    HW131976   1.159   1.391   0.967
10359SOL    HW231977   1.113   1.511   0.867
10360SOL     OW31978   4.947   5.116   3.201
10360SOL    HW131979   4.974   5.088   3.293
10360SOL    HW231980   4.943   5.216   3.197
10361SOL     OW31981   2.694   6.601   2.535
10361SOL    HW131982   2.744   6.628   2.617
10361SOL    HW231983   2.717   6.663   2.460
10362SOL     OW31984   1.911   4.897   4.795
10362SOL    HW131985   1.977   4.920   4.723
10362SOL    HW231986   1.837   4.964   4.794
10363SOL     OW31987   5.169   0.802   2.749
10363SOL    HW131988   5.166   0.832   2.654
10363SOL    HW231989   5.206   0.709   2.753
10364SOL     OW31990   3.049   3.778   1.719
10364SOL    HW131991   3.000   3.732   1.793
10364SOL    HW231992   3.047   3.877   1.736
10365SOL     OW31993   3.707   5.563   0.405
10365SOL    HW131994   3.661   5.484   0.446
10365SOL    HW231995   3.804   5.541   0.390
10366SOL     OW31996   2.323   0.227   4.158
10366SOL    HW131997   2.336   0.169   4.078
10366SOL    HW231998   2.355   0.319   4.138
10367SOL     OW31999   5.498   2.411   2.492
10367SOL    HW132000   5.453   2.498   2.476
10367SOL    HW232001   5.585   2.408   2.442
10368SOL     OW32002   2.729   1.247   1.017
10368SOL    HW132003   2.662   1.306   1.063
10368SOL    HW232004   2.794   1.304   0.966
10369SOL     OW32005   4.000   0.974   6.668
10369SOL    HW132006   4.014   0.939   6.575
10369SOL    HW232007   3.903   0.973   6.689
10370SOL     OW32008   4.762   1.184   5.005
10370SOL    HW132009   4.758   1.097   4.957
10370SOL    HW232010   4.855   1.220   5.000
10371SOL     OW32011   3.616   5.844   5.279
10371SOL    HW132012   3.627   5.944   5.280
10371SOL    HW232013   3.682   5.802   5.340
10372SOL     OW32014   2.276   0.892   5.510
10372SOL    HW132015   2.346   0.957   5.538
10372SOL    HW232016   2.217   0.934   5.441
10373SOL     OW32017   1.921   6.388   4.853
10373SOL    HW132018   1.950   6.302   4.811
10373SOL    HW232019   1.997   6.427   4.905
10374SOL     OW32020   2.863   1.446   3.366
10374SOL    HW132021   2.937   1.511   3.351
10374SOL    HW232022   2.781   1.495   3.394
10375SOL     OW32023   4.838   2.127   0.098
10375SOL    HW132024   4.851   2.215   0.145
10375SOL    HW232025   4.916   2.110   0.038
10376SOL     OW32026   1.073   6.926   3.789
10376SOL    HW132027   0.982   6.901   3.756
10376SOL    HW232028   1.122   6.843   3.816
10377SOL     OW32029   6.997   0.938   3.452
10377SOL    HW132030   0.034   0.899   3.522
10377SOL    HW232031   6.910   0.962   3.495
10378SOL     OW32032   0.038   0.836   6.249
10378SOL    HW132033   0.038   0.736   6.244
10378SOL    HW232034   6.980   0.872   6.205
10379SOL     OW32035   4.995   0.337   5.076
10379SOL    HW132036   5.020   0.314   5.170
10379SOL    HW232037   4.895   0.334   5.067
10380SOL     OW32038   5.664   0.760   2.849
10380SOL    HW132039   5.626   0.844   2.810
10380SOL    HW232040   5.592   0.692   2.857
10381SOL     OW32041   4.929   5.543   5.835
10381SOL    HW132042   4.913   5.474   5.906
10381SOL    HW232043   4.852   5.607   5.832
10382SOL     OW32044   2.616   5.082   6.129
10382SOL    HW132045   2.583   5.141   6.055
10382SOL    HW232046   2.542   5.064   6.193
10383SOL     OW32047   0.857   3.620   0.932
10383SOL    HW132048   0.867   3.680   0.853
10383SOL    HW232049   0.807   3.668   1.004
10384SOL     OW32050   7.016   0.104   1.054
10384SOL    HW132051   0.061   0.032   1.062
10384SOL    HW232052   7.013   0.136   0.959
10385SOL     OW32053   5.540   6.880   6.288
10385SOL    HW132054   5.443   6.872   6.266
10385SOL    HW232055   5.550   6.919   6.380
10386SOL     OW32056   6.704   3.584   5.219
10386SOL    HW132057   6.668   3.641   5.292
10386SOL    HW232058   6.789   3.540   5.250
10387SOL     OW32059   2.977   2.211   2.750
10387SOL    HW132060   2.993   2.200   2.652
10387SOL    HW232061   2.887   2.253   2.765
10388SOL     OW32062   1.401   5.409   3.935
10388SOL    HW132063   1.346   5.476   3.884
10388SOL    HW232064   1.449   5.350   3.871
10389SOL     OW32065   0.560   5.175   2.893
10389SOL    HW132066   0.533   5.153   2.799
10389SOL    HW232067   0.519   5.109   2.956
10390SOL     OW32068   1.601   4.133   2.763
10390SOL    HW132069   1.696   4.105   2.748
10390SOL    HW232070   1.548   4.112   2.681
10391SOL     OW32071   1.392   6.080   6.509
10391SOL    HW132072   1.313   6.033   6.469
10391SOL    HW232073   1.378   6.093   6.607
10392SOL     OW32074   6.238   4.284   0.229
10392SOL    HW132075   6.183   4.352   0.182
10392SOL    HW232076   6.334   4.307   0.220
10393SOL     OW32077   0.938   1.354   4.282
10393SOL    HW132078   0.890   1.429   4.238
10393SOL    HW232079   0.874   1.303   4.341
10394SOL     OW32080   1.738   6.797   6.851
10394SOL    HW132081   1.731   6.713   6.904
10394SOL    HW232082   1.808   6.856   6.892
10395SOL     OW32083   6.994   0.766   3.893
10395SOL    HW132084   7.015   0.751   3.990
10395SOL    HW232085   6.895   0.756   3.879
10396SOL     OW32086   0.903   0.567   3.162
10396SOL    HW132087   0.930   0.602   3.252
10396SOL    HW232088   0.967   0.495   3.134
10397SOL     OW32089   4.062   0.420   3.164
10397SOL    HW132090   4.130   0.488   3.137
10397SOL    HW232091   3.974   0.465   3.179
10398SOL     OW32092   6.445   2.980   1.105
10398SOL    HW132093   6.415   2.919   1.178
10398SOL    HW232094   6.537   2.954   1.076
10399SOL     OW32095   4.827   2.326   5.620
10399SOL    HW132096   4.906   2.385   5.603
10399SOL    HW232097   4.859   2.234   5.642
10400SOL     OW32098   2.496   5.707   3.182
10400SOL    HW132099   2.400   5.686   3.165
10400SOL    HW232100   2.549   5.622   3.181
10401SOL     OW32101   6.721   5.925   2.541
10401SOL    HW132102   6.797   5.867   2.571
10401SOL    HW232103   6.753   5.988   2.471
10402SOL     OW32104   0.677   2.999   5.218
10402SOL    HW132105   0.587   3.001   5.261
10402SOL    HW232106   0.666   2.993   5.119
10403SOL     OW32107   5.168   1.640   2.308
10403SOL    HW132108   5.108   1.578   2.257
10403SOL    HW232109   5.183   1.604   2.400
10404SOL     OW32110   0.935   6.603   4.063
10404SOL    HW132111   0.971   6.511   4.081
10404SOL    HW232112   0.870   6.599   3.987
10405SOL     OW32113   1.394   5.998   5.650
10405SOL    HW132114   1.396   6.064   5.725
10405SOL    HW232115   1.346   6.038   5.572
10406SOL     OW32116   1.918   4.812   5.815
10406SOL    HW132117   1.980   4.733   5.821
10406SOL    HW232118   1.832   4.784   5.773
10407SOL     OW32119   1.367   1.472   5.686
10407SOL    HW132120   1.411   1.531   5.755
10407SOL    HW232121   1.324   1.395   5.732
10408SOL     OW32122   4.345   4.879   3.261
10408SOL    HW132123   4.335   4.928   3.348
10408SOL    HW232124   4.318   4.784   3.273
10409SOL     OW32125   0.155   3.488   2.057
10409SOL    HW132126   0.067   3.513   2.017
10409SOL    HW232127   0.229   3.519   1.998
10410SOL     OW32128   4.200   0.975   0.914
10410SOL    HW132129   4.210   1.068   0.878
10410SOL    HW232130   4.151   0.978   1.001
10411SOL     OW32131   2.148   4.466   3.051
10411SOL    HW132132   2.094   4.526   2.993
10411SOL    HW232133   2.127   4.484   3.147
10412SOL     OW32134   0.903   2.537   6.930
10412SOL    HW132135   0.901   2.494   7.020
10412SOL    HW232136   0.917   2.468   6.860
10413SOL     OW32137   0.130   1.854   6.896
10413SOL    HW132138   0.088   1.816   6.813
10413SOL    HW232139   0.172   1.780   6.948
10414SOL     OW32140   5.045   6.462   6.707
10414SOL    HW132141   5.040   6.481   6.805
10414SOL    HW232142   5.033   6.364   6.691
10415SOL     OW32143   0.472   5.649   3.653
10415SOL    HW132144   0.527   5.732   3.666
10415SOL    HW232145   0.528   5.568   3.673
10416SOL     OW32146   6.516   2.380   5.063
10416SOL    HW132147   6.460   2.303   5.033
10416SOL    HW232148   6.463   2.465   5.052
10417SOL     OW32149   4.063   5.298   2.886
10417SOL    HW132150   4.029   5.304   2.980
10417SOL    HW232151   4.148   5.244   2.885
10418SOL     OW32152   6.949   4.118   6.314
10418SOL    HW132153   6.909   4.176   6.244
10418SOL    HW232154   6.885   4.045   6.338
10419SOL     OW32155   3.343   0.827   5.162
10419SOL    HW132156   3.285   0.892   5.210
10419SOL    HW232157   3.358   0.747   5.220
10420SOL     OW32158   6.499   3.205   3.019
10420SOL    HW132159   6.452   3.289   2.992
10420SOL    HW232160   6.438   3.150   3.076
10421SOL     OW32161   0.901   4.454   3.830
10421SOL    HW132162   0.882   4.426   3.924
10421SOL    HW232163   0.838   4.408   3.768
10422SOL     OW32164   6.774   3.759   4.506
10422SOL    HW132165   6.783   3.707   4.591
10422SOL    HW232166   6.831   3.716   4.435
10423SOL     OW32167   3.267   4.927   3.922
10423SOL    HW132168   3.177   4.899   3.955
10423SOL    HW232169   3.261   4.949   3.825
10424SOL     OW32170   3.739   0.647   6.129
10424SOL    HW132171   3.819   0.705   6.116
10424SOL    HW232172   3.769   0.555   6.156
10425SOL     OW32173   2.268   0.797   0.753
10425SOL    HW132174   2.255   0.725   0.684
10425SOL    HW232175   2.260   0.756   0.844
10426SOL     OW32176   5.546   2.818   5.835
10426SOL    HW132177   5.537   2.917   5.839
10426SOL    HW232178   5.623   2.793   5.777
10427SOL     OW32179   5.108   5.923   4.690
10427SOL    HW132180   5.123   5.850   4.622
10427SOL    HW232181   5.159   6.005   4.661
10428SOL     OW32182   1.804   1.418   3.350
10428SOL    HW132183   1.865   1.340   3.360
10428SOL    HW232184   1.741   1.402   3.274
10429SOL     OW32185   1.097   3.672   2.752
10429SOL    HW132186   1.182   3.712   2.720
10429SOL    HW232187   1.114   3.578   2.784
10430SOL     OW32188   3.545   0.059   3.539
10430SOL    HW132189   3.644   0.046   3.539
10430SOL    HW232190   3.519   0.114   3.459
10431SOL     OW32191   3.188   2.092   3.831
10431SOL    HW132192   3.201   2.136   3.742
10431SOL    HW232193   3.187   1.993   3.819
10432SOL     OW32194   6.747   6.684   5.810
10432SOL    HW132195   6.791   6.653   5.894
10432SOL    HW232196   6.648   6.687   5.823
10433SOL     OW32197   2.129   6.790   2.095
10433SOL    HW132198   2.127   6.740   2.008
10433SOL    HW232199   2.044   6.774   2.145
10434SOL     OW32200   4.967   6.435   5.580
10434SOL    HW132201   4.945   6.407   5.674
10434SOL    HW232202   5.066   6.428   5.565
10435SOL     OW32203   0.746   2.278   6.251
10435SOL    HW132204   0.696   2.200   6.288
10435SOL    HW232205   0.820   2.304   6.314
10436SOL     OW32206   0.477   4.437   5.413
10436SOL    HW132207   0.465   4.426   5.314
10436SOL    HW232208   0.441   4.356   5.460
10437SOL     OW32209   5.742   4.792   5.412
10437SOL    HW132210   5.806   4.754   5.346
10437SOL    HW232211   5.792   4.845   5.480
10438SOL     OW32212   6.826   6.212   6.328
10438SOL    HW132213   6.739   6.176   6.296
10438SOL    HW232214   6.893   6.208   6.254
10439SOL     OW32215   0.047   6.866   4.300
10439SOL    HW132216   0.034   6.908   4.390
10439SOL    HW232217   0.132   6.899   4.260
10440SOL     OW32218   0.047   1.806   6.291
10440SOL    HW132219   0.077   1.830   6.199
10440SOL    HW232220   0.041   1.707   6.300
10441SOL     OW32221   3.610   2.164   0.815
10441SOL    HW132222   3.520   2.158   0.856
10441SOL    HW232223   3.680   2.162   0.886
10442SOL     OW32224   2.778   1.449   5.436
10442SOL    HW132225   2.842   1.427   5.509
10442SOL    HW232226   2.700   1.498   5.473
10443SOL     OW32227   6.916   0.820   2.871
10443SOL    HW132228   7.009   0.853   2.852
10443SOL    HW232229   6.878   0.870   2.948
10444SOL     OW32230   3.626   5.953   4.299
10444SOL    HW132231   3.554   5.897   4.259
10444SOL    HW232232   3.628   5.939   4.398
10445SOL     OW32233   1.847   4.385   2.560
10445SOL    HW132234   1.917   4.394   2.489
10445SOL    HW232235   1.845   4.291   2.594
10446SOL     OW32236   1.828   4.205   5.019
10446SOL    HW132237   1.862   4.152   4.941
10446SOL    HW232238   1.869   4.171   5.103
10447SOL     OW32239   0.133   1.656   2.842
10447SOL    HW132240   0.150   1.558   2.856
10447SOL    HW232241   0.180   1.708   2.914
10448SOL     OW32242   2.149   6.578   2.834
10448SOL    HW132243   2.098   6.530   2.905
10448SOL    HW232244   2.085   6.615   2.766
10449SOL     OW32245   3.453   6.104   6.711
10449SOL    HW132246   3.531   6.073   6.766
10449SOL    HW232247   3.456   6.060   6.621
10450SOL     OW32248   6.656   0.168   6.156
10450SOL    HW132249   6.630   0.256   6.116
10450SOL    HW232250   6.662   0.099   6.084
10451SOL     OW32251   1.958   0.829   4.180
10451SOL    HW132252   1.871   0.828   4.131
10451SOL    HW232253   2.032   0.814   4.116
10452SOL     OW32254   6.993   3.967   4.174
10452SOL    HW132255   0.030   3.923   4.109
10452SOL    HW232256   6.900   3.932   4.161
10453SOL     OW32257   4.447   5.598   3.379
10453SOL    HW132258   4.377   5.625   3.446
10453SOL    HW232259   4.537   5.604   3.422
10454SOL     OW32260   6.663   1.335   5.787
10454SOL    HW132261   6.619   1.382   5.711
10454SOL    HW232262   6.740   1.390   5.821
10455SOL     OW32263   6.192   6.631   4.278
10455SOL    HW132264   6.216   6.664   4.186
10455SOL    HW232265   6.152   6.707   4.330
10456SOL     OW32266   7.003   5.331   0.050
10456SOL    HW132267   6.927   5.354   7.013
10456SOL    HW232268   6.973   5.263   0.117
10457SOL     OW32269   4.133   2.525   0.259
10457SOL    HW132270   4.131   2.606   0.200
10457SOL    HW232271   4.228   2.506   0.285
10458SOL     OW32272   6.389   6.626   6.401
10458SOL    HW132273   6.371   6.645   6.497
10458SOL    HW232274   6.302   6.621   6.351
10459SOL     OW32275   0.111   5.678   0.651
10459SOL    HW132276   0.145   5.663   0.744
10459SOL    HW232277   0.012   5.692   0.655
10460SOL     OW32278   0.168   3.760   0.652
10460SOL    HW132279   0.236   3.756   0.579
10460SOL    HW232280   0.123   3.849   0.651
10461SOL     OW32281   0.259   5.294   4.723
10461SOL    HW132282   0.243   5.311   4.625
10461SOL    HW232283   0.244   5.378   4.774
10462SOL     OW32284   4.157   1.672   0.992
10462SOL    HW132285   4.073   1.649   1.040
10462SOL    HW232286   4.148   1.762   0.949
10463SOL     OW32287   4.826   2.662   6.086
10463SOL    HW132288   4.773   2.734   6.131
10463SOL    HW232289   4.895   2.627   6.149
10464SOL     OW32290   5.773   5.301   2.959
10464SOL    HW132291   5.863   5.288   3.001
10464SOL    HW232292   5.757   5.230   2.891
10465SOL     OW32293   5.799   3.344   1.823
10465SOL    HW132294   5.840   3.253   1.832
10465SOL    HW232295   5.871   3.410   1.801
10466SOL     OW32296   5.583   4.616   6.340
10466SOL    HW132297   5.652   4.688   6.336
10466SOL    HW232298   5.492   4.657   6.346
10467SOL     OW32299   2.026   2.760   6.679
10467SOL    HW132300   1.976   2.826   6.623
10467SOL    HW232301   1.967   2.728   6.753
10468SOL     OW32302   2.502   4.440   3.905
10468SOL    HW132303   2.483   4.489   3.991
10468SOL    HW232304   2.599   4.446   3.884
10469SOL     OW32305   5.966   1.688   5.425
10469SOL    HW132306   5.986   1.604   5.374
10469SOL    HW232307   5.938   1.664   5.518
10470SOL     OW32308   2.556   2.517   3.974
10470SOL    HW132309   2.593   2.502   4.066
10470SOL    HW232310   2.622   2.486   3.906
10471SOL     OW32311   2.695   0.737   0.314
10471SOL    HW132312   2.706   0.836   0.329
10471SOL    HW232313   2.665   0.694   0.399
10472SOL     OW32314   3.652   5.113   0.693
10472SOL    HW132315   3.670   5.209   0.716
10472SOL    HW232316   3.640   5.105   0.594
10473SOL     OW32317   5.144   4.831   6.666
10473SOL    HW132318   5.187   4.915   6.701
10473SOL    HW232319   5.050   4.825   6.699
10474SOL     OW32320   5.338   0.889   3.997
10474SOL    HW132321   5.298   0.952   3.929
10474SOL    HW232322   5.310   0.795   3.975
10475SOL     OW32323   1.665   6.318   2.027
10475SOL    HW132324   1.589   6.258   2.052
10475SOL    HW232325   1.633   6.384   1.958
10476SOL     OW32326   3.799   6.627   0.591
10476SOL    HW132327   3.822   6.534   0.562
10476SOL    HW232328   3.864   6.656   0.661
10477SOL     OW32329   6.664   6.463   4.180
10477SOL    HW132330   6.579   6.470   4.232
10477SOL    HW232331   6.733   6.525   4.218
10478SOL     OW32332   5.993   6.610   0.389
10478SOL    HW132333   5.896   6.610   0.364
10478SOL    HW232334   6.005   6.654   0.478
10479SOL     OW32335   7.011   1.997   2.661
10479SOL    HW132336   7.020   1.931   2.587
10479SOL    HW232337   6.981   1.950   2.744
10480SOL     OW32338   1.261   6.950   2.225
10480SOL    HW132339   1.230   6.941   2.320
10480SOL    HW232340   1.336   7.015   2.221
10481SOL     OW32341   0.917   0.194   3.212
10481SOL    HW132342   0.976   0.275   3.204
10481SOL    HW232343   0.843   0.214   3.277
10482SOL     OW32344   5.593   4.184   4.019
10482SOL    HW132345   5.558   4.269   3.980
10482SOL    HW232346   5.617   4.199   4.114
10483SOL     OW32347   5.605   5.327   0.202
10483SOL    HW132348   5.615   5.363   0.295
10483SOL    HW232349   5.513   5.291   0.190
10484SOL     OW32350   6.165   1.203   1.361
10484SOL    HW132351   6.107   1.135   1.315
10484SOL    HW232352   6.185   1.278   1.298
10485SOL     OW32353   4.615   3.934   5.986
10485SOL    HW132354   4.573   3.934   6.077
10485SOL    HW232355   4.573   3.862   5.931
10486SOL     OW32356   6.417   2.924   0.493
10486SOL    HW132357   6.341   2.897   0.434
10486SOL    HW232358   6.437   3.021   0.479
10487SOL     OW32359   5.705   6.223   1.582
10487SOL    HW132360   5.668   6.153   1.522
10487SOL    HW232361   5.778   6.183   1.639
10488SOL     OW32362   2.523   2.954   6.260
10488SOL    HW132363   2.606   2.928   6.211
10488SOL    HW232364   2.494   2.878   6.318
10489SOL     OW32365   0.499   6.031   6.119
10489SOL    HW132366   0.528   6.002   6.028
10489SOL    HW232367   0.401   6.011   6.131
10490SOL     OW32368   6.680   1.294   3.241
10490SOL    HW132369   6.695   1.230   3.317
10490SOL    HW232370   6.586   1.283   3.207
10491SOL     OW32371   2.169   4.264   6.387
10491SOL    HW132372   2.100   4.276   6.316
10491SOL    HW232373   2.127   4.219   6.467
10492SOL     OW32374   4.857   3.604   5.345
10492SOL    HW132375   4.790   3.622   5.272
10492SOL    HW232376   4.930   3.547   5.309
10493SOL     OW32377   3.687   0.391   1.309
10493SOL    HW132378   3.744   0.473   1.307
10493SOL    HW232379   3.633   0.390   1.394
10494SOL     OW32380   5.478   1.969   4.294
10494SOL    HW132381   5.423   1.952   4.212
10494SOL    HW232382   5.536   2.049   4.280
10495SOL     OW32383   1.952   0.213   0.577
10495SOL    HW132384   1.876   0.278   0.576
10495SOL    HW232385   2.020   0.243   0.645
10496SOL     OW32386   6.718   6.721   0.129
10496SOL    HW132387   6.788   6.780   0.168
10496SOL    HW232388   6.715   6.733   0.030
10497SOL     OW32389   1.386   0.130   0.771
10497SOL    HW132390   1.377   0.225   0.801
10497SOL    HW232391   1.475   0.095   0.797
10498SOL     OW32392   1.975   6.898   6.918
10498SOL    HW132393   2.013   6.962   6.850
10498SOL    HW232394   2.033   6.817   6.923
10499SOL     OW32395   2.677   6.331   3.214
10499SOL    HW132396   2.627   6.413   3.187
10499SOL    HW232397   2.639   6.295   3.300
10500SOL     OW32398   0.462   2.198   5.590
10500SOL    HW132399   0.551   2.236   5.616
10500SOL    HW232400   0.467   2.163   5.496
10501SOL     OW32401   2.460   4.693   2.547
10501SOL    HW132402   2.398   4.688   2.469
10501SOL    HW232403   2.506   4.782   2.548
10502SOL     OW32404   2.827   0.139   0.646
10502SOL    HW132405   2.803   0.171   0.738
10502SOL    HW232406   2.867   0.215   0.594
10503SOL     OW32407   4.138   2.961   0.377
10503SOL    HW132408   4.147   3.052   0.338
10503SOL    HW232409   4.046   2.926   0.362
10504SOL     OW32410   1.934   3.002   0.339
10504SOL    HW132411   1.883   2.948   0.405
10504SOL    HW232412   1.952   3.093   0.376
10505SOL     OW32413   6.117   6.044   0.789
10505SOL    HW132414   6.128   6.077   0.883
10505SOL    HW232415   6.047   6.097   0.742
10506SOL     OW32416   0.237   4.504   6.385
10506SOL    HW132417   0.303   4.483   6.457
10506SOL    HW232418   0.149   4.528   6.426
10507SOL     OW32419   1.724   0.532   6.216
10507SOL    HW132420   1.627   0.510   6.210
10507SOL    HW232421   1.734   0.629   6.240
10508SOL     OW32422   5.959   5.406   3.289
10508SOL    HW132423   5.966   5.339   3.363
10508SOL    HW232424   5.866   5.445   3.288
10509SOL     OW32425   1.033   6.624   6.940
10509SOL    HW132426   1.068   6.717   6.954
10509SOL    HW232427   0.934   6.623   6.953
10510SOL     OW32428   5.615   5.095   6.356
10510SOL    HW132429   5.620   5.139   6.445
10510SOL    HW232430   5.625   5.164   6.284
10511SOL     OW32431   4.425   2.892   0.758
10511SOL    HW132432   4.374   2.806   0.749
10511SOL    HW232433   4.433   2.935   0.668
10512SOL     OW32434   4.742   0.564   6.593
10512SOL    HW132435   4.690   0.642   6.629
10512SOL    HW232436   4.689   0.481   6.602
10513SOL     OW32437   0.324   2.036   6.040
10513SOL    HW132438   0.418   2.016   6.067
10513SOL    HW232439   0.271   2.062   6.120
10514SOL     OW32440   6.219   4.283   0.792
10514SOL    HW132441   6.167   4.369   0.792
10514SOL    HW232442   6.313   4.301   0.822
10515SOL     OW32443   6.631   1.571   2.622
10515SOL    HW132444   6.712   1.584   2.679
10515SOL    HW232445   6.553   1.615   2.665
10516SOL     OW32446   4.538   1.058   6.562
10516SOL    HW132447   4.494   1.144   6.537
10516SOL    HW232448   4.637   1.070   6.561
10517SOL     OW32449   6.563   1.973   2.302
10517SOL    HW132450   6.661   1.993   2.311
10517SOL    HW232451   6.547   1.876   2.316
10518SOL     OW32452   1.134   5.194   0.312
10518SOL    HW132453   1.036   5.174   0.313
10518SOL    HW232454   1.180   5.126   0.254
10519SOL     OW32455   3.416   2.978   5.821
10519SOL    HW132456   3.418   2.891   5.772
10519SOL    HW232457   3.338   2.979   5.883
10520SOL     OW32458   2.833   2.971   6.594
10520SOL    HW132459   2.837   2.937   6.688
10520SOL    HW232460   2.743   3.011   6.577
10521SOL     OW32461   6.322   6.450   1.089
10521SOL    HW132462   6.370   6.485   1.009
10521SOL    HW232463   6.388   6.416   1.156
10522SOL     OW32464   6.617   0.752   0.342
10522SOL    HW132465   6.597   0.844   0.378
10522SOL    HW232466   6.649   0.694   0.417
10523SOL     OW32467   0.382   5.540   5.612
10523SOL    HW132468   0.400   5.582   5.701
10523SOL    HW232469   0.397   5.609   5.540
10524SOL     OW32470   1.900   7.003   4.200
10524SOL    HW132471   1.815   6.995   4.252
10524SOL    HW232472   1.940   0.070   4.214
10525SOL     OW32473   2.516   6.422   5.470
10525SOL    HW132474   2.487   6.446   5.378
10525SOL    HW232475   2.610   6.454   5.485
10526SOL     OW32476   0.372   0.913   2.165
10526SOL    HW132477   0.461   0.960   2.170
10526SOL    HW232478   0.378   0.838   2.099
10527SOL     OW32479   1.166   2.608   4.515
10527SOL    HW132480   1.219   2.618   4.431
10527SOL    HW232481   1.227   2.615   4.594
10528SOL     OW32482   0.899   4.678   5.081
10528SOL    HW132483   0.880   4.595   5.134
10528SOL    HW232484   0.828   4.746   5.100
10529SOL     OW32485   0.565   6.004   3.368
10529SOL    HW132486   0.547   6.097   3.401
10529SOL    HW232487   0.617   5.954   3.437
10530SOL     OW32488   2.488   1.801   5.986
10530SOL    HW132489   2.526   1.888   6.019
10530SOL    HW232490   2.422   1.767   6.052
10531SOL     OW32491   2.005   3.806   4.420
10531SOL    HW132492   2.051   3.720   4.444
10531SOL    HW232493   1.922   3.785   4.366
10532SOL     OW32494   2.298   2.496   6.856
10532SOL    HW132495   2.363   2.501   6.780
10532SOL    HW232496   2.347   2.493   6.943
10533SOL     OW32497   3.294   1.148   4.676
10533SOL    HW132498   3.277   1.128   4.580
10533SOL    HW232499   3.292   1.247   4.691
10534SOL     OW32500   0.178   5.765   1.356
10534SOL    HW132501   0.148   5.857   1.381
10534SOL    HW232502   0.228   5.768   1.269
10535SOL     OW32503   0.009   1.178   2.225
10535SOL    HW132504   7.008   1.087   2.190
10535SOL    HW232505   0.104   1.177   2.255
10536SOL     OW32506   4.515   0.418   3.016
10536SOL    HW132507   4.571   0.370   3.083
10536SOL    HW232508   4.567   0.428   2.931
10537SOL     OW32509   2.922   5.332   3.113
10537SOL    HW132510   2.988   5.340   3.039
10537SOL    HW232511   2.882   5.422   3.132
10538SOL     OW32512   4.345   3.675   6.573
10538SOL    HW132513   4.412   3.637   6.637
10538SOL    HW232514   4.332   3.611   6.497
10539SOL     OW32515   0.701   3.849   6.379
10539SOL    HW132516   0.778   3.786   6.372
10539SOL    HW232517   0.729   3.932   6.427
10540SOL     OW32518   1.628   0.767   5.452
10540SOL    HW132519   1.534   0.741   5.477
10540SOL    HW232520   1.685   0.767   5.535
10541SOL     OW32521   3.926   3.553   1.406
10541SOL    HW132522   3.852   3.566   1.340
10541SOL    HW232523   3.891   3.569   1.498
10542SOL     OW32524   0.345   1.428   0.681
10542SOL    HW132525   0.305   1.337   0.688
10542SOL    HW232526   0.435   1.422   0.638
10543SOL     OW32527   0.098   1.395   5.713
10543SOL    HW132528   0.119   1.449   5.794
10543SOL    HW232529   0.172   1.330   5.696
10544SOL     OW32530   2.409   2.198   2.655
10544SOL    HW132531   2.417   2.152   2.567
10544SOL    HW232532   2.355   2.141   2.718
10545SOL     OW32533   0.001   6.947   2.200
10545SOL    HW132534   6.981   6.997   2.125
10545SOL    HW232535   6.964   6.873   2.231
10546SOL     OW32536   1.713   6.698   5.067
10546SOL    HW132537   1.668   6.698   4.978
10546SOL    HW232538   1.645   6.683   5.139
10547SOL     OW32539   4.815   1.245   2.161
10547SOL    HW132540   4.757   1.315   2.121
10547SOL    HW232541   4.803   1.159   2.111
10548SOL     OW32542   5.475   3.682   4.693
10548SOL    HW132543   5.393   3.737   4.675
10548SOL    HW232544   5.508   3.643   4.608
10549SOL     OW32545   0.165   0.498   2.384
10549SOL    HW132546   0.186   0.596   2.391
10549SOL    HW232547   0.111   0.470   2.462
10550SOL     OW32548   4.874   6.644   4.180
10550SOL    HW132549   4.812   6.708   4.135
10550SOL    HW232550   4.905   6.682   4.266
10551SOL     OW32551   1.361   2.532   5.148
10551SOL    HW132552   1.327   2.573   5.232
10551SOL    HW232553   1.330   2.437   5.142
10552SOL     OW32554   4.310   1.687   5.378
10552SOL    HW132555   4.254   1.614   5.417
10552SOL    HW232556   4.394   1.649   5.340
10553SOL     OW32557   0.447   5.113   0.923
10553SOL    HW132558   0.385   5.130   1.000
10553SOL    HW232559   0.539   5.092   0.959
10554SOL     OW32560   5.921   5.016   0.037
10554SOL    HW132561   5.864   4.934   0.045
10554SOL    HW232562   6.018   4.990   0.043
10555SOL     OW32563   2.783   2.073   1.505
10555SOL    HW132564   2.856   2.006   1.519
10555SOL    HW232565   2.813   2.143   1.441
10556SOL     OW32566   2.145   3.371   5.067
10556SOL    HW132567   2.174   3.307   4.996
10556SOL    HW232568   2.130   3.461   5.026
10557SOL     OW32569   0.705   2.505   3.209
10557SOL    HW132570   0.681   2.481   3.303
10557SOL    HW232571   0.664   2.593   3.186
10558SOL     OW32572   4.722   6.722   5.333
10558SOL    HW132573   4.710   6.757   5.426
10558SOL    HW232574   4.807   6.670   5.327
10559SOL     OW32575   4.145   1.515   0.776
10559SOL    HW132576   4.085   1.582   0.733
10559SOL    HW232577   4.159   1.540   0.872
10560SOL     OW32578   1.867   4.825   5.195
10560SOL    HW132579   1.850   4.919   5.164
10560SOL    HW232580   1.848   4.762   5.121
10561SOL     OW32581   1.867   5.033   0.341
10561SOL    HW132582   1.803   5.066   0.410
10561SOL    HW232583   1.855   4.934   0.329
10562SOL     OW32584   4.671   0.069   0.676
10562SOL    HW132585   4.760   0.032   0.649
10562SOL    HW232586   4.646   0.035   0.767
10563SOL     OW32587   1.903   1.041   4.845
10563SOL    HW132588   1.977   0.992   4.799
10563SOL    HW232589   1.882   1.125   4.795
10564SOL     OW32590   5.754   0.341   1.442
10564SOL    HW132591   5.847   0.326   1.410
10564SOL    HW232592   5.755   0.367   1.538
10565SOL     OW32593   6.809   1.408   5.275
10565SOL    HW132594   6.899   1.426   5.236
10565SOL    HW232595   6.818   1.344   5.352
10566SOL     OW32596   3.878   3.751   6.566
10566SOL    HW132597   3.900   3.830   6.508
10566SOL    HW232598   3.780   3.749   6.583
10567SOL     OW32599   1.869   3.251   4.313
10567SOL    HW132600   1.841   3.229   4.407
10567SOL    HW232601   1.968   3.242   4.305
10568SOL     OW32602   5.610   1.164   2.302
10568SOL    HW132603   5.654   1.239   2.351
10568SOL    HW232604   5.651   1.077   2.330
10569SOL     OW32605   6.829   3.508   2.319
10569SOL    HW132606   6.846   3.587   2.378
10569SOL    HW232607   6.742   3.522   2.270
10570SOL     OW32608   1.732   4.537   2.783
10570SOL    HW132609   1.682   4.623   2.775
10570SOL    HW232610   1.726   4.487   2.696
10571SOL     OW32611   6.479   5.651   3.328
10571SOL    HW132612   6.408   5.721   3.339
10571SOL    HW232613   6.546   5.659   3.402
10572SOL     OW32614   5.611   3.582   2.948
10572SOL    HW132615   5.639   3.663   2.999
10572SOL    HW232616   5.676   3.508   2.965
10573SOL     OW32617   5.813   6.263   3.509
10573SOL    HW132618   5.846   6.271   3.415
10573SOL    HW232619   5.732   6.205   3.511
10574SOL     OW32620   1.840   2.023   3.776
10574SOL    HW132621   1.851   1.927   3.802
10574SOL    HW232622   1.767   2.031   3.708
10575SOL     OW32623   0.611   0.774   3.922
10575SOL    HW132624   0.527   0.786   3.975
10575SOL    HW232625   0.680   0.729   3.979
10576SOL     OW32626   1.039   6.155   5.172
10576SOL    HW132627   1.090   6.229   5.128
10576SOL    HW232628   1.024   6.081   5.107
10577SOL     OW32629   1.659   3.128   6.527
10577SOL    HW132630   1.626   3.209   6.574
10577SOL    HW232631   1.643   3.138   6.429
10578SOL     OW32632   6.214   0.800   5.075
10578SOL    HW132633   6.224   0.895   5.103
10578SOL    HW232634   6.256   0.786   4.985
10579SOL     OW32635   3.868   1.046   0.751
10579SOL    HW132636   3.940   1.107   0.787
10579SOL    HW232637   3.785   1.099   0.735
10580SOL     OW32638   6.719   6.572   6.559
10580SOL    HW132639   6.644   6.591   6.623
10580SOL    HW232640   6.795   6.634   6.578
10581SOL     OW32641   5.983   0.158   3.098
10581SOL    HW132642   6.010   0.141   3.004
10581SOL    HW232643   6.031   0.239   3.133
10582SOL     OW32644   3.776   4.832   6.927
10582SOL    HW132645   3.874   4.834   6.947
10582SOL    HW232646   3.749   4.738   6.905
10583SOL     OW32647   3.998   0.594   6.374
10583SOL    HW132648   3.934   0.523   6.345
10583SOL    HW232649   3.981   0.678   6.321
10584SOL     OW32650   5.215   6.108   1.596
10584SOL    HW132651   5.288   6.174   1.616
10584SOL    HW232652   5.249   6.015   1.609
10585SOL     OW32653   1.215   3.399   5.828
10585SOL    HW132654   1.215   3.387   5.729
10585SOL    HW232655   1.184   3.315   5.872
10586SOL     OW32656   2.484   5.800   5.821
10586SOL    HW132657   2.493   5.796   5.921
10586SOL    HW232658   2.441   5.886   5.795
10587SOL     OW32659   5.987   3.541   0.527
10587SOL    HW132660   5.916   3.546   0.598
10587SOL    HW232661   6.048   3.464   0.547
10588SOL     OW32662   1.222   4.429   2.352
10588SOL    HW132663   1.260   4.414   2.443
10588SOL    HW232664   1.278   4.495   2.303
10589SOL     OW32665   5.921   2.243   4.059
10589SOL    HW132666   6.012   2.227   4.098
10589SOL    HW232667   5.922   2.329   4.008
10590SOL     OW32668   1.069   6.734   2.752
10590SOL    HW132669   1.013   6.811   2.780
10590SOL    HW232670   1.166   6.757   2.761
10591SOL     OW32671   1.715   1.843   5.629
10591SOL    HW132672   1.727   1.940   5.608
10591SOL    HW232673   1.774   1.789   5.569
10592SOL     OW32674   6.088   1.360   6.762
10592SOL    HW132675   6.082   1.272   6.807
10592SOL    HW232676   6.181   1.395   6.767
10593SOL     OW32677   2.722   6.352   1.022
10593SOL    HW132678   2.772   6.327   1.104
10593SOL    HW232679   2.780   6.407   0.962
10594SOL     OW32680   6.400   1.568   3.739
10594SOL    HW132681   6.314   1.517   3.748
10594SOL    HW232682   6.455   1.526   3.667
10595SOL     OW32683   3.179   6.778   5.785
10595SOL    HW132684   3.131   6.832   5.854
10595SOL    HW232685   3.277   6.797   5.791
10596SOL     OW32686   3.991   6.767   1.952
10596SOL    HW132687   3.976   6.865   1.940
10596SOL    HW232688   3.931   6.717   1.891
10597SOL     OW32689   2.854   1.081   4.632
10597SOL    HW132690   2.863   0.985   4.656
10597SOL    HW232691   2.760   1.100   4.602
10598SOL     OW32692   2.147   2.602   6.495
10598SOL    HW132693   2.244   2.622   6.507
10598SOL    HW232694   2.092   2.666   6.549
10599SOL     OW32695   6.165   1.376   0.259
10599SOL    HW132696   6.144   1.472   0.277
10599SOL    HW232697   6.204   1.368   0.167
10600SOL     OW32698   2.339   3.232   6.553
10600SOL    HW132699   2.271   3.278   6.610
10600SOL    HW232700   2.293   3.192   6.473
10601SOL     OW32701   3.120   6.143   6.164
10601SOL    HW132702   3.033   6.175   6.201
10601SOL    HW232703   3.107   6.108   6.072
10602SOL     OW32704   4.862   1.301   1.612
10602SOL    HW132705   4.795   1.315   1.685
10602SOL    HW232706   4.883   1.389   1.569
10603SOL     OW32707   1.147   6.320   3.461
10603SOL    HW132708   1.201   6.236   3.472
10603SOL    HW232709   1.128   6.360   3.551
10604SOL     OW32710   6.260   4.301   4.758
10604SOL    HW132711   6.257   4.202   4.772
10604SOL    HW232712   6.311   4.343   4.833
10605SOL     OW32713   0.882   4.956   0.467
10605SOL    HW132714   0.804   4.893   0.463
10605SOL    HW232715   0.947   4.924   0.536
10606SOL     OW32716   6.974   0.811   1.466
10606SOL    HW132717   6.929   0.867   1.396
10606SOL    HW232718   0.015   0.749   1.421
10607SOL     OW32719   4.180   4.938   6.134
10607SOL    HW132720   4.108   4.949   6.066
10607SOL    HW232721   4.262   4.988   6.106
10608SOL     OW32722   5.876   1.710   4.509
10608SOL    HW132723   5.895   1.701   4.607
10608SOL    HW232724   5.948   1.665   4.457
10609SOL     OW32725   3.756   6.285   1.046
10609SOL    HW132726   3.707   6.326   0.969
10609SOL    HW232727   3.709   6.201   1.073
10610SOL     OW32728   1.159   3.903   6.504
10610SOL    HW132729   1.234   3.836   6.500
10610SOL    HW232730   1.085   3.867   6.561
10611SOL     OW32731   5.745   3.064   6.586
10611SOL    HW132732   5.818   2.999   6.567
10611SOL    HW232733   5.746   3.135   6.516
10612SOL     OW32734   2.324   0.139   6.610
10612SOL    HW132735   2.399   0.200   6.584
10612SOL    HW232736   2.266   0.121   6.530
10613SOL     OW32737   6.978   0.326   5.497
10613SOL    HW132738   7.005   0.231   5.517
10613SOL    HW232739   6.886   0.342   5.533
10614SOL     OW32740   6.847   0.662   4.516
10614SOL    HW132741   6.813   0.753   4.495
10614SOL    HW232742   6.785   0.616   4.580
10615SOL     OW32743   4.617   5.466   5.474
10615SOL    HW132744   4.557   5.514   5.410
10615SOL    HW232745   4.700   5.436   5.427
10616SOL     OW32746   2.940   6.385   0.271
10616SOL    HW132747   2.936   6.286   0.283
10616SOL    HW232748   2.991   6.426   0.347
10617SOL     OW32749   2.168   2.593   0.251
10617SOL    HW132750   2.226   2.666   0.214
10617SOL    HW232751   2.087   2.633   0.293
10618SOL     OW32752   5.982   2.463   0.318
10618SOL    HW132753   6.010   2.510   0.402
10618SOL    HW232754   5.971   2.530   0.245
10619SOL     OW32755   0.975   3.994   3.203
10619SOL    HW132756   0.997   3.919   3.141
10619SOL    HW232757   0.981   4.081   3.154
10620SOL     OW32758   1.704   6.295   5.592
10620SOL    HW132759   1.653   6.271   5.510
10620SOL    HW232760   1.685   6.227   5.663
10621SOL     OW32761   1.351   6.018   6.903
10621SOL    HW132762   1.340   6.108   6.860
10621SOL    HW232763   1.328   5.946   6.837
10622SOL     OW32764   4.425   0.985   1.972
10622SOL    HW132765   4.505   0.993   1.912
10622SOL    HW232766   4.454   0.952   2.062
10623SOL     OW32767   5.458   2.657   3.986
10623SOL    HW132768   5.501   2.669   3.897
10623SOL    HW232769   5.483   2.568   4.024
10624SOL     OW32770   1.300   1.294   4.906
10624SOL    HW132771   1.335   1.366   4.966
10624SOL    HW232772   1.309   1.323   4.811
10625SOL     OW32773   0.664   4.007   6.855
10625SOL    HW132774   0.682   3.946   6.932
10625SOL    HW232775   0.743   4.006   6.793
10626SOL     OW32776   0.999   2.324   1.324
10626SOL    HW132777   0.907   2.284   1.321
10626SOL    HW232778   1.040   2.322   1.233
10627SOL     OW32779   6.527   6.065   2.685
10627SOL    HW132780   6.597   6.004   2.647
10627SOL    HW232781   6.483   6.019   2.763
10628SOL     OW32782   6.312   5.229   5.281
10628SOL    HW132783   6.371   5.150   5.300
10628SOL    HW232784   6.350   5.280   5.204
10629SOL     OW32785   2.401   4.913   5.868
10629SOL    HW132786   2.469   4.855   5.913
10629SOL    HW232787   2.446   4.984   5.815
10630SOL     OW32788   6.359   0.477   3.296
10630SOL    HW132789   6.431   0.414   3.324
10630SOL    HW232790   6.386   0.571   3.320
10631SOL     OW32791   0.768   0.113   3.687
10631SOL    HW132792   0.792   0.031   3.636
10631SOL    HW232793   0.851   0.155   3.724
10632SOL     OW32794   6.205   2.383   4.309
10632SOL    HW132795   6.154   2.467   4.290
10632SOL    HW232796   6.232   2.381   4.405
10633SOL     OW32797   2.669   4.864   1.265
10633SOL    HW132798   2.589   4.910   1.227
10633SOL    HW232799   2.659   4.855   1.364
10634SOL     OW32800   2.879   5.737   0.677
10634SOL    HW132801   2.895   5.640   0.657
10634SOL    HW232802   2.860   5.749   0.774
10635SOL     OW32803   3.109   1.119   0.968
10635SOL    HW132804   3.077   1.152   0.880
10635SOL    HW232805   3.176   1.183   1.005
10636SOL     OW32806   0.337   1.980   1.042
10636SOL    HW132807   0.378   1.993   0.951
10636SOL    HW232808   0.330   2.068   1.088
10637SOL     OW32809   3.545   4.225   5.334
10637SOL    HW132810   3.558   4.130   5.364
10637SOL    HW232811   3.604   4.243   5.256
10638SOL     OW32812   0.462   6.750   3.975
10638SOL    HW132813   0.376   6.699   3.977
10638SOL    HW232814   0.523   6.714   4.046
10639SOL     OW32815   0.967   1.186   4.882
10639SOL    HW132816   0.869   1.189   4.862
10639SOL    HW232817   1.019   1.187   4.796
10640SOL     OW32818   4.906   0.514   6.950
10640SOL    HW132819   4.821   0.503   7.000
10640SOL    HW232820   4.983   0.518   7.015
10641SOL     OW32821   5.166   1.767   0.216
10641SOL    HW132822   5.139   1.838   0.281
10641SOL    HW232823   5.231   1.805   0.151
10642SOL     OW32824   6.994   2.169   1.280
10642SOL    HW132825   6.920   2.236   1.287
10642SOL    HW232826   6.961   2.080   1.312
10643SOL     OW32827   2.300   4.007   5.447
10643SOL    HW132828   2.320   4.006   5.349
10643SOL    HW232829   2.251   3.923   5.472
10644SOL     OW32830   4.760   1.576   3.872
10644SOL    HW132831   4.718   1.487   3.891
10644SOL    HW232832   4.709   1.647   3.922
10645SOL     OW32833   1.258   0.950   4.630
10645SOL    HW132834   1.259   0.865   4.577
10645SOL    HW232835   1.349   0.991   4.626
10646SOL     OW32836   0.308   2.812   5.665
10646SOL    HW132837   0.335   2.725   5.624
10646SOL    HW232838   0.223   2.800   5.716
10647SOL     OW32839   6.577   5.117   0.368
10647SOL    HW132840   6.650   5.183   0.349
10647SOL    HW232841   6.600   5.030   0.325
10648SOL     OW32842   4.969   2.851   6.364
10648SOL    HW132843   5.050   2.844   6.422
10648SOL    HW232844   4.980   2.792   6.284
10649SOL     OW32845   0.240   5.260   5.103
10649SOL    HW132846   0.225   5.359   5.104
10649SOL    HW232847   0.304   5.235   5.175
10650SOL     OW32848   2.030   6.472   3.806
10650SOL    HW132849   2.005   6.489   3.710
10650SOL    HW232850   2.028   6.374   3.824
10651SOL     OW32851   4.390   6.633   5.866
10651SOL    HW132852   4.490   6.621   5.866
10651SOL    HW232853   4.350   6.578   5.938
10652SOL     OW32854   3.263   0.193   5.859
10652SOL    HW132855   3.275   0.174   5.956
10652SOL    HW232856   3.175   0.239   5.844
10653SOL     OW32857   4.741   4.418   4.454
10653SOL    HW132858   4.701   4.437   4.364
10653SOL    HW232859   4.840   4.432   4.451
10654SOL     OW32860   2.498   0.846   1.089
10654SOL    HW132861   2.596   0.858   1.107
10654SOL    HW232862   2.482   0.849   0.990
10655SOL     OW32863   2.926   5.845   1.808
10655SOL    HW132864   2.947   5.822   1.713
10655SOL    HW232865   3.007   5.887   1.850
10656SOL     OW32866   6.019   2.207   0.202
10656SOL    HW132867   6.012   2.276   0.273
10656SOL    HW232868   5.951   2.225   0.131
10657SOL     OW32869   5.835   6.739   1.044
10657SOL    HW132870   5.894   6.727   1.124
10657SOL    HW232871   5.769   6.664   1.039
10658SOL     OW32872   1.518   4.765   4.321
10658SOL    HW132873   1.456   4.686   4.324
10658SOL    HW232874   1.608   4.738   4.355
10659SOL     OW32875   5.681   0.151   0.967
10659SOL    HW132876   5.610   0.179   0.901
10659SOL    HW232877   5.658   0.061   1.003
10660SOL     OW32878   4.309   4.001   5.730
10660SOL    HW132879   4.318   4.008   5.631
10660SOL    HW232880   4.288   4.092   5.768
10661SOL     OW32881   0.568   6.611   1.663
10661SOL    HW132882   0.517   6.613   1.749
10661SOL    HW232883   0.666   6.617   1.683
10662SOL     OW32884   0.011   1.360   0.541
10662SOL    HW132885   0.106   1.335   0.559
10662SOL    HW232886   6.982   1.355   0.626
10663SOL     OW32887   0.555   0.577   1.109
10663SOL    HW132888   0.588   0.541   1.197
10663SOL    HW232889   0.478   0.522   1.078
10664SOL     OW32890   2.099   4.899   0.633
10664SOL    HW132891   2.113   4.802   0.653
10664SOL    HW232892   2.141   4.921   0.545
10665SOL     OW32893   0.172   2.045   0.303
10665SOL    HW132894   0.161   2.057   0.204
10665SOL    HW232895   0.096   2.090   0.350
10666SOL     OW32896   3.000   5.987   6.869
10666SOL    HW132897   2.904   6.014   6.873
10666SOL    HW232898   3.031   5.959   6.960
10667SOL     OW32899   3.940   1.655   5.362
10667SOL    HW132900   3.925   1.754   5.368
10667SOL    HW232901   3.896   1.610   5.439
10668SOL     OW32902   1.670   1.893   6.447
10668SOL    HW132903   1.759   1.937   6.435
10668SOL    HW232904   1.683   1.801   6.484
10669SOL     OW32905   1.476   0.261   0.461
10669SOL    HW132906   1.507   0.167   0.467
10669SOL    HW232907   1.379   0.266   0.482
10670SOL     OW32908   5.331   4.558   5.995
10670SOL    HW132909   5.317   4.506   6.079
10670SOL    HW232910   5.390   4.637   6.014
10671SOL     OW32911   2.388   2.780   2.890
10671SOL    HW132912   2.377   2.711   2.962
10671SOL    HW232913   2.333   2.861   2.912
10672SOL     OW32914   0.300   2.654   0.570
10672SOL    HW132915   0.380   2.643   0.511
10672SOL    HW232916   0.311   2.599   0.653
10673SOL     OW32917   2.703   3.040   5.369
10673SOL    HW132918   2.763   2.980   5.317
10673SOL    HW232919   2.608   3.022   5.346
10674SOL     OW32920   4.016   3.851   1.347
10674SOL    HW132921   4.111   3.841   1.374
10674SOL    HW232922   3.977   3.762   1.324
10675SOL     OW32923   6.939   6.963   5.474
10675SOL    HW132924   6.864   0.003   5.459
10675SOL    HW232925   0.002   7.013   5.472
10676SOL     OW32926   5.854   0.234   6.464
10676SOL    HW132927   5.853   0.332   6.446
10676SOL    HW232928   5.817   0.185   6.386
10677SOL     OW32929   0.336   0.630   1.533
10677SOL    HW132930   0.298   0.544   1.498
10677SOL    HW232931   0.369   0.686   1.457
10678SOL     OW32932   2.290   5.708   2.227
10678SOL    HW132933   2.387   5.723   2.205
10678SOL    HW232934   2.281   5.696   2.326
10679SOL     OW32935   6.125   5.347   4.150
10679SOL    HW132936   6.099   5.370   4.056
10679SOL    HW232937   6.204   5.286   4.149
10680SOL     OW32938   1.188   3.251   2.257
10680SOL    HW132939   1.274   3.284   2.218
10680SOL    HW232940   1.186   3.268   2.355
10681SOL     OW32941   6.477   2.657   6.073
10681SOL    HW132942   6.572   2.689   6.075
10681SOL    HW232943   6.469   2.580   6.009
10682SOL     OW32944   0.336   2.062   2.247
10682SOL    HW132945   0.352   2.096   2.340
10682SOL    HW232946   0.359   2.133   2.181
10683SOL     OW32947   1.704   2.328   4.489
10683SOL    HW132948   1.777   2.396   4.490
10683SOL    HW232949   1.667   2.318   4.397
10684SOL     OW32950   6.067   4.507   0.066
10684SOL    HW132951   6.035   4.443   7.020
10684SOL    HW232952   5.989   4.538   0.121
10685SOL     OW32953   0.625   3.519   3.331
10685SOL    HW132954   0.690   3.594   3.325
10685SOL    HW232955   0.568   3.531   3.412
10686SOL     OW32956   2.874   6.129   0.219
10686SOL    HW132957   2.950   6.081   0.174
10686SOL    HW232958   2.799   6.065   0.236
10687SOL     OW32959   6.834   4.862   2.579
10687SOL    HW132960   6.809   4.770   2.548
10687SOL    HW232961   6.765   4.928   2.547
10688SOL     OW32962   6.804   5.206   2.132
10688SOL    HW132963   6.838   5.185   2.041
10688SOL    HW232964   6.877   5.251   2.185
10689SOL     OW32965   0.042   0.529   2.638
10689SOL    HW132966   0.031   0.494   2.731
10689SOL    HW232967   6.982   0.575   2.610
10690SOL     OW32968   4.461   4.929   2.256
10690SOL    HW132969   4.535   4.991   2.278
10690SOL    HW232970   4.493   4.834   2.264
10691SOL     OW32971   6.787   1.386   1.207
10691SOL    HW132972   6.873   1.343   1.235
10691SOL    HW232973   6.720   1.315   1.186
10692SOL     OW32974   3.786   5.939   3.978
10692SOL    HW132975   3.754   5.844   3.976
10692SOL    HW232976   3.827   5.959   4.067
10693SOL     OW32977   6.967   1.416   1.555
10693SOL    HW132978   6.929   1.493   1.505
10693SOL    HW232979   6.954   1.332   1.502
10694SOL     OW32980   4.336   5.818   1.430
10694SOL    HW132981   4.338   5.918   1.438
10694SOL    HW232982   4.321   5.778   1.521
10695SOL     OW32983   6.865   2.251   4.237
10695SOL    HW132984   6.902   2.342   4.217
10695SOL    HW232985   6.852   2.201   4.151
10696SOL     OW32986   0.089   6.020   1.335
10696SOL    HW132987   0.072   6.094   1.401
10696SOL    HW232988   0.131   6.058   1.253
10697SOL     OW32989   1.114   6.297   4.735
10697SOL    HW132990   1.194   6.269   4.682
10697SOL    HW232991   1.077   6.219   4.784
10698SOL     OW32992   2.616   0.285   3.626
10698SOL    HW132993   2.634   0.274   3.528
10698SOL    HW232994   2.541   0.349   3.639
10699SOL     OW32995   3.754   1.727   2.832
10699SOL    HW132996   3.768   1.628   2.843
10699SOL    HW232997   3.843   1.773   2.832
10700SOL     OW32998   6.787   6.471   1.157
10700SOL    HW132999   6.771   6.567   1.135
10700SOL    HW233000   6.874   6.442   1.119
10701SOL     OW33001   3.280   6.665   0.502
10701SOL    HW133002   3.258   6.671   0.600
10701SOL    HW233003   3.362   6.609   0.490
10702SOL     OW33004   6.005   2.665   0.082
10702SOL    HW133005   6.082   2.728   0.074
10702SOL    HW233006   6.011   2.596   0.010
10703SOL     OW33007   3.700   4.106   3.528
10703SOL    HW133008   3.795   4.074   3.524
10703SOL    HW233009   3.640   4.029   3.546
10704SOL     OW33010   5.007   0.057   1.850
10704SOL    HW133011   5.092   0.062   1.798
10704SOL    HW233012   4.982   0.148   1.882
10705SOL     OW33013   0.867   3.122   5.879
10705SOL    HW133014   0.834   3.100   5.788
10705SOL    HW233015   0.898   3.039   5.925
10706SOL     OW33016   3.502   0.460   1.793
10706SOL    HW133017   3.416   0.438   1.840
10706SOL    HW233018   3.552   0.528   1.845
10707SOL     OW33019   5.930   7.015   5.892
10707SOL    HW133020   6.002   6.947   5.907
10707SOL    HW233021   5.971   0.074   5.854
10708SOL     OW33022   4.667   1.078   0.841
10708SOL    HW133023   4.633   1.167   0.812
10708SOL    HW233024   4.590   1.021   0.869
10709SOL     OW33025   6.545   6.825   5.499
10709SOL    HW133026   6.480   6.820   5.423
10709SOL    HW233027   6.531   6.746   5.559
10710SOL     OW33028   6.050   5.411   3.905
10710SOL    HW133029   6.054   5.445   3.811
10710SOL    HW233030   5.970   5.353   3.917
10711SOL     OW33031   1.568   6.952   4.132
10711SOL    HW133032   1.616   0.012   4.158
10711SOL    HW233033   1.533   6.961   4.038
10712SOL     OW33034   3.549   1.363   5.303
10712SOL    HW133035   3.547   1.457   5.269
10712SOL    HW233036   3.551   1.363   5.403
10713SOL     OW33037   1.489   6.019   1.630
10713SOL    HW133038   1.507   5.979   1.540
10713SOL    HW233039   1.422   5.963   1.679
10714SOL     OW33040   0.726   5.272   5.641
10714SOL    HW133041   0.676   5.301   5.722
10714SOL    HW233042   0.823   5.295   5.650
10715SOL     OW33043   4.548   2.193   4.152
10715SOL    HW133044   4.618   2.184   4.224
10715SOL    HW233045   4.507   2.284   4.158
10716SOL     OW33046   6.492   0.533   4.222
10716SOL    HW133047   6.399   0.534   4.187
10716SOL    HW233048   6.492   0.549   4.320
10717SOL     OW33049   6.840   0.695   1.672
10717SOL    HW133050   6.892   0.732   1.595
10717SOL    HW233051   6.883   0.724   1.758
10718SOL     OW33052   6.209   4.983   6.650
10718SOL    HW133053   6.263   4.988   6.735
10718SOL    HW233054   6.248   4.915   6.589
10719SOL     OW33055   5.626   0.837   1.912
10719SOL    HW133056   5.537   0.876   1.938
10719SOL    HW233057   5.618   0.793   1.823
10720SOL     OW33058   0.507   3.649   6.426
10720SOL    HW133059   0.587   3.709   6.429
10720SOL    HW233060   0.535   3.554   6.440
10721SOL     OW33061   5.444   2.845   4.558
10721SOL    HW133062   5.475   2.750   4.556
10721SOL    HW233063   5.361   2.852   4.612
10722SOL     OW33064   6.756   3.784   0.304
10722SOL    HW133065   6.685   3.842   0.266
10722SOL    HW233066   6.769   3.704   0.245
10723SOL     OW33067   5.718   4.082   6.813
10723SOL    HW133068   5.646   4.014   6.803
10723SOL    HW233069   5.731   4.104   6.909
10724SOL     OW33070   4.012   6.872   6.717
10724SOL    HW133071   3.922   6.872   6.760
10724SOL    HW233072   4.079   6.833   6.780
10725SOL     OW33073   0.628   6.119   5.003
10725SOL    HW133074   0.595   6.033   5.040
10725SOL    HW233075   0.631   6.188   5.075
10726SOL     OW33076   5.527   0.600   4.402
10726SOL    HW133077   5.563   0.650   4.481
10726SOL    HW233078   5.428   0.593   4.410
10727SOL     OW33079   2.547   5.830   6.194
10727SOL    HW133080   2.476   5.899   6.183
10727SOL    HW233081   2.609   5.856   6.268
10728SOL     OW33082   4.728   6.698   3.105
10728SOL    HW133083   4.670   6.634   3.155
10728SOL    HW233084   4.703   6.697   3.008
10729SOL     OW33085   6.166   2.455   2.897
10729SOL    HW133086   6.113   2.539   2.894
10729SOL    HW233087   6.105   2.376   2.903
10730SOL     OW33088   1.776   0.168   2.682
10730SOL    HW133089   1.785   0.070   2.670
10730SOL    HW233090   1.792   0.215   2.595
10731SOL     OW33091   3.393   6.898   0.133
10731SOL    HW133092   3.432   6.897   0.041
10731SOL    HW233093   3.299   6.865   0.129
10732SOL     OW33094   6.152   6.094   3.335
10732SOL    HW133095   6.081   6.119   3.401
10732SOL    HW233096   6.127   6.009   3.290
10733SOL     OW33097   6.721   0.881   5.870
10733SOL    HW133098   6.771   0.921   5.793
10733SOL    HW233099   6.629   0.857   5.841
10734SOL     OW33100   1.690   1.019   5.599
10734SOL    HW133101   1.682   1.101   5.656
10734SOL    HW233102   1.786   0.990   5.596
10735SOL     OW33103   0.980   5.384   1.906
10735SOL    HW133104   0.966   5.292   1.870
10735SOL    HW233105   1.072   5.416   1.881
10736SOL     OW33106   6.636   0.185   3.847
10736SOL    HW133107   6.731   0.166   3.871
10736SOL    HW233108   6.619   0.156   3.752
10737SOL     OW33109   6.754   1.434   1.788
10737SOL    HW133110   6.726   1.493   1.712
10737SOL    HW233111   6.849   1.453   1.810
10738SOL     OW33112   2.903   0.858   1.938
10738SOL    HW133113   2.908   0.771   1.891
10738SOL    HW233114   2.993   0.902   1.938
10739SOL     OW33115   6.129   2.049   2.611
10739SOL    HW133116   6.190   1.971   2.627
10739SOL    HW233117   6.181   2.123   2.568
10740SOL     OW33118   1.690   6.848   6.389
10740SOL    HW133119   1.672   6.935   6.434
10740SOL    HW233120   1.726   6.783   6.456
10741SOL     OW33121   2.000   2.446   3.250
10741SOL    HW133122   1.944   2.472   3.171
10741SOL    HW233123   2.005   2.347   3.256
10742SOL     OW33124   6.163   5.966   2.749
10742SOL    HW133125   6.117   5.900   2.808
10742SOL    HW233126   6.184   6.049   2.802
10743SOL     OW33127   3.805   0.663   5.501
10743SOL    HW133128   3.873   0.594   5.530
10743SOL    HW233129   3.804   0.737   5.568
10744SOL     OW33130   1.548   0.459   0.304
10744SOL    HW133131   1.530   0.374   0.354
10744SOL    HW233132   1.638   0.494   0.329
10745SOL     OW33133   2.012   5.010   1.162
10745SOL    HW133134   1.958   5.024   1.246
10745SOL    HW233135   2.096   5.064   1.168
10746SOL     OW33136   1.630   6.198   6.463
10746SOL    HW133137   1.690   6.120   6.477
10746SOL    HW233138   1.537   6.175   6.490
10747SOL     OW33139   6.464   1.797   3.856
10747SOL    HW133140   6.376   1.844   3.866
10747SOL    HW233141   6.452   1.714   3.802
10748SOL     OW33142   4.150   6.222   1.165
10748SOL    HW133143   4.248   6.239   1.162
10748SOL    HW233144   4.101   6.300   1.126
10749SOL     OW33145   6.401   4.851   3.197
10749SOL    HW133146   6.463   4.922   3.164
10749SOL    HW233147   6.445   4.799   3.271
10750SOL     OW33148   5.091   2.810   4.239
10750SOL    HW133149   5.054   2.830   4.330
10750SOL    HW233150   5.105   2.896   4.190
10751SOL     OW33151   0.962   4.267   5.072
10751SOL    HW133152   0.948   4.287   5.169
10751SOL    HW233153   1.037   4.323   5.037
10752SOL     OW33154   6.177   5.808   1.016
10752SOL    HW133155   6.093   5.841   0.973
10752SOL    HW233156   6.244   5.785   0.945
10753SOL     OW33157   4.663   6.321   3.902
10753SOL    HW133158   4.625   6.366   3.983
10753SOL    HW233159   4.654   6.382   3.823
10754SOL     OW33160   1.668   3.100   1.726
10754SOL    HW133161   1.653   3.172   1.794
10754SOL    HW233162   1.652   3.137   1.634
10755SOL     OW33163   6.323   3.213   1.226
10755SOL    HW133164   6.368   3.288   1.177
10755SOL    HW233165   6.368   3.127   1.204
10756SOL     OW33166   0.146   2.763   0.785
10756SOL    HW133167   0.217   2.731   0.847
10756SOL    HW233168   0.185   2.774   0.693
10757SOL     OW33169   6.625   4.413   1.250
10757SOL    HW133170   6.697   4.476   1.279
10757SOL    HW233171   6.620   4.411   1.151
10758SOL     OW33172   0.532   6.795   6.913
10758SOL    HW133173   0.434   6.780   6.898
10758SOL    HW233174   0.546   6.886   6.950
10759SOL     OW33175   2.350   2.081   6.244
10759SOL    HW133176   2.431   2.033   6.278
10759SOL    HW233177   2.301   2.121   6.321
10760SOL     OW33178   0.236   5.290   0.145
10760SOL    HW133179   0.279   5.378   0.165
10760SOL    HW233180   0.138   5.303   0.130
10761SOL     OW33181   0.732   1.745   6.220
10761SOL    HW133182   0.646   1.794   6.232
10761SOL    HW233183   0.748   1.685   6.298
10762SOL     OW33184   3.796   6.737   5.675
10762SOL    HW133185   3.727   6.671   5.704
10762SOL    HW233186   3.794   6.747   5.576
10763SOL     OW33187   5.224   0.197   2.859
10763SOL    HW133188   5.154   0.127   2.847
10763SOL    HW233189   5.297   0.162   2.918
10764SOL     OW33190   4.439   0.907   5.229
10764SOL    HW133191   4.441   0.807   5.219
10764SOL    HW233192   4.400   0.947   5.146
10765SOL     OW33193   6.988   1.757   2.477
10765SOL    HW133194   7.020   1.694   2.406
10765SOL    HW233195   6.940   1.705   2.549
10766SOL     OW33196   1.715   4.623   6.678
10766SOL    HW133197   1.658   4.644   6.598
10766SOL    HW233198   1.812   4.635   6.654
10767SOL     OW33199   1.667   5.752   0.852
10767SOL    HW133200   1.619   5.676   0.895
10767SOL    HW233201   1.690   5.821   0.921
10768SOL     OW33202   5.819   6.082   0.652
10768SOL    HW133203   5.883   6.158   0.664
10768SOL    HW233204   5.725   6.116   0.654
10769SOL     OW33205   3.017   3.235   5.013
10769SOL    HW133206   3.117   3.227   5.004
10769SOL    HW233207   2.976   3.248   4.923
10770SOL     OW33208   4.902   0.089   4.164
10770SOL    HW133209   4.814   0.125   4.196
10770SOL    HW233210   4.947   0.159   4.108
10771SOL     OW33211   5.229   5.895   5.609
10771SOL    HW133212   5.252   5.980   5.561
10771SOL    HW233213   5.156   5.848   5.560
10772SOL     OW33214   6.032   4.813   2.998
10772SOL    HW133215   6.065   4.830   3.091
10772SOL    HW233216   6.078   4.875   2.934
10773SOL     OW33217   6.507   4.697   1.213
10773SOL    HW133218   6.423   4.735   1.250
10773SOL    HW233219   6.551   4.639   1.281
10774SOL     OW33220   1.201   3.039   0.657
10774SOL    HW133221   1.262   3.007   0.730
10774SOL    HW233222   1.234   3.126   0.622
10775SOL     OW33223   1.244   4.425   1.742
10775SOL    HW133224   1.225   4.403   1.838
10775SOL    HW233225   1.340   4.450   1.732
10776SOL     OW33226   0.845   1.784   3.006
10776SOL    HW133227   0.810   1.871   3.040
10776SOL    HW233228   0.911   1.801   2.932
10777SOL     OW33229   3.337   1.192   2.390
10777SOL    HW133230   3.354   1.110   2.334
10777SOL    HW233231   3.276   1.168   2.466
10778SOL     OW33232   6.449   6.414   3.983
10778SOL    HW133233   6.460   6.439   3.887
10778SOL    HW233234   6.533   6.435   4.033
10779SOL     OW33235   5.677   3.726   4.263
10779SOL    HW133236   5.630   3.732   4.176
10779SOL    HW233237   5.762   3.778   4.259
10780SOL     OW33238   1.213   5.861   4.816
10780SOL    HW133239   1.276   5.831   4.888
10780SOL    HW233240   1.220   5.800   4.737
10781SOL     OW33241   5.694   2.353   4.855
10781SOL    HW133242   5.684   2.329   4.952
10781SOL    HW233243   5.647   2.286   4.799
10782SOL     OW33244   0.947   3.049   5.161
10782SOL    HW133245   0.948   3.094   5.072
10782SOL    HW233246   0.857   3.009   5.177
10783SOL     OW33247   1.029   2.502   2.703
10783SOL    HW133248   1.024   2.601   2.689
10783SOL    HW233249   0.952   2.473   2.760
10784SOL     OW33250   3.567   6.298   2.252
10784SOL    HW133251   3.484   6.354   2.255
10784SOL    HW233252   3.567   6.234   2.329
10785SOL     OW33253   1.869   5.952   2.308
10785SOL    HW133254   1.906   6.044   2.322
10785SOL    HW233255   1.873   5.929   2.211
10786SOL     OW33256   4.771   1.697   2.070
10786SOL    HW133257   4.741   1.602   2.073
10786SOL    HW233258   4.866   1.701   2.039
10787SOL     OW33259   3.660   1.472   3.266
10787SOL    HW133260   3.604   1.399   3.225
10787SOL    HW233261   3.641   1.478   3.364
10788SOL     OW33262   0.874   4.394   0.775
10788SOL    HW133263   0.818   4.408   0.857
10788SOL    HW233264   0.842   4.454   0.702
10789SOL     OW33265   6.462   1.297   0.123
10789SOL    HW133266   6.465   1.307   0.222
10789SOL    HW233267   6.414   1.375   0.083
10790SOL     OW33268   6.974   2.407   4.627
10790SOL    HW133269   0.015   2.423   4.701
10790SOL    HW233270   6.918   2.489   4.614
10791SOL     OW33271   2.189   1.597   3.098
10791SOL    HW133272   2.142   1.583   3.012
10791SOL    HW233273   2.273   1.543   3.100
10792SOL     OW33274   3.664   2.378   1.204
10792SOL    HW133275   3.674   2.303   1.269
10792SOL    HW233276   3.581   2.429   1.225
10793SOL     OW33277   5.005   1.527   5.107
10793SOL    HW133278   4.906   1.540   5.103
10793SOL    HW233279   5.051   1.606   5.068
10794SOL     OW33280   4.341   3.243   0.824
10794SOL    HW133281   4.438   3.227   0.844
10794SOL    HW233282   4.295   3.279   0.905
10795SOL     OW33283   6.712   3.266   3.381
10795SOL    HW133284   6.629   3.292   3.430
10795SOL    HW233285   6.773   3.215   3.442
10796SOL     OW33286   6.750   6.761   6.880
10796SOL    HW133287   6.818   6.765   6.806
10796SOL    HW233288   6.658   6.765   6.840
10797SOL     OW33289   4.267   3.736   0.455
10797SOL    HW133290   4.255   3.719   0.357
10797SOL    HW233291   4.253   3.833   0.474
10798SOL     OW33292   2.448   0.035   6.331
10798SOL    HW133293   2.510   7.016   6.264
10798SOL    HW233294   2.477   0.129   6.346
10799SOL     OW33295   3.191   1.730   2.582
10799SOL    HW133296   3.207   1.726   2.681
10799SOL    HW233297   3.101   1.769   2.565
10800SOL     OW33298   1.607   0.116   5.555
10800SOL    HW133299   1.584   0.023   5.525
10800SOL    HW233300   1.523   0.165   5.578
10801SOL     OW33301   2.773   6.292   5.875
10801SOL    HW133302   2.782   6.305   5.974
10801SOL    HW233303   2.694   6.235   5.856
10802SOL     OW33304   0.709   4.146   4.979
10802SOL    HW133305   0.676   4.117   5.069
10802SOL    HW233306   0.773   4.222   4.990
10803SOL     OW33307   6.456   4.841   5.105
10803SOL    HW133308   6.534   4.785   5.077
10803SOL    HW233309   6.484   4.902   5.180
10804SOL     OW33310   5.346   4.703   2.119
10804SOL    HW133311   5.335   4.800   2.141
10804SOL    HW233312   5.371   4.693   2.022
10805SOL     OW33313   4.527   6.641   0.599
10805SOL    HW133314   4.488   6.727   0.632
10805SOL    HW233315   4.626   6.650   0.589
10806SOL     OW33316   4.905   4.176   0.050
10806SOL    HW133317   4.912   4.135   6.983
10806SOL    HW233318   4.994   4.210   0.079
10807SOL     OW33319   4.184   5.822   3.763
10807SOL    HW133320   4.124   5.893   3.799
10807SOL    HW233321   4.257   5.864   3.709
10808SOL     OW33322   7.016   2.752   6.372
10808SOL    HW133323   0.085   2.753   6.409
10808SOL    HW233324   6.951   2.761   6.447
10809SOL     OW33325   2.253   0.984   3.268
10809SOL    HW133326   2.342   1.016   3.301
10809SOL    HW233327   2.241   1.013   3.173
10810SOL     OW33328   6.709   1.769   5.177
10810SOL    HW133329   6.765   1.697   5.136
10810SOL    HW233330   6.765   1.824   5.239
10811SOL     OW33331   4.866   4.323   5.226
10811SOL    HW133332   4.957   4.311   5.187
10811SOL    HW233333   4.812   4.383   5.167
10812SOL     OW33334   6.515   2.591   2.682
10812SOL    HW133335   6.474   2.500   2.694
10812SOL    HW233336   6.541   2.603   2.586
10813SOL     OW33337   2.911   6.163   1.620
10813SOL    HW133338   3.003   6.136   1.648
10813SOL    HW233339   2.851   6.164   1.700
10814SOL     OW33340   1.849   6.946   5.098
10814SOL    HW133341   1.819   6.852   5.083
10814SOL    HW233342   1.921   6.969   5.033
10815SOL     OW33343   5.389   3.482   3.077
10815SOL    HW133344   5.400   3.384   3.094
10815SOL    HW233345   5.468   3.515   3.024
10816SOL     OW33346   1.488   1.502   1.967
10816SOL    HW133347   1.482   1.495   2.066
10816SOL    HW233348   1.569   1.555   1.942
10817SOL     OW33349   4.468   6.855   2.167
10817SOL    HW133350   4.512   6.795   2.233
10817SOL    HW233351   4.372   6.866   2.190
10818SOL     OW33352   4.521   3.098   6.726
10818SOL    HW133353   4.514   3.034   6.650
10818SOL    HW233354   4.431   3.134   6.748
10819SOL     OW33355   6.838   4.290   6.701
10819SOL    HW133356   6.876   4.289   6.793
10819SOL    HW233357   6.911   4.275   6.634
10820SOL     OW33358   0.290   6.595   4.599
10820SOL    HW133359   0.298   6.596   4.499
10820SOL    HW233360   0.300   6.501   4.632
10821SOL     OW33361   6.660   0.484   0.722
10821SOL    HW133362   6.601   0.429   0.781
10821SOL    HW233363   6.668   0.577   0.759
10822SOL     OW33364   0.618   3.822   2.045
10822SOL    HW133365   0.556   3.781   2.112
10822SOL    HW233366   0.706   3.775   2.049
10823SOL     OW33367   1.810   6.915   1.050
10823SOL    HW133368   1.781   6.833   1.098
10823SOL    HW233369   1.853   6.979   1.114
10824SOL     OW33370   5.397   0.703   2.468
10824SOL    HW133371   5.491   0.733   2.455
10824SOL    HW233372   5.395   0.604   2.486
10825SOL     OW33373   3.622   1.558   0.884
10825SOL    HW133374   3.547   1.543   0.948
10825SOL    HW233375   3.667   1.645   0.905
10826SOL     OW33376   7.001   2.871   2.501
10826SOL    HW133377   6.974   2.855   2.406
10826SOL    HW233378   6.924   2.851   2.562
10827SOL     OW33379   7.002   2.771   4.031
10827SOL    HW133380   6.946   2.778   3.948
10827SOL    HW233381   6.995   2.855   4.084
10828SOL     OW33382   1.195   5.712   0.740
10828SOL    HW133383   1.258   5.638   0.719
10828SOL    HW233384   1.245   5.798   0.744
10829SOL     OW33385   3.314   3.973   1.758
10829SOL    HW133386   3.403   4.001   1.792
10829SOL    HW233387   3.248   3.974   1.833
10830SOL     OW33388   4.765   2.941   4.586
10830SOL    HW133389   4.779   2.948   4.488
10830SOL    HW233390   4.813   3.016   4.632
10831SOL     OW33391   5.413   1.435   3.122
10831SOL    HW133392   5.421   1.526   3.164
10831SOL    HW233393   5.422   1.443   3.023
10832SOL     OW33394   0.878   1.891   0.379
10832SOL    HW133395   0.832   1.804   0.400
10832SOL    HW233396   0.815   1.951   0.331
10833SOL     OW33397   3.057   0.119   4.323
10833SOL    HW133398   3.101   0.057   4.389
10833SOL    HW233399   3.099   0.209   4.328
10834SOL     OW33400   1.062   1.911   4.826
10834SOL    HW133401   0.990   1.972   4.859
10834SOL    HW233402   1.062   1.910   4.726
10835SOL     OW33403   6.312   1.344   2.406
10835SOL    HW133404   6.321   1.249   2.438
10835SOL    HW233405   6.299   1.344   2.307
10836SOL     OW33406   2.031   2.247   6.286
10836SOL    HW133407   1.995   2.306   6.359
10836SOL    HW233408   2.128   2.267   6.272
10837SOL     OW33409   6.909   4.582   0.824
10837SOL    HW133410   6.861   4.651   0.876
10837SOL    HW233411   7.007   4.586   0.844
10838SOL     OW33412   5.862   6.927   6.560
10838SOL    HW133413   5.902   6.938   6.651
10838SOL    HW233414   5.775   6.975   6.556
10839SOL     OW33415   1.671   2.572   0.200
10839SOL    HW133416   1.756   2.596   0.151
10839SOL    HW233417   1.675   2.609   0.293
10840SOL     OW33418   3.958   5.376   1.639
10840SOL    HW133419   3.962   5.470   1.605
10840SOL    HW233420   3.926   5.377   1.734
10841SOL     OW33421   3.729   4.823   6.191
10841SOL    HW133422   3.746   4.727   6.167
10841SOL    HW233423   3.816   4.872   6.196
10842SOL     OW33424   6.338   2.886   1.671
10842SOL    HW133425   6.280   2.877   1.590
10842SOL    HW233426   6.396   2.805   1.680
10843SOL     OW33427   0.624   1.566   1.767
10843SOL    HW133428   0.707   1.518   1.795
10843SOL    HW233429   0.602   1.636   1.835
10844SOL     OW33430   4.697   0.412   3.913
10844SOL    HW133431   4.647   0.463   3.843
10844SOL    HW233432   4.727   0.324   3.876
10845SOL     OW33433   1.600   1.985   1.229
10845SOL    HW133434   1.672   2.052   1.245
10845SOL    HW233435   1.511   2.027   1.252
10846SOL     OW33436   3.815   2.007   1.484
10846SOL    HW133437   3.769   2.083   1.438
10846SOL    HW233438   3.914   2.019   1.477
10847SOL     OW33439   4.224   2.654   6.420
10847SOL    HW133440   4.178   2.721   6.362
10847SOL    HW233441   4.322   2.670   6.418
10848SOL     OW33442   1.049   0.596   6.359
10848SOL    HW133443   1.109   0.647   6.296
10848SOL    HW233444   1.052   0.639   6.449
10849SOL     OW33445   3.099   4.969   4.238
10849SOL    HW133446   3.014   5.012   4.209
10849SOL    HW233447   3.176   5.025   4.208
10850SOL     OW33448   5.114   6.321   0.729
10850SOL    HW133449   5.091   6.244   0.670
10850SOL    HW233450   5.038   6.386   0.730
10851SOL     OW33451   3.669   2.211   6.429
10851SOL    HW133452   3.620   2.200   6.342
10851SOL    HW233453   3.604   2.215   6.504
10852SOL     OW33454   0.452   0.443   6.351
10852SOL    HW133455   0.479   0.428   6.256
10852SOL    HW233456   0.511   0.389   6.412
10853SOL     OW33457   2.436   1.625   4.608
10853SOL    HW133458   2.472   1.691   4.674
10853SOL    HW233459   2.353   1.583   4.645
10854SOL     OW33460   6.820   6.343   6.880
10854SOL    HW133461   6.854   6.430   6.915
10854SOL    HW233462   6.868   6.268   6.926
10855SOL     OW33463   1.138   6.064   1.570
10855SOL    HW133464   1.121   6.051   1.668
10855SOL    HW233465   1.199   6.142   1.558
10856SOL     OW33466   6.246   0.048   6.873
10856SOL    HW133467   6.260   7.001   6.804
10856SOL    HW233468   6.335   0.084   6.902
10857SOL     OW33469   5.781   1.631   4.134
10857SOL    HW133470   5.830   1.717   4.122
10857SOL    HW233471   5.695   1.633   4.083
10858SOL     OW33472   2.233   2.776   0.063
10858SOL    HW133473   2.186   2.864   0.053
10858SOL    HW233474   2.276   2.751   7.000
10859SOL     OW33475   0.842   4.439   2.371
10859SOL    HW133476   0.863   4.519   2.315
10859SOL    HW233477   0.874   4.356   2.324
10860SOL     OW33478   6.258   2.190   0.061
10860SOL    HW133479   6.253   2.275   0.009
10860SOL    HW233480   6.185   2.189   0.130
10861SOL     OW33481   3.542   3.125   1.836
10861SOL    HW133482   3.514   3.172   1.920
10861SOL    HW233483   3.562   3.029   1.857
10862SOL     OW33484   3.502   3.180   5.671
10862SOL    HW133485   3.563   3.154   5.595
10862SOL    HW233486   3.461   3.098   5.710
10863SOL     OW33487   2.283   1.606   2.715
10863SOL    HW133488   2.324   1.684   2.762
10863SOL    HW233489   2.232   1.638   2.636
10864SOL     OW33490   2.989   4.803   2.060
10864SOL    HW133491   2.905   4.753   2.038
10864SOL    HW233492   3.019   4.779   2.152
10865SOL     OW33493   4.162   1.529   3.372
10865SOL    HW133494   4.174   1.495   3.279
10865SOL    HW233495   4.065   1.529   3.396
10866SOL     OW33496   0.215   3.629   3.290
10866SOL    HW133497   0.251   3.667   3.205
10866SOL    HW233498   0.233   3.530   3.292
10867SOL     OW33499   4.179   3.264   0.356
10867SOL    HW133500   4.216   3.355   0.337
10867SOL    HW233501   4.176   3.250   0.455
10868SOL     OW33502   1.148   1.714   4.133
10868SOL    HW133503   1.122   1.686   4.226
10868SOL    HW233504   1.232   1.667   4.107
10869NA      NA33505   0.101   2.322   5.831
10870NA      NA33506   4.351   4.634   5.245
10871NA      NA33507   0.977   4.916   2.879
10872NA      NA33508   5.650   4.284   3.589
10873NA      NA33509   4.304   2.259   5.181
10874NA      NA33510   2.584   5.228   0.578
10875NA      NA33511   1.250   5.215   6.615
10876NA      NA33512   3.412   4.588   1.174
10877NA      NA33513   4.438   5.225   0.856
10878NA      NA33514   3.214   0.921   6.313
10879NA      NA33515   5.590   6.145   2.261
10880NA      NA33516   1.720   6.687   5.530
10881NA      NA33517   4.143   5.083   1.969
10882NA      NA33518   3.451   3.175   6.632
   7.02387   7.02387   7.02387
