Generated by trjconv : CNT in water t= 398.00000
33518
    1C        C    1   2.850   2.776   4.751
    1C        C    2   2.907   2.727   4.870
    1C        C    3   2.843   2.773   4.986
    1C        C    4   2.850   2.776   4.261
    1C        C    5   2.905   2.732   4.384
    1C        C    6   2.851   2.777   4.507
    1C        C    7   3.013   2.641   4.629
    1C        C    8   2.904   2.730   4.629
    1C        C    9   3.078   2.598   4.747
    1C        C   10   3.013   2.634   4.867
    1C        C   11   3.184   2.490   4.979
    1C        C   12   3.062   2.560   4.976
    1C        C   13   2.853   2.776   3.773
    1C        C   14   2.906   2.729   3.895
    1C        C   15   2.853   2.778   4.016
    1C        C   16   3.019   2.648   4.142
    1C        C   17   2.903   2.728   4.139
    1C        C   18   3.083   2.618   4.264
    1C        C   19   3.019   2.649   4.386
    1C        C   20   3.211   2.561   4.506
    1C        C   21   3.077   2.607   4.507
    1C        C   22   3.280   2.533   4.626
    1C        C   23   3.209   2.543   4.747
    1C        C   24   3.414   2.485   4.869
    1C        C   25   3.272   2.497   4.866
    1C        C   26   3.492   2.485   4.985
    1C        C   27   2.853   2.772   3.284
    1C        C   28   2.909   2.727   3.406
    1C        C   29   2.856   2.773   3.528
    1C        C   30   3.021   2.645   3.652
    1C        C   31   2.907   2.727   3.652
    1C        C   32   3.080   2.608   3.775
    1C        C   33   3.021   2.647   3.897
    1C        C   34   3.210   2.554   4.019
    1C        C   35   3.080   2.610   4.020
    1C        C   36   3.278   2.538   4.141
    1C        C   37   3.215   2.566   4.264
    1C        C   38   3.421   2.513   4.383
    1C        C   39   3.282   2.540   4.386
    1C        C   40   3.488   2.498   4.506
    1C        C   41   3.417   2.499   4.628
    1C        C   42   3.632   2.476   4.745
    1C        C   43   3.490   2.483   4.748
    1C        C   44   3.708   2.484   4.864
    1C        C   45   3.631   2.484   4.981
    1C        C   46   2.842   2.758   2.794
    1C        C   47   2.899   2.718   2.917
    1C        C   48   2.845   2.768   3.038
    1C        C   49   3.018   2.644   3.162
    1C        C   50   2.903   2.726   3.159
    1C        C   51   3.082   2.608   3.283
    1C        C   52   3.025   2.647   3.406
    1C        C   53   3.213   2.554   3.530
    1C        C   54   3.084   2.611   3.529
    1C        C   55   3.281   2.535   3.653
    1C        C   56   3.212   2.557   3.774
    1C        C   57   3.417   2.507   3.896
    1C        C   58   3.278   2.534   3.897
    1C        C   59   3.486   2.496   4.019
    1C        C   60   3.415   2.503   4.141
    1C        C   61   3.631   2.496   4.260
    1C        C   62   3.489   2.496   4.261
    1C        C   63   3.702   2.503   4.382
    1C        C   64   3.629   2.499   4.503
    1C        C   65   3.834   2.550   4.621
    1C        C   66   3.700   2.504   4.625
    1C        C   67   3.907   2.560   4.741
    1C        C   68   3.843   2.525   4.862
    1C        C   69   4.047   2.592   4.979
    1C        C   70   3.925   2.524   4.975
    1C        C   71   2.830   2.739   2.309
    1C        C   72   2.892   2.702   2.430
    1C        C   73   2.838   2.755   2.550
    1C        C   74   3.010   2.629   2.674
    1C        C   75   2.894   2.710   2.671
    1C        C   76   3.075   2.601   2.796
    1C        C   77   3.015   2.638   2.919
    1C        C   78   3.208   2.548   3.040
    1C        C   79   3.081   2.611   3.041
    1C        C   80   3.278   2.532   3.161
    1C        C   81   3.213   2.556   3.285
    1C        C   82   3.416   2.498   3.403
    1C        C   83   3.280   2.533   3.407
    1C        C   84   3.484   2.494   3.527
    1C        C   85   3.419   2.505   3.652
    1C        C   86   3.629   2.503   3.771
    1C        C   87   3.488   2.496   3.775
    1C        C   88   3.697   2.514   3.895
    1C        C   89   3.627   2.507   4.017
    1C        C   90   3.837   2.548   4.136
    1C        C   91   3.700   2.516   4.138
    1C        C   92   3.903   2.572   4.259
    1C        C   93   3.839   2.537   4.380
    1C        C   94   4.029   2.638   4.499
    1C        C   95   3.903   2.574   4.500
    1C        C   96   4.090   2.672   4.621
    1C        C   97   4.032   2.629   4.742
    1C        C   98   4.194   2.766   4.862
    1C        C   99   4.100   2.658   4.864
    1C        C  100   4.214   2.846   4.975
    1C        C  101   2.830   2.733   2.066
    1C        C  102   2.993   2.597   2.189
    1C        C  103   2.881   2.686   2.187
    1C        C  104   3.066   2.579   2.310
    1C        C  105   3.009   2.622   2.431
    1C        C  106   3.201   2.536   2.552
    1C        C  107   3.069   2.586   2.553
    1C        C  108   3.272   2.522   2.674
    1C        C  109   3.204   2.545   2.796
    1C        C  110   3.414   2.501   2.918
    1C        C  111   3.274   2.525   2.917
    1C        C  112   3.486   2.488   3.038
    1C        C  113   3.416   2.503   3.160
    1C        C  114   3.629   2.503   3.279
    1C        C  115   3.488   2.497   3.281
    1C        C  116   3.695   2.511   3.404
    1C        C  117   3.625   2.500   3.526
    1C        C  118   3.834   2.544   3.645
    1C        C  119   3.697   2.509   3.647
    1C        C  120   3.900   2.568   3.768
    1C        C  121   3.835   2.545   3.891
    1C        C  122   4.026   2.635   4.013
    1C        C  123   3.905   2.562   4.013
    1C        C  124   4.086   2.679   4.133
    1C        C  125   4.026   2.642   4.255
    1C        C  126   4.193   2.772   4.378
    1C        C  127   4.088   2.678   4.377
    1C        C  128   4.242   2.822   4.501
    1C        C  129   4.195   2.767   4.622
    1C        C  130   4.324   2.942   4.739
    1C        C  131   4.242   2.825   4.742
    1C        C  132   4.349   3.011   4.859
    1C        C  133   4.279   2.968   4.973
    1C        C  134   3.175   2.475   2.078
    1C        C  135   3.041   2.512   2.084
    1C        C  136   3.258   2.479   2.191
    1C        C  137   3.195   2.517   2.311
    1C        C  138   3.406   2.477   2.428
    1C        C  139   3.268   2.505   2.432
    1C        C  140   3.478   2.476   2.550
    1C        C  141   3.409   2.489   2.672
    1C        C  142   3.621   2.492   2.792
    1C        C  143   3.480   2.485   2.794
    1C        C  144   3.696   2.501   2.912
    1C        C  145   3.628   2.490   3.035
    1C        C  146   3.835   2.537   3.155
    1C        C  147   3.699   2.499   3.157
    1C        C  148   3.899   2.566   3.278
    1C        C  149   3.833   2.542   3.401
    1C        C  150   4.026   2.632   3.526
    1C        C  151   3.900   2.567   3.523
    1C        C  152   4.084   2.673   3.648
    1C        C  153   4.025   2.635   3.771
    1C        C  154   4.193   2.767   3.888
    1C        C  155   4.085   2.677   3.892
    1C        C  156   4.246   2.816   4.010
    1C        C  157   4.196   2.768   4.133
    1C        C  158   4.335   2.929   4.254
    1C        C  159   4.246   2.819   4.255
    1C        C  160   4.373   2.990   4.375
    1C        C  161   4.327   2.935   4.497
    1C        C  162   4.438   3.120   4.619
    1C        C  163   4.369   2.997   4.617
    1C        C  164   4.465   3.188   4.739
    1C        C  165   4.431   3.126   4.861
    1C        C  166   4.513   3.320   4.975
    1C        C  167   4.478   3.185   4.979
    1C        C  168   3.474   2.434   2.074
    1C        C  169   3.397   2.455   2.190
    1C        C  170   3.618   2.462   2.309
    1C        C  171   3.476   2.456   2.307
    1C        C  172   3.693   2.482   2.427
    1C        C  173   3.620   2.481   2.548
    1C        C  174   3.825   2.538   2.667
    1C        C  175   3.690   2.496   2.669
    1C        C  176   3.896   2.559   2.787
    1C        C  177   3.833   2.533   2.911
    1C        C  178   4.026   2.626   3.033
    1C        C  179   3.901   2.561   3.032
    1C        C  180   4.086   2.663   3.156
    1C        C  181   4.025   2.630   3.278
    1C        C  182   4.191   2.757   3.400
    1C        C  183   4.084   2.665   3.402
    1C        C  184   4.244   2.810   3.520
    1C        C  185   4.193   2.763   3.643
    1C        C  186   4.337   2.919   3.763
    1C        C  187   4.249   2.808   3.765
    1C        C  188   4.379   2.978   3.884
    1C        C  189   4.340   2.922   4.008
    1C        C  190   4.446   3.105   4.130
    1C        C  191   4.377   2.982   4.130
    1C        C  192   4.471   3.174   4.251
    1C        C  193   4.446   3.111   4.375
    1C        C  194   4.507   3.316   4.492
    1C        C  195   4.474   3.179   4.495
    1C        C  196   4.527   3.387   4.613
    1C        C  197   4.516   3.321   4.738
    1C        C  198   4.561   3.535   4.850
    1C        C  199   4.536   3.394   4.858
    1C        C  200   4.584   3.622   4.962
    1C        C  201   3.613   2.417   2.075
    1C        C  202   3.822   2.518   2.182
    1C        C  203   3.689   2.466   2.186
    1C        C  204   3.893   2.549   2.301
    1C        C  205   3.828   2.526   2.424
    1C        C  206   4.020   2.620   2.544
    1C        C  207   3.894   2.556   2.545
    1C        C  208   4.082   2.660   2.664
    1C        C  209   4.020   2.627   2.787
    1C        C  210   4.193   2.750   2.909
    1C        C  211   4.082   2.662   2.909
    1C        C  212   4.246   2.798   3.030
    1C        C  213   4.197   2.750   3.154
    1C        C  214   4.334   2.912   3.276
    1C        C  215   4.242   2.804   3.277
    1C        C  216   4.376   2.971   3.397
    1C        C  217   4.339   2.915   3.521
    1C        C  218   4.441   3.104   3.640
    1C        C  219   4.375   2.979   3.641
    1C        C  220   4.466   3.170   3.762
    1C        C  221   4.441   3.105   3.885
    1C        C  222   4.509   3.306   4.004
    1C        C  223   4.471   3.170   4.007
    1C        C  224   4.518   3.380   4.124
    1C        C  225   4.505   3.311   4.247
    1C        C  226   4.531   3.524   4.369
    1C        C  227   4.516   3.383   4.368
    1C        C  228   4.528   3.599   4.488
    1C        C  229   4.537   3.527   4.609
    1C        C  230   4.508   3.743   4.725
    1C        C  231   4.539   3.604   4.728
    1C        C  232   4.496   3.820   4.843
    1C        C  233   4.546   3.757   4.957
    1C        C  234   4.018   2.609   2.065
    1C        C  235   3.895   2.544   2.065
    1C        C  236   4.084   2.656   2.180
    1C        C  237   4.018   2.618   2.299
    1C        C  238   4.193   2.741   2.419
    1C        C  239   4.079   2.656   2.421
    1C        C  240   4.247   2.789   2.540
    1C        C  241   4.194   2.745   2.664
    1C        C  242   4.334   2.906   2.787
    1C        C  243   4.242   2.799   2.785
    1C        C  244   4.379   2.963   2.908
    1C        C  245   4.336   2.907   3.031
    1C        C  246   4.437   3.094   3.149
    1C        C  247   4.374   2.968   3.152
    1C        C  248   4.460   3.162   3.271
    1C        C  249   4.435   3.099   3.395
    1C        C  250   4.503   3.303   3.514
    1C        C  251   4.462   3.167   3.515
    1C        C  252   4.515   3.373   3.636
    1C        C  253   4.500   3.307   3.760
    1C        C  254   4.521   3.517   3.880
    1C        C  255   4.521   3.376   3.882
    1C        C  256   4.522   3.590   4.002
    1C        C  257   4.532   3.521   4.125
    1C        C  258   4.493   3.730   4.242
    1C        C  259   4.527   3.593   4.246
    1C        C  260   4.478   3.802   4.363
    1C        C  261   4.496   3.737   4.487
    1C        C  262   4.430   3.944   4.602
    1C        C  263   4.475   3.810   4.606
    1C        C  264   4.405   4.014   4.722
    1C        C  265   4.436   3.948   4.843
    1C        C  266   4.322   4.132   4.958
    1C        C  267   4.398   4.016   4.960
    1C        C  268   4.266   2.778   2.063
    1C        C  269   4.198   2.738   2.179
    1C        C  270   4.348   2.892   2.301
    1C        C  271   4.257   2.783   2.300
    1C        C  272   4.384   2.954   2.423
    1C        C  273   4.337   2.898   2.544
    1C        C  274   4.444   3.086   2.662
    1C        C  275   4.374   2.963   2.664
    1C        C  276   4.476   3.151   2.783
    1C        C  277   4.449   3.086   2.905
    1C        C  278   4.509   3.291   3.026
    1C        C  279   4.468   3.156   3.026
    1C        C  280   4.519   3.365   3.146
    1C        C  281   4.499   3.298   3.268
    1C        C  282   4.521   3.511   3.391
    1C        C  283   4.508   3.370   3.390
    1C        C  284   4.522   3.583   3.513
    1C        C  285   4.522   3.514   3.636
    1C        C  286   4.496   3.726   3.754
    1C        C  287   4.517   3.586   3.757
    1C        C  288   4.479   3.795   3.876
    1C        C  289   4.499   3.729   3.999
    1C        C  290   4.429   3.932   4.118
    1C        C  291   4.478   3.800   4.120
    1C        C  292   4.398   3.999   4.239
    1C        C  293   4.428   3.935   4.361
    1C        C  294   4.325   4.127   4.478
    1C        C  295   4.398   4.006   4.479
    1C        C  296   4.286   4.190   4.599
    1C        C  297   4.335   4.137   4.720
    1C        C  298   4.203   4.314   4.837
    1C        C  299   4.288   4.198   4.840
    1C        C  300   4.174   4.404   4.944
    1C        C  301   4.351   2.887   2.061
    1C        C  302   4.477   3.064   2.178
    1C        C  303   4.400   2.944   2.180
    1C        C  304   4.486   3.141   2.297
    1C        C  305   4.453   3.077   2.419
    1C        C  306   4.514   3.283   2.534
    1C        C  307   4.481   3.145   2.540
    1C        C  308   4.519   3.355   2.656
    1C        C  309   4.505   3.290   2.780
    1C        C  310   4.529   3.499   2.900
    1C        C  311   4.524   3.358   2.902
    1C        C  312   4.525   3.575   3.020
    1C        C  313   4.522   3.506   3.143
    1C        C  314   4.491   3.715   3.265
    1C        C  315   4.515   3.576   3.266
    1C        C  316   4.475   3.787   3.385
    1C        C  317   4.500   3.723   3.509
    1C        C  318   4.423   3.921   3.629
    1C        C  319   4.482   3.793   3.630
    1C        C  320   4.389   3.986   3.750
    1C        C  321   4.424   3.925   3.873
    1C        C  322   4.318   4.109   3.992
    1C        C  323   4.398   3.993   3.994
    1C        C  324   4.279   4.174   4.111
    1C        C  325   4.321   4.117   4.233
    1C        C  326   4.184   4.280   4.354
    1C        C  327   4.285   4.181   4.354
    1C        C  328   4.135   4.336   4.474
    1C        C  329   4.195   4.298   4.596
    1C        C  330   4.026   4.436   4.715
    1C        C  331   4.138   4.347   4.715
    1C        C  332   3.970   4.488   4.833
    1C        C  333   4.052   4.474   4.946
    1C        C  334   4.556   3.269   2.061
    1C        C  335   4.538   3.130   2.066
    1C        C  336   4.540   3.349   2.175
    1C        C  337   4.524   3.278   2.296
    1C        C  338   4.521   3.497   2.412
    1C        C  339   4.526   3.356   2.414
    1C        C  340   4.519   3.570   2.533
    1C        C  341   4.526   3.496   2.654
    1C        C  342   4.500   3.706   2.777
    1C        C  343   4.522   3.566   2.776
    1C        C  344   4.479   3.778   2.896
    1C        C  345   4.501   3.714   3.021
    1C        C  346   4.429   3.915   3.138
    1C        C  347   4.480   3.784   3.142
    1C        C  348   4.392   3.979   3.259
    1C        C  349   4.420   3.917   3.383
    1C        C  350   4.317   4.102   3.503
    1C        C  351   4.391   3.981   3.505
    1C        C  352   4.275   4.163   3.623
    1C        C  353   4.316   4.107   3.746
    1C        C  354   4.167   4.256   3.866
    1C        C  355   4.270   4.159   3.869
    1C        C  356   4.112   4.305   3.986
    1C        C  357   4.175   4.270   4.108
    1C        C  358   4.011   4.400   4.230
    1C        C  359   4.128   4.321   4.231
    1C        C  360   3.952   4.444   4.351
    1C        C  361   4.019   4.416   4.472
    1C        C  362   3.829   4.514   4.595
    1C        C  363   3.958   4.457   4.593
    1C        C  364   3.764   4.546   4.716
    1C        C  365   3.841   4.546   4.834
    1C        C  366   3.629   4.598   4.948
    1C        C  367   3.766   4.579   4.948
    1C        C  368   4.507   3.566   2.053
    1C        C  369   4.527   3.489   2.168
    1C        C  370   4.505   3.704   2.289
    1C        C  371   4.522   3.564   2.288
    1C        C  372   4.486   3.777   2.408
    1C        C  373   4.500   3.710   2.531
    1C        C  374   4.426   3.905   2.652
    1C        C  375   4.480   3.775   2.655
    1C        C  376   4.392   3.972   2.772
    1C        C  377   4.428   3.910   2.893
    1C        C  378   4.318   4.092   3.011
    1C        C  379   4.396   3.975   3.014
    1C        C  380   4.268   4.148   3.131
    1C        C  381   4.309   4.093   3.255
    1C        C  382   4.176   4.255   3.378
    1C        C  383   4.272   4.151   3.378
    1C        C  384   4.119   4.303   3.498
    1C        C  385   4.173   4.261   3.621
    1C        C  386   4.003   4.389   3.742
    1C        C  387   4.117   4.306   3.743
    1C        C  388   3.941   4.427   3.863
    1C        C  389   4.001   4.391   3.986
    1C        C  390   3.815   4.488   4.109
    1C        C  391   3.945   4.432   4.109
    1C        C  392   3.751   4.517   4.231
    1C        C  393   3.822   4.498   4.352
    1C        C  394   3.618   4.548   4.478
    1C        C  395   3.758   4.529   4.474
    1C        C  396   3.544   4.562   4.598
    1C        C  397   3.623   4.559   4.715
    1C        C  398   3.411   4.551   4.839
    1C        C  399   3.550   4.576   4.834
    1C        C  400   3.345   4.515   4.957
    1C        C  401   4.500   3.705   2.053
    1C        C  402   4.455   3.916   2.168
    1C        C  403   4.497   3.781   2.171
    1C        C  404   4.413   3.977   2.289
    1C        C  405   4.432   3.908   2.410
    1C        C  406   4.326   4.093   2.525
    1C        C  407   4.401   3.974   2.531
    1C        C  408   4.275   4.145   2.646
    1C        C  409   4.315   4.090   2.770
    1C        C  410   4.172   4.249   2.889
    1C        C  411   4.274   4.151   2.890
    1C        C  412   4.119   4.297   3.011
    1C        C  413   4.171   4.250   3.134
    1C        C  414   3.998   4.371   3.254
    1C        C  415   4.119   4.297   3.257
    1C        C  416   3.940   4.410   3.376
    1C        C  417   4.001   4.382   3.500
    1C        C  418   3.807   4.473   3.618
    1C        C  419   3.939   4.422   3.620
    1C        C  420   3.742   4.498   3.741
    1C        C  421   3.809   4.478   3.863
    1C        C  422   3.610   4.540   3.989
    1C        C  423   3.747   4.507   3.987
    1C        C  424   3.541   4.548   4.112
    1C        C  425   3.612   4.544   4.234
    1C        C  426   3.403   4.555   4.357
    1C        C  427   3.544   4.554   4.357
    1C        C  428   3.332   4.552   4.479
    1C        C  429   3.403   4.561   4.601
    1C        C  430   3.193   4.519   4.727
    1C        C  431   3.331   4.549   4.722
    1C        C  432   3.125   4.500   4.850
    1C        C  433   3.208   4.494   4.963
    1C        C  434   4.381   4.122   2.054
    1C        C  435   4.446   3.998   2.055
    1C        C  436   4.302   4.162   2.166
    1C        C  437   4.334   4.095   2.286
    1C        C  438   4.181   4.250   2.403
    1C        C  439   4.287   4.156   2.404
    1C        C  440   4.124   4.293   2.525
    1C        C  441   4.173   4.242   2.647
    1C        C  442   4.000   4.373   2.765
    1C        C  443   4.115   4.289   2.767
    1C        C  444   3.940   4.411   2.887
    1C        C  445   4.001   4.374   3.009
    1C        C  446   3.810   4.468   3.129
    1C        C  447   3.939   4.409   3.131
    1C        C  448   3.745   4.492   3.252
    1C        C  449   3.811   4.467   3.375
    1C        C  450   3.602   4.524   3.497
    1C        C  451   3.740   4.492   3.495
    1C        C  452   3.536   4.542   3.620
    1C        C  453   3.606   4.539   3.743
    1C        C  454   3.399   4.555   3.865
    1C        C  455   3.541   4.557   3.867
    1C        C  456   3.333   4.539   3.988
    1C        C  457   3.400   4.549   4.112
    1C        C  458   3.195   4.506   4.236
    1C        C  459   3.332   4.542   4.236
    1C        C  460   3.128   4.486   4.359
    1C        C  461   3.195   4.516   4.480
    1C        C  462   3.002   4.431   4.603
    1C        C  463   3.130   4.490   4.603
    1C        C  464   2.935   4.398   4.723
    1C        C  465   2.992   4.446   4.844
    1C        C  466   2.807   4.334   4.964
    1C        C  467   2.905   4.434   4.957
    1C        C  468   4.122   4.282   2.041
    1C        C  469   4.187   4.248   2.161
    1C        C  470   4.008   4.372   2.278
    1C        C  471   4.127   4.295   2.281
    1C        C  472   3.942   4.406   2.399
    1C        C  473   4.005   4.370   2.520
    1C        C  474   3.810   4.457   2.643
    1C        C  475   3.942   4.407   2.641
    1C        C  476   3.743   4.485   2.764
    1C        C  477   3.811   4.468   2.886
    1C        C  478   3.603   4.518   3.008
    1C        C  479   3.742   4.491   3.008
    1C        C  480   3.537   4.529   3.132
    1C        C  481   3.608   4.527   3.254
    1C        C  482   3.393   4.537   3.376
    1C        C  483   3.534   4.538   3.374
    1C        C  484   3.322   4.536   3.498
    1C        C  485   3.395   4.544   3.619
    1C        C  486   3.192   4.503   3.746
    1C        C  487   3.329   4.537   3.743
    1C        C  488   3.129   4.478   3.870
    1C        C  489   3.197   4.500   3.991
    1C        C  490   3.001   4.423   4.117
    1C        C  491   3.130   4.480   4.114
    1C        C  492   2.938   4.387   4.239
    1C        C  493   3.000   4.426   4.360
    1C        C  494   2.832   4.300   4.486
    1C        C  495   2.941   4.390   4.483
    1C        C  496   2.776   4.255   4.608
    1C        C  497   2.822   4.311   4.728
    1C        C  498   2.668   4.163   4.847
    1C        C  499   2.758   4.272   4.848
    1C        C  500   2.593   4.120   4.957
    1C        C  501   4.005   4.356   2.039
    1C        C  502   3.815   4.460   2.156
    1C        C  503   3.943   4.401   2.156
    1C        C  504   3.743   4.480   2.276
    1C        C  505   3.813   4.462   2.397
    1C        C  506   3.607   4.510   2.518
    1C        C  507   3.746   4.484   2.520
    1C        C  508   3.536   4.523   2.639
    1C        C  509   3.605   4.515   2.762
    1C        C  510   3.394   4.531   2.889
    1C        C  511   3.535   4.529   2.885
    1C        C  512   3.323   4.526   3.011
    1C        C  513   3.396   4.536   3.131
    1C        C  514   3.186   4.498   3.255
    1C        C  515   3.325   4.527   3.253
    1C        C  516   3.122   4.471   3.378
    1C        C  517   3.186   4.499   3.501
    1C        C  518   2.995   4.416   3.627
    1C        C  519   3.122   4.478   3.626
    1C        C  520   2.941   4.374   3.750
    1C        C  521   3.002   4.415   3.871
    1C        C  522   2.844   4.281   4.000
    1C        C  523   2.944   4.381   3.995
    1C        C  524   2.795   4.230   4.122
    1C        C  525   2.837   4.289   4.244
    1C        C  526   2.700   4.129   4.367
    1C        C  527   2.786   4.241   4.366
    1C        C  528   2.654   4.076   4.489
    1C        C  529   2.693   4.140   4.609
    1C        C  530   2.590   3.956   4.732
    1C        C  531   2.643   4.088   4.730
    1C        C  532   2.549   3.898   4.855
    1C        C  533   2.530   3.995   4.958
    1C        C  534   3.617   4.559   2.039
    1C        C  535   3.751   4.518   2.046
    1C        C  536   3.534   4.543   2.155
    1C        C  537   3.604   4.511   2.275
    1C        C  538   3.392   4.515   2.401
    1C        C  539   3.533   4.517   2.397
    1C        C  540   3.322   4.511   2.524
    1C        C  541   3.394   4.524   2.644
    1C        C  542   3.187   4.485   2.768
    1C        C  543   3.324   4.517   2.767
    1C        C  544   3.118   4.470   2.891
    1C        C  545   3.187   4.488   3.013
    1C        C  546   2.993   4.403   3.136
    1C        C  547   3.118   4.469   3.135
    1C        C  548   2.934   4.370   3.260
    1C        C  549   2.997   4.405   3.381
    1C        C  550   2.826   4.287   3.508
    1C        C  551   2.935   4.376   3.505
    1C        C  552   2.782   4.233   3.631
    1C        C  553   2.836   4.279   3.753
    1C        C  554   2.703   4.122   3.877
    1C        C  555   2.792   4.232   3.879
    1C        C  556   2.666   4.061   3.998
    1C        C  557   2.708   4.118   4.121
    1C        C  558   2.602   3.941   4.247
    1C        C  559   2.662   4.069   4.245
    1C        C  560   2.572   3.878   4.370
    1C        C  561   2.593   3.948   4.490
    1C        C  562   2.529   3.748   4.617
    1C        C  563   2.568   3.883   4.613
    1C        C  564   2.512   3.680   4.740
    1C        C  565   2.526   3.757   4.858
    1C        C  566   2.530   3.545   4.977
    1C        C  567   2.518   3.683   4.978
    1C        C  568   3.324   4.478   2.043
    1C        C  569   3.396   4.510   2.159
    1C        C  570   3.183   4.476   2.281
    1C        C  571   3.321   4.509   2.279
    1C        C  572   3.115   4.456   2.404
    1C        C  573   3.184   4.482   2.524
    1C        C  574   2.989   4.403   2.650
    1C        C  575   3.117   4.461   2.648
    1C        C  576   2.930   4.362   2.772
    1C        C  577   2.993   4.405   2.892
    1C        C  578   2.827   4.271   3.019
    1C        C  579   2.934   4.363   3.013
    1C        C  580   2.776   4.222   3.141
    1C        C  581   2.828   4.276   3.260
    1C        C  582   2.700   4.117   3.386
    1C        C  583   2.782   4.232   3.386
    1C        C  584   2.665   4.057   3.509
    1C        C  585   2.696   4.120   3.632
    1C        C  586   2.608   3.931   3.758
    1C        C  587   2.664   4.060   3.755
    1C        C  588   2.575   3.868   3.881
    1C        C  589   2.601   3.936   4.002
    1C        C  590   2.539   3.736   4.130
    1C        C  591   2.574   3.873   4.126
    1C        C  592   2.522   3.669   4.253
    1C        C  593   2.534   3.742   4.374
    1C        C  594   2.506   3.534   4.496
    1C        C  595   2.515   3.675   4.497
    1C        C  596   2.506   3.463   4.619
    1C        C  597   2.510   3.537   4.739
    1C        C  598   2.527   3.326   4.863
    1C        C  599   2.516   3.467   4.861
    1C        C  600   2.521   3.249   4.980
    1C        C  601   3.190   4.443   2.042
    1C        C  602   2.981   4.393   2.162
    1C        C  603   3.117   4.437   2.161
    1C        C  604   2.921   4.362   2.287
    1C        C  605   2.988   4.394   2.407
    1C        C  606   2.819   4.272   2.530
    1C        C  607   2.926   4.363   2.530
    1C        C  608   2.768   4.221   2.652
    1C        C  609   2.822   4.271   2.773
    1C        C  610   2.687   4.111   2.896
    1C        C  611   2.775   4.223   2.897
    1C        C  612   2.647   4.053   3.019
    1C        C  613   2.689   4.110   3.141
    1C        C  614   2.594   3.927   3.267
    1C        C  615   2.655   4.054   3.267
    1C        C  616   2.570   3.865   3.392
    1C        C  617   2.602   3.931   3.513
    1C        C  618   2.537   3.731   3.639
    1C        C  619   2.578   3.866   3.637
    1C        C  620   2.516   3.665   3.762
    1C        C  621   2.530   3.734   3.884
    1C        C  622   2.506   3.526   4.010
    1C        C  623   2.524   3.666   4.008
    1C        C  624   2.511   3.455   4.132
    1C        C  625   2.509   3.528   4.253
    1C        C  626   2.534   3.320   4.379
    1C        C  627   2.510   3.459   4.377
    1C        C  628   2.551   3.253   4.502
    1C        C  629   2.537   3.325   4.622
    1C        C  630   2.596   3.120   4.743
    1C        C  631   2.550   3.255   4.744
    1C        C  632   2.617   3.049   4.864
    1C        C  633   2.557   3.113   4.978
    1C        C  634   2.784   4.304   2.055
    1C        C  635   2.892   4.393   2.050
    1C        C  636   2.745   4.234   2.170
    1C        C  637   2.806   4.278   2.289
    1C        C  638   2.676   4.111   2.409
    1C        C  639   2.762   4.223   2.411
    1C        C  640   2.640   4.049   2.531
    1C        C  641   2.679   4.112   2.652
    1C        C  642   2.587   3.923   2.777
    1C        C  643   2.649   4.050   2.775
    1C        C  644   2.559   3.858   2.899
    1C        C  645   2.595   3.922   3.020
    1C        C  646   2.532   3.725   3.148
    1C        C  647   2.576   3.859   3.144
    1C        C  648   2.514   3.659   3.272
    1C        C  649   2.530   3.730   3.392
    1C        C  650   2.508   3.522   3.521
    1C        C  651   2.519   3.663   3.516
    1C        C  652   2.512   3.452   3.643
    1C        C  653   2.505   3.524   3.764
    1C        C  654   2.528   3.315   3.890
    1C        C  655   2.508   3.455   3.888
    1C        C  656   2.549   3.248   4.012
    1C        C  657   2.536   3.316   4.135
    1C        C  658   2.606   3.118   4.258
    1C        C  659   2.554   3.249   4.258
    1C        C  660   2.630   3.053   4.382
    1C        C  661   2.600   3.120   4.503
    1C        C  662   2.715   2.940   4.625
    1C        C  663   2.633   3.055   4.624
    1C        C  664   2.755   2.882   4.747
    1C        C  665   2.697   2.931   4.867
    1C        C  666   2.747   2.873   4.985
    1C        C  667   2.677   4.024   2.056
    1C        C  668   2.685   4.106   2.169
    1C        C  669   2.593   3.911   2.291
    1C        C  670   2.641   4.045   2.289
    1C        C  671   2.559   3.851   2.415
    1C        C  672   2.578   3.922   2.535
    1C        C  673   2.519   3.718   2.661
    1C        C  674   2.561   3.853   2.657
    1C        C  675   2.507   3.649   2.784
    1C        C  676   2.522   3.721   2.904
    1C        C  677   2.501   3.512   3.031
    1C        C  678   2.516   3.652   3.028
    1C        C  679   2.508   3.444   3.154
    1C        C  680   2.504   3.518   3.275
    1C        C  681   2.527   3.311   3.401
    1C        C  682   2.505   3.450   3.399
    1C        C  683   2.551   3.244   3.523
    1C        C  684   2.533   3.312   3.646
    1C        C  685   2.599   3.113   3.770
    1C        C  686   2.545   3.244   3.769
    1C        C  687   2.637   3.054   3.893
    1C        C  688   2.604   3.118   4.014
    1C        C  689   2.712   2.935   4.138
    1C        C  690   2.631   3.052   4.136
    1C        C  691   2.758   2.883   4.261
    1C        C  692   2.711   2.938   4.382
    1C        C  693   2.754   2.879   4.503
    1C        C  694   2.632   3.891   2.056
    1C        C  695   2.527   3.704   2.174
    1C        C  696   2.580   3.835   2.173
    1C        C  697   2.505   3.641   2.299
    1C        C  698   2.518   3.716   2.417
    1C        C  699   2.494   3.506   2.540
    1C        C  700   2.506   3.647   2.540
    1C        C  701   2.497   3.436   2.663
    1C        C  702   2.500   3.508   2.784
    1C        C  703   2.523   3.300   2.909
    1C        C  704   2.504   3.441   2.909
    1C        C  705   2.542   3.234   3.033
    1C        C  706   2.530   3.304   3.155
    1C        C  707   2.594   3.108   3.279
    1C        C  708   2.542   3.239   3.280
    1C        C  709   2.634   3.048   3.401
    1C        C  710   2.607   3.115   3.523
    1C        C  711   2.718   2.940   3.647
    1C        C  712   2.635   3.054   3.647
    1C        C  713   2.760   2.883   3.769
    1C        C  714   2.716   2.937   3.892
    1C        C  715   2.755   2.881   4.016
    1C        C  716   2.443   3.501   2.064
    1C        C  717   2.494   3.632   2.059
    1C        C  718   2.467   3.424   2.182
    1C        C  719   2.487   3.500   2.300
    1C        C  720   2.514   3.290   2.423
    1C        C  721   2.489   3.429   2.422
    1C        C  722   2.533   3.222   2.546
    1C        C  723   2.521   3.297   2.665
    1C        C  724   2.593   3.098   2.791
    1C        C  725   2.541   3.230   2.788
    1C        C  726   2.621   3.035   2.914
    1C        C  727   2.589   3.101   3.035
    1C        C  728   2.711   2.928   3.162
    1C        C  729   2.627   3.042   3.158
    1C        C  730   2.759   2.878   3.285
    1C        C  731   2.712   2.931   3.407
    1C        C  732   2.756   2.873   3.528
    1C        C  733   2.486   3.196   2.072
    1C        C  734   2.495   3.283   2.181
    1C        C  735   2.581   3.086   2.304
    1C        C  736   2.526   3.217   2.303
    1C        C  737   2.616   3.024   2.426
    1C        C  738   2.594   3.095   2.547
    1C        C  739   2.706   2.917   2.670
    1C        C  740   2.626   3.033   2.670
    1C        C  741   2.748   2.863   2.793
    1C        C  742   2.703   2.920   2.914
    1C        C  743   2.755   2.877   3.038
    1C        C  744   2.546   3.071   2.073
    1C        C  745   2.686   2.897   2.183
    1C        C  746   2.608   3.015   2.185
    1C        C  747   2.731   2.841   2.305
    1C        C  748   2.687   2.902   2.424
    1C        C  749   2.741   2.858   2.547
    1C        C  750   2.736   2.836   2.067
    1C        C  751   3.662   2.306   1.991
    1C        O  752   3.702   2.196   2.038
    1C        O  753   3.657   2.304   1.851
    1C        C  754   4.609   3.046   1.968
    1C        O  755   4.585   3.082   1.849
    1C        O  756   4.717   2.960   1.992
    1C        C  757   4.418   4.207   1.937
    1C        O  758   4.512   4.290   1.938
    1C        O  759   4.358   4.194   1.812
    1C        C  760   3.587   4.658   1.934
    1C        O  761   3.635   4.773   1.957
    1C        O  762   3.584   4.620   1.799
    1C        C  763   2.864   4.511   1.964
    1C        O  764   2.903   4.502   1.845
    1C        O  765   2.745   4.584   1.972
    1C        C  766   2.333   3.474   1.969
    1C        O  767   2.363   3.497   1.848
    1C        O  768   2.196   3.490   1.995
    1C        C  769   4.701   3.589   5.046
    1C        O  770   4.692   3.566   5.170
    1C        O  771   4.833   3.633   5.032
    1C        C  772   4.277   4.441   5.043
    1C        O  773   4.267   4.401   5.162
    1C        O  774   4.374   4.539   5.018
    1C        C  775   4.135   2.541   5.087
    1C        O  776   4.204   2.436   5.078
    1C        O  777   4.098   2.550   5.222
    1C        C  778   2.859   4.550   5.036
    1C        O  779   2.787   4.635   4.977
    1C        O  780   2.931   4.589   5.150
    1C        C  781   2.466   3.028   5.057
    1C        O  782   2.359   2.985   5.005
    1C        O  783   2.457   3.051   5.194
    1C        C  784   2.418   3.980   5.054
    1C        O  785   2.302   4.023   5.031
    1C        O  786   2.450   3.959   5.189
    1C        C  787   2.945   2.426   2.010
    1C        O  788   2.910   2.434   1.889
    1C        O  789   2.905   2.300   2.052
    1C        C  790   3.199   2.405   5.099
    1C        O  791   3.167   2.284   5.112
    1C        O  792   3.221   2.469   5.222
    1C        H  793   4.260   3.031   5.057
    1C        H  794   4.147   2.829   5.057
    1C        H  795   4.521   3.122   5.054
    1C        H  796   4.548   3.365   5.065
    1C        H  797   4.568   3.814   5.045
    1C        H  798   4.405   3.957   5.049
    1C        H  799   4.296   4.176   5.053
    1C        H  800   4.015   4.503   5.042
    1C        H  801   3.805   4.556   5.045
    1C        H  802   3.602   4.667   5.026
    1C        H  803   3.402   4.493   5.045
    1C        H  804   3.165   4.456   5.053
    1C        H  805   3.919   2.437   5.038
    1C        H  806   3.677   2.460   5.075
    1C        H  807   2.995   2.545   5.058
    1C        H  808   3.447   2.473   5.081
    1C        H  809   2.853   2.717   5.077
    1C        H  810   2.718   2.916   5.078
    1C        H  811   2.476   3.282   5.071
    1C        H  812   2.543   3.505   5.076
    1C        H  813   2.549   3.736   5.066
    1C        H  814   2.550   4.198   5.016
    1C        H  815   2.796   4.283   5.057
    1C        H  816   2.692   2.866   1.974
    1C        H  817   2.895   2.735   1.981
    1C        H  818   3.217   2.467   1.980
    1C        H  819   3.438   2.459   1.977
    1C        H  820   3.858   2.509   1.971
    1C        H  821   4.038   2.666   1.977
    1C        H  822   4.298   2.694   2.005
    1C        H  823   4.330   2.948   1.975
    1C        H  824   4.632   3.305   1.995
    1C        H  825   4.456   3.521   1.971
    1C        H  826   4.550   3.754   1.972
    1C        H  827   3.814   4.555   1.968
    1C        H  828   3.946   4.342   1.950
    1C        H  829   4.135   4.213   1.960
    1C        H  830   4.536   4.001   1.997
    1C        H  831   2.657   3.833   1.969
    1C        H  832   2.676   4.076   1.963
    1C        H  833   2.705   4.321   1.984
    1C        H  834   3.377   4.441   1.958
    1C        H  835   3.159   4.376   1.964
    1C        H  836   2.508   2.999   2.004
    1C        H  837   2.422   3.220   1.989
    1C        H  838   2.538   3.658   1.966
    2V3OU   H29  839   2.808   3.550   4.664
    2V3OU   C27  840   2.794   3.505   4.765
    2V3OU   H27  841   2.740   3.579   4.829
    2V3OU   H28  842   2.739   3.408   4.753
    2V3OU   O11  843   2.915   3.473   4.834
    2V3OU   C15  844   2.919   3.397   4.949
    2V3OU   C13  845   3.049   3.379   5.002
    2V3OU   C14  846   3.078   3.274   5.089
    2V3OU   C16  847   2.977   3.188   5.131
    2V3OU    H6  848   2.996   3.101   5.194
    2V3OU   C12  849   3.214   3.224   5.118
    2V3OU    O2  850   3.245   3.120   5.181
    2V3OU   C10  851   3.327   3.308   5.076
    2V3OU    C8  852   3.460   3.269   5.091
    2V3OU   O10  853   3.487   3.159   5.166
    2V3OU   H26  854   3.402   3.114   5.172
    2V3OU    C6  855   3.566   3.349   5.039
    2V3OU    C5  856   3.540   3.468   4.973
    2V3OU    C4  857   3.707   3.300   5.039
    2V3OU    H4  858   3.723   3.236   5.131
    2V3OU    H5  859   3.713   3.226   4.954
    2V3OU    C2  860   3.821   3.401   5.028
    2V3OU    O6  861   3.813   3.480   5.148
    2V3OU   H21  862   3.762   3.553   5.110
    2V3OU    C3  863   3.782   3.496   4.914
    2V3OU    H2  864   3.864   3.572   4.907
    2V3OU    H3  865   3.783   3.433   4.821
    2V3OU   C25  866   3.957   3.334   5.009
    2V3OU    O7  867   3.998   3.290   4.902
    2V3OU   C26  868   4.028   3.293   5.137
    2V3OU   H22  869   4.076   3.378   5.192
    2V3OU   H23  870   4.111   3.223   5.109
    2V3OU    O8  871   3.966   3.213   5.236
    2V3OU   H24  872   3.919   3.270   5.299
    2V3OU    C1  873   3.648   3.565   4.933
    2V3OU    H1  874   3.626   3.621   4.837
    2V3OU    O3  875   3.660   3.654   5.044
    2V3OU   C19  876   3.619   3.790   5.029
    2V3OU    H9  877   3.519   3.803   4.977
    2V3OU    O4  878   3.712   3.848   4.940
    2V3OU   C20  879   3.846   3.874   4.983
    2V3OU   H10  880   3.900   3.775   4.997
    2V3OU   C24  881   3.614   3.855   5.168
    2V3OU   H16  882   3.552   3.791   5.236
    2V3OU   H17  883   3.559   3.953   5.159
    2V3OU   C23  884   3.756   3.875   5.221
    2V3OU   H15  885   3.796   3.772   5.246
    2V3OU    N1  886   3.736   3.957   5.339
    2V3OU   H19  887   3.807   3.932   5.404
    2V3OU   H20  888   3.651   3.916   5.373
    2V3OU   C21  889   3.846   3.948   5.116
    2V3OU   H11  890   3.948   3.927   5.161
    2V3OU    O5  891   3.827   4.088   5.101
    2V3OU   H18  892   3.776   4.112   5.180
    2V3OU   C22  893   3.915   3.950   4.871
    2V3OU   H12  894   3.862   4.047   4.852
    2V3OU   H13  895   3.910   3.888   4.777
    2V3OU   H14  896   4.025   3.959   4.888
    2V3OU   C11  897   3.160   3.472   4.975
    2V3OU    O1  898   3.136   3.587   4.930
    2V3OU    C9  899   3.297   3.428   5.007
    2V3OU    C7  900   3.403   3.506   4.960
    2V3OU    O9  901   3.385   3.621   4.887
    2V3OU   H25  902   3.290   3.630   4.867
    2V3OU   C17  903   2.819   3.315   5.006
    2V3OU    H7  904   2.724   3.360   5.035
    2V3OU   C18  905   2.845   3.209   5.092
    2V3OU    H8  906   2.760   3.151   5.133
    3SOL     OW  907   3.352   4.151   4.979
    3SOL    HW1  908   3.327   4.188   5.068
    3SOL    HW2  909   3.273   4.106   4.937
    4SOL     OW  910   7.019   0.312   0.369
    4SOL    HW1  911   6.965   0.282   0.290
    4SOL    HW2  912   6.977   0.277   0.453
    5SOL     OW  913   4.231   1.168   1.399
    5SOL    HW1  914   4.176   1.098   1.444
    5SOL    HW2  915   4.219   1.255   1.445
    6SOL     OW  916   5.805   1.000   3.382
    6SOL    HW1  917   5.780   0.906   3.357
    6SOL    HW2  918   5.864   0.999   3.462
    7SOL     OW  919   0.999   4.259   5.078
    7SOL    HW1  920   0.932   4.333   5.088
    7SOL    HW2  921   1.088   4.298   5.054
    8SOL     OW  922   2.248   2.531   5.568
    8SOL    HW1  923   2.192   2.452   5.594
    8SOL    HW2  924   2.204   2.579   5.492
    9SOL     OW  925   6.287   1.435   6.266
    9SOL    HW1  926   6.384   1.455   6.256
    9SOL    HW2  927   6.236   1.520   6.278
   10SOL     OW  928   4.884   4.583   2.459
   10SOL    HW1  929   4.857   4.579   2.363
   10SOL    HW2  930   4.907   4.678   2.482
   11SOL     OW  931   2.331   1.425   0.047
   11SOL    HW1  932   2.427   1.406   0.026
   11SOL    HW2  933   2.290   1.477   6.998
   12SOL     OW  934   2.632   4.802   3.187
   12SOL    HW1  935   2.567   4.877   3.199
   12SOL    HW2  936   2.672   4.779   3.276
   13SOL     OW  937   4.735   6.023   2.454
   13SOL    HW1  938   4.679   6.036   2.372
   13SOL    HW2  939   4.732   5.928   2.482
   14SOL     OW  940   4.823   4.790   5.287
   14SOL    HW1  941   4.732   4.828   5.272
   14SOL    HW2  942   4.822   4.692   5.268
   15SOL     OW  943   0.537   5.748   5.544
   15SOL    HW1  944   0.497   5.799   5.619
   15SOL    HW2  945   0.593   5.673   5.580
   16SOL     OW  946   6.570   2.775   5.705
   16SOL    HW1  947   6.487   2.720   5.713
   16SOL    HW2  948   6.591   2.819   5.792
   17SOL     OW  949   6.264   0.372   6.068
   17SOL    HW1  950   6.191   0.407   6.009
   17SOL    HW2  951   6.258   0.272   6.070
   18SOL     OW  952   2.971   0.095   5.127
   18SOL    HW1  953   3.055   0.146   5.107
   18SOL    HW2  954   2.898   0.124   5.066
   19SOL     OW  955   0.584   1.419   2.979
   19SOL    HW1  956   0.627   1.469   3.055
   19SOL    HW2  957   0.641   1.340   2.957
   20SOL     OW  958   5.695   2.921   5.451
   20SOL    HW1  959   5.743   2.862   5.515
   20SOL    HW2  960   5.701   2.884   5.358
   21SOL     OW  961   3.700   6.709   2.924
   21SOL    HW1  962   3.644   6.628   2.905
   21SOL    HW2  963   3.768   6.720   2.851
   22SOL     OW  964   2.373   6.379   5.145
   22SOL    HW1  965   2.331   6.429   5.069
   22SOL    HW2  966   2.463   6.418   5.164
   23SOL     OW  967   5.542   4.250   1.905
   23SOL    HW1  968   5.553   4.209   1.996
   23SOL    HW2  969   5.456   4.220   1.866
   24SOL     OW  970   4.034   0.553   1.673
   24SOL    HW1  971   4.047   0.608   1.756
   24SOL    HW2  972   4.123   0.523   1.639
   25SOL     OW  973   2.760   6.814   3.386
   25SOL    HW1  974   2.815   6.835   3.467
   25SOL    HW2  975   2.804   6.854   3.305
   26SOL     OW  976   1.317   2.097   6.817
   26SOL    HW1  977   1.263   2.175   6.787
   26SOL    HW2  978   1.322   2.095   6.917
   27SOL     OW  979   6.256   1.187   2.448
   27SOL    HW1  980   6.336   1.210   2.393
   27SOL    HW2  981   6.271   1.216   2.543
   28SOL     OW  982   1.903   0.730   4.738
   28SOL    HW1  983   1.971   0.791   4.778
   28SOL    HW2  984   1.935   0.698   4.648
   29SOL     OW  985   0.024   0.798   0.440
   29SOL    HW1  986   7.023   0.850   0.359
   29SOL    HW2  987   6.969   0.754   0.479
   30SOL     OW  988   4.284   0.753   4.780
   30SOL    HW1  989   4.288   0.844   4.823
   30SOL    HW2  990   4.200   0.746   4.726
   31SOL     OW  991   0.619   2.724   5.258
   31SOL    HW1  992   0.577   2.635   5.239
   31SOL    HW2  993   0.624   2.777   5.173
   32SOL     OW  994   1.522   0.841   1.071
   32SOL    HW1  995   1.511   0.872   1.165
   32SOL    HW2  996   1.519   0.741   1.069
   33SOL     OW  997   0.226   4.037   6.736
   33SOL    HW1  998   0.182   4.055   6.648
   33SOL    HW2  999   0.231   3.938   6.750
   34SOL     OW 1000   1.829   5.775   5.006
   34SOL    HW1 1001   1.924   5.744   5.000
   34SOL    HW2 1002   1.800   5.775   5.102
   35SOL     OW 1003   3.717   3.187   6.923
   35SOL    HW1 1004   3.696   3.113   6.859
   35SOL    HW2 1005   3.633   3.235   6.948
   36SOL     OW 1006   4.783   0.665   3.949
   36SOL    HW1 1007   4.843   0.595   3.986
   36SOL    HW2 1008   4.835   0.750   3.938
   37SOL     OW 1009   2.126   1.266   3.565
   37SOL    HW1 1010   2.099   1.195   3.631
   37SOL    HW2 1011   2.181   1.335   3.611
   38SOL     OW 1012   1.374   5.522   2.348
   38SOL    HW1 1013   1.463   5.487   2.378
   38SOL    HW2 1014   1.351   5.483   2.259
   39SOL     OW 1015   5.674   5.006   6.551
   39SOL    HW1 1016   5.769   4.979   6.538
   39SOL    HW2 1017   5.615   4.925   6.542
   40SOL     OW 1018   3.165   0.641   6.251
   40SOL    HW1 1019   3.145   0.618   6.156
   40SOL    HW2 1020   3.257   0.680   6.257
   41SOL     OW 1021   5.759   4.161   2.130
   41SOL    HW1 1022   5.765   4.124   2.037
   41SOL    HW2 1023   5.746   4.260   2.125
   42SOL     OW 1024   2.765   5.828   5.067
   42SOL    HW1 1025   2.845   5.772   5.046
   42SOL    HW2 1026   2.757   5.838   5.166
   43SOL     OW 1027   5.081   6.978   5.197
   43SOL    HW1 1028   5.098   6.928   5.283
   43SOL    HW2 1029   5.145   6.946   5.127
   44SOL     OW 1030   5.448   2.929   5.095
   44SOL    HW1 1031   5.436   2.837   5.057
   44SOL    HW2 1032   5.391   2.940   5.176
   45SOL     OW 1033   4.172   5.239   0.455
   45SOL    HW1 1034   4.102   5.293   0.407
   45SOL    HW2 1035   4.154   5.142   0.441
   46SOL     OW 1036   0.459   2.982   4.411
   46SOL    HW1 1037   0.496   2.895   4.379
   46SOL    HW2 1038   0.413   2.969   4.499
   47SOL     OW 1039   5.454   3.405   1.796
   47SOL    HW1 1040   5.483   3.316   1.762
   47SOL    HW2 1041   5.424   3.397   1.891
   48SOL     OW 1042   6.776   3.638   6.742
   48SOL    HW1 1043   6.726   3.658   6.658
   48SOL    HW2 1044   6.762   3.712   6.808
   49SOL     OW 1045   5.083   3.283   0.232
   49SOL    HW1 1046   5.089   3.242   0.323
   49SOL    HW2 1047   5.025   3.364   0.236
   50SOL     OW 1048   6.348   2.054   6.548
   50SOL    HW1 1049   6.442   2.049   6.581
   50SOL    HW2 1050   6.342   2.121   6.474
   51SOL     OW 1051   1.729   4.573   3.597
   51SOL    HW1 1052   1.645   4.620   3.569
   51SOL    HW2 1053   1.721   4.476   3.574
   52SOL     OW 1054   5.506   2.960   1.545
   52SOL    HW1 1055   5.441   3.016   1.492
   52SOL    HW2 1056   5.462   2.874   1.571
   53SOL     OW 1057   4.612   0.691   3.315
   53SOL    HW1 1058   4.582   0.785   3.335
   53SOL    HW2 1059   4.533   0.637   3.284
   54SOL     OW 1060   5.574   6.278   0.254
   54SOL    HW1 1061   5.619   6.200   0.208
   54SOL    HW2 1062   5.644   6.342   0.286
   55SOL     OW 1063   2.101   2.596   6.246
   55SOL    HW1 1064   2.084   2.666   6.177
   55SOL    HW2 1065   2.099   2.638   6.337
   56SOL     OW 1066   1.674   2.121   0.061
   56SOL    HW1 1067   1.750   2.121   7.020
   56SOL    HW2 1068   1.711   2.104   0.152
   57SOL     OW 1069   3.744   0.778   0.402
   57SOL    HW1 1070   3.719   0.871   0.426
   57SOL    HW2 1071   3.737   0.766   0.303
   58SOL     OW 1072   1.126   0.670   6.079
   58SOL    HW1 1073   1.197   0.724   6.125
   58SOL    HW2 1074   1.159   0.577   6.065
   59SOL     OW 1075   6.173   3.584   6.365
   59SOL    HW1 1076   6.230   3.615   6.288
   59SOL    HW2 1077   6.174   3.484   6.369
   60SOL     OW 1078   5.380   0.601   3.124
   60SOL    HW1 1079   5.480   0.598   3.125
   60SOL    HW2 1080   5.350   0.691   3.094
   61SOL     OW 1081   0.316   1.116   4.946
   61SOL    HW1 1082   0.260   1.163   4.878
   61SOL    HW2 1083   0.285   1.141   5.038
   62SOL     OW 1084   0.193   1.701   2.286
   62SOL    HW1 1085   0.143   1.786   2.271
   62SOL    HW2 1086   0.255   1.685   2.209
   63SOL     OW 1087   4.052   6.535   4.069
   63SOL    HW1 1088   4.032   6.515   3.973
   63SOL    HW2 1089   4.098   6.623   4.076
   64SOL     OW 1090   1.539   4.097   6.772
   64SOL    HW1 1091   1.563   4.024   6.708
   64SOL    HW2 1092   1.602   4.094   6.850
   65SOL     OW 1093   0.530   0.476   5.300
   65SOL    HW1 1094   0.513   0.567   5.263
   65SOL    HW2 1095   0.507   0.474   5.397
   66SOL     OW 1096   3.872   6.835   1.890
   66SOL    HW1 1097   3.926   6.800   1.813
   66SOL    HW2 1098   3.878   6.934   1.893
   67SOL     OW 1099   0.477   2.140   0.870
   67SOL    HW1 1100   0.525   2.179   0.949
   67SOL    HW2 1101   0.467   2.042   0.882
   68SOL     OW 1102   6.983   2.478   5.616
   68SOL    HW1 1103   6.994   2.458   5.713
   68SOL    HW2 1104   6.986   2.577   5.601
   69SOL     OW 1105   0.803   5.453   5.895
   69SOL    HW1 1106   0.855   5.451   5.981
   69SOL    HW2 1107   0.860   5.419   5.821
   70SOL     OW 1108   5.282   3.796   4.729
   70SOL    HW1 1109   5.282   3.806   4.829
   70SOL    HW2 1110   5.350   3.858   4.689
   71SOL     OW 1111   4.563   2.046   4.763
   71SOL    HW1 1112   4.464   2.045   4.748
   71SOL    HW2 1113   4.607   2.103   4.694
   72SOL     OW 1114   6.824   0.043   3.921
   72SOL    HW1 1115   6.893   0.115   3.911
   72SOL    HW2 1116   6.818   0.014   4.016
   73SOL     OW 1117   2.888   0.586   0.954
   73SOL    HW1 1118   2.957   0.592   0.881
   73SOL    HW2 1119   2.934   0.576   1.042
   74SOL     OW 1120   2.051   1.505   6.568
   74SOL    HW1 1121   2.111   1.440   6.522
   74SOL    HW2 1122   2.058   1.492   6.667
   75SOL     OW 1123   4.288   1.326   0.974
   75SOL    HW1 1124   4.251   1.254   1.033
   75SOL    HW2 1125   4.373   1.360   1.013
   76SOL     OW 1126   3.032   4.343   5.278
   76SOL    HW1 1127   2.957   4.342   5.344
   76SOL    HW2 1128   3.017   4.417   5.212
   77SOL     OW 1129   1.846   5.316   4.582
   77SOL    HW1 1130   1.914   5.299   4.653
   77SOL    HW2 1131   1.892   5.347   4.499
   78SOL     OW 1132   4.493   1.399   1.127
   78SOL    HW1 1133   4.462   1.473   1.186
   78SOL    HW2 1134   4.513   1.318   1.182
   79SOL     OW 1135   2.239   4.940   1.835
   79SOL    HW1 1136   2.323   4.992   1.826
   79SOL    HW2 1137   2.172   4.974   1.769
   80SOL     OW 1138   4.888   2.103   5.347
   80SOL    HW1 1139   4.887   2.077   5.250
   80SOL    HW2 1140   4.887   2.203   5.354
   81SOL     OW 1141   2.484   6.296   1.086
   81SOL    HW1 1142   2.418   6.233   1.129
   81SOL    HW2 1143   2.576   6.258   1.095
   82SOL     OW 1144   1.112   5.940   1.812
   82SOL    HW1 1145   1.110   5.865   1.878
   82SOL    HW2 1146   1.047   5.921   1.738
   83SOL     OW 1147   5.860   2.257   5.799
   83SOL    HW1 1148   5.886   2.181   5.858
   83SOL    HW2 1149   5.761   2.272   5.805
   84SOL     OW 1150   6.285   3.282   3.492
   84SOL    HW1 1151   6.327   3.194   3.513
   84SOL    HW2 1152   6.356   3.347   3.463
   85SOL     OW 1153   2.014   7.007   4.085
   85SOL    HW1 1154   1.986   6.914   4.063
   85SOL    HW2 1155   2.105   7.006   4.125
   86SOL     OW 1156   5.791   1.779   6.133
   86SOL    HW1 1157   5.816   1.760   6.038
   86SOL    HW2 1158   5.747   1.869   6.138
   87SOL     OW 1159   4.354   4.278   6.433
   87SOL    HW1 1160   4.355   4.193   6.380
   87SOL    HW2 1161   4.323   4.259   6.525
   88SOL     OW 1162   2.820   3.026   6.096
   88SOL    HW1 1163   2.805   2.932   6.127
   88SOL    HW2 1164   2.805   3.032   5.997
   89SOL     OW 1165   2.895   3.407   2.970
   89SOL    HW1 1166   2.840   3.490   2.973
   89SOL    HW2 1167   2.924   3.390   2.875
   90SOL     OW 1168   4.884   3.473   2.870
   90SOL    HW1 1169   4.863   3.508   2.962
   90SOL    HW2 1170   4.846   3.536   2.802
   91SOL     OW 1171   5.614   5.462   5.771
   91SOL    HW1 1172   5.545   5.462   5.699
   91SOL    HW2 1173   5.656   5.371   5.777
   92SOL     OW 1174   5.373   4.806   6.960
   92SOL    HW1 1175   5.402   4.722   6.914
   92SOL    HW2 1176   5.370   4.791   0.033
   93SOL     OW 1177   2.791   2.973   1.050
   93SOL    HW1 1178   2.858   2.922   1.104
   93SOL    HW2 1179   2.834   3.006   0.966
   94SOL     OW 1180   3.131   0.583   5.580
   94SOL    HW1 1181   3.168   0.502   5.626
   94SOL    HW2 1182   3.133   0.661   5.643
   95SOL     OW 1183   0.091   0.488   4.408
   95SOL    HW1 1184   7.018   0.494   4.424
   95SOL    HW2 1185   0.111   0.407   4.353
   96SOL     OW 1186   4.856   4.906   6.433
   96SOL    HW1 1187   4.767   4.950   6.445
   96SOL    HW2 1188   4.928   4.963   6.471
   97SOL     OW 1189   2.067   5.173   5.533
   97SOL    HW1 1190   1.983   5.212   5.572
   97SOL    HW2 1191   2.145   5.228   5.561
   98SOL     OW 1192   0.967   3.039   2.388
   98SOL    HW1 1193   1.046   2.980   2.375
   98SOL    HW2 1194   0.977   3.121   2.331
   99SOL     OW 1195   3.861   2.937   3.710
   99SOL    HW1 1196   3.832   3.003   3.779
   99SOL    HW2 1197   3.959   2.921   3.717
  100SOL     OW 1198   6.960   6.616   3.970
  100SOL    HW1 1199   6.994   6.618   3.875
  100SOL    HW2 1200   6.986   6.530   4.012
  101SOL     OW 1201   1.010   4.134   2.934
  101SOL    HW1 1202   0.920   4.146   2.892
  101SOL    HW2 1203   1.071   4.086   2.871
  102SOL     OW 1204   2.695   6.282   1.604
  102SOL    HW1 1205   2.749   6.317   1.528
  102SOL    HW2 1206   2.598   6.284   1.579
  103SOL     OW 1207   2.018   1.256   2.202
  103SOL    HW1 1208   1.992   1.246   2.298
  103SOL    HW2 1209   2.032   1.353   2.182
  104SOL     OW 1210   1.413   4.570   1.769
  104SOL    HW1 1211   1.456   4.659   1.753
  104SOL    HW2 1212   1.439   4.507   1.696
  105SOL     OW 1213   4.938   1.884   6.440
  105SOL    HW1 1214   4.958   1.975   6.476
  105SOL    HW2 1215   4.948   1.884   6.341
  106SOL     OW 1216   5.385   5.296   2.271
  106SOL    HW1 1217   5.421   5.290   2.178
  106SOL    HW2 1218   5.446   5.246   2.334
  107SOL     OW 1219   6.259   1.684   0.320
  107SOL    HW1 1220   6.252   1.586   0.303
  107SOL    HW2 1221   6.167   1.723   0.331
  108SOL     OW 1222   1.788   0.590   5.115
  108SOL    HW1 1223   1.848   0.603   5.193
  108SOL    HW2 1224   1.770   0.493   5.102
  109SOL     OW 1225   3.528   1.119   3.390
  109SOL    HW1 1226   3.574   1.208   3.395
  109SOL    HW2 1227   3.496   1.093   3.481
  110SOL     OW 1228   2.736   4.682   5.755
  110SOL    HW1 1229   2.647   4.694   5.712
  110SOL    HW2 1230   2.774   4.772   5.778
  111SOL     OW 1231   5.795   1.622   2.586
  111SOL    HW1 1232   5.724   1.559   2.617
  111SOL    HW2 1233   5.801   1.619   2.486
  112SOL     OW 1234   4.043   0.039   6.586
  112SOL    HW1 1235   4.058   7.006   6.506
  112SOL    HW2 1236   3.988   0.118   6.560
  113SOL     OW 1237   6.464   5.860   2.698
  113SOL    HW1 1238   6.511   5.831   2.615
  113SOL    HW2 1239   6.503   5.812   2.777
  114SOL     OW 1240   1.385   4.302   4.157
  114SOL    HW1 1241   1.348   4.210   4.174
  114SOL    HW2 1242   1.421   4.305   4.063
  115SOL     OW 1243   6.142   0.945   3.439
  115SOL    HW1 1244   6.205   1.008   3.485
  115SOL    HW2 1245   6.069   0.920   3.503
  116SOL     OW 1246   1.212   5.637   1.118
  116SOL    HW1 1247   1.236   5.665   1.025
  116SOL    HW2 1248   1.155   5.707   1.161
  117SOL     OW 1249   2.335   1.982   6.849
  117SOL    HW1 1250   2.248   2.032   6.851
  117SOL    HW2 1251   2.351   1.940   6.938
  118SOL     OW 1252   1.217   1.743   4.048
  118SOL    HW1 1253   1.246   1.820   3.992
  118SOL    HW2 1254   1.117   1.741   4.054
  119SOL     OW 1255   0.180   6.976   6.438
  119SOL    HW1 1256   0.232   0.019   6.387
  119SOL    HW2 1257   0.139   7.019   6.518
  120SOL     OW 1258   4.394   1.273   4.933
  120SOL    HW1 1259   4.347   1.272   4.844
  120SOL    HW2 1260   4.363   1.351   4.986
  121SOL     OW 1261   1.155   3.243   6.406
  121SOL    HW1 1262   1.058   3.268   6.400
  121SOL    HW2 1263   1.167   3.149   6.375
  122SOL     OW 1264   0.803   4.243   6.746
  122SOL    HW1 1265   0.872   4.177   6.713
  122SOL    HW2 1266   0.830   4.335   6.719
  123SOL     OW 1267   0.961   1.254   1.503
  123SOL    HW1 1268   0.923   1.287   1.417
  123SOL    HW2 1269   0.964   1.154   1.502
  124SOL     OW 1270   3.065   2.236   0.804
  124SOL    HW1 1271   2.972   2.206   0.823
  124SOL    HW2 1272   3.125   2.156   0.797
  125SOL     OW 1273   3.393   2.692   6.887
  125SOL    HW1 1274   3.340   2.677   6.804
  125SOL    HW2 1275   3.474   2.633   6.886
  126SOL     OW 1276   4.082   3.351   3.997
  126SOL    HW1 1277   4.092   3.340   3.898
  126SOL    HW2 1278   4.040   3.269   4.036
  127SOL     OW 1279   0.417   5.901   6.130
  127SOL    HW1 1280   0.480   5.937   6.199
  127SOL    HW2 1281   0.468   5.875   6.049
  128SOL     OW 1282   4.439   3.884   1.264
  128SOL    HW1 1283   4.479   3.972   1.241
  128SOL    HW2 1284   4.375   3.894   1.341
  129SOL     OW 1285   2.101   6.204   1.142
  129SOL    HW1 1286   2.121   6.157   1.056
  129SOL    HW2 1287   2.048   6.286   1.124
  130SOL     OW 1288   5.388   2.421   4.353
  130SOL    HW1 1289   5.336   2.352   4.404
  130SOL    HW2 1290   5.361   2.418   4.257
  131SOL     OW 1291   0.377   2.271   3.745
  131SOL    HW1 1292   0.452   2.329   3.777
  131SOL    HW2 1293   0.414   2.192   3.696
  132SOL     OW 1294   3.577   4.190   1.985
  132SOL    HW1 1295   3.515   4.237   2.047
  132SOL    HW2 1296   3.525   4.128   1.926
  133SOL     OW 1297   5.198   6.943   4.944
  133SOL    HW1 1298   5.174   6.850   4.919
  133SOL    HW2 1299   5.154   7.007   4.881
  134SOL     OW 1300   5.666   1.339   2.113
  134SOL    HW1 1301   5.756   1.297   2.103
  134SOL    HW2 1302   5.662   1.389   2.199
  135SOL     OW 1303   4.948   3.505   4.328
  135SOL    HW1 1304   4.936   3.571   4.402
  135SOL    HW2 1305   4.951   3.553   4.240
  136SOL     OW 1306   2.649   6.710   4.943
  136SOL    HW1 1307   2.633   6.785   5.007
  136SOL    HW2 1308   2.561   6.677   4.908
  137SOL     OW 1309   3.277   2.105   4.956
  137SOL    HW1 1310   3.235   2.179   5.009
  137SOL    HW2 1311   3.224   2.090   4.872
  138SOL     OW 1312   0.647   5.269   4.854
  138SOL    HW1 1313   0.574   5.209   4.821
  138SOL    HW2 1314   0.609   5.332   4.922
  139SOL     OW 1315   1.854   5.986   6.372
  139SOL    HW1 1316   1.905   6.014   6.454
  139SOL    HW2 1317   1.869   6.054   6.299
  140SOL     OW 1318   2.269   1.184   3.079
  140SOL    HW1 1319   2.326   1.217   3.154
  140SOL    HW2 1320   2.287   1.239   2.997
  141SOL     OW 1321   6.779   4.051   0.512
  141SOL    HW1 1322   6.680   4.068   0.514
  141SOL    HW2 1323   6.805   4.020   0.421
  142SOL     OW 1324   1.333   4.238   1.705
  142SOL    HW1 1325   1.296   4.185   1.629
  142SOL    HW2 1326   1.266   4.306   1.733
  143SOL     OW 1327   5.382   6.919   1.902
  143SOL    HW1 1328   5.460   6.887   1.848
  143SOL    HW2 1329   5.405   6.915   1.999
  144SOL     OW 1330   2.983   4.814   3.249
  144SOL    HW1 1331   2.914   4.776   3.311
  144SOL    HW2 1332   3.031   4.889   3.294
  145SOL     OW 1333   6.686   4.643   2.469
  145SOL    HW1 1334   6.773   4.690   2.485
  145SOL    HW2 1335   6.679   4.617   2.372
  146SOL     OW 1336   6.057   1.912   6.150
  146SOL    HW1 1337   6.133   1.876   6.095
  146SOL    HW2 1338   5.971   1.871   6.119
  147SOL     OW 1339   5.142   1.409   5.944
  147SOL    HW1 1340   5.056   1.436   5.987
  147SOL    HW2 1341   5.149   1.310   5.942
  148SOL     OW 1342   1.265   4.689   1.354
  148SOL    HW1 1343   1.188   4.634   1.386
  148SOL    HW2 1344   1.248   4.718   1.260
  149SOL     OW 1345   2.555   2.192   5.444
  149SOL    HW1 1346   2.642   2.241   5.453
  149SOL    HW2 1347   2.503   2.230   5.367
  150SOL     OW 1348   4.545   1.126   5.352
  150SOL    HW1 1349   4.504   1.200   5.299
  150SOL    HW2 1350   4.641   1.148   5.370
  151SOL     OW 1351   4.059   1.734   1.005
  151SOL    HW1 1352   4.120   1.771   1.075
  151SOL    HW2 1353   4.114   1.690   0.934
  152SOL     OW 1354   1.107   1.020   6.988
  152SOL    HW1 1355   1.146   1.107   6.959
  152SOL    HW2 1356   1.008   1.030   6.998
  153SOL     OW 1357   2.790   1.241   3.827
  153SOL    HW1 1358   2.815   1.247   3.924
  153SOL    HW2 1359   2.795   1.332   3.786
  154SOL     OW 1360   6.278   2.007   1.615
  154SOL    HW1 1361   6.344   2.040   1.548
  154SOL    HW2 1362   6.318   1.930   1.665
  155SOL     OW 1363   0.301   6.999   1.779
  155SOL    HW1 1364   0.323   0.039   1.851
  155SOL    HW2 1365   0.240   0.018   1.712
  156SOL     OW 1366   4.625   1.094   0.386
  156SOL    HW1 1367   4.693   1.158   0.421
  156SOL    HW2 1368   4.587   1.040   0.462
  157SOL     OW 1369   5.107   4.305   1.019
  157SOL    HW1 1370   5.160   4.258   0.949
  157SOL    HW2 1371   5.074   4.392   0.983
  158SOL     OW 1372   0.971   2.897   2.730
  158SOL    HW1 1373   0.908   2.846   2.789
  158SOL    HW2 1374   0.925   2.978   2.694
  159SOL     OW 1375   5.333   5.434   0.114
  159SOL    HW1 1376   5.378   5.459   0.200
  159SOL    HW2 1377   5.326   5.335   0.108
  160SOL     OW 1378   6.048   6.970   0.686
  160SOL    HW1 1379   6.020   0.020   0.627
  160SOL    HW2 1380   6.098   6.902   0.632
  161SOL     OW 1381   0.848   0.121   0.509
  161SOL    HW1 1382   0.936   0.141   0.466
  161SOL    HW2 1383   0.813   0.034   0.475
  162SOL     OW 1384   2.528   6.277   0.062
  162SOL    HW1 1385   2.594   6.342   0.023
  162SOL    HW2 1386   2.516   6.296   0.159
  163SOL     OW 1387   6.995   4.064   3.669
  163SOL    HW1 1388   6.936   4.013   3.606
  163SOL    HW2 1389   0.047   4.007   3.694
  164SOL     OW 1390   1.771   1.826   2.827
  164SOL    HW1 1391   1.798   1.910   2.780
  164SOL    HW2 1392   1.816   1.821   2.916
  165SOL     OW 1393   1.047   5.726   2.395
  165SOL    HW1 1394   1.032   5.691   2.302
  165SOL    HW2 1395   1.054   5.649   2.459
  166SOL     OW 1396   6.368   3.900   2.549
  166SOL    HW1 1397   6.312   3.914   2.468
  166SOL    HW2 1398   6.445   3.840   2.526
  167SOL     OW 1399   5.088   1.929   0.491
  167SOL    HW1 1400   5.029   1.866   0.440
  167SOL    HW2 1401   5.089   2.018   0.445
  168SOL     OW 1402   5.233   3.874   2.279
  168SOL    HW1 1403   5.153   3.921   2.316
  168SOL    HW2 1404   5.215   3.847   2.184
  169SOL     OW 1405   6.152   2.331   1.140
  169SOL    HW1 1406   6.179   2.235   1.150
  169SOL    HW2 1407   6.221   2.379   1.085
  170SOL     OW 1408   0.936   5.201   2.240
  170SOL    HW1 1409   0.847   5.181   2.198
  170SOL    HW2 1410   1.003   5.133   2.208
  171SOL     OW 1411   2.493   3.926   0.733
  171SOL    HW1 1412   2.500   3.832   0.699
  171SOL    HW2 1413   2.470   3.924   0.830
  172SOL     OW 1414   6.203   2.020   2.112
  172SOL    HW1 1415   6.262   2.040   2.033
  172SOL    HW2 1416   6.208   1.923   2.133
  173SOL     OW 1417   6.734   1.629   5.462
  173SOL    HW1 1418   6.726   1.674   5.373
  173SOL    HW2 1419   6.713   1.694   5.535
  174SOL     OW 1420   5.731   5.632   5.325
  174SOL    HW1 1421   5.816   5.622   5.272
  174SOL    HW2 1422   5.718   5.728   5.349
  175SOL     OW 1423   1.323   0.604   0.433
  175SOL    HW1 1424   1.286   0.669   0.365
  175SOL    HW2 1425   1.329   0.649   0.522
  176SOL     OW 1426   5.215   4.661   2.474
  176SOL    HW1 1427   5.266   4.596   2.416
  176SOL    HW2 1428   5.118   4.657   2.451
  177SOL     OW 1429   5.822   1.956   4.467
  177SOL    HW1 1430   5.828   2.041   4.415
  177SOL    HW2 1431   5.738   1.907   4.442
  178SOL     OW 1432   1.971   6.488   5.307
  178SOL    HW1 1433   2.004   6.581   5.290
  178SOL    HW2 1434   2.044   6.423   5.287
  179SOL     OW 1435   4.338   5.358   0.745
  179SOL    HW1 1436   4.358   5.289   0.676
  179SOL    HW2 1437   4.272   5.424   0.708
  180SOL     OW 1438   3.700   0.652   1.221
  180SOL    HW1 1439   3.646   0.728   1.185
  180SOL    HW2 1440   3.663   0.565   1.187
  181SOL     OW 1441   3.353   2.713   5.224
  181SOL    HW1 1442   3.443   2.689   5.261
  181SOL    HW2 1443   3.292   2.634   5.230
  182SOL     OW 1444   5.245   2.447   7.006
  182SOL    HW1 1445   5.285   2.539   6.996
  182SOL    HW2 1446   5.240   2.424   0.078
  183SOL     OW 1447   3.533   1.464   4.423
  183SOL    HW1 1448   3.561   1.493   4.514
  183SOL    HW2 1449   3.500   1.370   4.427
  184SOL     OW 1450   7.022   6.363   3.304
  184SOL    HW1 1451   6.974   6.438   3.350
  184SOL    HW2 1452   0.019   6.390   3.210
  185SOL     OW 1453   0.473   1.686   4.135
  185SOL    HW1 1454   0.524   1.691   4.221
  185SOL    HW2 1455   0.375   1.688   4.154
  186SOL     OW 1456   5.029   5.466   4.142
  186SOL    HW1 1457   5.117   5.423   4.120
  186SOL    HW2 1458   4.976   5.406   4.200
  187SOL     OW 1459   4.013   5.683   2.659
  187SOL    HW1 1460   4.074   5.727   2.726
  187SOL    HW2 1461   3.924   5.728   2.661
  188SOL     OW 1462   2.479   2.632   2.638
  188SOL    HW1 1463   2.534   2.715   2.639
  188SOL    HW2 1464   2.539   2.553   2.629
  189SOL     OW 1465   6.539   5.645   6.703
  189SOL    HW1 1466   6.451   5.605   6.730
  189SOL    HW2 1467   6.548   5.735   6.745
  190SOL     OW 1468   6.008   5.812   0.412
  190SOL    HW1 1469   6.060   5.849   0.489
  190SOL    HW2 1470   6.006   5.712   0.418
  191SOL     OW 1471   6.171   0.745   6.177
  191SOL    HW1 1472   6.222   0.829   6.157
  191SOL    HW2 1473   6.154   0.695   6.093
  192SOL     OW 1474   0.161   5.327   1.046
  192SOL    HW1 1475   0.167   5.318   1.145
  192SOL    HW2 1476   0.247   5.299   1.004
  193SOL     OW 1477   3.243   5.203   6.397
  193SOL    HW1 1478   3.148   5.190   6.425
  193SOL    HW2 1479   3.285   5.114   6.380
  194SOL     OW 1480   4.089   6.368   2.032
  194SOL    HW1 1481   4.082   6.271   2.012
  194SOL    HW2 1482   4.029   6.419   1.970
  195SOL     OW 1483   3.266   0.972   1.726
  195SOL    HW1 1484   3.192   0.932   1.672
  195SOL    HW2 1485   3.349   0.976   1.671
  196SOL     OW 1486   2.339   0.681   6.266
  196SOL    HW1 1487   2.375   0.618   6.335
  196SOL    HW2 1488   2.374   0.773   6.283
  197SOL     OW 1489   2.695   5.554   0.103
  197SOL    HW1 1490   2.736   5.547   0.012
  197SOL    HW2 1491   2.603   5.514   0.101
  198SOL     OW 1492   4.207   6.043   0.532
  198SOL    HW1 1493   4.305   6.038   0.516
  198SOL    HW2 1494   4.168   5.950   0.530
  199SOL     OW 1495   5.570   6.997   2.698
  199SOL    HW1 1496   5.500   6.939   2.657
  199SOL    HW2 1497   5.530   0.060   2.725
  200SOL     OW 1498   1.230   4.271   2.553
  200SOL    HW1 1499   1.200   4.196   2.494
  200SOL    HW2 1500   1.151   4.307   2.604
  201SOL     OW 1501   2.878   0.963   6.793
  201SOL    HW1 1502   2.840   1.055   6.783
  201SOL    HW2 1503   2.976   0.969   6.810
  202SOL     OW 1504   4.341   6.980   3.733
  202SOL    HW1 1505   4.307   6.911   3.669
  202SOL    HW2 1506   4.325   0.046   3.694
  203SOL     OW 1507   5.149   3.267   6.465
  203SOL    HW1 1508   5.222   3.226   6.410
  203SOL    HW2 1509   5.091   3.194   6.501
  204SOL     OW 1510   2.075   0.358   0.469
  204SOL    HW1 1511   2.083   0.435   0.531
  204SOL    HW2 1512   2.004   0.376   0.401
  205SOL     OW 1513   5.926   1.459   1.079
  205SOL    HW1 1514   6.013   1.492   1.117
  205SOL    HW2 1515   5.915   1.363   1.102
  206SOL     OW 1516   0.672   4.532   1.188
  206SOL    HW1 1517   0.631   4.447   1.155
  206SOL    HW2 1518   0.766   4.513   1.218
  207SOL     OW 1519   4.722   0.421   5.779
  207SOL    HW1 1520   4.725   0.521   5.777
  207SOL    HW2 1521   4.785   0.388   5.850
  208SOL     OW 1522   5.225   5.041   6.152
  208SOL    HW1 1523   5.236   5.093   6.068
  208SOL    HW2 1524   5.129   5.020   6.167
  209SOL     OW 1525   6.983   6.187   6.007
  209SOL    HW1 1526   6.916   6.127   5.963
  209SOL    HW2 1527   0.050   6.159   5.982
  210SOL     OW 1528   3.836   1.978   2.049
  210SOL    HW1 1529   3.778   1.918   1.993
  210SOL    HW2 1530   3.801   2.071   2.045
  211SOL     OW 1531   0.897   1.280   1.231
  211SOL    HW1 1532   0.850   1.223   1.163
  211SOL    HW2 1533   0.931   1.363   1.188
  212SOL     OW 1534   0.804   4.664   3.104
  212SOL    HW1 1535   0.895   4.666   3.144
  212SOL    HW2 1536   0.737   4.696   3.171
  213SOL     OW 1537   5.053   1.280   0.382
  213SOL    HW1 1538   5.087   1.209   0.444
  213SOL    HW2 1539   5.034   1.239   0.293
  214SOL     OW 1540   0.786   6.187   3.048
  214SOL    HW1 1541   0.743   6.103   3.016
  214SOL    HW2 1542   0.725   6.235   3.110
  215SOL     OW 1543   3.722   3.354   2.133
  215SOL    HW1 1544   3.704   3.338   2.036
  215SOL    HW2 1545   3.817   3.381   2.146
  216SOL     OW 1546   1.082   0.349   4.869
  216SOL    HW1 1547   1.157   0.288   4.844
  216SOL    HW2 1548   1.006   0.295   4.906
  217SOL     OW 1549   2.028   2.529   3.847
  217SOL    HW1 1550   2.020   2.550   3.944
  217SOL    HW2 1551   1.965   2.455   3.823
  218SOL     OW 1552   1.153   2.681   4.593
  218SOL    HW1 1553   1.199   2.594   4.615
  218SOL    HW2 1554   1.122   2.724   4.678
  219SOL     OW 1555   3.843   3.803   0.776
  219SOL    HW1 1556   3.809   3.729   0.718
  219SOL    HW2 1557   3.767   3.864   0.798
  220SOL     OW 1558   2.754   5.507   6.843
  220SOL    HW1 1559   2.853   5.505   6.839
  220SOL    HW2 1560   2.717   5.427   6.795
  221SOL     OW 1561   5.077   2.940   3.946
  221SOL    HW1 1562   4.999   2.964   4.004
  221SOL    HW2 1563   5.161   2.975   3.987
  222SOL     OW 1564   1.454   5.653   5.282
  222SOL    HW1 1565   1.461   5.753   5.277
  222SOL    HW2 1566   1.439   5.625   5.377
  223SOL     OW 1567   6.990   3.631   2.120
  223SOL    HW1 1568   6.984   3.729   2.140
  223SOL    HW2 1569   0.050   3.613   2.070
  224SOL     OW 1570   2.626   2.358   2.004
  224SOL    HW1 1571   2.725   2.358   2.022
  224SOL    HW2 1572   2.597   2.266   1.978
  225SOL     OW 1573   5.770   0.719   0.165
  225SOL    HW1 1574   5.729   0.742   0.253
  225SOL    HW2 1575   5.867   0.746   0.164
  226SOL     OW 1576   1.178   6.155   0.571
  226SOL    HW1 1577   1.269   6.115   0.569
  226SOL    HW2 1578   1.142   6.160   0.478
  227SOL     OW 1579   2.005   3.833   3.714
  227SOL    HW1 1580   1.999   3.739   3.681
  227SOL    HW2 1581   2.086   3.877   3.675
  228SOL     OW 1582   3.823   7.020   4.022
  228SOL    HW1 1583   3.877   6.949   3.976
  228SOL    HW2 1584   3.869   0.021   4.107
  229SOL     OW 1585   6.248   5.576   1.488
  229SOL    HW1 1586   6.259   5.667   1.448
  229SOL    HW2 1587   6.242   5.585   1.588
  230SOL     OW 1588   2.241   4.069   4.742
  230SOL    HW1 1589   2.341   4.077   4.739
  230SOL    HW2 1590   2.210   4.071   4.837
  231SOL     OW 1591   6.902   2.795   6.693
  231SOL    HW1 1592   6.824   2.734   6.702
  231SOL    HW2 1593   6.889   2.854   6.612
  232SOL     OW 1594   1.751   3.778   6.367
  232SOL    HW1 1595   1.793   3.693   6.337
  232SOL    HW2 1596   1.793   3.855   6.320
  233SOL     OW 1597   2.515   1.361   5.449
  233SOL    HW1 1598   2.592   1.407   5.493
  233SOL    HW2 1599   2.431   1.381   5.500
  234SOL     OW 1600   2.812   4.853   0.006
  234SOL    HW1 1601   2.852   4.781   0.062
  234SOL    HW2 1602   2.831   4.835   6.935
  235SOL     OW 1603   3.752   3.155   3.882
  235SOL    HW1 1604   3.683   3.146   3.954
  235SOL    HW2 1605   3.715   3.208   3.806
  236SOL     OW 1606   0.079   2.769   5.183
  236SOL    HW1 1607   7.014   2.736   5.211
  236SOL    HW2 1608   0.069   2.854   5.132
  237SOL     OW 1609   7.020   6.932   1.442
  237SOL    HW1 1610   7.005   6.834   1.447
  237SOL    HW2 1611   6.966   6.978   1.512
  238SOL     OW 1612   5.891   3.341   2.014
  238SOL    HW1 1613   5.881   3.438   1.991
  238SOL    HW2 1614   5.844   3.323   2.101
  239SOL     OW 1615   6.972   5.671   6.666
  239SOL    HW1 1616   6.946   5.758   6.622
  239SOL    HW2 1617   0.037   5.679   6.706
  240SOL     OW 1618   0.647   3.622   6.618
  240SOL    HW1 1619   0.555   3.608   6.582
  240SOL    HW2 1620   0.713   3.618   6.543
  241SOL     OW 1621   0.168   0.864   3.728
  241SOL    HW1 1622   0.196   0.796   3.659
  241SOL    HW2 1623   0.183   0.826   3.819
  242SOL     OW 1624   1.323   3.932   4.650
  242SOL    HW1 1625   1.401   3.871   4.660
  242SOL    HW2 1626   1.254   3.887   4.593
  243SOL     OW 1627   5.782   0.159   6.029
  243SOL    HW1 1628   5.693   0.186   5.992
  243SOL    HW2 1629   5.769   0.094   6.103
  244SOL     OW 1630   5.583   2.095   5.137
  244SOL    HW1 1631   5.626   2.038   5.067
  244SOL    HW2 1632   5.484   2.077   5.139
  245SOL     OW 1633   6.342   2.532   4.765
  245SOL    HW1 1634   6.340   2.529   4.665
  245SOL    HW2 1635   6.413   2.596   4.795
  246SOL     OW 1636   4.879   3.551   3.134
  246SOL    HW1 1637   4.920   3.482   3.194
  246SOL    HW2 1638   4.833   3.620   3.189
  247SOL     OW 1639   2.129   1.460   3.844
  247SOL    HW1 1640   2.139   1.436   3.748
  247SOL    HW2 1641   2.032   1.465   3.867
  248SOL     OW 1642   5.029   2.102   4.487
  248SOL    HW1 1643   5.054   2.104   4.584
  248SOL    HW2 1644   5.046   2.191   4.446
  249SOL     OW 1645   3.227   6.625   4.628
  249SOL    HW1 1646   3.170   6.578   4.695
  249SOL    HW2 1647   3.247   6.563   4.552
  250SOL     OW 1648   5.063   3.128   5.446
  250SOL    HW1 1649   5.008   3.085   5.518
  250SOL    HW2 1650   5.148   3.076   5.434
  251SOL     OW 1651   4.705   3.008   6.801
  251SOL    HW1 1652   4.684   3.106   6.795
  251SOL    HW2 1653   4.633   2.956   6.753
  252SOL     OW 1654   6.415   1.176   5.960
  252SOL    HW1 1655   6.487   1.243   5.976
  252SOL    HW2 1656   6.334   1.222   5.924
  253SOL     OW 1657   2.730   3.215   0.566
  253SOL    HW1 1658   2.741   3.312   0.588
  253SOL    HW2 1659   2.676   3.170   0.637
  254SOL     OW 1660   6.531   3.045   4.536
  254SOL    HW1 1661   6.505   3.140   4.516
  254SOL    HW2 1662   6.586   3.009   4.461
  255SOL     OW 1663   2.862   2.329   3.235
  255SOL    HW1 1664   2.939   2.269   3.215
  255SOL    HW2 1665   2.847   2.333   3.334
  256SOL     OW 1666   6.123   5.225   6.902
  256SOL    HW1 1667   6.142   5.127   6.896
  256SOL    HW2 1668   6.118   5.252   6.999
  257SOL     OW 1669   3.004   5.616   5.916
  257SOL    HW1 1670   3.077   5.553   5.890
  257SOL    HW2 1671   2.937   5.623   5.842
  258SOL     OW 1672   5.093   3.942   4.044
  258SOL    HW1 1673   5.009   3.933   4.098
  258SOL    HW2 1674   5.120   3.852   4.010
  259SOL     OW 1675   1.298   3.065   2.846
  259SOL    HW1 1676   1.292   2.980   2.794
  259SOL    HW2 1677   1.316   3.141   2.784
  260SOL     OW 1678   5.356   0.362   6.489
  260SOL    HW1 1679   5.402   0.449   6.509
  260SOL    HW2 1680   5.424   0.293   6.464
  261SOL     OW 1681   0.699   4.094   2.139
  261SOL    HW1 1682   0.776   4.039   2.106
  261SOL    HW2 1683   0.725   4.138   2.225
  262SOL     OW 1684   1.282   3.267   2.235
  262SOL    HW1 1685   1.326   3.334   2.294
  262SOL    HW2 1686   1.183   3.282   2.236
  263SOL     OW 1687   0.670   2.189   4.858
  263SOL    HW1 1688   0.741   2.164   4.792
  263SOL    HW2 1689   0.677   2.130   4.939
  264SOL     OW 1690   1.328   4.399   5.951
  264SOL    HW1 1691   1.237   4.371   5.920
  264SOL    HW2 1692   1.365   4.331   6.013
  265SOL     OW 1693   4.909   4.425   3.915
  265SOL    HW1 1694   4.872   4.343   3.958
  265SOL    HW2 1695   4.937   4.404   3.821
  266SOL     OW 1696   4.000   1.359   0.672
  266SOL    HW1 1697   3.911   1.334   0.635
  266SOL    HW2 1698   4.062   1.382   0.598
  267SOL     OW 1699   1.780   2.500   6.169
  267SOL    HW1 1700   1.688   2.538   6.183
  267SOL    HW2 1701   1.845   2.574   6.155
  268SOL     OW 1702   4.595   4.491   4.551
  268SOL    HW1 1703   4.540   4.506   4.633
  268SOL    HW2 1704   4.538   4.507   4.470
  269SOL     OW 1705   1.324   1.997   6.494
  269SOL    HW1 1706   1.314   2.081   6.440
  269SOL    HW2 1707   1.409   2.001   6.546
  270SOL     OW 1708   5.270   0.562   2.206
  270SOL    HW1 1709   5.316   0.639   2.251
  270SOL    HW2 1710   5.216   0.596   2.129
  271SOL     OW 1711   1.582   0.476   0.394
  271SOL    HW1 1712   1.486   0.503   0.403
  271SOL    HW2 1713   1.616   0.503   0.304
  272SOL     OW 1714   3.700   5.393   3.261
  272SOL    HW1 1715   3.636   5.352   3.195
  272SOL    HW2 1716   3.720   5.327   3.333
  273SOL     OW 1717   1.931   5.978   4.829
  273SOL    HW1 1718   1.943   5.932   4.917
  273SOL    HW2 1719   1.836   5.969   4.800
  274SOL     OW 1720   6.109   2.733   2.495
  274SOL    HW1 1721   6.198   2.776   2.476
  274SOL    HW2 1722   6.071   2.770   2.579
  275SOL     OW 1723   7.003   6.687   5.763
  275SOL    HW1 1724   0.034   6.678   5.681
  275SOL    HW2 1725   6.969   6.597   5.790
  276SOL     OW 1726   6.530   5.861   3.761
  276SOL    HW1 1727   6.623   5.899   3.753
  276SOL    HW2 1728   6.529   5.790   3.831
  277SOL     OW 1729   3.251   1.901   5.456
  277SOL    HW1 1730   3.338   1.929   5.497
  277SOL    HW2 1731   3.204   1.983   5.421
  278SOL     OW 1732   5.475   3.917   2.417
  278SOL    HW1 1733   5.399   3.900   2.354
  278SOL    HW2 1734   5.504   4.013   2.408
  279SOL     OW 1735   0.012   2.743   2.951
  279SOL    HW1 1736   6.992   2.658   2.978
  279SOL    HW2 1737   0.105   2.744   2.986
  280SOL     OW 1738   5.109   6.787   4.042
  280SOL    HW1 1739   5.042   6.858   4.064
  280SOL    HW2 1740   5.201   6.826   4.042
  281SOL     OW 1741   4.876   6.125   3.875
  281SOL    HW1 1742   4.890   6.132   3.776
  281SOL    HW2 1743   4.964   6.135   3.922
  282SOL     OW 1744   4.470   2.176   6.726
  282SOL    HW1 1745   4.435   2.254   6.675
  282SOL    HW2 1746   4.564   2.155   6.696
  283SOL     OW 1747   6.222   1.180   4.954
  283SOL    HW1 1748   6.229   1.189   4.855
  283SOL    HW2 1749   6.310   1.207   4.996
  284SOL     OW 1750   6.650   4.745   4.851
  284SOL    HW1 1751   6.594   4.669   4.884
  284SOL    HW2 1752   6.605   4.831   4.872
  285SOL     OW 1753   4.431   0.468   6.698
  285SOL    HW1 1754   4.383   0.542   6.745
  285SOL    HW2 1755   4.424   0.385   6.752
  286SOL     OW 1756   3.743   4.994   4.445
  286SOL    HW1 1757   3.694   5.032   4.366
  286SOL    HW2 1758   3.819   4.938   4.414
  287SOL     OW 1759   2.763   6.482   6.068
  287SOL    HW1 1760   2.693   6.544   6.031
  287SOL    HW2 1761   2.843   6.536   6.096
  288SOL     OW 1762   3.580   0.757   0.653
  288SOL    HW1 1763   3.481   0.754   0.635
  288SOL    HW2 1764   3.629   0.747   0.567
  289SOL     OW 1765   0.418   6.807   4.645
  289SOL    HW1 1766   0.465   6.865   4.579
  289SOL    HW2 1767   0.415   6.852   4.734
  290SOL     OW 1768   3.820   0.770   3.886
  290SOL    HW1 1769   3.844   0.867   3.883
  290SOL    HW2 1770   3.868   0.727   3.963
  291SOL     OW 1771   4.899   0.826   4.284
  291SOL    HW1 1772   4.952   0.870   4.211
  291SOL    HW2 1773   4.926   0.730   4.291
  292SOL     OW 1774   3.397   0.252   3.811
  292SOL    HW1 1775   3.432   0.159   3.819
  292SOL    HW2 1776   3.472   0.314   3.786
  293SOL     OW 1777   5.988   6.308   2.914
  293SOL    HW1 1778   6.035   6.256   2.986
  293SOL    HW2 1779   6.008   6.406   2.926
  294SOL     OW 1780   5.680   0.829   5.412
  294SOL    HW1 1781   5.612   0.900   5.430
  294SOL    HW2 1782   5.698   0.824   5.314
  295SOL     OW 1783   1.379   2.099   5.005
  295SOL    HW1 1784   1.471   2.070   5.030
  295SOL    HW2 1785   1.342   2.158   5.077
  296SOL     OW 1786   6.567   0.987   1.808
  296SOL    HW1 1787   6.642   1.010   1.871
  296SOL    HW2 1788   6.530   0.898   1.831
  297SOL     OW 1789   5.462   4.331   3.522
  297SOL    HW1 1790   5.384   4.395   3.523
  297SOL    HW2 1791   5.500   4.324   3.614
  298SOL     OW 1792   3.897   0.584   0.582
  298SOL    HW1 1793   3.956   0.614   0.657
  298SOL    HW2 1794   3.864   0.663   0.532
  299SOL     OW 1795   2.990   1.389   6.909
  299SOL    HW1 1796   2.980   1.487   6.892
  299SOL    HW2 1797   2.906   1.341   6.883
  300SOL     OW 1798   3.646   1.161   2.531
  300SOL    HW1 1799   3.700   1.244   2.516
  300SOL    HW2 1800   3.549   1.185   2.530
  301SOL     OW 1801   5.700   5.882   2.060
  301SOL    HW1 1802   5.773   5.934   2.016
  301SOL    HW2 1803   5.739   5.804   2.109
  302SOL     OW 1804   6.875   6.298   1.672
  302SOL    HW1 1805   6.867   6.380   1.728
  302SOL    HW2 1806   6.891   6.325   1.577
  303SOL     OW 1807   6.518   5.681   2.500
  303SOL    HW1 1808   6.497   5.677   2.402
  303SOL    HW2 1809   6.593   5.619   2.521
  304SOL     OW 1810   1.111   0.349   5.239
  304SOL    HW1 1811   1.022   0.304   5.234
  304SOL    HW2 1812   1.102   0.444   5.209
  305SOL     OW 1813   1.809   2.851   1.702
  305SOL    HW1 1814   1.768   2.837   1.612
  305SOL    HW2 1815   1.822   2.763   1.747
  306SOL     OW 1816   6.726   0.521   3.505
  306SOL    HW1 1817   6.677   0.438   3.480
  306SOL    HW2 1818   6.731   0.582   3.426
  307SOL     OW 1819   3.296   3.626   1.706
  307SOL    HW1 1820   3.317   3.538   1.750
  307SOL    HW2 1821   3.379   3.663   1.665
  308SOL     OW 1822   5.299   0.661   3.969
  308SOL    HW1 1823   5.295   0.684   3.872
  308SOL    HW2 1824   5.304   0.745   4.023
  309SOL     OW 1825   0.618   6.726   6.654
  309SOL    HW1 1826   0.534   6.682   6.686
  309SOL    HW2 1827   0.613   6.739   6.555
  310SOL     OW 1828   5.072   5.941   4.648
  310SOL    HW1 1829   5.108   5.958   4.556
  310SOL    HW2 1830   5.127   5.871   4.693
  311SOL     OW 1831   1.768   5.364   3.059
  311SOL    HW1 1832   1.823   5.325   2.985
  311SOL    HW2 1833   1.772   5.464   3.054
  312SOL     OW 1834   4.324   2.157   3.478
  312SOL    HW1 1835   4.341   2.230   3.411
  312SOL    HW2 1836   4.248   2.184   3.537
  313SOL     OW 1837   3.546   3.559   3.021
  313SOL    HW1 1838   3.645   3.569   3.035
  313SOL    HW2 1839   3.501   3.547   3.109
  314SOL     OW 1840   1.598   6.651   5.037
  314SOL    HW1 1841   1.590   6.551   5.035
  314SOL    HW2 1842   1.623   6.681   5.129
  315SOL     OW 1843   6.355   1.049   3.628
  315SOL    HW1 1844   6.365   1.148   3.638
  315SOL    HW2 1845   6.372   1.024   3.533
  316SOL     OW 1846   4.121   1.373   5.744
  316SOL    HW1 1847   4.040   1.404   5.693
  316SOL    HW2 1848   4.091   1.323   5.825
  317SOL     OW 1849   1.252   1.556   1.255
  317SOL    HW1 1850   1.309   1.488   1.209
  317SOL    HW2 1851   1.310   1.625   1.298
  318SOL     OW 1852   6.799   0.732   5.762
  318SOL    HW1 1853   6.877   0.681   5.726
  318SOL    HW2 1854   6.751   0.676   5.829
  319SOL     OW 1855   0.991   2.033   2.837
  319SOL    HW1 1856   1.080   2.077   2.829
  319SOL    HW2 1857   0.923   2.087   2.787
  320SOL     OW 1858   5.666   1.986   0.096
  320SOL    HW1 1859   5.619   2.029   0.174
  320SOL    HW2 1860   5.652   2.042   0.014
  321SOL     OW 1861   3.948   3.105   0.782
  321SOL    HW1 1862   3.939   3.191   0.832
  321SOL    HW2 1863   3.869   3.047   0.800
  322SOL     OW 1864   4.275   4.007   6.886
  322SOL    HW1 1865   4.307   3.952   6.809
  322SOL    HW2 1866   4.180   4.034   6.871
  323SOL     OW 1867   0.232   2.690   3.308
  323SOL    HW1 1868   0.295   2.736   3.370
  323SOL    HW2 1869   0.242   2.729   3.216
  324SOL     OW 1870   1.640   0.358   3.071
  324SOL    HW1 1871   1.617   0.265   3.044
  324SOL    HW2 1872   1.658   0.361   3.170
  325SOL     OW 1873   1.237   3.786   2.347
  325SOL    HW1 1874   1.187   3.774   2.433
  325SOL    HW2 1875   1.180   3.758   2.270
  326SOL     OW 1876   1.925   5.487   6.370
  326SOL    HW1 1877   1.921   5.556   6.298
  326SOL    HW2 1878   1.889   5.524   6.455
  327SOL     OW 1879   3.350   5.596   3.067
  327SOL    HW1 1880   3.390   5.527   3.006
  327SOL    HW2 1881   3.405   5.679   3.066
  328SOL     OW 1882   1.619   4.324   1.671
  328SOL    HW1 1883   1.521   4.304   1.680
  328SOL    HW2 1884   1.660   4.261   1.605
  329SOL     OW 1885   3.160   4.052   1.641
  329SOL    HW1 1886   3.116   4.052   1.731
  329SOL    HW2 1887   3.121   3.979   1.585
  330SOL     OW 1888   3.939   4.997   0.139
  330SOL    HW1 1889   3.929   4.928   0.067
  330SOL    HW2 1890   3.953   5.087   0.097
  331SOL     OW 1891   4.785   5.257   0.892
  331SOL    HW1 1892   4.699   5.297   0.859
  331SOL    HW2 1893   4.856   5.327   0.892
  332SOL     OW 1894   5.616   2.085   3.739
  332SOL    HW1 1895   5.711   2.113   3.752
  332SOL    HW2 1896   5.612   1.987   3.719
  333SOL     OW 1897   4.056   0.626   5.115
  333SOL    HW1 1898   4.153   0.622   5.093
  333SOL    HW2 1899   4.030   0.721   5.132
  334SOL     OW 1900   3.987   3.144   2.858
  334SOL    HW1 1901   3.918   3.160   2.927
  334SOL    HW2 1902   4.059   3.084   2.895
  335SOL     OW 1903   3.612   6.448   0.250
  335SOL    HW1 1904   3.683   6.449   0.180
  335SOL    HW2 1905   3.636   6.381   0.321
  336SOL     OW 1906   2.744   0.995   3.719
  336SOL    HW1 1907   2.754   1.092   3.744
  336SOL    HW2 1908   2.829   0.947   3.741
  337SOL     OW 1909   1.663   1.511   5.508
  337SOL    HW1 1910   1.574   1.556   5.505
  337SOL    HW2 1911   1.729   1.563   5.454
  338SOL     OW 1912   4.237   3.564   1.557
  338SOL    HW1 1913   4.263   3.575   1.461
  338SOL    HW2 1914   4.233   3.467   1.580
  339SOL     OW 1915   4.099   4.970   4.589
  339SOL    HW1 1916   4.082   5.056   4.542
  339SOL    HW2 1917   4.020   4.946   4.644
  340SOL     OW 1918   5.041   2.715   4.990
  340SOL    HW1 1919   5.027   2.767   4.906
  340SOL    HW2 1920   5.026   2.774   5.069
  341SOL     OW 1921   5.778   5.942   4.112
  341SOL    HW1 1922   5.790   6.019   4.175
  341SOL    HW2 1923   5.839   5.867   4.139
  342SOL     OW 1924   4.899   3.453   0.285
  342SOL    HW1 1925   4.806   3.420   0.300
  342SOL    HW2 1926   4.897   3.550   0.260
  343SOL     OW 1927   0.830   5.838   2.493
  343SOL    HW1 1928   0.916   5.804   2.457
  343SOL    HW2 1929   0.754   5.784   2.456
  344SOL     OW 1930   1.089   1.483   1.577
  344SOL    HW1 1931   1.027   1.536   1.519
  344SOL    HW2 1932   1.062   1.387   1.575
  345SOL     OW 1933   6.930   2.451   4.318
  345SOL    HW1 1934   6.840   2.491   4.303
  345SOL    HW2 1935   7.001   2.518   4.295
  346SOL     OW 1936   1.766   0.237   2.714
  346SOL    HW1 1937   1.813   0.319   2.681
  346SOL    HW2 1938   1.821   0.195   2.786
  347SOL     OW 1939   2.575   5.678   0.537
  347SOL    HW1 1940   2.624   5.697   0.452
  347SOL    HW2 1941   2.582   5.757   0.598
  348SOL     OW 1942   4.949   4.846   2.471
  348SOL    HW1 1943   4.976   4.924   2.415
  348SOL    HW2 1944   4.917   4.878   2.561
  349SOL     OW 1945   0.062   4.127   1.249
  349SOL    HW1 1946   0.033   4.035   1.277
  349SOL    HW2 1947   0.139   4.120   1.185
  350SOL     OW 1948   3.558   2.948   0.101
  350SOL    HW1 1949   3.468   2.913   0.127
  350SOL    HW2 1950   3.573   2.934   0.004
  351SOL     OW 1951   3.497   3.969   0.636
  351SOL    HW1 1952   3.408   3.967   0.590
  351SOL    HW2 1953   3.484   3.954   0.734
  352SOL     OW 1954   4.402   6.032   3.820
  352SOL    HW1 1955   4.463   6.073   3.753
  352SOL    HW2 1956   4.309   6.068   3.808
  353SOL     OW 1957   3.171   6.854   6.184
  353SOL    HW1 1958   3.265   6.884   6.166
  353SOL    HW2 1959   3.126   6.921   6.243
  354SOL     OW 1960   5.942   2.893   1.169
  354SOL    HW1 1961   6.006   2.969   1.170
  354SOL    HW2 1962   5.952   2.840   1.253
  355SOL     OW 1963   2.169   3.367   2.837
  355SOL    HW1 1964   2.175   3.448   2.778
  355SOL    HW2 1965   2.073   3.347   2.856
  356SOL     OW 1966   2.000   0.542   5.291
  356SOL    HW1 1967   1.982   0.599   5.371
  356SOL    HW2 1968   1.998   0.445   5.319
  357SOL     OW 1969   6.508   6.337   4.316
  357SOL    HW1 1970   6.411   6.329   4.291
  357SOL    HW2 1971   6.561   6.356   4.233
  358SOL     OW 1972   4.899   5.795   1.137
  358SOL    HW1 1973   4.868   5.757   1.224
  358SOL    HW2 1974   4.820   5.817   1.080
  359SOL     OW 1975   3.396   0.985   2.190
  359SOL    HW1 1976   3.384   0.958   2.286
  359SOL    HW2 1977   3.315   1.036   2.160
  360SOL     OW 1978   1.073   4.707   4.519
  360SOL    HW1 1979   1.150   4.770   4.510
  360SOL    HW2 1980   1.102   4.625   4.568
  361SOL     OW 1981   6.590   6.335   3.024
  361SOL    HW1 1982   6.504   6.340   2.972
  361SOL    HW2 1983   6.570   6.301   3.116
  362SOL     OW 1984   3.886   4.030   0.601
  362SOL    HW1 1985   3.896   3.942   0.648
  362SOL    HW2 1986   3.929   4.102   0.656
  363SOL     OW 1987   6.234   4.727   2.723
  363SOL    HW1 1988   6.171   4.657   2.757
  363SOL    HW2 1989   6.311   4.683   2.676
  364SOL     OW 1990   0.379   4.662   6.796
  364SOL    HW1 1991   0.395   4.563   6.800
  364SOL    HW2 1992   0.431   4.707   6.868
  365SOL     OW 1993   3.580   0.340   1.680
  365SOL    HW1 1994   3.612   0.335   1.585
  365SOL    HW2 1995   3.489   0.380   1.682
  366SOL     OW 1996   6.300   3.288   6.793
  366SOL    HW1 1997   6.238   3.356   6.831
  366SOL    HW2 1998   6.379   3.333   6.752
  367SOL     OW 1999   5.208   2.390   6.056
  367SOL    HW1 2000   5.287   2.416   6.113
  367SOL    HW2 2001   5.232   2.400   5.959
  368SOL     OW 2002   6.873   2.350   6.139
  368SOL    HW1 2003   6.891   2.260   6.178
  368SOL    HW2 2004   6.848   2.414   6.212
  369SOL     OW 2005   5.624   4.030   2.821
  369SOL    HW1 2006   5.640   4.116   2.773
  369SOL    HW2 2007   5.615   4.048   2.919
  370SOL     OW 2008   1.852   2.032   3.951
  370SOL    HW1 2009   1.824   2.088   4.029
  370SOL    HW2 2010   1.903   1.953   3.984
  371SOL     OW 2011   2.151   4.239   6.942
  371SOL    HW1 2012   2.151   4.337   6.964
  371SOL    HW2 2013   2.122   4.187   7.023
  372SOL     OW 2014   1.868   6.756   4.978
  372SOL    HW1 2015   1.776   6.718   4.991
  372SOL    HW2 2016   1.923   6.736   5.059
  373SOL     OW 2017   5.894   6.662   5.424
  373SOL    HW1 2018   5.988   6.643   5.453
  373SOL    HW2 2019   5.895   6.726   5.347
  374SOL     OW 2020   2.230   1.581   2.682
  374SOL    HW1 2021   2.269   1.626   2.763
  374SOL    HW2 2022   2.225   1.646   2.607
  375SOL     OW 2023   0.482   5.380   5.059
  375SOL    HW1 2024   0.419   5.443   5.013
  375SOL    HW2 2025   0.429   5.308   5.104
  376SOL     OW 2026   2.077   0.864   4.887
  376SOL    HW1 2027   2.116   0.951   4.918
  376SOL    HW2 2028   2.071   0.801   4.965
  377SOL     OW 2029   1.973   2.411   0.257
  377SOL    HW1 2030   2.014   2.334   0.209
  377SOL    HW2 2031   1.884   2.384   0.294
  378SOL     OW 2032   3.500   1.307   6.483
  378SOL    HW1 2033   3.426   1.343   6.428
  378SOL    HW2 2034   3.532   1.220   6.444
  379SOL     OW 2035   5.624   2.382   0.130
  379SOL    HW1 2036   5.670   2.377   0.041
  379SOL    HW2 2037   5.636   2.474   0.168
  380SOL     OW 2038   3.281   1.582   1.288
  380SOL    HW1 2039   3.227   1.628   1.358
  380SOL    HW2 2040   3.281   1.638   1.205
  381SOL     OW 2041   2.228   4.319   4.520
  381SOL    HW1 2042   2.175   4.248   4.565
  381SOL    HW2 2043   2.300   4.352   4.581
  382SOL     OW 2044   6.263   0.478   0.483
  382SOL    HW1 2045   6.250   0.399   0.542
  382SOL    HW2 2046   6.346   0.465   0.428
  383SOL     OW 2047   4.242   3.176   0.465
  383SOL    HW1 2048   4.302   3.251   0.439
  383SOL    HW2 2049   4.151   3.211   0.486
  384SOL     OW 2050   0.066   3.597   4.088
  384SOL    HW1 2051   0.124   3.615   4.167
  384SOL    HW2 2052   0.055   3.680   4.034
  385SOL     OW 2053   3.901   5.742   6.212
  385SOL    HW1 2054   3.964   5.787   6.149
  385SOL    HW2 2055   3.812   5.731   6.167
  386SOL     OW 2056   3.946   0.596   4.092
  386SOL    HW1 2057   4.023   0.640   4.139
  386SOL    HW2 2058   3.877   0.569   4.159
  387SOL     OW 2059   1.403   5.103   2.648
  387SOL    HW1 2060   1.395   5.199   2.675
  387SOL    HW2 2061   1.322   5.077   2.596
  388SOL     OW 2062   1.959   2.486   6.617
  388SOL    HW1 2063   2.012   2.567   6.593
  388SOL    HW2 2064   2.020   2.415   6.651
  389SOL     OW 2065   3.579   3.227   2.866
  389SOL    HW1 2066   3.512   3.299   2.850
  389SOL    HW2 2067   3.586   3.170   2.785
  390SOL     OW 2068   2.584   0.732   3.674
  390SOL    HW1 2069   2.544   0.688   3.754
  390SOL    HW2 2070   2.588   0.831   3.688
  391SOL     OW 2071   2.019   3.163   6.546
  391SOL    HW1 2072   1.962   3.091   6.507
  391SOL    HW2 2073   2.115   3.138   6.536
  392SOL     OW 2074   1.888   5.155   1.033
  392SOL    HW1 2075   1.862   5.079   0.974
  392SOL    HW2 2076   1.808   5.215   1.047
  393SOL     OW 2077   6.331   4.375   5.765
  393SOL    HW1 2078   6.298   4.469   5.780
  393SOL    HW2 2079   6.430   4.372   5.774
  394SOL     OW 2080   0.330   6.915   0.092
  394SOL    HW1 2081   0.325   7.009   0.125
  394SOL    HW2 2082   0.242   6.870   0.108
  395SOL     OW 2083   4.706   4.186   2.392
  395SOL    HW1 2084   4.772   4.112   2.407
  395SOL    HW2 2085   4.666   4.177   2.301
  396SOL     OW 2086   3.858   3.929   2.708
  396SOL    HW1 2087   3.799   3.851   2.724
  396SOL    HW2 2088   3.896   3.961   2.795
  397SOL     OW 2089   4.150   3.045   5.801
  397SOL    HW1 2090   4.071   3.090   5.842
  397SOL    HW2 2091   4.125   3.009   5.711
  398SOL     OW 2092   0.925   5.819   1.621
  398SOL    HW1 2093   0.856   5.871   1.671
  398SOL    HW2 2094   0.883   5.738   1.580
  399SOL     OW 2095   5.586   5.923   2.870
  399SOL    HW1 2096   5.557   5.914   2.965
  399SOL    HW2 2097   5.654   5.852   2.849
  400SOL     OW 2098   7.021   0.318   6.113
  400SOL    HW1 2099   6.996   0.413   6.130
  400SOL    HW2 2100   0.083   0.315   6.065
  401SOL     OW 2101   4.677   0.702   5.781
  401SOL    HW1 2102   4.719   0.741   5.698
  401SOL    HW2 2103   4.673   0.773   5.852
  402SOL     OW 2104   6.350   6.467   2.901
  402SOL    HW1 2105   6.355   6.395   2.832
  402SOL    HW2 2106   6.255   6.491   2.918
  403SOL     OW 2107   4.312   2.478   6.198
  403SOL    HW1 2108   4.237   2.419   6.168
  403SOL    HW2 2109   4.275   2.557   6.247
  404SOL     OW 2110   1.377   6.788   3.881
  404SOL    HW1 2111   1.278   6.786   3.898
  404SOL    HW2 2112   1.425   6.760   3.965
  405SOL     OW 2113   2.211   2.881   1.236
  405SOL    HW1 2114   2.227   2.910   1.331
  405SOL    HW2 2115   2.233   2.784   1.227
  406SOL     OW 2116   1.149   2.721   3.780
  406SOL    HW1 2117   1.056   2.733   3.817
  406SOL    HW2 2118   1.216   2.743   3.851
  407SOL     OW 2119   2.299   0.326   3.773
  407SOL    HW1 2120   2.262   0.249   3.824
  407SOL    HW2 2121   2.252   0.334   3.685
  408SOL     OW 2122   1.147   1.171   3.209
  408SOL    HW1 2123   1.154   1.102   3.281
  408SOL    HW2 2124   1.237   1.208   3.189
  409SOL     OW 2125   5.696   3.006   2.072
  409SOL    HW1 2126   5.687   2.945   2.150
  409SOL    HW2 2127   5.726   3.096   2.103
  410SOL     OW 2128   2.442   0.122   6.927
  410SOL    HW1 2129   2.508   0.195   6.943
  410SOL    HW2 2130   2.413   0.123   6.831
  411SOL     OW 2131   5.980   6.444   6.736
  411SOL    HW1 2132   6.012   6.538   6.746
  411SOL    HW2 2133   5.972   6.422   6.639
  412SOL     OW 2134   4.701   0.122   3.573
  412SOL    HW1 2135   4.669   0.070   3.653
  412SOL    HW2 2136   4.705   0.062   3.494
  413SOL     OW 2137   4.617   4.627   1.477
  413SOL    HW1 2138   4.677   4.595   1.550
  413SOL    HW2 2139   4.640   4.580   1.392
  414SOL     OW 2140   3.852   5.066   2.973
  414SOL    HW1 2141   3.917   5.085   2.900
  414SOL    HW2 2142   3.799   4.985   2.950
  415SOL     OW 2143   1.095   5.932   0.681
  415SOL    HW1 2144   1.048   5.904   0.597
  415SOL    HW2 2145   1.146   6.016   0.663
  416SOL     OW 2146   4.556   5.816   4.900
  416SOL    HW1 2147   4.493   5.765   4.841
  416SOL    HW2 2148   4.519   5.819   4.993
  417SOL     OW 2149   2.740   6.315   0.714
  417SOL    HW1 2150   2.651   6.342   0.750
  417SOL    HW2 2151   2.808   6.315   0.787
  418SOL     OW 2152   4.964   6.058   1.034
  418SOL    HW1 2153   4.899   5.982   1.039
  418SOL    HW2 2154   4.949   6.109   0.949
  419SOL     OW 2155   0.993   0.259   1.334
  419SOL    HW1 2156   0.901   0.220   1.325
  419SOL    HW2 2157   1.043   0.245   1.249
  420SOL     OW 2158   6.243   3.626   1.226
  420SOL    HW1 2159   6.200   3.557   1.169
  420SOL    HW2 2160   6.185   3.646   1.305
  421SOL     OW 2161   0.687   5.337   6.425
  421SOL    HW1 2162   0.607   5.294   6.468
  421SOL    HW2 2163   0.710   5.288   6.341
  422SOL     OW 2164   6.223   5.498   0.815
  422SOL    HW1 2165   6.225   5.459   0.908
  422SOL    HW2 2166   6.137   5.549   0.803
  423SOL     OW 2167   6.715   2.941   0.160
  423SOL    HW1 2168   6.718   2.854   0.209
  423SOL    HW2 2169   6.772   2.936   0.078
  424SOL     OW 2170   3.060   3.750   0.903
  424SOL    HW1 2171   3.066   3.728   1.001
  424SOL    HW2 2172   3.059   3.665   0.851
  425SOL     OW 2173   5.387   1.128   2.262
  425SOL    HW1 2174   5.294   1.141   2.295
  425SOL    HW2 2175   5.384   1.093   2.169
  426SOL     OW 2176   5.392   2.069   4.821
  426SOL    HW1 2177   5.468   2.126   4.789
  426SOL    HW2 2178   5.389   1.985   4.767
  427SOL     OW 2179   5.583   5.202   2.458
  427SOL    HW1 2180   5.681   5.225   2.463
  427SOL    HW2 2181   5.536   5.239   2.538
  428SOL     OW 2182   4.428   6.845   4.844
  428SOL    HW1 2183   4.499   6.888   4.900
  428SOL    HW2 2184   4.465   6.821   4.755
  429SOL     OW 2185   2.565   4.873   1.507
  429SOL    HW1 2186   2.652   4.891   1.552
  429SOL    HW2 2187   2.538   4.778   1.522
  430SOL     OW 2188   0.508   6.941   4.442
  430SOL    HW1 2189   0.462   6.963   4.356
  430SOL    HW2 2190   0.607   6.936   4.427
  431SOL     OW 2191   3.776   0.174   0.457
  431SOL    HW1 2192   3.794   0.160   0.554
  431SOL    HW2 2193   3.860   0.160   0.405
  432SOL     OW 2194   6.820   2.555   1.787
  432SOL    HW1 2195   6.898   2.507   1.828
  432SOL    HW2 2196   6.762   2.489   1.740
  433SOL     OW 2197   3.028   6.138   3.751
  433SOL    HW1 2198   2.940   6.181   3.770
  433SOL    HW2 2199   3.091   6.206   3.714
  434SOL     OW 2200   4.999   5.281   1.676
  434SOL    HW1 2201   5.042   5.191   1.672
  434SOL    HW2 2202   5.049   5.345   1.617
  435SOL     OW 2203   3.835   2.360   5.506
  435SOL    HW1 2204   3.735   2.356   5.512
  435SOL    HW2 2205   3.861   2.424   5.433
  436SOL     OW 2206   2.615   6.573   1.416
  436SOL    HW1 2207   2.578   6.590   1.508
  436SOL    HW2 2208   2.647   6.659   1.377
  437SOL     OW 2209   0.949   0.070   6.493
  437SOL    HW1 2210   0.970   0.155   6.541
  437SOL    HW2 2211   0.925   7.025   6.560
  438SOL     OW 2212   1.852   3.272   2.194
  438SOL    HW1 2213   1.883   3.196   2.250
  438SOL    HW2 2214   1.908   3.353   2.213
  439SOL     OW 2215   6.054   4.300   3.394
  439SOL    HW1 2216   6.025   4.206   3.374
  439SOL    HW2 2217   6.150   4.300   3.423
  440SOL     OW 2218   0.860   2.101   4.679
  440SOL    HW1 2219   0.929   2.169   4.701
  440SOL    HW2 2220   0.894   2.040   4.607
  441SOL     OW 2221   0.903   2.008   3.088
  441SOL    HW1 2222   0.907   1.917   3.130
  441SOL    HW2 2223   0.922   1.999   2.990
  442SOL     OW 2224   2.012   5.117   6.941
  442SOL    HW1 2225   1.991   5.170   7.023
  442SOL    HW2 2226   2.097   5.067   6.954
  443SOL     OW 2227   0.778   3.922   5.038
  443SOL    HW1 2228   0.744   3.962   5.123
  443SOL    HW2 2229   0.859   3.972   5.007
  444SOL     OW 2230   5.459   2.546   5.927
  444SOL    HW1 2231   5.429   2.539   6.022
  444SOL    HW2 2232   5.385   2.583   5.871
  445SOL     OW 2233   1.509   5.176   3.528
  445SOL    HW1 2234   1.419   5.159   3.568
  445SOL    HW2 2235   1.574   5.198   3.601
  446SOL     OW 2236   4.084   5.153   3.175
  446SOL    HW1 2237   4.169   5.105   3.152
  446SOL    HW2 2238   4.015   5.133   3.105
  447SOL     OW 2239   0.389   3.395   6.999
  447SOL    HW1 2240   0.328   3.414   6.923
  447SOL    HW2 2241   0.336   3.365   0.053
  448SOL     OW 2242   3.025   0.453   4.912
  448SOL    HW1 2243   2.983   0.488   4.996
  448SOL    HW2 2244   3.064   0.529   4.860
  449SOL     OW 2245   4.240   0.361   5.406
  449SOL    HW1 2246   4.241   0.404   5.496
  449SOL    HW2 2247   4.177   0.410   5.346
  450SOL     OW 2248   1.176   5.578   3.641
  450SOL    HW1 2249   1.219   5.494   3.606
  450SOL    HW2 2250   1.210   5.596   3.733
  451SOL     OW 2251   1.867   1.924   3.069
  451SOL    HW1 2252   1.952   1.972   3.048
  451SOL    HW2 2253   1.839   1.944   3.163
  452SOL     OW 2254   6.384   5.826   1.055
  452SOL    HW1 2255   6.384   5.749   1.118
  452SOL    HW2 2256   6.293   5.838   1.016
  453SOL     OW 2257   3.201   0.169   4.696
  453SOL    HW1 2258   3.170   0.089   4.645
  453SOL    HW2 2259   3.230   0.240   4.632
  454SOL     OW 2260   0.116   5.164   6.349
  454SOL    HW1 2261   0.027   5.177   6.307
  454SOL    HW2 2262   0.168   5.249   6.344
  455SOL     OW 2263   6.819   1.214   3.907
  455SOL    HW1 2264   6.905   1.264   3.920
  455SOL    HW2 2265   6.745   1.263   3.953
  456SOL     OW 2266   4.885   5.316   4.307
  456SOL    HW1 2267   4.836   5.246   4.255
  456SOL    HW2 2268   4.888   5.290   4.403
  457SOL     OW 2269   2.219   3.160   3.521
  457SOL    HW1 2270   2.216   3.188   3.617
  457SOL    HW2 2271   2.213   3.241   3.463
  458SOL     OW 2272   4.847   6.207   4.421
  458SOL    HW1 2273   4.816   6.214   4.326
  458SOL    HW2 2274   4.768   6.215   4.482
  459SOL     OW 2275   1.783   6.856   3.981
  459SOL    HW1 2276   1.715   6.860   4.055
  459SOL    HW2 2277   1.736   6.862   3.893
  460SOL     OW 2278   1.291   0.635   2.849
  460SOL    HW1 2279   1.262   0.708   2.910
  460SOL    HW2 2280   1.216   0.571   2.834
  461SOL     OW 2281   5.960   6.929   4.647
  461SOL    HW1 2282   6.036   6.911   4.709
  461SOL    HW2 2283   5.884   6.868   4.668
  462SOL     OW 2284   4.113   2.561   5.954
  462SOL    HW1 2285   4.091   2.612   6.037
  462SOL    HW2 2286   4.075   2.468   5.962
  463SOL     OW 2287   6.360   5.701   3.600
  463SOL    HW1 2288   6.432   5.754   3.645
  463SOL    HW2 2289   6.272   5.747   3.613
  464SOL     OW 2290   2.701   1.835   6.090
  464SOL    HW1 2291   2.801   1.832   6.083
  464SOL    HW2 2292   2.667   1.744   6.115
  465SOL     OW 2293   1.260   2.581   4.183
  465SOL    HW1 2294   1.291   2.627   4.265
  465SOL    HW2 2295   1.306   2.492   4.175
  466SOL     OW 2296   0.802   4.969   3.168
  466SOL    HW1 2297   0.743   4.906   3.219
  466SOL    HW2 2298   0.776   5.063   3.189
  467SOL     OW 2299   1.306   0.835   6.181
  467SOL    HW1 2300   1.367   0.786   6.243
  467SOL    HW2 2301   1.267   0.914   6.229
  468SOL     OW 2302   2.997   6.315   6.505
  468SOL    HW1 2303   3.085   6.356   6.529
  468SOL    HW2 2304   2.975   6.242   6.570
  469SOL     OW 2305   2.767   4.527   0.524
  469SOL    HW1 2306   2.763   4.625   0.541
  469SOL    HW2 2307   2.862   4.497   0.517
  470SOL     OW 2308   3.978   0.231   2.507
  470SOL    HW1 2309   4.000   0.269   2.597
  470SOL    HW2 2310   3.930   0.144   2.518
  471SOL     OW 2311   1.883   2.238   4.132
  471SOL    HW1 2312   1.965   2.296   4.129
  471SOL    HW2 2313   1.887   2.179   4.213
  472SOL     OW 2314   5.412   4.270   6.768
  472SOL    HW1 2315   5.374   4.345   6.823
  472SOL    HW2 2316   5.364   4.267   6.680
  473SOL     OW 2317   0.692   3.455   1.713
  473SOL    HW1 2318   0.675   3.401   1.795
  473SOL    HW2 2319   0.627   3.430   1.642
  474SOL     OW 2320   5.003   4.799   3.900
  474SOL    HW1 2321   4.991   4.703   3.924
  474SOL    HW2 2322   4.987   4.811   3.802
  475SOL     OW 2323   5.802   1.470   6.077
  475SOL    HW1 2324   5.761   1.549   6.031
  475SOL    HW2 2325   5.857   1.502   6.154
  476SOL     OW 2326   0.140   4.002   2.277
  476SOL    HW1 2327   0.143   4.099   2.250
  476SOL    HW2 2328   0.143   3.995   2.377
  477SOL     OW 2329   1.777   4.816   5.414
  477SOL    HW1 2330   1.822   4.738   5.458
  477SOL    HW2 2331   1.689   4.786   5.375
  478SOL     OW 2332   3.262   6.838   2.803
  478SOL    HW1 2333   3.215   6.919   2.768
  478SOL    HW2 2334   3.194   6.771   2.832
  479SOL     OW 2335   4.520   2.042   6.997
  479SOL    HW1 2336   4.499   2.112   6.928
  479SOL    HW2 2337   4.442   2.030   0.033
  480SOL     OW 2338   2.253   1.142   6.940
  480SOL    HW1 2339   2.195   1.061   6.935
  480SOL    HW2 2340   2.263   1.169   0.011
  481SOL     OW 2341   1.831   0.680   7.008
  481SOL    HW1 2342   1.791   0.611   6.947
  481SOL    HW2 2343   1.871   0.754   6.954
  482SOL     OW 2344   4.472   4.636   3.192
  482SOL    HW1 2345   4.377   4.652   3.165
  482SOL    HW2 2346   4.518   4.579   3.124
  483SOL     OW 2347   6.745   1.669   2.360
  483SOL    HW1 2348   6.835   1.626   2.368
  483SOL    HW2 2349   6.700   1.637   2.277
  484SOL     OW 2350   1.268   2.707   5.184
  484SOL    HW1 2351   1.360   2.701   5.221
  484SOL    HW2 2352   1.269   2.758   5.098
  485SOL     OW 2353   4.194   5.392   2.327
  485SOL    HW1 2354   4.236   5.404   2.417
  485SOL    HW2 2355   4.255   5.428   2.256
  486SOL     OW 2356   0.066   1.695   1.244
  486SOL    HW1 2357   0.143   1.663   1.300
  486SOL    HW2 2358   0.096   1.704   1.149
  487SOL     OW 2359   0.784   1.727   0.581
  487SOL    HW1 2360   0.704   1.686   0.536
  487SOL    HW2 2361   0.804   1.815   0.539
  488SOL     OW 2362   0.719   1.498   1.308
  488SOL    HW1 2363   0.718   1.476   1.211
  488SOL    HW2 2364   0.650   1.442   1.355
  489SOL     OW 2365   3.569   6.434   6.284
  489SOL    HW1 2366   3.492   6.388   6.240
  489SOL    HW2 2367   3.590   6.519   6.236
  490SOL     OW 2368   6.886   5.596   3.198
  490SOL    HW1 2369   6.925   5.559   3.114
  490SOL    HW2 2370   6.859   5.522   3.259
  491SOL     OW 2371   6.886   3.098   1.845
  491SOL    HW1 2372   6.863   3.006   1.812
  491SOL    HW2 2373   6.880   3.163   1.769
  492SOL     OW 2374   2.879   0.231   4.791
  492SOL    HW1 2375   2.950   0.293   4.826
  492SOL    HW2 2376   2.917   0.177   4.716
  493SOL     OW 2377   5.525   6.330   5.307
  493SOL    HW1 2378   5.482   6.246   5.272
  493SOL    HW2 2379   5.462   6.376   5.370
  494SOL     OW 2380   6.949   0.532   6.599
  494SOL    HW1 2381   0.018   0.557   6.578
  494SOL    HW2 2382   6.889   0.564   6.527
  495SOL     OW 2383   4.464   5.592   2.762
  495SOL    HW1 2384   4.494   5.676   2.807
  495SOL    HW2 2385   4.521   5.516   2.794
  496SOL     OW 2386   5.391   3.721   2.671
  496SOL    HW1 2387   5.410   3.715   2.574
  496SOL    HW2 2388   5.362   3.631   2.705
  497SOL     OW 2389   3.576   0.865   5.143
  497SOL    HW1 2390   3.512   0.790   5.126
  497SOL    HW2 2391   3.573   0.929   5.066
  498SOL     OW 2392   1.419   4.110   1.415
  498SOL    HW1 2393   1.379   4.199   1.393
  498SOL    HW2 2394   1.346   4.043   1.429
  499SOL     OW 2395   3.030   0.121   4.151
  499SOL    HW1 2396   3.077   0.166   4.074
  499SOL    HW2 2397   3.047   0.173   4.235
  500SOL     OW 2398   0.966   3.349   2.753
  500SOL    HW1 2399   1.003   3.369   2.844
  500SOL    HW2 2400   0.921   3.260   2.754
  501SOL     OW 2401   2.851   6.463   0.133
  501SOL    HW1 2402   2.910   6.392   0.095
  501SOL    HW2 2403   2.815   6.432   0.221
  502SOL     OW 2404   6.801   4.473   6.449
  502SOL    HW1 2405   6.753   4.387   6.431
  502SOL    HW2 2406   6.734   4.547   6.455
  503SOL     OW 2407   5.494   6.076   6.161
  503SOL    HW1 2408   5.525   6.003   6.100
  503SOL    HW2 2409   5.408   6.050   6.203
  504SOL     OW 2410   2.135   5.153   3.238
  504SOL    HW1 2411   2.075   5.225   3.274
  504SOL    HW2 2412   2.105   5.064   3.272
  505SOL     OW 2413   3.654   6.156   4.665
  505SOL    HW1 2414   3.690   6.063   4.672
  505SOL    HW2 2415   3.568   6.163   4.715
  506SOL     OW 2416   1.532   5.266   4.898
  506SOL    HW1 2417   1.510   5.333   4.968
  506SOL    HW2 2418   1.553   5.313   4.812
  507SOL     OW 2419   2.757   0.686   3.472
  507SOL    HW1 2420   2.725   0.594   3.450
  507SOL    HW2 2421   2.715   0.715   3.558
  508SOL     OW 2422   6.516   3.309   2.707
  508SOL    HW1 2423   6.513   3.308   2.607
  508SOL    HW2 2424   6.558   3.394   2.739
  509SOL     OW 2425   3.461   1.390   1.202
  509SOL    HW1 2426   3.404   1.448   1.260
  509SOL    HW2 2427   3.536   1.444   1.163
  510SOL     OW 2428   6.854   4.993   6.326
  510SOL    HW1 2429   6.764   4.976   6.287
  510SOL    HW2 2430   6.920   4.928   6.289
  511SOL     OW 2431   0.032   0.290   6.756
  511SOL    HW1 2432   0.114   0.262   6.806
  511SOL    HW2 2433   0.052   0.375   6.706
  512SOL     OW 2434   0.246   3.273   0.163
  512SOL    HW1 2435   0.185   3.204   0.123
  512SOL    HW2 2436   0.237   3.272   0.263
  513SOL     OW 2437   5.862   6.074   3.261
  513SOL    HW1 2438   5.778   6.067   3.316
  513SOL    HW2 2439   5.882   5.986   3.218
  514SOL     OW 2440   0.205   2.819   3.802
  514SOL    HW1 2441   0.149   2.899   3.782
  514SOL    HW2 2442   0.159   2.737   3.767
  515SOL     OW 2443   2.258   0.957   6.509
  515SOL    HW1 2444   2.159   0.966   6.523
  515SOL    HW2 2445   2.306   1.009   6.580
  516SOL     OW 2446   2.550   4.558   1.800
  516SOL    HW1 2447   2.639   4.539   1.844
  516SOL    HW2 2448   2.480   4.566   1.871
  517SOL     OW 2449   4.999   5.799   2.140
  517SOL    HW1 2450   5.059   5.870   2.177
  517SOL    HW2 2451   4.990   5.725   2.206
  518SOL     OW 2452   2.515   2.536   2.319
  518SOL    HW1 2453   2.593   2.580   2.275
  518SOL    HW2 2454   2.507   2.441   2.287
  519SOL     OW 2455   0.913   1.025   4.833
  519SOL    HW1 2456   0.821   1.062   4.822
  519SOL    HW2 2457   0.979   1.089   4.795
  520SOL     OW 2458   6.204   4.735   0.194
  520SOL    HW1 2459   6.118   4.684   0.201
  520SOL    HW2 2460   6.273   4.693   0.253
  521SOL     OW 2461   6.537   3.423   6.670
  521SOL    HW1 2462   6.598   3.409   6.748
  521SOL    HW2 2463   6.588   3.464   6.595
  522SOL     OW 2464   3.533   3.869   5.509
  522SOL    HW1 2465   3.488   3.785   5.479
  522SOL    HW2 2466   3.474   3.947   5.490
  523SOL     OW 2467   0.787   4.592   1.789
  523SOL    HW1 2468   0.825   4.623   1.702
  523SOL    HW2 2469   0.722   4.660   1.823
  524SOL     OW 2470   1.677   0.753   6.667
  524SOL    HW1 2471   1.713   0.773   6.576
  524SOL    HW2 2472   1.607   0.820   6.691
  525SOL     OW 2473   2.714   4.104   6.885
  525SOL    HW1 2474   2.680   4.107   6.790
  525SOL    HW2 2475   2.764   4.020   6.900
  526SOL     OW 2476   3.638   0.152   3.941
  526SOL    HW1 2477   3.711   0.086   3.962
  526SOL    HW2 2478   3.670   0.215   3.870
  527SOL     OW 2479   6.318   3.214   6.207
  527SOL    HW1 2480   6.347   3.120   6.225
  527SOL    HW2 2481   6.398   3.269   6.181
  528SOL     OW 2482   0.957   1.498   4.016
  528SOL    HW1 2483   0.903   1.418   3.990
  528SOL    HW2 2484   0.984   1.548   3.935
  529SOL     OW 2485   0.772   6.295   4.616
  529SOL    HW1 2486   0.741   6.282   4.523
  529SOL    HW2 2487   0.720   6.369   4.659
  530SOL     OW 2488   2.610   3.099   5.404
  530SOL    HW1 2489   2.564   3.087   5.316
  530SOL    HW2 2490   2.549   3.146   5.468
  531SOL     OW 2491   0.187   0.730   1.489
  531SOL    HW1 2492   0.164   0.639   1.523
  531SOL    HW2 2493   0.109   0.768   1.439
  532SOL     OW 2494   1.323   2.102   0.052
  532SOL    HW1 2495   1.341   2.178   0.114
  532SOL    HW2 2496   1.298   2.021   0.105
  533SOL     OW 2497   3.991   6.465   3.805
  533SOL    HW1 2498   3.904   6.417   3.795
  533SOL    HW2 2499   4.014   6.511   3.719
  534SOL     OW 2500   5.401   5.062   3.050
  534SOL    HW1 2501   5.309   5.092   3.026
  534SOL    HW2 2502   5.397   5.011   3.137
  535SOL     OW 2503   0.437   3.562   4.673
  535SOL    HW1 2504   0.498   3.606   4.738
  535SOL    HW2 2505   0.462   3.589   4.580
  536SOL     OW 2506   0.354   4.704   2.070
  536SOL    HW1 2507   0.368   4.626   2.009
  536SOL    HW2 2508   0.421   4.701   2.144
  537SOL     OW 2509   1.609   6.244   3.596
  537SOL    HW1 2510   1.623   6.195   3.682
  537SOL    HW2 2511   1.554   6.325   3.612
  538SOL     OW 2512   2.063   4.389   3.708
  538SOL    HW1 2513   2.162   4.373   3.703
  538SOL    HW2 2514   2.035   4.391   3.804
  539SOL     OW 2515   0.766   6.008   0.363
  539SOL    HW1 2516   0.821   6.084   0.327
  539SOL    HW2 2517   0.821   5.954   0.426
  540SOL     OW 2518   6.773   1.071   1.976
  540SOL    HW1 2519   6.860   1.025   1.986
  540SOL    HW2 2520   6.729   1.082   2.065
  541SOL     OW 2521   2.888   6.583   4.149
  541SOL    HW1 2522   2.890   6.593   4.050
  541SOL    HW2 2523   2.805   6.533   4.176
  542SOL     OW 2524   6.556   0.271   0.133
  542SOL    HW1 2525   6.622   0.250   0.060
  542SOL    HW2 2526   6.471   0.303   0.091
  543SOL     OW 2527   1.075   5.212   4.979
  543SOL    HW1 2528   1.065   5.243   5.073
  543SOL    HW2 2529   1.009   5.260   4.921
  544SOL     OW 2530   2.068   4.403   0.963
  544SOL    HW1 2531   1.999   4.425   1.032
  544SOL    HW2 2532   2.075   4.479   0.898
  545SOL     OW 2533   3.265   1.068   3.575
  545SOL    HW1 2534   3.355   1.103   3.601
  545SOL    HW2 2535   3.221   1.133   3.513
  546SOL     OW 2536   1.658   3.350   0.137
  546SOL    HW1 2537   1.604   3.434   0.133
  546SOL    HW2 2538   1.642   3.296   0.054
  547SOL     OW 2539   2.945   1.138   6.311
  547SOL    HW1 2540   2.988   1.107   6.396
  547SOL    HW2 2541   2.992   1.098   6.233
  548SOL     OW 2542   3.835   2.947   2.706
  548SOL    HW1 2543   3.811   2.947   2.608
  548SOL    HW2 2544   3.873   3.035   2.731
  549SOL     OW 2545   4.634   3.166   1.135
  549SOL    HW1 2546   4.702   3.158   1.207
  549SOL    HW2 2547   4.546   3.192   1.174
  550SOL     OW 2548   6.757   4.264   3.523
  550SOL    HW1 2549   6.685   4.203   3.558
  550SOL    HW2 2550   6.825   4.280   3.594
  551SOL     OW 2551   0.296   1.310   1.009
  551SOL    HW1 2552   0.368   1.264   1.060
  551SOL    HW2 2553   0.220   1.332   1.071
  552SOL     OW 2554   4.572   5.454   0.881
  552SOL    HW1 2555   4.617   5.477   0.795
  552SOL    HW2 2556   4.485   5.408   0.862
  553SOL     OW 2557   2.210   0.111   1.927
  553SOL    HW1 2558   2.113   0.131   1.912
  553SOL    HW2 2559   2.219   0.044   2.001
  554SOL     OW 2560   4.959   6.287   5.982
  554SOL    HW1 2561   5.006   6.363   6.027
  554SOL    HW2 2562   4.902   6.239   6.049
  555SOL     OW 2563   1.958   5.367   4.347
  555SOL    HW1 2564   2.023   5.292   4.355
  555SOL    HW2 2565   1.998   5.441   4.293
  556SOL     OW 2566   5.791   2.327   4.041
  556SOL    HW1 2567   5.715   2.354   3.982
  556SOL    HW2 2568   5.815   2.404   4.101
  557SOL     OW 2569   0.612   5.444   6.776
  557SOL    HW1 2570   0.628   5.418   6.871
  557SOL    HW2 2571   0.699   5.455   6.729
  558SOL     OW 2572   3.368   3.965   4.487
  558SOL    HW1 2573   3.416   3.945   4.572
  558SOL    HW2 2574   3.374   3.887   4.426
  559SOL     OW 2575   5.948   6.670   0.187
  559SOL    HW1 2576   5.859   6.704   0.157
  559SOL    HW2 2577   5.950   6.570   0.179
  560SOL     OW 2578   3.697   6.229   0.486
  560SOL    HW1 2579   3.598   6.227   0.477
  560SOL    HW2 2580   3.724   6.307   0.544
  561SOL     OW 2581   6.771   0.606   0.090
  561SOL    HW1 2582   6.724   0.689   0.119
  561SOL    HW2 2583   6.861   0.602   0.133
  562SOL     OW 2584   4.701   0.403   6.655
  562SOL    HW1 2585   4.739   0.494   6.638
  562SOL    HW2 2586   4.602   0.411   6.667
  563SOL     OW 2587   2.632   0.596   3.003
  563SOL    HW1 2588   2.698   0.624   2.933
  563SOL    HW2 2589   2.678   0.541   3.072
  564SOL     OW 2590   2.190   2.206   6.114
  564SOL    HW1 2591   2.237   2.258   6.043
  564SOL    HW2 2592   2.133   2.135   6.072
  565SOL     OW 2593   4.248   3.181   5.448
  565SOL    HW1 2594   4.291   3.199   5.536
  565SOL    HW2 2595   4.251   3.265   5.392
  566SOL     OW 2596   5.530   4.107   3.394
  566SOL    HW1 2597   5.605   4.141   3.337
  566SOL    HW2 2598   5.495   4.181   3.451
  567SOL     OW 2599   2.884   3.556   3.272
  567SOL    HW1 2600   2.934   3.594   3.351
  567SOL    HW2 2601   2.885   3.456   3.278
  568SOL     OW 2602   3.635   2.430   1.265
  568SOL    HW1 2603   3.715   2.382   1.303
  568SOL    HW2 2604   3.577   2.463   1.339
  569SOL     OW 2605   2.065   3.135   0.568
  569SOL    HW1 2606   2.122   3.185   0.634
  569SOL    HW2 2607   1.972   3.125   0.605
  570SOL     OW 2608   2.200   6.398   5.562
  570SOL    HW1 2609   2.210   6.355   5.473
  570SOL    HW2 2610   2.273   6.367   5.623
  571SOL     OW 2611   3.647   7.013   2.913
  571SOL    HW1 2612   3.642   6.914   2.922
  571SOL    HW2 2613   3.555   0.027   2.926
  572SOL     OW 2614   2.642   5.136   5.869
  572SOL    HW1 2615   2.637   5.057   5.808
  572SOL    HW2 2616   2.715   5.197   5.839
  573SOL     OW 2617   4.047   2.007   5.285
  573SOL    HW1 2618   4.064   2.072   5.359
  573SOL    HW2 2619   4.079   1.916   5.312
  574SOL     OW 2620   2.157   2.142   3.444
  574SOL    HW1 2621   2.143   2.189   3.532
  574SOL    HW2 2622   2.098   2.184   3.375
  575SOL     OW 2623   6.100   4.123   5.907
  575SOL    HW1 2624   6.018   4.177   5.925
  575SOL    HW2 2625   6.087   4.069   5.824
  576SOL     OW 2626   1.421   2.089   2.201
  576SOL    HW1 2627   1.404   2.126   2.292
  576SOL    HW2 2628   1.499   2.027   2.204
  577SOL     OW 2629   2.516   0.974   2.948
  577SOL    HW1 2630   2.439   0.920   2.982
  577SOL    HW2 2631   2.490   1.018   2.862
  578SOL     OW 2632   6.486   3.465   3.412
  578SOL    HW1 2633   6.524   3.398   3.349
  578SOL    HW2 2634   6.500   3.557   3.375
  579SOL     OW 2635   3.418   2.255   1.204
  579SOL    HW1 2636   3.507   2.299   1.211
  579SOL    HW2 2637   3.361   2.304   1.138
  580SOL     OW 2638   0.671   4.571   6.637
  580SOL    HW1 2639   0.693   4.617   6.723
  580SOL    HW2 2640   0.617   4.632   6.579
  581SOL     OW 2641   3.223   3.299   2.741
  581SOL    HW1 2642   3.297   3.338   2.794
  581SOL    HW2 2643   3.246   3.205   2.715
  582SOL     OW 2644   5.365   5.006   2.656
  582SOL    HW1 2645   5.421   4.980   2.578
  582SOL    HW2 2646   5.318   4.925   2.692
  583SOL     OW 2647   2.969   5.243   6.491
  583SOL    HW1 2648   2.888   5.221   6.545
  583SOL    HW2 2649   2.982   5.342   6.489
  584SOL     OW 2650   0.956   5.562   5.445
  584SOL    HW1 2651   0.899   5.640   5.420
  584SOL    HW2 2652   0.923   5.522   5.531
  585SOL     OW 2653   6.589   2.950   5.985
  585SOL    HW1 2654   6.663   2.995   5.933
  585SOL    HW2 2655   6.534   3.020   6.030
  586SOL     OW 2656   3.320   0.172   0.039
  586SOL    HW1 2657   3.297   0.082   0.075
  586SOL    HW2 2658   3.416   0.174   0.013
  587SOL     OW 2659   1.973   2.198   5.399
  587SOL    HW1 2660   1.974   2.255   5.481
  587SOL    HW2 2661   1.890   2.217   5.346
  588SOL     OW 2662   3.244   5.976   0.950
  588SOL    HW1 2663   3.156   5.985   0.904
  588SOL    HW2 2664   3.309   5.931   0.889
  589SOL     OW 2665   3.820   5.228   2.041
  589SOL    HW1 2666   3.797   5.239   2.138
  589SOL    HW2 2667   3.920   5.229   2.031
  590SOL     OW 2668   6.450   2.765   1.707
  590SOL    HW1 2669   6.393   2.795   1.630
  590SOL    HW2 2670   6.471   2.844   1.764
  591SOL     OW 2671   3.627   6.925   3.760
  591SOL    HW1 2672   3.633   6.993   3.832
  591SOL    HW2 2673   3.673   6.841   3.790
  592SOL     OW 2674   4.325   0.287   0.895
  592SOL    HW1 2675   4.354   0.240   0.812
  592SOL    HW2 2676   4.387   0.265   0.970
  593SOL     OW 2677   4.473   2.020   3.679
  593SOL    HW1 2678   4.427   2.089   3.624
  593SOL    HW2 2679   4.453   1.929   3.641
  594SOL     OW 2680   4.395   3.055   6.566
  594SOL    HW1 2681   4.422   2.962   6.540
  594SOL    HW2 2682   4.401   3.064   6.666
  595SOL     OW 2683   4.834   6.405   3.749
  595SOL    HW1 2684   4.886   6.489   3.759
  595SOL    HW2 2685   4.878   6.332   3.802
  596SOL     OW 2686   1.433   3.955   1.169
  596SOL    HW1 2687   1.359   4.017   1.143
  596SOL    HW2 2688   1.471   3.984   1.257
  597SOL     OW 2689   4.665   0.135   5.861
  597SOL    HW1 2690   4.590   0.130   5.795
  597SOL    HW2 2691   4.690   0.042   5.890
  598SOL     OW 2692   3.685   4.051   0.411
  598SOL    HW1 2693   3.601   4.058   0.464
  598SOL    HW2 2694   3.762   4.028   0.471
  599SOL     OW 2695   0.354   0.580   3.171
  599SOL    HW1 2696   0.377   0.603   3.076
  599SOL    HW2 2697   0.432   0.535   3.214
  600SOL     OW 2698   0.632   6.979   0.813
  600SOL    HW1 2699   0.637   0.028   0.880
  600SOL    HW2 2700   0.669   6.896   0.855
  601SOL     OW 2701   3.124   5.871   3.747
  601SOL    HW1 2702   3.093   5.963   3.723
  601SOL    HW2 2703   3.044   5.811   3.758
  602SOL     OW 2704   0.955   1.436   0.410
  602SOL    HW1 2705   0.984   1.485   0.328
  602SOL    HW2 2706   0.862   1.402   0.397
  603SOL     OW 2707   4.026   1.911   4.025
  603SOL    HW1 2708   4.123   1.892   4.030
  603SOL    HW2 2709   3.976   1.854   4.090
  604SOL     OW 2710   0.600   3.273   0.916
  604SOL    HW1 2711   0.666   3.215   0.964
  604SOL    HW2 2712   0.607   3.367   0.950
  605SOL     OW 2713   6.595   5.238   3.090
  605SOL    HW1 2714   6.590   5.218   3.188
  605SOL    HW2 2715   6.513   5.287   3.061
  606SOL     OW 2716   4.917   0.942   5.636
  606SOL    HW1 2717   4.984   0.940   5.562
  606SOL    HW2 2718   4.957   0.902   5.718
  607SOL     OW 2719   5.619   0.878   4.497
  607SOL    HW1 2720   5.551   0.811   4.526
  607SOL    HW2 2721   5.710   0.837   4.498
  608SOL     OW 2722   3.665   6.955   0.500
  608SOL    HW1 2723   3.642   6.970   0.596
  608SOL    HW2 2724   3.706   0.014   0.462
  609SOL     OW 2725   3.522   3.429   4.265
  609SOL    HW1 2726   3.569   3.424   4.177
  609SOL    HW2 2727   3.424   3.445   4.250
  610SOL     OW 2728   5.521   2.136   3.306
  610SOL    HW1 2729   5.610   2.167   3.340
  610SOL    HW2 2730   5.512   2.162   3.210
  611SOL     OW 2731   0.911   0.511   6.848
  611SOL    HW1 2732   0.901   0.601   6.807
  611SOL    HW2 2733   0.828   0.488   6.900
  612SOL     OW 2734   3.243   5.823   6.023
  612SOL    HW1 2735   3.305   5.775   5.961
  612SOL    HW2 2736   3.167   5.861   5.971
  613SOL     OW 2737   4.733   0.523   5.530
  613SOL    HW1 2738   4.801   0.597   5.532
  613SOL    HW2 2739   4.742   0.467   5.612
  614SOL     OW 2740   5.760   4.798   1.185
  614SOL    HW1 2741   5.829   4.729   1.206
  614SOL    HW2 2742   5.794   4.888   1.211
  615SOL     OW 2743   1.321   0.642   6.846
  615SOL    HW1 2744   1.266   0.576   6.899
  615SOL    HW2 2745   1.261   0.709   6.803
  616SOL     OW 2746   5.891   1.986   3.670
  616SOL    HW1 2747   5.834   1.918   3.717
  616SOL    HW2 2748   5.986   1.974   3.698
  617SOL     OW 2749   0.478   4.158   6.806
  617SOL    HW1 2750   0.393   4.110   6.782
  617SOL    HW2 2751   0.528   4.179   6.722
  618SOL     OW 2752   5.768   3.610   1.040
  618SOL    HW1 2753   5.784   3.524   1.089
  618SOL    HW2 2754   5.681   3.649   1.068
  619SOL     OW 2755   3.541   6.831   6.851
  619SOL    HW1 2756   3.638   6.849   6.833
  619SOL    HW2 2757   3.511   6.755   6.793
  620SOL     OW 2758   5.672   3.351   1.207
  620SOL    HW1 2759   5.677   3.258   1.171
  620SOL    HW2 2760   5.656   3.347   1.306
  621SOL     OW 2761   2.673   0.187   5.189
  621SOL    HW1 2762   2.635   0.113   5.245
  621SOL    HW2 2763   2.702   0.262   5.248
  622SOL     OW 2764   0.770   2.436   5.034
  622SOL    HW1 2765   0.788   2.422   5.132
  622SOL    HW2 2766   0.733   2.351   4.996
  623SOL     OW 2767   6.550   7.017   5.293
  623SOL    HW1 2768   6.594   0.060   5.236
  623SOL    HW2 2769   6.472   6.978   5.244
  624SOL     OW 2770   6.845   1.123   6.654
  624SOL    HW1 2771   6.897   1.037   6.650
  624SOL    HW2 2772   6.907   1.200   6.643
  625SOL     OW 2773   1.682   0.958   0.113
  625SOL    HW1 2774   1.677   0.869   0.068
  625SOL    HW2 2775   1.767   1.004   0.088
  626SOL     OW 2776   0.872   5.434   2.598
  626SOL    HW1 2777   0.966   5.469   2.601
  626SOL    HW2 2778   0.849   5.409   2.504
  627SOL     OW 2779   6.750   6.315   0.272
  627SOL    HW1 2780   6.731   6.404   0.313
  627SOL    HW2 2781   6.800   6.328   0.186
  628SOL     OW 2782   5.432   3.998   4.635
  628SOL    HW1 2783   5.513   3.988   4.692
  628SOL    HW2 2784   5.388   4.086   4.654
  629SOL     OW 2785   0.106   1.230   0.184
  629SOL    HW1 2786   0.010   1.208   0.201
  629SOL    HW2 2787   0.113   1.318   0.138
  630SOL     OW 2788   6.530   1.391   0.440
  630SOL    HW1 2789   6.449   1.336   0.424
  630SOL    HW2 2790   6.586   1.348   0.511
  631SOL     OW 2791   3.156   1.752   4.536
  631SOL    HW1 2792   3.228   1.726   4.473
  631SOL    HW2 2793   3.086   1.805   4.487
  632SOL     OW 2794   4.300   2.967   0.306
  632SOL    HW1 2795   4.273   2.872   0.319
  632SOL    HW2 2796   4.278   3.020   0.388
  633SOL     OW 2797   2.588   4.578   0.856
  633SOL    HW1 2798   2.515   4.556   0.920
  633SOL    HW2 2799   2.551   4.581   0.763
  634SOL     OW 2800   3.655   3.481   3.870
  634SOL    HW1 2801   3.558   3.506   3.867
  634SOL    HW2 2802   3.695   3.493   3.779
  635SOL     OW 2803   4.741   6.862   6.858
  635SOL    HW1 2804   4.826   6.881   6.908
  635SOL    HW2 2805   4.744   6.909   6.770
  636SOL     OW 2806   3.428   0.214   5.070
  636SOL    HW1 2807   3.461   0.301   5.035
  636SOL    HW2 2808   3.344   0.188   5.021
  637SOL     OW 2809   6.198   1.562   2.596
  637SOL    HW1 2810   6.204   1.654   2.634
  637SOL    HW2 2811   6.115   1.517   2.629
  638SOL     OW 2812   5.984   3.581   3.752
  638SOL    HW1 2813   6.033   3.497   3.775
  638SOL    HW2 2814   5.988   3.644   3.829
  639SOL     OW 2815   5.371   4.490   3.260
  639SOL    HW1 2816   5.360   4.392   3.245
  639SOL    HW2 2817   5.282   4.535   3.258
  640SOL     OW 2818   0.150   3.745   3.465
  640SOL    HW1 2819   0.155   3.844   3.479
  640SOL    HW2 2820   0.173   3.723   3.370
  641SOL     OW 2821   1.580   5.017   5.715
  641SOL    HW1 2822   1.545   4.923   5.711
  641SOL    HW2 2823   1.574   5.058   5.624
  642SOL     OW 2824   1.597   3.395   4.709
  642SOL    HW1 2825   1.697   3.399   4.713
  642SOL    HW2 2826   1.567   3.401   4.614
  643SOL     OW 2827   6.750   6.894   6.861
  643SOL    HW1 2828   6.770   6.954   6.784
  643SOL    HW2 2829   6.706   6.811   6.827
  644SOL     OW 2830   0.992   0.815   4.505
  644SOL    HW1 2831   0.928   0.849   4.436
  644SOL    HW2 2832   1.080   0.861   4.494
  645SOL     OW 2833   3.444   4.965   3.154
  645SOL    HW1 2834   3.374   4.948   3.224
  645SOL    HW2 2835   3.533   4.931   3.187
  646SOL     OW 2836   3.900   0.830   4.905
  646SOL    HW1 2837   3.941   0.850   4.994
  646SOL    HW2 2838   3.871   0.915   4.862
  647SOL     OW 2839   5.069   1.903   4.914
  647SOL    HW1 2840   5.003   1.952   4.970
  647SOL    HW2 2841   5.026   1.822   4.873
  648SOL     OW 2842   6.573   2.951   3.255
  648SOL    HW1 2843   6.475   2.963   3.234
  648SOL    HW2 2844   6.583   2.894   3.336
  649SOL     OW 2845   1.989   4.764   7.016
  649SOL    HW1 2846   1.973   4.862   7.005
  649SOL    HW2 2847   1.915   4.723   0.044
  650SOL     OW 2848   6.913   5.504   0.451
  650SOL    HW1 2849   6.877   5.496   0.544
  650SOL    HW2 2850   6.990   5.569   0.450
  651SOL     OW 2851   1.875   0.327   5.821
  651SOL    HW1 2852   1.868   0.263   5.897
  651SOL    HW2 2853   1.806   0.399   5.832
  652SOL     OW 2854   4.223   6.832   1.745
  652SOL    HW1 2855   4.293   6.764   1.769
  652SOL    HW2 2856   4.231   6.910   1.806
  653SOL     OW 2857   0.607   6.716   0.425
  653SOL    HW1 2858   0.643   6.677   0.510
  653SOL    HW2 2859   0.524   6.667   0.398
  654SOL     OW 2860   6.907   6.567   6.283
  654SOL    HW1 2861   6.927   6.631   6.208
  654SOL    HW2 2862   6.954   6.480   6.266
  655SOL     OW 2863   0.125   5.358   1.827
  655SOL    HW1 2864   0.068   5.278   1.808
  655SOL    HW2 2865   0.145   5.362   1.925
  656SOL     OW 2866   2.482   6.345   0.807
  656SOL    HW1 2867   2.398   6.380   0.765
  656SOL    HW2 2868   2.470   6.340   0.906
  657SOL     OW 2869   3.181   3.666   1.155
  657SOL    HW1 2870   3.126   3.612   1.219
  657SOL    HW2 2871   3.264   3.615   1.131
  658SOL     OW 2872   2.014   4.241   5.647
  658SOL    HW1 2873   2.009   4.264   5.549
  658SOL    HW2 2874   2.049   4.320   5.698
  659SOL     OW 2875   2.989   5.475   4.974
  659SOL    HW1 2876   3.046   5.412   5.026
  659SOL    HW2 2877   2.965   5.554   5.031
  660SOL     OW 2878   4.931   5.240   2.045
  660SOL    HW1 2879   5.019   5.289   2.049
  660SOL    HW2 2880   4.944   5.151   2.001
  661SOL     OW 2881   4.738   4.278   4.621
  661SOL    HW1 2882   4.727   4.268   4.522
  661SOL    HW2 2883   4.687   4.359   4.653
  662SOL     OW 2884   4.144   2.034   6.494
  662SOL    HW1 2885   4.212   2.015   6.565
  662SOL    HW2 2886   4.082   1.956   6.486
  663SOL     OW 2887   0.498   4.848   6.962
  663SOL    HW1 2888   0.533   4.911   0.006
  663SOL    HW2 2889   0.552   4.858   6.878
  664SOL     OW 2890   1.813   5.404   6.966
  664SOL    HW1 2891   1.791   5.336   6.897
  664SOL    HW2 2892   1.865   5.478   6.924
  665SOL     OW 2893   4.372   5.565   1.288
  665SOL    HW1 2894   4.407   5.658   1.275
  665SOL    HW2 2895   4.435   5.499   1.247
  666SOL     OW 2896   3.671   1.696   0.734
  666SOL    HW1 2897   3.621   1.716   0.649
  666SOL    HW2 2898   3.636   1.611   0.773
  667SOL     OW 2899   0.789   2.537   4.043
  667SOL    HW1 2900   0.786   2.454   3.988
  667SOL    HW2 2901   0.700   2.553   4.084
  668SOL     OW 2902   4.526   5.805   6.761
  668SOL    HW1 2903   4.512   5.719   6.809
  668SOL    HW2 2904   4.471   5.808   6.678
  669SOL     OW 2905   1.624   6.668   3.168
  669SOL    HW1 2906   1.538   6.624   3.193
  669SOL    HW2 2907   1.605   6.756   3.124
  670SOL     OW 2908   2.992   3.774   2.751
  670SOL    HW1 2909   2.952   3.764   2.660
  670SOL    HW2 2910   2.942   3.716   2.815
  671SOL     OW 2911   2.165   6.034   6.014
  671SOL    HW1 2912   2.246   6.033   5.955
  671SOL    HW2 2913   2.194   6.047   6.109
  672SOL     OW 2914   1.289   3.377   3.754
  672SOL    HW1 2915   1.251   3.435   3.825
  672SOL    HW2 2916   1.252   3.284   3.763
  673SOL     OW 2917   4.491   6.814   6.972
  673SOL    HW1 2918   4.426   6.839   6.900
  673SOL    HW2 2919   4.584   6.826   6.939
  674SOL     OW 2920   0.149   3.210   4.110
  674SOL    HW1 2921   0.217   3.221   4.182
  674SOL    HW2 2922   0.194   3.195   4.023
  675SOL     OW 2923   0.812   2.078   5.310
  675SOL    HW1 2924   0.749   2.000   5.310
  675SOL    HW2 2925   0.906   2.044   5.315
  676SOL     OW 2926   3.333   4.892   4.041
  676SOL    HW1 2927   3.406   4.936   4.094
  676SOL    HW2 2928   3.317   4.801   4.077
  677SOL     OW 2929   5.634   0.836   0.382
  677SOL    HW1 2930   5.658   0.933   0.375
  677SOL    HW2 2931   5.575   0.822   0.462
  678SOL     OW 2932   2.383   1.270   4.955
  678SOL    HW1 2933   2.317   1.344   4.966
  678SOL    HW2 2934   2.456   1.281   5.022
  679SOL     OW 2935   3.982   1.243   4.813
  679SOL    HW1 2936   4.071   1.289   4.803
  679SOL    HW2 2937   3.978   1.165   4.751
  680SOL     OW 2938   5.693   4.818   5.707
  680SOL    HW1 2939   5.792   4.815   5.720
  680SOL    HW2 2940   5.672   4.869   5.624
  681SOL     OW 2941   6.563   0.054   1.057
  681SOL    HW1 2942   6.642   0.106   1.091
  681SOL    HW2 2943   6.562   0.055   0.957
  682SOL     OW 2944   2.540   6.695   6.296
  682SOL    HW1 2945   2.639   6.693   6.280
  682SOL    HW2 2946   2.498   6.614   6.255
  683SOL     OW 2947   3.582   0.396   5.801
  683SOL    HW1 2948   3.587   0.495   5.797
  683SOL    HW2 2949   3.523   0.362   5.727
  684SOL     OW 2950   6.183   1.570   6.024
  684SOL    HW1 2951   6.120   1.608   5.957
  684SOL    HW2 2952   6.144   1.580   6.116
  685SOL     OW 2953   5.023   0.479   5.692
  685SOL    HW1 2954   5.109   0.435   5.668
  685SOL    HW2 2955   4.976   0.424   5.760
  686SOL     OW 2956   6.041   3.176   3.493
  686SOL    HW1 2957   6.129   3.222   3.480
  686SOL    HW2 2958   6.048   3.081   3.462
  687SOL     OW 2959   6.986   3.102   6.424
  687SOL    HW1 2960   6.912   3.034   6.425
  687SOL    HW2 2961   6.957   3.183   6.474
  688SOL     OW 2962   2.031   3.546   0.209
  688SOL    HW1 2963   2.045   3.542   0.110
  688SOL    HW2 2964   2.116   3.523   0.256
  689SOL     OW 2965   1.051   4.375   5.864
  689SOL    HW1 2966   1.010   4.419   5.785
  689SOL    HW2 2967   1.021   4.421   5.947
  690SOL     OW 2968   0.960   3.171   3.343
  690SOL    HW1 2969   1.033   3.240   3.342
  690SOL    HW2 2970   0.988   3.092   3.290
  691SOL     OW 2971   2.227   1.716   6.507
  691SOL    HW1 2972   2.168   1.646   6.546
  691SOL    HW2 2973   2.201   1.806   6.543
  692SOL     OW 2974   3.145   0.065   3.698
  692SOL    HW1 2975   3.201   0.025   3.771
  692SOL    HW2 2976   3.149   0.006   3.617
  693SOL     OW 2977   6.447   1.607   3.677
  693SOL    HW1 2978   6.503   1.683   3.644
  693SOL    HW2 2979   6.502   1.523   3.680
  694SOL     OW 2980   3.459   5.844   2.235
  694SOL    HW1 2981   3.445   5.941   2.213
  694SOL    HW2 2982   3.538   5.835   2.295
  695SOL     OW 2983   4.988   5.003   5.243
  695SOL    HW1 2984   4.933   4.919   5.253
  695SOL    HW2 2985   4.976   5.040   5.151
  696SOL     OW 2986   3.038   5.066   2.238
  696SOL    HW1 2987   3.118   5.019   2.201
  696SOL    HW2 2988   3.044   5.067   2.338
  697SOL     OW 2989   1.065   3.351   6.145
  697SOL    HW1 2990   1.129   3.313   6.079
  697SOL    HW2 2991   1.033   3.279   6.206
  698SOL     OW 2992   5.916   0.167   4.844
  698SOL    HW1 2993   5.952   0.095   4.784
  698SOL    HW2 2994   5.833   0.133   4.889
  699SOL     OW 2995   1.137   4.407   0.279
  699SOL    HW1 2996   1.063   4.358   0.233
  699SOL    HW2 2997   1.191   4.456   0.211
  700SOL     OW 2998   2.793   2.306   3.496
  700SOL    HW1 2999   2.741   2.378   3.541
  700SOL    HW2 3000   2.740   2.221   3.498
  701SOL     OW 3001   1.207   4.978   6.931
  701SOL    HW1 3002   1.221   5.073   6.960
  701SOL    HW2 3003   1.168   4.976   6.840
  702SOL     OW 3004   5.935   6.154   6.442
  702SOL    HW1 3005   5.965   6.249   6.436
  702SOL    HW2 3006   5.857   6.139   6.381
  703SOL     OW 3007   4.282   3.446   0.030
  703SOL    HW1 3008   4.197   3.425   7.008
  703SOL    HW2 3009   4.335   3.362   0.041
  704SOL     OW 3010   1.809   1.136   6.175
  704SOL    HW1 3011   1.720   1.177   6.198
  704SOL    HW2 3012   1.844   1.178   6.092
  705SOL     OW 3013   5.099   0.019   3.831
  705SOL    HW1 3014   5.057   0.110   3.833
  705SOL    HW2 3015   5.035   6.978   3.870
  706SOL     OW 3016   4.385   1.539   3.719
  706SOL    HW1 3017   4.405   1.547   3.817
  706SOL    HW2 3018   4.401   1.445   3.690
  707SOL     OW 3019   4.247   6.809   2.203
  707SOL    HW1 3020   4.193   6.859   2.271
  707SOL    HW2 3021   4.324   6.866   2.173
  708SOL     OW 3022   4.443   0.209   1.143
  708SOL    HW1 3023   4.423   0.303   1.172
  708SOL    HW2 3024   4.395   0.145   1.204
  709SOL     OW 3025   1.433   5.511   1.213
  709SOL    HW1 3026   1.358   5.549   1.158
  709SOL    HW2 3027   1.421   5.413   1.222
  710SOL     OW 3028   3.619   4.120   2.978
  710SOL    HW1 3029   3.610   4.042   3.040
  710SOL    HW2 3030   3.638   4.203   3.030
  711SOL     OW 3031   0.476   1.959   5.927
  711SOL    HW1 3032   0.533   1.989   6.003
  711SOL    HW2 3033   0.483   1.860   5.916
  712SOL     OW 3034   1.753   4.423   0.881
  712SOL    HW1 3035   1.783   4.351   0.817
  712SOL    HW2 3036   1.806   4.415   0.966
  713SOL     OW 3037   3.277   4.273   0.765
  713SOL    HW1 3038   3.320   4.361   0.784
  713SOL    HW2 3039   3.270   4.220   0.850
  714SOL     OW 3040   5.779   4.124   5.219
  714SOL    HW1 3041   5.751   4.064   5.143
  714SOL    HW2 3042   5.804   4.213   5.183
  715SOL     OW 3043   4.887   5.867   6.952
  715SOL    HW1 3044   4.893   5.793   6.886
  715SOL    HW2 3045   4.977   5.886   6.991
  716SOL     OW 3046   0.924   5.493   1.249
  716SOL    HW1 3047   1.017   5.509   1.282
  716SOL    HW2 3048   0.883   5.417   1.300
  717SOL     OW 3049   6.279   4.877   6.438
  717SOL    HW1 3050   6.299   4.779   6.445
  717SOL    HW2 3051   6.184   4.893   6.464
  718SOL     OW 3052   3.563   2.021   6.217
  718SOL    HW1 3053   3.616   1.994   6.298
  718SOL    HW2 3054   3.607   1.985   6.135
  719SOL     OW 3055   6.582   2.210   2.214
  719SOL    HW1 3056   6.535   2.276   2.155
  719SOL    HW2 3057   6.603   2.253   2.302
  720SOL     OW 3058   2.787   1.688   5.863
  720SOL    HW1 3059   2.739   1.742   5.932
  720SOL    HW2 3060   2.819   1.603   5.905
  721SOL     OW 3061   1.496   0.560   4.900
  721SOL    HW1 3062   1.466   0.606   4.816
  721SOL    HW2 3063   1.530   0.629   4.965
  722SOL     OW 3064   4.325   6.602   5.027
  722SOL    HW1 3065   4.377   6.604   4.942
  722SOL    HW2 3066   4.383   6.570   5.102
  723SOL     OW 3067   2.262   3.024   1.758
  723SOL    HW1 3068   2.330   3.090   1.724
  723SOL    HW2 3069   2.225   3.057   1.845
  724SOL     OW 3070   1.469   1.586   4.914
  724SOL    HW1 3071   1.514   1.502   4.944
  724SOL    HW2 3072   1.419   1.626   4.990
  725SOL     OW 3073   2.500   5.076   2.293
  725SOL    HW1 3074   2.472   5.099   2.200
  725SOL    HW2 3075   2.428   5.102   2.357
  726SOL     OW 3076   4.015   4.555   0.094
  726SOL    HW1 3077   4.064   4.531   0.011
  726SOL    HW2 3078   4.077   4.553   0.172
  727SOL     OW 3079   4.433   6.000   4.094
  727SOL    HW1 3080   4.403   5.906   4.109
  727SOL    HW2 3081   4.465   6.010   3.999
  728SOL     OW 3082   0.175   4.398   5.135
  728SOL    HW1 3083   0.201   4.327   5.201
  728SOL    HW2 3084   0.255   4.452   5.110
  729SOL     OW 3085   2.485   0.671   0.349
  729SOL    HW1 3086   2.401   0.643   0.303
  729SOL    HW2 3087   2.558   0.680   0.282
  730SOL     OW 3088   5.716   0.100   3.273
  730SOL    HW1 3089   5.680   0.081   3.182
  730SOL    HW2 3090   5.798   0.046   3.289
  731SOL     OW 3091   5.560   3.288   6.201
  731SOL    HW1 3092   5.538   3.351   6.276
  731SOL    HW2 3093   5.641   3.234   6.225
  732SOL     OW 3094   0.476   3.661   0.876
  732SOL    HW1 3095   0.552   3.637   0.937
  732SOL    HW2 3096   0.450   3.582   0.821
  733SOL     OW 3097   5.528   4.369   4.614
  733SOL    HW1 3098   5.510   4.466   4.629
  733SOL    HW2 3099   5.519   4.348   4.516
  734SOL     OW 3100   6.475   4.557   2.632
  734SOL    HW1 3101   6.497   4.539   2.728
  734SOL    HW2 3102   6.546   4.614   2.592
  735SOL     OW 3103   3.103   2.612   0.862
  735SOL    HW1 3104   3.127   2.597   0.958
  735SOL    HW2 3105   3.057   2.700   0.852
  736SOL     OW 3106   7.022   6.641   2.793
  736SOL    HW1 3107   6.975   6.685   2.870
  736SOL    HW2 3108   0.093   6.626   2.816
  737SOL     OW 3109   4.773   3.568   1.077
  737SOL    HW1 3110   4.737   3.499   1.015
  737SOL    HW2 3111   4.788   3.527   1.167
  738SOL     OW 3112   1.855   4.868   3.983
  738SOL    HW1 3113   1.920   4.831   4.050
  738SOL    HW2 3114   1.810   4.793   3.935
  739SOL     OW 3115   4.977   5.999   5.540
  739SOL    HW1 3116   4.987   5.924   5.605
  739SOL    HW2 3117   5.037   5.984   5.462
  740SOL     OW 3118   5.708   0.410   0.827
  740SOL    HW1 3119   5.692   0.492   0.773
  740SOL    HW2 3120   5.641   0.404   0.901
  741SOL     OW 3121   2.008   6.313   3.596
  741SOL    HW1 3122   1.952   6.332   3.515
  741SOL    HW2 3123   1.953   6.327   3.678
  742SOL     OW 3124   2.004   0.177   2.380
  742SOL    HW1 3125   2.059   0.198   2.461
  742SOL    HW2 3126   2.043   0.096   2.334
  743SOL     OW 3127   1.721   4.335   4.531
  743SOL    HW1 3128   1.819   4.315   4.527
  743SOL    HW2 3129   1.706   4.433   4.523
  744SOL     OW 3130   6.864   6.912   6.445
  744SOL    HW1 3131   6.891   6.987   6.385
  744SOL    HW2 3132   6.913   6.829   6.418
  745SOL     OW 3133   1.046   6.439   4.218
  745SOL    HW1 3134   1.101   6.481   4.146
  745SOL    HW2 3135   0.972   6.385   4.177
  746SOL     OW 3136   0.134   6.691   5.089
  746SOL    HW1 3137   0.211   6.746   5.122
  746SOL    HW2 3138   0.059   6.751   5.061
  747SOL     OW 3139   4.552   5.067   4.393
  747SOL    HW1 3140   4.492   4.988   4.392
  747SOL    HW2 3141   4.627   5.053   4.328
  748SOL     OW 3142   4.352   5.238   2.620
  748SOL    HW1 3143   4.276   5.204   2.675
  748SOL    HW2 3144   4.428   5.264   2.680
  749SOL     OW 3145   6.829   3.421   5.036
  749SOL    HW1 3146   6.743   3.471   5.045
  749SOL    HW2 3147   6.902   3.470   5.084
  750SOL     OW 3148   1.809   3.092   0.698
  750SOL    HW1 3149   1.723   3.114   0.745
  750SOL    HW2 3150   1.791   3.027   0.625
  751SOL     OW 3151   4.039   1.839   6.225
  751SOL    HW1 3152   4.000   1.837   6.133
  751SOL    HW2 3153   4.092   1.755   6.241
  752SOL     OW 3154   4.297   2.327   1.965
  752SOL    HW1 3155   4.274   2.292   1.874
  752SOL    HW2 3156   4.342   2.416   1.955
  753SOL     OW 3157   2.111   3.445   4.381
  753SOL    HW1 3158   2.035   3.394   4.422
  753SOL    HW2 3159   2.169   3.383   4.329
  754SOL     OW 3160   5.918   3.633   6.713
  754SOL    HW1 3161   5.869   3.624   6.800
  754SOL    HW2 3162   5.872   3.579   6.643
  755SOL     OW 3163   1.291   5.839   0.093
  755SOL    HW1 3164   1.193   5.857   0.081
  755SOL    HW2 3165   1.315   5.755   0.044
  756SOL     OW 3166   4.922   6.662   1.139
  756SOL    HW1 3167   4.888   6.629   1.051
  756SOL    HW2 3168   4.987   6.596   1.177
  757SOL     OW 3169   0.720   5.889   3.315
  757SOL    HW1 3170   0.633   5.892   3.365
  757SOL    HW2 3171   0.704   5.910   3.219
  758SOL     OW 3172   3.918   1.038   1.138
  758SOL    HW1 3173   3.837   1.019   1.082
  758SOL    HW2 3174   3.923   0.973   1.213
  759SOL     OW 3175   6.783   1.020   0.721
  759SOL    HW1 3176   6.763   1.045   0.816
  759SOL    HW2 3177   6.701   0.979   0.680
  760SOL     OW 3178   4.266   1.422   6.576
  760SOL    HW1 3179   4.307   1.404   6.486
  760SOL    HW2 3180   4.271   1.520   6.595
  761SOL     OW 3181   5.044   3.700   6.819
  761SOL    HW1 3182   5.061   3.789   6.860
  761SOL    HW2 3183   4.964   3.705   6.760
  762SOL     OW 3184   2.422   6.039   3.292
  762SOL    HW1 3185   2.352   5.974   3.321
  762SOL    HW2 3186   2.435   6.108   3.364
  763SOL     OW 3187   4.243   5.794   6.639
  763SOL    HW1 3188   4.220   5.798   6.541
  763SOL    HW2 3189   4.165   5.827   6.692
  764SOL     OW 3190   4.422   0.087   4.275
  764SOL    HW1 3191   4.474   0.160   4.230
  764SOL    HW2 3192   4.357   0.047   4.210
  765SOL     OW 3193   1.572   6.362   1.398
  765SOL    HW1 3194   1.533   6.372   1.306
  765SOL    HW2 3195   1.517   6.298   1.450
  766SOL     OW 3196   0.261   1.943   7.022
  766SOL    HW1 3197   0.310   1.857   0.011
  766SOL    HW2 3198   0.163   1.924   7.012
  767SOL     OW 3199   0.497   6.231   2.352
  767SOL    HW1 3200   0.486   6.239   2.253
  767SOL    HW2 3201   0.539   6.314   2.388
  768SOL     OW 3202   2.103   0.844   2.682
  768SOL    HW1 3203   2.123   0.930   2.634
  768SOL    HW2 3204   2.075   0.775   2.616
  769SOL     OW 3205   2.981   6.901   3.867
  769SOL    HW1 3206   3.071   6.935   3.895
  769SOL    HW2 3207   2.982   6.801   3.867
  770SOL     OW 3208   2.089   4.541   3.030
  770SOL    HW1 3209   2.160   4.527   2.961
  770SOL    HW2 3210   2.088   4.462   3.093
  771SOL     OW 3211   1.993   5.393   2.465
  771SOL    HW1 3212   1.952   5.432   2.382
  771SOL    HW2 3213   1.933   5.321   2.500
  772SOL     OW 3214   6.580   5.064   0.686
  772SOL    HW1 3215   6.571   5.161   0.667
  772SOL    HW2 3216   6.492   5.018   0.669
  773SOL     OW 3217   0.627   3.659   3.659
  773SOL    HW1 3218   0.635   3.590   3.587
  773SOL    HW2 3219   0.606   3.613   3.746
  774SOL     OW 3220   1.078   1.817   2.094
  774SOL    HW1 3221   1.002   1.753   2.078
  774SOL    HW2 3222   1.060   1.869   2.178
  775SOL     OW 3223   1.184   1.858   3.634
  775SOL    HW1 3224   1.250   1.862   3.709
  775SOL    HW2 3225   1.143   1.949   3.621
  776SOL     OW 3226   6.788   1.091   6.358
  776SOL    HW1 3227   6.836   1.005   6.338
  776SOL    HW2 3228   6.767   1.096   6.455
  777SOL     OW 3229   3.349   0.054   0.986
  777SOL    HW1 3230   3.370   0.124   0.918
  777SOL    HW2 3231   3.425   0.045   1.049
  778SOL     OW 3232   3.667   1.463   3.834
  778SOL    HW1 3233   3.725   1.470   3.915
  778SOL    HW2 3234   3.692   1.535   3.769
  779SOL     OW 3235   0.928   1.706   2.809
  779SOL    HW1 3236   0.853   1.729   2.746
  779SOL    HW2 3237   0.979   1.788   2.832
  780SOL     OW 3238   6.067   3.459   4.797
  780SOL    HW1 3239   6.035   3.534   4.855
  780SOL    HW2 3240   6.052   3.483   4.701
  781SOL     OW 3241   6.197   1.323   5.911
  781SOL    HW1 3242   6.098   1.310   5.903
  781SOL    HW2 3243   6.216   1.401   5.971
  782SOL     OW 3244   1.282   4.182   0.190
  782SOL    HW1 3245   1.223   4.249   0.235
  782SOL    HW2 3246   1.227   4.101   0.167
  783SOL     OW 3247   4.026   4.278   0.650
  783SOL    HW1 3248   3.982   4.303   0.564
  783SOL    HW2 3249   3.976   4.318   0.727
  784SOL     OW 3250   5.564   7.001   5.574
  784SOL    HW1 3251   5.648   6.947   5.585
  784SOL    HW2 3252   5.493   6.964   5.633
  785SOL     OW 3253   6.905   2.145   3.172
  785SOL    HW1 3254   6.971   2.071   3.165
  785SOL    HW2 3255   6.841   2.141   3.096
  786SOL     OW 3256   1.094   0.544   0.750
  786SOL    HW1 3257   1.047   0.502   0.828
  786SOL    HW2 3258   1.061   0.637   0.737
  787SOL     OW 3259   3.308   1.452   6.331
  787SOL    HW1 3260   3.247   1.410   6.264
  787SOL    HW2 3261   3.368   1.517   6.284
  788SOL     OW 3262   2.471   2.616   4.904
  788SOL    HW1 3263   2.470   2.632   5.003
  788SOL    HW2 3264   2.396   2.555   4.879
  789SOL     OW 3265   5.824   4.331   1.572
  789SOL    HW1 3266   5.923   4.343   1.568
  789SOL    HW2 3267   5.795   4.263   1.505
  790SOL     OW 3268   2.386   1.362   3.853
  790SOL    HW1 3269   2.424   1.289   3.910
  790SOL    HW2 3270   2.288   1.371   3.872
  791SOL     OW 3271   3.503   0.375   3.525
  791SOL    HW1 3272   3.543   0.443   3.464
  791SOL    HW2 3273   3.571   0.345   3.592
  792SOL     OW 3274   6.993   0.343   1.297
  792SOL    HW1 3275   0.049   0.285   1.284
  792SOL    HW2 3276   6.993   0.414   1.227
  793SOL     OW 3277   4.240   6.326   2.343
  793SOL    HW1 3278   4.160   6.266   2.350
  793SOL    HW2 3279   4.212   6.412   2.300
  794SOL     OW 3280   2.322   3.757   5.280
  794SOL    HW1 3281   2.383   3.694   5.327
  794SOL    HW2 3282   2.372   3.838   5.252
  795SOL     OW 3283   2.796   5.360   5.238
  795SOL    HW1 3284   2.734   5.434   5.262
  795SOL    HW2 3285   2.744   5.279   5.214
  796SOL     OW 3286   0.713   2.545   6.460
  796SOL    HW1 3287   0.628   2.496   6.439
  796SOL    HW2 3288   0.791   2.493   6.426
  797SOL     OW 3289   5.632   2.779   2.759
  797SOL    HW1 3290   5.563   2.712   2.788
  797SOL    HW2 3291   5.715   2.767   2.815
  798SOL     OW 3292   5.095   0.058   1.156
  798SOL    HW1 3293   5.141   0.047   1.068
  798SOL    HW2 3294   5.163   0.054   1.229
  799SOL     OW 3295   6.741   0.852   4.093
  799SOL    HW1 3296   6.838   0.852   4.120
  799SOL    HW2 3297   6.721   0.768   4.043
  800SOL     OW 3298   5.652   1.172   2.659
  800SOL    HW1 3299   5.631   1.265   2.689
  800SOL    HW2 3300   5.649   1.168   2.559
  801SOL     OW 3301   1.365   3.855   2.843
  801SOL    HW1 3302   1.392   3.942   2.885
  801SOL    HW2 3303   1.444   3.794   2.839
  802SOL     OW 3304   4.257   0.791   0.539
  802SOL    HW1 3305   4.307   0.718   0.494
  802SOL    HW2 3306   4.195   0.752   0.607
  803SOL     OW 3307   6.967   6.015   5.199
  803SOL    HW1 3308   7.005   5.943   5.141
  803SOL    HW2 3309   6.961   5.983   5.293
  804SOL     OW 3310   6.231   6.592   6.993
  804SOL    HW1 3311   6.159   6.558   0.029
  804SOL    HW2 3312   6.188   6.633   6.912
  805SOL     OW 3313   3.984   2.301   5.962
  805SOL    HW1 3314   3.886   2.320   5.958
  805SOL    HW2 3315   4.003   2.236   6.035
  806SOL     OW 3316   4.175   1.454   5.035
  806SOL    HW1 3317   4.228   1.499   5.106
  806SOL    HW2 3318   4.144   1.521   4.968
  807SOL     OW 3319   0.749   1.756   3.550
  807SOL    HW1 3320   0.682   1.693   3.511
  807SOL    HW2 3321   0.840   1.714   3.546
  808SOL     OW 3322   4.808   3.630   6.676
  808SOL    HW1 3323   4.798   3.665   6.583
  808SOL    HW2 3324   4.861   3.545   6.673
  809SOL     OW 3325   0.847   4.727   1.569
  809SOL    HW1 3326   0.776   4.729   1.498
  809SOL    HW2 3327   0.847   4.813   1.619
  810SOL     OW 3328   4.299   2.883   1.127
  810SOL    HW1 3329   4.269   2.820   1.055
  810SOL    HW2 3330   4.235   2.960   1.132
  811SOL     OW 3331   4.762   4.911   3.452
  811SOL    HW1 3332   4.777   4.928   3.354
  811SOL    HW2 3333   4.699   4.979   3.489
  812SOL     OW 3334   0.136   0.965   1.870
  812SOL    HW1 3335   0.106   1.038   1.930
  812SOL    HW2 3336   0.200   1.002   1.802
  813SOL     OW 3337   4.054   5.239   4.245
  813SOL    HW1 3338   4.144   5.202   4.268
  813SOL    HW2 3339   4.064   5.309   4.175
  814SOL     OW 3340   5.310   6.532   3.555
  814SOL    HW1 3341   5.335   6.462   3.487
  814SOL    HW2 3342   5.228   6.581   3.523
  815SOL     OW 3343   6.539   3.093   2.069
  815SOL    HW1 3344   6.483   3.111   2.151
  815SOL    HW2 3345   6.593   3.011   2.083
  816SOL     OW 3346   0.044   0.020   0.016
  816SOL    HW1 3347   6.971   0.040   0.020
  816SOL    HW2 3348   0.095   0.099   0.049
  817SOL     OW 3349   2.021   3.489   2.220
  817SOL    HW1 3350   1.961   3.567   2.201
  817SOL    HW2 3351   2.087   3.478   2.145
  818SOL     OW 3352   6.594   3.094   1.231
  818SOL    HW1 3353   6.694   3.089   1.238
  818SOL    HW2 3354   6.561   3.170   1.287
  819SOL     OW 3355   5.995   3.276   3.890
  819SOL    HW1 3356   6.031   3.191   3.927
  819SOL    HW2 3357   6.063   3.319   3.831
  820SOL     OW 3358   1.351   3.003   6.105
  820SOL    HW1 3359   1.325   2.978   6.012
  820SOL    HW2 3360   1.344   2.924   6.165
  821SOL     OW 3361   2.664   4.427   0.309
  821SOL    HW1 3362   2.730   4.396   0.241
  821SOL    HW2 3363   2.712   4.458   0.391
  822SOL     OW 3364   1.034   4.738   4.915
  822SOL    HW1 3365   1.057   4.834   4.894
  822SOL    HW2 3366   1.045   4.683   4.832
  823SOL     OW 3367   4.650   4.498   6.985
  823SOL    HW1 3368   4.550   4.506   6.985
  823SOL    HW2 3369   4.677   4.419   6.930
  824SOL     OW 3370   5.477   0.989   5.694
  824SOL    HW1 3371   5.470   0.980   5.595
  824SOL    HW2 3372   5.434   1.075   5.723
  825SOL     OW 3373   1.995   3.655   1.547
  825SOL    HW1 3374   2.024   3.579   1.489
  825SOL    HW2 3375   2.023   3.637   1.641
  826SOL     OW 3376   5.562   3.974   0.786
  826SOL    HW1 3377   5.481   3.944   0.837
  826SOL    HW2 3378   5.553   4.071   0.764
  827SOL     OW 3379   2.927   5.350   5.487
  827SOL    HW1 3380   2.876   5.264   5.495
  827SOL    HW2 3381   2.874   5.415   5.433
  828SOL     OW 3382   6.338   0.600   5.487
  828SOL    HW1 3383   6.326   0.641   5.396
  828SOL    HW2 3384   6.434   0.580   5.502
  829SOL     OW 3385   2.934   3.510   4.460
  829SOL    HW1 3386   2.984   3.490   4.376
  829SOL    HW2 3387   2.892   3.600   4.453
  830SOL     OW 3388   5.028   4.441   5.963
  830SOL    HW1 3389   5.004   4.348   5.935
  830SOL    HW2 3390   5.111   4.470   5.915
  831SOL     OW 3391   6.981   0.401   4.891
  831SOL    HW1 3392   0.007   0.387   4.806
  831SOL    HW2 3393   0.014   0.448   4.957
  832SOL     OW 3394   1.918   0.828   6.786
  832SOL    HW1 3395   1.853   0.778   6.730
  832SOL    HW2 3396   1.937   0.916   6.744
  833SOL     OW 3397   0.484   5.608   6.065
  833SOL    HW1 3398   0.538   5.574   5.988
  833SOL    HW2 3399   0.399   5.650   6.031
  834SOL     OW 3400   3.888   4.010   1.925
  834SOL    HW1 3401   3.843   4.085   1.877
  834SOL    HW2 3402   3.872   4.019   2.023
  835SOL     OW 3403   3.566   6.946   4.325
  835SOL    HW1 3404   3.540   6.854   4.356
  835SOL    HW2 3405   3.633   6.984   4.389
  836SOL     OW 3406   2.947   6.157   6.702
  836SOL    HW1 3407   2.863   6.151   6.755
  836SOL    HW2 3408   3.018   6.101   6.745
  837SOL     OW 3409   5.023   6.734   6.687
  837SOL    HW1 3410   4.980   6.652   6.650
  837SOL    HW2 3411   5.083   6.775   6.617
  838SOL     OW 3412   0.448   0.434   4.882
  838SOL    HW1 3413   0.497   0.357   4.840
  838SOL    HW2 3414   0.500   0.518   4.869
  839SOL     OW 3415   2.723   1.651   2.121
  839SOL    HW1 3416   2.738   1.604   2.034
  839SOL    HW2 3417   2.729   1.584   2.196
  840SOL     OW 3418   5.824   0.724   5.611
  840SOL    HW1 3419   5.907   0.699   5.561
  840SOL    HW2 3420   5.762   0.773   5.551
  841SOL     OW 3421   6.146   4.487   0.466
  841SOL    HW1 3422   6.100   4.446   0.386
  841SOL    HW2 3423   6.196   4.416   0.515
  842SOL     OW 3424   4.239   5.204   3.853
  842SOL    HW1 3425   4.266   5.233   3.762
  842SOL    HW2 3426   4.288   5.258   3.922
  843SOL     OW 3427   4.844   2.210   0.468
  843SOL    HW1 3428   4.813   2.115   0.471
  843SOL    HW2 3429   4.943   2.212   0.453
  844SOL     OW 3430   4.771   6.595   0.907
  844SOL    HW1 3431   4.684   6.608   0.954
  844SOL    HW2 3432   4.760   6.528   0.834
  845SOL     OW 3433   6.296   3.330   4.271
  845SOL    HW1 3434   6.303   3.426   4.245
  845SOL    HW2 3435   6.293   3.273   4.189
  846SOL     OW 3436   5.342   1.696   6.640
  846SOL    HW1 3437   5.343   1.690   6.540
  846SOL    HW2 3438   5.319   1.789   6.668
  847SOL     OW 3439   6.137   3.413   1.096
  847SOL    HW1 3440   6.072   3.408   1.172
  847SOL    HW2 3441   6.112   3.489   1.036
  848SOL     OW 3442   5.742   1.249   6.700
  848SOL    HW1 3443   5.789   1.331   6.667
  848SOL    HW2 3444   5.673   1.275   6.768
  849SOL     OW 3445   0.521   5.571   5.339
  849SOL    HW1 3446   0.600   5.591   5.281
  849SOL    HW2 3447   0.512   5.643   5.409
  850SOL     OW 3448   4.880   0.821   3.598
  850SOL    HW1 3449   4.787   0.786   3.608
  850SOL    HW2 3450   4.912   0.857   3.686
  851SOL     OW 3451   6.943   1.201   0.624
  851SOL    HW1 3452   6.875   1.136   0.659
  851SOL    HW2 3453   7.023   1.200   0.684
  852SOL     OW 3454   2.276   2.589   7.024
  852SOL    HW1 3455   2.292   2.617   0.093
  852SOL    HW2 3456   2.269   2.671   6.966
  853SOL     OW 3457   1.040   3.602   3.670
  853SOL    HW1 3458   1.126   3.654   3.668
  853SOL    HW2 3459   0.967   3.660   3.706
  854SOL     OW 3460   5.339   6.215   2.278
  854SOL    HW1 3461   5.290   6.245   2.360
  854SOL    HW2 3462   5.408   6.147   2.304
  855SOL     OW 3463   5.986   6.873   1.169
  855SOL    HW1 3464   5.984   6.963   1.126
  855SOL    HW2 3465   5.938   6.875   1.256
  856SOL     OW 3466   1.953   0.888   5.244
  856SOL    HW1 3467   2.020   0.962   5.253
  856SOL    HW2 3468   1.965   0.824   5.321
  857SOL     OW 3469   6.052   5.312   1.203
  857SOL    HW1 3470   6.076   5.221   1.170
  857SOL    HW2 3471   5.953   5.320   1.213
  858SOL     OW 3472   2.546   4.575   2.162
  858SOL    HW1 3473   2.515   4.670   2.160
  858SOL    HW2 3474   2.619   4.562   2.094
  859SOL     OW 3475   5.694   5.523   6.454
  859SOL    HW1 3476   5.734   5.431   6.447
  859SOL    HW2 3477   5.736   5.572   6.530
  860SOL     OW 3478   4.941   4.300   0.392
  860SOL    HW1 3479   4.875   4.275   0.463
  860SOL    HW2 3480   4.987   4.384   0.419
  861SOL     OW 3481   2.267   6.871   4.645
  861SOL    HW1 3482   2.321   6.831   4.718
  861SOL    HW2 3483   2.224   6.956   4.678
  862SOL     OW 3484   6.007   3.698   4.911
  862SOL    HW1 3485   6.019   3.797   4.909
  862SOL    HW2 3486   6.040   3.662   4.998
  863SOL     OW 3487   1.117   0.152   0.449
  863SOL    HW1 3488   1.187   0.205   0.401
  863SOL    HW2 3489   1.152   0.060   0.467
  864SOL     OW 3490   5.275   4.580   3.713
  864SOL    HW1 3491   5.224   4.579   3.799
  864SOL    HW2 3492   5.211   4.578   3.637
  865SOL     OW 3493   0.673   6.968   4.842
  865SOL    HW1 3494   0.717   6.898   4.786
  865SOL    HW2 3495   0.704   0.033   4.811
  866SOL     OW 3496   2.121   1.799   1.970
  866SOL    HW1 3497   2.088   1.711   1.935
  866SOL    HW2 3498   2.090   1.873   1.910
  867SOL     OW 3499   3.231   2.556   1.141
  867SOL    HW1 3500   3.175   2.515   1.214
  867SOL    HW2 3501   3.299   2.616   1.182
  868SOL     OW 3502   6.041   6.518   1.407
  868SOL    HW1 3503   6.132   6.535   1.446
  868SOL    HW2 3504   6.042   6.541   1.310
  869SOL     OW 3505   6.333   5.402   3.091
  869SOL    HW1 3506   6.233   5.400   3.083
  869SOL    HW2 3507   6.358   5.443   3.179
  870SOL     OW 3508   6.171   4.004   1.518
  870SOL    HW1 3509   6.207   4.031   1.607
  870SOL    HW2 3510   6.222   3.926   1.484
  871SOL     OW 3511   0.079   3.310   1.841
  871SOL    HW1 3512   0.086   3.276   1.747
  871SOL    HW2 3513   0.018   3.251   1.894
  872SOL     OW 3514   6.602   3.626   4.417
  872SOL    HW1 3515   6.648   3.539   4.436
  872SOL    HW2 3516   6.644   3.670   4.338
  873SOL     OW 3517   4.438   0.740   2.902
  873SOL    HW1 3518   4.492   0.760   2.820
  873SOL    HW2 3519   4.480   0.663   2.950
  874SOL     OW 3520   1.490   4.113   5.342
  874SOL    HW1 3521   1.468   4.188   5.405
  874SOL    HW2 3522   1.408   4.089   5.290
  875SOL     OW 3523   5.002   4.512   0.875
  875SOL    HW1 3524   5.042   4.566   0.949
  875SOL    HW2 3525   4.952   4.573   0.813
  876SOL     OW 3526   6.586   4.476   3.427
  876SOL    HW1 3527   6.646   4.542   3.382
  876SOL    HW2 3528   6.642   4.403   3.468
  877SOL     OW 3529   4.720   4.774   0.023
  877SOL    HW1 3530   4.800   4.756   0.080
  877SOL    HW2 3531   4.679   4.687   7.021
  878SOL     OW 3532   4.018   5.247   6.984
  878SOL    HW1 3533   4.039   5.344   6.971
  878SOL    HW2 3534   4.079   5.191   6.927
  879SOL     OW 3535   4.074   1.678   2.443
  879SOL    HW1 3536   4.066   1.774   2.472
  879SOL    HW2 3537   4.151   1.635   2.490
  880SOL     OW 3538   3.309   4.305   6.934
  880SOL    HW1 3539   3.278   4.400   6.932
  880SOL    HW2 3540   3.291   4.265   7.024
  881SOL     OW 3541   4.245   4.784   5.024
  881SOL    HW1 3542   4.308   4.706   5.025
  881SOL    HW2 3543   4.237   4.818   4.930
  882SOL     OW 3544   1.905   1.503   4.028
  882SOL    HW1 3545   1.854   1.432   3.979
  882SOL    HW2 3546   1.932   1.469   4.118
  883SOL     OW 3547   4.291   4.934   5.331
  883SOL    HW1 3548   4.253   5.009   5.385
  883SOL    HW2 3549   4.238   4.851   5.348
  884SOL     OW 3550   6.848   3.413   2.219
  884SOL    HW1 3551   6.749   3.415   2.236
  884SOL    HW2 3552   6.871   3.487   2.155
  885SOL     OW 3553   5.791   6.708   0.519
  885SOL    HW1 3554   5.845   6.694   0.602
  885SOL    HW2 3555   5.772   6.620   0.476
  886SOL     OW 3556   4.009   0.892   0.295
  886SOL    HW1 3557   4.102   0.926   0.305
  886SOL    HW2 3558   3.952   0.964   0.254
  887SOL     OW 3559   4.128   6.528   5.937
  887SOL    HW1 3560   4.190   6.515   5.860
  887SOL    HW2 3561   4.095   6.622   5.937
  888SOL     OW 3562   6.977   6.268   3.687
  888SOL    HW1 3563   6.919   6.349   3.675
  888SOL    HW2 3564   6.977   6.241   3.783
  889SOL     OW 3565   0.161   0.086   6.019
  889SOL    HW1 3566   0.128   0.136   5.938
  889SOL    HW2 3567   0.096   0.012   6.040
  890SOL     OW 3568   2.858   4.748   2.249
  890SOL    HW1 3569   2.822   4.837   2.220
  890SOL    HW2 3570   2.846   4.681   2.176
  891SOL     OW 3571   6.038   3.400   1.569
  891SOL    HW1 3572   5.997   3.362   1.486
  891SOL    HW2 3573   6.034   3.333   1.642
  892SOL     OW 3574   4.003   3.834   0.357
  892SOL    HW1 3575   4.045   3.784   0.433
  892SOL    HW2 3576   3.908   3.805   0.346
  893SOL     OW 3577   1.766   0.694   0.992
  893SOL    HW1 3578   1.667   0.685   0.987
  893SOL    HW2 3579   1.797   0.760   0.923
  894SOL     OW 3580   1.997   4.560   4.399
  894SOL    HW1 3581   1.910   4.578   4.445
  894SOL    HW2 3582   2.071   4.556   4.466
  895SOL     OW 3583   1.917   6.849   4.572
  895SOL    HW1 3584   1.998   6.855   4.513
  895SOL    HW2 3585   1.895   6.940   4.607
  896SOL     OW 3586   6.031   5.783   4.173
  896SOL    HW1 3587   6.093   5.849   4.216
  896SOL    HW2 3588   6.061   5.767   4.079
  897SOL     OW 3589   4.737   1.345   0.504
  897SOL    HW1 3590   4.787   1.286   0.567
  897SOL    HW2 3591   4.702   1.425   0.554
  898SOL     OW 3592   5.080   6.161   4.040
  898SOL    HW1 3593   5.123   6.076   4.071
  898SOL    HW2 3594   5.076   6.226   4.116
  899SOL     OW 3595   0.640   5.037   0.125
  899SOL    HW1 3596   0.731   5.066   0.155
  899SOL    HW2 3597   0.592   4.994   0.202
  900SOL     OW 3598   6.381   5.911   1.932
  900SOL    HW1 3599   6.390   6.004   1.969
  900SOL    HW2 3600   6.471   5.867   1.929
  901SOL     OW 3601   0.352   1.722   4.522
  901SOL    HW1 3602   0.427   1.725   4.456
  901SOL    HW2 3603   0.388   1.698   4.613
  902SOL     OW 3604   0.070   0.710   6.385
  902SOL    HW1 3605   0.136   0.763   6.438
  902SOL    HW2 3606   0.002   0.773   6.346
  903SOL     OW 3607   6.482   4.447   0.496
  903SOL    HW1 3608   6.480   4.544   0.520
  903SOL    HW2 3609   6.510   4.437   0.400
  904SOL     OW 3610   1.550   1.733   3.726
  904SOL    HW1 3611   1.633   1.745   3.671
  904SOL    HW2 3612   1.535   1.815   3.782
  905SOL     OW 3613   5.272   2.397   0.257
  905SOL    HW1 3614   5.345   2.406   0.325
  905SOL    HW2 3615   5.205   2.329   0.288
  906SOL     OW 3616   0.111   4.396   7.004
  906SOL    HW1 3617   0.177   4.364   0.047
  906SOL    HW2 3618   0.060   4.318   6.968
  907SOL     OW 3619   5.904   2.159   3.061
  907SOL    HW1 3620   5.958   2.157   3.145
  907SOL    HW2 3621   5.845   2.078   3.057
  908SOL     OW 3622   0.953   6.888   4.412
  908SOL    HW1 3623   1.017   6.965   4.410
  908SOL    HW2 3624   1.002   6.805   4.438
  909SOL     OW 3625   2.699   1.111   0.505
  909SOL    HW1 3626   2.670   1.097   0.410
  909SOL    HW2 3627   2.734   1.025   0.542
  910SOL     OW 3628   2.083   0.543   0.698
  910SOL    HW1 3629   2.126   0.616   0.644
  910SOL    HW2 3630   1.984   0.552   0.693
  911SOL     OW 3631   0.167   5.043   1.490
  911SOL    HW1 3632   0.209   4.952   1.481
  911SOL    HW2 3633   0.126   5.052   1.581
  912SOL     OW 3634   0.540   1.438   5.821
  912SOL    HW1 3635   0.619   1.379   5.841
  912SOL    HW2 3636   0.486   1.450   5.904
  913SOL     OW 3637   1.768   0.536   3.610
  913SOL    HW1 3638   1.671   0.549   3.589
  913SOL    HW2 3639   1.784   0.555   3.707
  914SOL     OW 3640   2.426   5.514   4.557
  914SOL    HW1 3641   2.494   5.485   4.489
  914SOL    HW2 3642   2.375   5.593   4.522
  915SOL     OW 3643   0.554   3.283   0.526
  915SOL    HW1 3644   0.554   3.352   0.454
  915SOL    HW2 3645   0.633   3.296   0.585
  916SOL     OW 3646   2.007   2.113   2.154
  916SOL    HW1 3647   2.100   2.149   2.155
  916SOL    HW2 3648   1.995   2.048   2.229
  917SOL     OW 3649   3.853   0.811   1.372
  917SOL    HW1 3650   3.801   0.856   1.444
  917SOL    HW2 3651   3.795   0.745   1.325
  918SOL     OW 3652   3.273   5.988   6.462
  918SOL    HW1 3653   3.318   6.032   6.540
  918SOL    HW2 3654   3.336   5.923   6.419
  919SOL     OW 3655   1.390   6.547   1.873
  919SOL    HW1 3656   1.463   6.592   1.821
  919SOL    HW2 3657   1.349   6.475   1.817
  920SOL     OW 3658   2.392   0.514   2.902
  920SOL    HW1 3659   2.487   0.543   2.919
  920SOL    HW2 3660   2.338   0.593   2.875
  921SOL     OW 3661   6.046   4.694   4.284
  921SOL    HW1 3662   6.036   4.793   4.287
  921SOL    HW2 3663   6.138   4.669   4.314
  922SOL     OW 3664   3.527   3.831   6.937
  922SOL    HW1 3665   3.622   3.811   6.915
  922SOL    HW2 3666   3.507   3.926   6.916
  923SOL     OW 3667   2.765   5.746   0.334
  923SOL    HW1 3668   2.720   5.696   0.260
  923SOL    HW2 3669   2.864   5.728   0.331
  924SOL     OW 3670   5.553   2.909   2.522
  924SOL    HW1 3671   5.572   2.840   2.592
  924SOL    HW2 3672   5.540   2.998   2.566
  925SOL     OW 3673   6.647   1.858   6.001
  925SOL    HW1 3674   6.741   1.848   5.970
  925SOL    HW2 3675   6.646   1.877   6.099
  926SOL     OW 3676   5.695   7.015   0.770
  926SOL    HW1 3677   5.603   6.983   0.749
  926SOL    HW2 3678   5.757   6.937   0.780
  927SOL     OW 3679   4.767   4.011   3.605
  927SOL    HW1 3680   4.768   4.046   3.511
  927SOL    HW2 3681   4.857   3.972   3.627
  928SOL     OW 3682   1.534   7.017   0.566
  928SOL    HW1 3683   1.625   6.976   0.573
  928SOL    HW2 3684   1.543   0.085   0.530
  929SOL     OW 3685   0.238   3.068   1.987
  929SOL    HW1 3686   0.210   3.100   2.077
  929SOL    HW2 3687   0.195   2.980   1.967
  930SOL     OW 3688   6.182   4.899   4.057
  930SOL    HW1 3689   6.134   4.835   3.997
  930SOL    HW2 3690   6.122   4.976   4.079
  931SOL     OW 3691   0.411   3.107   3.272
  931SOL    HW1 3692   0.459   3.093   3.185
  931SOL    HW2 3693   0.467   3.072   3.347
  932SOL     OW 3694   3.778   6.287   2.145
  932SOL    HW1 3695   3.759   6.361   2.209
  932SOL    HW2 3696   3.869   6.250   2.163
  933SOL     OW 3697   0.956   4.259   3.265
  933SOL    HW1 3698   0.916   4.293   3.180
  933SOL    HW2 3699   0.888   4.261   3.338
  934SOL     OW 3700   2.571   1.060   4.743
  934SOL    HW1 3701   2.630   1.140   4.728
  934SOL    HW2 3702   2.505   1.053   4.669
  935SOL     OW 3703   4.771   3.733   6.430
  935SOL    HW1 3704   4.755   3.681   6.346
  935SOL    HW2 3705   4.865   3.769   6.430
  936SOL     OW 3706   0.309   6.704   1.151
  936SOL    HW1 3707   0.331   6.752   1.236
  936SOL    HW2 3708   0.325   6.765   1.073
  937SOL     OW 3709   5.142   1.675   4.520
  937SOL    HW1 3710   5.189   1.600   4.472
  937SOL    HW2 3711   5.052   1.688   4.480
  938SOL     OW 3712   0.563   4.332   6.533
  938SOL    HW1 3713   0.550   4.428   6.557
  938SOL    HW2 3714   0.661   4.312   6.527
  939SOL     OW 3715   5.186   1.401   6.291
  939SOL    HW1 3716   5.186   1.436   6.385
  939SOL    HW2 3717   5.155   1.306   6.291
  940SOL     OW 3718   0.294   1.616   2.671
  940SOL    HW1 3719   0.299   1.650   2.765
  940SOL    HW2 3720   0.314   1.518   2.669
  941SOL     OW 3721   5.811   1.173   3.793
  941SOL    HW1 3722   5.823   1.146   3.697
  941SOL    HW2 3723   5.871   1.250   3.813
  942SOL     OW 3724   4.935   0.147   5.077
  942SOL    HW1 3725   4.997   0.098   5.138
  942SOL    HW2 3726   4.849   0.098   5.069
  943SOL     OW 3727   0.009   3.520   2.420
  943SOL    HW1 3728   6.941   3.484   2.417
  943SOL    HW2 3729   0.047   3.521   2.328
  944SOL     OW 3730   6.395   3.457   4.671
  944SOL    HW1 3731   6.412   3.393   4.596
  944SOL    HW2 3732   6.300   3.490   4.666
  945SOL     OW 3733   4.688   4.796   4.203
  945SOL    HW1 3734   4.722   4.752   4.120
  945SOL    HW2 3735   4.660   4.726   4.268
  946SOL     OW 3736   6.200   2.611   6.429
  946SOL    HW1 3737   6.113   2.603   6.477
  946SOL    HW2 3738   6.266   2.546   6.467
  947SOL     OW 3739   3.363   3.633   6.170
  947SOL    HW1 3740   3.372   3.731   6.151
  947SOL    HW2 3741   3.411   3.581   6.100
  948SOL     OW 3742   3.712   0.869   0.101
  948SOL    HW1 3743   3.616   0.860   0.128
  948SOL    HW2 3744   3.725   0.828   0.010
  949SOL     OW 3745   6.727   5.740   6.145
  949SOL    HW1 3746   6.741   5.700   6.055
  949SOL    HW2 3747   6.716   5.839   6.137
  950SOL     OW 3748   4.111   5.139   2.328
  950SOL    HW1 3749   4.104   5.238   2.340
  950SOL    HW2 3750   4.205   5.110   2.344
  951SOL     OW 3751   0.461   0.498   1.792
  951SOL    HW1 3752   0.412   0.561   1.852
  951SOL    HW2 3753   0.477   0.411   1.840
  952SOL     OW 3754   5.367   1.700   2.406
  952SOL    HW1 3755   5.327   1.613   2.433
  952SOL    HW2 3756   5.294   1.763   2.378
  953SOL     OW 3757   4.663   6.032   5.487
  953SOL    HW1 3758   4.761   6.016   5.492
  953SOL    HW2 3759   4.618   5.990   5.566
  954SOL     OW 3760   6.072   0.028   1.518
  954SOL    HW1 3761   6.013   6.980   1.554
  954SOL    HW2 3762   6.057   0.111   1.571
  955SOL     OW 3763   0.784   4.863   3.980
  955SOL    HW1 3764   0.794   4.846   3.882
  955SOL    HW2 3765   0.723   4.940   3.995
  956SOL     OW 3766   1.023   1.486   1.094
  956SOL    HW1 3767   1.109   1.510   1.138
  956SOL    HW2 3768   0.979   1.568   1.058
  957SOL     OW 3769   1.872   4.836   5.731
  957SOL    HW1 3770   1.801   4.796   5.789
  957SOL    HW2 3771   1.831   4.867   5.645
  958SOL     OW 3772   5.161   2.083   0.915
  958SOL    HW1 3773   5.150   1.994   0.870
  958SOL    HW2 3774   5.076   2.135   0.906
  959SOL     OW 3775   2.695   4.715   2.900
  959SOL    HW1 3776   2.621   4.666   2.853
  959SOL    HW2 3777   2.690   4.697   2.998
  960SOL     OW 3778   1.151   6.164   3.991
  960SOL    HW1 3779   1.184   6.089   4.050
  960SOL    HW2 3780   1.211   6.243   4.002
  961SOL     OW 3781   4.110   7.013   2.390
  961SOL    HW1 3782   4.183   7.018   2.458
  961SOL    HW2 3783   4.022   7.005   2.437
  962SOL     OW 3784   1.298   1.107   3.710
  962SOL    HW1 3785   1.288   1.027   3.770
  962SOL    HW2 3786   1.337   1.078   3.623
  963SOL     OW 3787   6.273   0.255   0.695
  963SOL    HW1 3788   6.195   0.314   0.715
  963SOL    HW2 3789   6.320   0.231   0.780
  964SOL     OW 3790   5.491   3.033   0.899
  964SOL    HW1 3791   5.392   3.024   0.894
  964SOL    HW2 3792   5.521   3.020   0.994
  965SOL     OW 3793   6.150   1.754   0.930
  965SOL    HW1 3794   6.166   1.832   0.870
  965SOL    HW2 3795   6.099   1.783   1.011
  966SOL     OW 3796   6.225   1.613   2.953
  966SOL    HW1 3797   6.183   1.649   2.869
  966SOL    HW2 3798   6.320   1.642   2.958
  967SOL     OW 3799   1.494   5.545   0.880
  967SOL    HW1 3800   1.586   5.583   0.879
  967SOL    HW2 3801   1.427   5.619   0.873
  968SOL     OW 3802   5.126   2.570   2.463
  968SOL    HW1 3803   5.157   2.576   2.368
  968SOL    HW2 3804   5.110   2.662   2.499
  969SOL     OW 3805   3.462   5.892   5.523
  969SOL    HW1 3806   3.473   5.920   5.428
  969SOL    HW2 3807   3.514   5.808   5.540
  970SOL     OW 3808   4.274   1.844   5.407
  970SOL    HW1 3809   4.341   1.899   5.458
  970SOL    HW2 3810   4.314   1.755   5.385
  971SOL     OW 3811   0.050   0.989   2.633
  971SOL    HW1 3812   0.053   0.905   2.578
  971SOL    HW2 3813   0.132   1.044   2.614
  972SOL     OW 3814   6.116   4.853   0.868
  972SOL    HW1 3815   6.068   4.828   0.952
  972SOL    HW2 3816   6.157   4.944   0.878
  973SOL     OW 3817   0.531   4.734   6.471
  973SOL    HW1 3818   0.443   4.688   6.483
  973SOL    HW2 3819   0.537   4.812   6.534
  974SOL     OW 3820   3.331   0.943   2.437
  974SOL    HW1 3821   3.369   0.895   2.516
  974SOL    HW2 3822   3.260   1.006   2.468
  975SOL     OW 3823   3.154   6.179   6.311
  975SOL    HW1 3824   3.207   6.102   6.347
  975SOL    HW2 3825   3.082   6.202   6.376
  976SOL     OW 3826   6.902   2.704   2.167
  976SOL    HW1 3827   6.836   2.632   2.147
  976SOL    HW2 3828   6.876   2.751   2.251
  977SOL     OW 3829   2.065   1.218   4.016
  977SOL    HW1 3830   2.016   1.278   3.952
  977SOL    HW2 3831   2.000   1.180   4.082
  978SOL     OW 3832   5.213   4.047   4.864
  978SOL    HW1 3833   5.215   4.088   4.774
  978SOL    HW2 3834   5.140   3.978   4.868
  979SOL     OW 3835   6.346   1.306   3.599
  979SOL    HW1 3836   6.340   1.399   3.562
  979SOL    HW2 3837   6.259   1.259   3.584
  980SOL     OW 3838   5.325   2.453   3.724
  980SOL    HW1 3839   5.344   2.542   3.765
  980SOL    HW2 3840   5.403   2.426   3.667
  981SOL     OW 3841   1.277   1.847   4.956
  981SOL    HW1 3842   1.276   1.822   4.860
  981SOL    HW2 3843   1.300   1.944   4.966
  982SOL     OW 3844   1.768   2.786   2.535
  982SOL    HW1 3845   1.757   2.692   2.567
  982SOL    HW2 3846   1.760   2.790   2.436
  983SOL     OW 3847   6.054   2.687   3.471
  983SOL    HW1 3848   6.028   2.590   3.474
  983SOL    HW2 3849   5.978   2.743   3.503
  984SOL     OW 3850   4.096   0.380   4.705
  984SOL    HW1 3851   4.060   0.473   4.712
  984SOL    HW2 3852   4.106   0.341   4.796
  985SOL     OW 3853   4.460   4.909   7.004
  985SOL    HW1 3854   4.550   4.868   7.018
  985SOL    HW2 3855   4.409   4.907   0.065
  986SOL     OW 3856   5.418   5.801   6.596
  986SOL    HW1 3857   5.448   5.796   6.692
  986SOL    HW2 3858   5.445   5.717   6.549
  987SOL     OW 3859   3.596   6.625   1.453
  987SOL    HW1 3860   3.681   6.582   1.484
  987SOL    HW2 3861   3.526   6.617   1.524
  988SOL     OW 3862   4.211   2.370   1.172
  988SOL    HW1 3863   4.124   2.365   1.123
  988SOL    HW2 3864   4.267   2.290   1.150
  989SOL     OW 3865   0.743   0.764   5.325
  989SOL    HW1 3866   0.705   0.764   5.417
  989SOL    HW2 3867   0.706   0.840   5.272
  990SOL     OW 3868   5.247   6.782   3.734
  990SOL    HW1 3869   5.205   6.723   3.666
  990SOL    HW2 3870   5.178   6.843   3.772
  991SOL     OW 3871   1.831   1.925   4.683
  991SOL    HW1 3872   1.921   1.929   4.726
  991SOL    HW2 3873   1.760   1.930   4.754
  992SOL     OW 3874   0.516   3.147   6.947
  992SOL    HW1 3875   0.461   3.224   6.978
  992SOL    HW2 3876   0.560   3.171   6.860
  993SOL     OW 3877   2.275   5.398   2.440
  993SOL    HW1 3878   2.302   5.462   2.368
  993SOL    HW2 3879   2.176   5.386   2.438
  994SOL     OW 3880   3.514   3.849   2.571
  994SOL    HW1 3881   3.557   3.803   2.649
  994SOL    HW2 3882   3.528   3.948   2.580
  995SOL     OW 3883   2.326   2.463   5.997
  995SOL    HW1 3884   2.331   2.557   5.961
  995SOL    HW2 3885   2.297   2.466   6.092
  996SOL     OW 3886   1.864   3.855   3.964
  996SOL    HW1 3887   1.902   3.853   3.871
  996SOL    HW2 3888   1.933   3.889   4.027
  997SOL     OW 3889   0.075   0.117   1.731
  997SOL    HW1 3890   0.084   0.209   1.770
  997SOL    HW2 3891   0.007   0.118   1.658
  998SOL     OW 3892   4.694   7.018   3.341
  998SOL    HW1 3893   4.636   0.067   3.306
  998SOL    HW2 3894   4.733   6.968   3.264
  999SOL     OW 3895   5.299   5.732   1.432
  999SOL    HW1 3896   5.216   5.691   1.394
  999SOL    HW2 3897   5.273   5.801   1.500
 1000SOL     OW 3898   0.846   1.820   2.454
 1000SOL    HW1 3899   0.939   1.793   2.479
 1000SOL    HW2 3900   0.850   1.886   2.378
 1001SOL     OW 3901   4.165   6.493   6.383
 1001SOL    HW1 3902   4.071   6.508   6.354
 1001SOL    HW2 3903   4.175   6.518   6.479
 1002SOL     OW 3904   5.712   1.617   6.549
 1002SOL    HW1 3905   5.655   1.665   6.616
 1002SOL    HW2 3906   5.695   1.654   6.458
 1003SOL     OW 3907   2.642   6.974   1.797
 1003SOL    HW1 3908   2.699   7.011   1.870
 1003SOL    HW2 3909   2.583   0.021   1.761
 1004SOL     OW 3910   6.864   0.629   0.514
 1004SOL    HW1 3911   6.775   0.660   0.482
 1004SOL    HW2 3912   6.853   0.544   0.565
 1005SOL     OW 3913   6.789   0.707   3.295
 1005SOL    HW1 3914   6.732   0.722   3.215
 1005SOL    HW2 3915   6.833   0.794   3.321
 1006SOL     OW 3916   2.200   5.937   1.393
 1006SOL    HW1 3917   2.194   6.037   1.390
 1006SOL    HW2 3918   2.241   5.909   1.480
 1007SOL     OW 3919   5.894   6.845   3.543
 1007SOL    HW1 3920   5.912   6.917   3.476
 1007SOL    HW2 3921   5.979   6.821   3.590
 1008SOL     OW 3922   1.436   3.020   4.276
 1008SOL    HW1 3923   1.444   3.052   4.370
 1008SOL    HW2 3924   1.504   3.067   4.219
 1009SOL     OW 3925   6.728   5.229   3.846
 1009SOL    HW1 3926   6.712   5.317   3.801
 1009SOL    HW2 3927   6.722   5.156   3.779
 1010SOL     OW 3928   4.463   2.385   0.143
 1010SOL    HW1 3929   4.540   2.446   0.125
 1010SOL    HW2 3930   4.473   2.302   0.089
 1011SOL     OW 3931   3.235   5.083   2.977
 1011SOL    HW1 3932   3.182   5.000   2.956
 1011SOL    HW2 3933   3.305   5.060   3.044
 1012SOL     OW 3934   6.307   5.359   0.220
 1012SOL    HW1 3935   6.212   5.329   0.220
 1012SOL    HW2 3936   6.312   5.454   0.248
 1013SOL     OW 3937   0.327   1.614   6.672
 1013SOL    HW1 3938   0.427   1.615   6.676
 1013SOL    HW2 3939   0.298   1.571   6.587
 1014SOL     OW 3940   5.487   5.487   6.667
 1014SOL    HW1 3941   5.446   5.474   6.576
 1014SOL    HW2 3942   5.585   5.500   6.657
 1015SOL     OW 3943   3.677   6.672   4.851
 1015SOL    HW1 3944   3.690   6.656   4.949
 1015SOL    HW2 3945   3.581   6.657   4.828
 1016SOL     OW 3946   2.313   2.888   0.853
 1016SOL    HW1 3947   2.298   2.958   0.922
 1016SOL    HW2 3948   2.268   2.915   0.768
 1017SOL     OW 3949   4.569   2.448   0.698
 1017SOL    HW1 3950   4.556   2.531   0.751
 1017SOL    HW2 3951   4.534   2.462   0.605
 1018SOL     OW 3952   1.828   3.567   3.890
 1018SOL    HW1 3953   1.819   3.665   3.909
 1018SOL    HW2 3954   1.906   3.551   3.831
 1019SOL     OW 3955   0.440   1.014   0.367
 1019SOL    HW1 3956   0.397   1.040   0.281
 1019SOL    HW2 3957   0.491   0.929   0.355
 1020SOL     OW 3958   1.010   6.684   1.013
 1020SOL    HW1 3959   1.066   6.624   0.956
 1020SOL    HW2 3960   1.070   6.748   1.062
 1021SOL     OW 3961   5.777   1.218   1.291
 1021SOL    HW1 3962   5.799   1.173   1.378
 1021SOL    HW2 3963   5.783   1.318   1.303
 1022SOL     OW 3964   4.310   5.300   6.255
 1022SOL    HW1 3965   4.311   5.202   6.236
 1022SOL    HW2 3966   4.236   5.321   6.319
 1023SOL     OW 3967   0.103   0.178   2.936
 1023SOL    HW1 3968   0.160   0.227   3.002
 1023SOL    HW2 3969   0.037   0.121   2.985
 1024SOL     OW 3970   6.583   2.709   4.373
 1024SOL    HW1 3971   6.489   2.737   4.388
 1024SOL    HW2 3972   6.592   2.669   4.281
 1025SOL     OW 3973   3.787   4.483   0.193
 1025SOL    HW1 3974   3.769   4.395   0.150
 1025SOL    HW2 3975   3.880   4.513   0.170
 1026SOL     OW 3976   1.276   1.263   0.529
 1026SOL    HW1 3977   1.334   1.338   0.559
 1026SOL    HW2 3978   1.271   1.262   0.429
 1027SOL     OW 3979   2.900   5.845   1.742
 1027SOL    HW1 3980   2.894   5.785   1.822
 1027SOL    HW2 3981   2.988   5.892   1.741
 1028SOL     OW 3982   2.936   6.188   0.462
 1028SOL    HW1 3983   3.032   6.204   0.485
 1028SOL    HW2 3984   2.927   6.183   0.362
 1029SOL     OW 3985   2.020   0.967   0.149
 1029SOL    HW1 3986   1.964   0.891   0.183
 1029SOL    HW2 3987   1.975   1.053   0.170
 1030SOL     OW 3988   3.665   3.046   3.257
 1030SOL    HW1 3989   3.719   2.989   3.319
 1030SOL    HW2 3990   3.569   3.015   3.259
 1031SOL     OW 3991   4.626   5.493   1.160
 1031SOL    HW1 3992   4.617   5.512   1.063
 1031SOL    HW2 3993   4.592   5.401   1.180
 1032SOL     OW 3994   1.957   1.467   5.108
 1032SOL    HW1 3995   1.926   1.561   5.118
 1032SOL    HW2 3996   1.902   1.407   5.167
 1033SOL     OW 3997   1.685   6.892   1.520
 1033SOL    HW1 3998   1.643   6.920   1.434
 1033SOL    HW2 3999   1.764   6.835   1.502
 1034SOL     OW 4000   1.913   6.258   4.652
 1034SOL    HW1 4001   1.996   6.243   4.598
 1034SOL    HW2 4002   1.912   6.195   4.730
 1035SOL     OW 4003   2.737   1.805   3.309
 1035SOL    HW1 4004   2.755   1.715   3.349
 1035SOL    HW2 4005   2.665   1.797   3.240
 1036SOL     OW 4006   3.638   0.108   1.099
 1036SOL    HW1 4007   3.578   0.159   1.161
 1036SOL    HW2 4008   3.692   0.042   1.151
 1037SOL     OW 4009   1.200   1.152   1.341
 1037SOL    HW1 4010   1.111   1.194   1.360
 1037SOL    HW2 4011   1.209   1.067   1.395
 1038SOL     OW 4012   0.665   1.393   5.509
 1038SOL    HW1 4013   0.708   1.465   5.454
 1038SOL    HW2 4014   0.662   1.422   5.605
 1039SOL     OW 4015   4.486   1.744   5.734
 1039SOL    HW1 4016   4.571   1.742   5.682
 1039SOL    HW2 4017   4.487   1.822   5.797
 1040SOL     OW 4018   5.586   2.998   3.245
 1040SOL    HW1 4019   5.647   3.010   3.166
 1040SOL    HW2 4020   5.560   3.088   3.281
 1041SOL     OW 4021   6.592   0.308   4.482
 1041SOL    HW1 4022   6.561   0.394   4.440
 1041SOL    HW2 4023   6.541   0.232   4.444
 1042SOL     OW 4024   3.968   5.078   2.556
 1042SOL    HW1 4025   3.907   5.001   2.574
 1042SOL    HW2 4026   4.008   5.067   2.465
 1043SOL     OW 4027   4.208   0.783   6.379
 1043SOL    HW1 4028   4.270   0.723   6.328
 1043SOL    HW2 4029   4.195   0.747   6.471
 1044SOL     OW 4030   4.125   2.704   1.635
 1044SOL    HW1 4031   4.212   2.666   1.667
 1044SOL    HW2 4032   4.088   2.765   1.705
 1045SOL     OW 4033   3.126   0.325   1.716
 1045SOL    HW1 4034   3.151   0.375   1.799
 1045SOL    HW2 4035   3.027   0.313   1.713
 1046SOL     OW 4036   2.696   6.885   6.110
 1046SOL    HW1 4037   2.748   6.838   6.181
 1046SOL    HW2 4038   2.686   6.825   6.031
 1047SOL     OW 4039   1.573   5.432   2.690
 1047SOL    HW1 4040   1.595   5.515   2.639
 1047SOL    HW2 4041   1.645   5.364   2.676
 1048SOL     OW 4042   4.968   5.427   5.259
 1048SOL    HW1 4043   5.040   5.416   5.191
 1048SOL    HW2 4044   4.934   5.521   5.257
 1049SOL     OW 4045   0.619   4.083   4.859
 1049SOL    HW1 4046   0.663   4.000   4.894
 1049SOL    HW2 4047   0.651   4.101   4.767
 1050SOL     OW 4048   3.281   5.168   0.907
 1050SOL    HW1 4049   3.283   5.161   1.006
 1050SOL    HW2 4050   3.225   5.247   0.880
 1051SOL     OW 4051   3.928   4.365   0.410
 1051SOL    HW1 4052   3.932   4.460   0.441
 1051SOL    HW2 4053   3.857   4.355   0.341
 1052SOL     OW 4054   4.349   0.913   3.999
 1052SOL    HW1 4055   4.295   0.916   3.915
 1052SOL    HW2 4056   4.389   0.822   4.010
 1053SOL     OW 4057   6.059   5.696   3.501
 1053SOL    HW1 4058   6.096   5.670   3.412
 1053SOL    HW2 4059   6.044   5.795   3.504
 1054SOL     OW 4060   2.594   4.910   5.722
 1054SOL    HW1 4061   2.562   4.877   5.633
 1054SOL    HW2 4062   2.524   4.893   5.791
 1055SOL     OW 4063   5.649   5.806   4.765
 1055SOL    HW1 4064   5.611   5.816   4.857
 1055SOL    HW2 4065   5.599   5.735   4.715
 1056SOL     OW 4066   1.397   6.242   5.489
 1056SOL    HW1 4067   1.444   6.260   5.403
 1056SOL    HW2 4068   1.409   6.320   5.551
 1057SOL     OW 4069   3.143   4.040   3.036
 1057SOL    HW1 4070   3.064   4.101   3.034
 1057SOL    HW2 4071   3.185   4.043   3.127
 1058SOL     OW 4072   4.746   1.078   2.552
 1058SOL    HW1 4073   4.726   1.111   2.644
 1058SOL    HW2 4074   4.801   1.146   2.504
 1059SOL     OW 4075   3.498   0.710   1.754
 1059SOL    HW1 4076   3.422   0.677   1.699
 1059SOL    HW2 4077   3.462   0.760   1.834
 1060SOL     OW 4078   6.930   3.725   5.687
 1060SOL    HW1 4079   7.022   3.753   5.716
 1060SOL    HW2 4080   6.937   3.658   5.613
 1061SOL     OW 4081   4.222   4.479   0.616
 1061SOL    HW1 4082   4.210   4.550   0.685
 1061SOL    HW2 4083   4.154   4.406   0.631
 1062SOL     OW 4084   6.760   6.034   5.920
 1062SOL    HW1 4085   6.757   5.937   5.895
 1062SOL    HW2 4086   6.743   6.090   5.839
 1063SOL     OW 4087   1.360   4.219   0.622
 1063SOL    HW1 4088   1.454   4.254   0.612
 1063SOL    HW2 4089   1.346   4.142   0.560
 1064SOL     OW 4090   1.121   4.077   2.384
 1064SOL    HW1 4091   1.122   3.979   2.365
 1064SOL    HW2 4092   1.074   4.125   2.310
 1065SOL     OW 4093   4.435   0.797   4.323
 1065SOL    HW1 4094   4.455   0.781   4.419
 1065SOL    HW2 4095   4.514   0.840   4.279
 1066SOL     OW 4096   5.033   0.595   4.268
 1066SOL    HW1 4097   4.974   0.515   4.268
 1066SOL    HW2 4098   5.054   0.622   4.173
 1067SOL     OW 4099   1.089   2.933   0.822
 1067SOL    HW1 4100   1.060   2.967   0.912
 1067SOL    HW2 4101   1.027   2.860   0.793
 1068SOL     OW 4102   6.349   3.511   1.657
 1068SOL    HW1 4103   6.292   3.459   1.593
 1068SOL    HW2 4104   6.297   3.532   1.740
 1069SOL     OW 4105   4.771   4.817   1.020
 1069SOL    HW1 4106   4.695   4.765   0.979
 1069SOL    HW2 4107   4.813   4.762   1.092
 1070SOL     OW 4108   1.800   0.850   6.402
 1070SOL    HW1 4109   1.747   0.932   6.424
 1070SOL    HW2 4110   1.845   0.862   6.313
 1071SOL     OW 4111   3.578   0.546   3.312
 1071SOL    HW1 4112   3.651   0.594   3.361
 1071SOL    HW2 4113   3.523   0.611   3.261
 1072SOL     OW 4114   2.164   6.273   2.331
 1072SOL    HW1 4115   2.134   6.179   2.314
 1072SOL    HW2 4116   2.083   6.332   2.337
 1073SOL     OW 4117   3.207   5.705   2.340
 1073SOL    HW1 4118   3.152   5.750   2.411
 1073SOL    HW2 4119   3.281   5.767   2.312
 1074SOL     OW 4120   1.937   5.887   1.822
 1074SOL    HW1 4121   2.011   5.846   1.769
 1074SOL    HW2 4122   1.976   5.936   1.901
 1075SOL     OW 4123   4.917   4.888   3.210
 1075SOL    HW1 4124   4.975   4.942   3.271
 1075SOL    HW2 4125   4.974   4.834   3.148
 1076SOL     OW 4126   0.425   4.497   5.107
 1076SOL    HW1 4127   0.471   4.468   5.023
 1076SOL    HW2 4128   0.450   4.592   5.128
 1077SOL     OW 4129   6.070   6.955   0.081
 1077SOL    HW1 4130   6.123   6.880   0.120
 1077SOL    HW2 4131   6.034   7.012   0.155
 1078SOL     OW 4132   1.627   1.038   2.267
 1078SOL    HW1 4133   1.710   1.028   2.212
 1078SOL    HW2 4134   1.594   1.132   2.262
 1079SOL     OW 4135   2.092   5.092   3.601
 1079SOL    HW1 4136   2.029   5.019   3.628
 1079SOL    HW2 4137   2.185   5.057   3.596
 1080SOL     OW 4138   2.098   4.886   3.305
 1080SOL    HW1 4139   2.052   4.826   3.371
 1080SOL    HW2 4140   2.142   4.830   3.235
 1081SOL     OW 4141   0.460   1.840   5.529
 1081SOL    HW1 4142   0.488   1.761   5.584
 1081SOL    HW2 4143   0.377   1.817   5.478
 1082SOL     OW 4144   1.579   0.441   5.675
 1082SOL    HW1 4145   1.595   0.398   5.586
 1082SOL    HW2 4146   1.538   0.375   5.737
 1083SOL     OW 4147   3.889   3.803   2.193
 1083SOL    HW1 4148   3.976   3.774   2.153
 1083SOL    HW2 4149   3.868   3.746   2.272
 1084SOL     OW 4150   6.618   5.647   0.871
 1084SOL    HW1 4151   6.544   5.618   0.810
 1084SOL    HW2 4152   6.620   5.747   0.875
 1085SOL     OW 4153   1.936   4.284   3.930
 1085SOL    HW1 4154   1.859   4.235   3.889
 1085SOL    HW2 4155   1.905   4.333   4.012
 1086SOL     OW 4156   6.218   5.642   3.263
 1086SOL    HW1 4157   6.300   5.606   3.308
 1086SOL    HW2 4158   6.245   5.708   3.193
 1087SOL     OW 4159   4.738   2.910   5.786
 1087SOL    HW1 4160   4.726   2.958   5.873
 1087SOL    HW2 4161   4.665   2.936   5.723
 1088SOL     OW 4162   5.784   4.414   3.415
 1088SOL    HW1 4163   5.733   4.383   3.335
 1088SOL    HW2 4164   5.879   4.431   3.389
 1089SOL     OW 4165   0.363   0.889   4.269
 1089SOL    HW1 4166   0.278   0.853   4.308
 1089SOL    HW2 4167   0.432   0.816   4.267
 1090SOL     OW 4168   2.831   1.433   4.556
 1090SOL    HW1 4169   2.771   1.379   4.496
 1090SOL    HW2 4170   2.912   1.461   4.505
 1091SOL     OW 4171   1.860   1.779   3.729
 1091SOL    HW1 4172   1.819   1.834   3.802
 1091SOL    HW2 4173   1.943   1.824   3.696
 1092SOL     OW 4174   2.335   3.929   1.483
 1092SOL    HW1 4175   2.358   3.882   1.398
 1092SOL    HW2 4176   2.237   3.943   1.488
 1093SOL     OW 4177   1.818   1.659   2.618
 1093SOL    HW1 4178   1.817   1.717   2.700
 1093SOL    HW2 4179   1.881   1.583   2.632
 1094SOL     OW 4180   0.161   6.314   2.349
 1094SOL    HW1 4181   0.086   6.349   2.406
 1094SOL    HW2 4182   0.180   6.378   2.275
 1095SOL     OW 4183   6.320   2.180   6.293
 1095SOL    HW1 4184   6.228   2.216   6.282
 1095SOL    HW2 4185   6.351   2.140   6.207
 1096SOL     OW 4186   3.717   5.179   1.564
 1096SOL    HW1 4187   3.729   5.148   1.658
 1096SOL    HW2 4188   3.785   5.136   1.505
 1097SOL     OW 4189   1.140   4.983   4.836
 1097SOL    HW1 4190   1.127   5.077   4.867
 1097SOL    HW2 4191   1.230   4.974   4.794
 1098SOL     OW 4192   5.144   2.367   1.046
 1098SOL    HW1 4193   5.047   2.388   1.030
 1098SOL    HW2 4194   5.188   2.446   1.089
 1099SOL     OW 4195   4.250   1.723   4.816
 1099SOL    HW1 4196   4.263   1.747   4.720
 1099SOL    HW2 4197   4.167   1.669   4.826
 1100SOL     OW 4198   0.679   1.697   6.328
 1100SOL    HW1 4199   0.655   1.675   6.422
 1100SOL    HW2 4200   0.637   1.784   6.302
 1101SOL     OW 4201   5.673   3.335   1.519
 1101SOL    HW1 4202   5.667   3.338   1.619
 1101SOL    HW2 4203   5.700   3.244   1.489
 1102SOL     OW 4204   0.943   4.652   4.088
 1102SOL    HW1 4205   0.911   4.580   4.027
 1102SOL    HW2 4206   0.883   4.731   4.081
 1103SOL     OW 4207   2.068   1.499   1.576
 1103SOL    HW1 4208   2.057   1.512   1.477
 1103SOL    HW2 4209   2.161   1.522   1.603
 1104SOL     OW 4210   1.959   4.521   6.127
 1104SOL    HW1 4211   1.991   4.594   6.188
 1104SOL    HW2 4212   1.953   4.557   6.034
 1105SOL     OW 4213   4.634   4.055   6.665
 1105SOL    HW1 4214   4.634   4.125   6.593
 1105SOL    HW2 4215   4.720   4.061   6.716
 1106SOL     OW 4216   0.808   2.068   6.355
 1106SOL    HW1 4217   0.881   2.041   6.417
 1106SOL    HW2 4218   0.837   2.146   6.300
 1107SOL     OW 4219   1.002   0.367   6.630
 1107SOL    HW1 4220   0.963   0.383   6.721
 1107SOL    HW2 4221   0.934   0.391   6.560
 1108SOL     OW 4222   2.386   0.792   5.188
 1108SOL    HW1 4223   2.293   0.796   5.224
 1108SOL    HW2 4224   2.401   0.870   5.128
 1109SOL     OW 4225   3.743   5.381   4.663
 1109SOL    HW1 4226   3.744   5.367   4.564
 1109SOL    HW2 4227   3.692   5.464   4.685
 1110SOL     OW 4228   3.025   2.104   1.636
 1110SOL    HW1 4229   3.017   2.075   1.541
 1110SOL    HW2 4230   3.039   2.203   1.641
 1111SOL     OW 4231   5.394   6.419   6.815
 1111SOL    HW1 4232   5.400   6.515   6.790
 1111SOL    HW2 4233   5.409   6.409   6.913
 1112SOL     OW 4234   6.218   0.999   3.162
 1112SOL    HW1 4235   6.152   1.046   3.103
 1112SOL    HW2 4236   6.174   0.974   3.248
 1113SOL     OW 4237   6.122   3.143   2.175
 1113SOL    HW1 4238   6.099   3.179   2.085
 1113SOL    HW2 4239   6.062   3.065   2.196
 1114SOL     OW 4240   4.771   0.545   6.340
 1114SOL    HW1 4241   4.850   0.531   6.280
 1114SOL    HW2 4242   4.687   0.526   6.289
 1115SOL     OW 4243   4.462   2.478   0.439
 1115SOL    HW1 4244   4.414   2.566   0.441
 1115SOL    HW2 4245   4.439   2.431   0.354
 1116SOL     OW 4246   5.649   5.217   3.999
 1116SOL    HW1 4247   5.628   5.238   4.094
 1116SOL    HW2 4248   5.731   5.267   3.971
 1117SOL     OW 4249   2.719   3.000   1.404
 1117SOL    HW1 4250   2.711   3.078   1.342
 1117SOL    HW2 4251   2.689   3.027   1.495
 1118SOL     OW 4252   0.915   4.715   2.872
 1118SOL    HW1 4253   0.853   4.695   2.948
 1118SOL    HW2 4254   0.972   4.635   2.853
 1119SOL     OW 4255   3.774   4.211   1.779
 1119SOL    HW1 4256   3.707   4.219   1.853
 1119SOL    HW2 4257   3.769   4.292   1.721
 1120SOL     OW 4258   5.502   6.978   6.087
 1120SOL    HW1 4259   5.507   6.937   6.178
 1120SOL    HW2 4260   5.587   6.960   6.038
 1121SOL     OW 4261   5.284   2.955   2.464
 1121SOL    HW1 4262   5.227   2.916   2.536
 1121SOL    HW2 4263   5.376   2.917   2.469
 1122SOL     OW 4264   5.137   2.928   6.883
 1122SOL    HW1 4265   5.063   2.883   6.934
 1122SOL    HW2 4266   5.140   3.024   6.909
 1123SOL     OW 4267   4.516   1.341   2.018
 1123SOL    HW1 4268   4.544   1.282   2.094
 1123SOL    HW2 4269   4.467   1.287   1.950
 1124SOL     OW 4270   6.720   3.697   4.671
 1124SOL    HW1 4271   6.744   3.600   4.675
 1124SOL    HW2 4272   6.666   3.715   4.589
 1125SOL     OW 4273   2.748   2.059   5.173
 1125SOL    HW1 4274   2.831   2.079   5.121
 1125SOL    HW2 4275   2.724   1.962   5.162
 1126SOL     OW 4276   4.617   6.613   6.719
 1126SOL    HW1 4277   4.620   6.686   6.787
 1126SOL    HW2 4278   4.693   6.625   6.654
 1127SOL     OW 4279   3.020   4.310   5.825
 1127SOL    HW1 4280   2.986   4.341   5.913
 1127SOL    HW2 4281   2.959   4.342   5.752
 1128SOL     OW 4282   4.301   2.311   4.421
 1128SOL    HW1 4283   4.356   2.395   4.423
 1128SOL    HW2 4284   4.288   2.281   4.327
 1129SOL     OW 4285   3.709   6.854   0.254
 1129SOL    HW1 4286   3.628   6.814   0.212
 1129SOL    HW2 4287   3.687   6.885   0.347
 1130SOL     OW 4288   1.831   4.441   1.137
 1130SOL    HW1 4289   1.854   4.363   1.195
 1130SOL    HW2 4290   1.780   4.508   1.191
 1131SOL     OW 4291   0.521   6.456   5.854
 1131SOL    HW1 4292   0.557   6.378   5.905
 1131SOL    HW2 4293   0.597   6.510   5.818
 1132SOL     OW 4294   5.244   0.361   6.734
 1132SOL    HW1 4295   5.305   0.361   6.654
 1132SOL    HW2 4296   5.191   0.446   6.735
 1133SOL     OW 4297   0.053   1.806   1.678
 1133SOL    HW1 4298   0.062   1.870   1.602
 1133SOL    HW2 4299   0.090   1.846   1.761
 1134SOL     OW 4300   5.612   2.200   6.905
 1134SOL    HW1 4301   5.698   2.250   6.893
 1134SOL    HW2 4302   5.554   2.215   6.824
 1135SOL     OW 4303   3.057   2.186   3.093
 1135SOL    HW1 4304   3.143   2.156   3.052
 1135SOL    HW2 4305   2.991   2.205   3.020
 1136SOL     OW 4306   2.868   4.771   4.104
 1136SOL    HW1 4307   2.932   4.740   4.034
 1136SOL    HW2 4308   2.829   4.859   4.076
 1137SOL     OW 4309   0.989   2.233   6.841
 1137SOL    HW1 4310   1.018   2.261   6.750
 1137SOL    HW2 4311   0.931   2.152   6.835
 1138SOL     OW 4312   2.149   2.755   5.989
 1138SOL    HW1 4313   2.211   2.734   5.913
 1138SOL    HW2 4314   2.157   2.852   6.013
 1139SOL     OW 4315   1.758   6.062   3.037
 1139SOL    HW1 4316   1.816   6.049   3.118
 1139SOL    HW2 4317   1.767   5.984   2.976
 1140SOL     OW 4318   3.923   2.158   3.028
 1140SOL    HW1 4319   3.883   2.140   2.938
 1140SOL    HW2 4320   4.015   2.194   3.017
 1141SOL     OW 4321   5.804   5.676   5.894
 1141SOL    HW1 4322   5.724   5.615   5.891
 1141SOL    HW2 4323   5.800   5.739   5.816
 1142SOL     OW 4324   5.253   0.302   4.513
 1142SOL    HW1 4325   5.280   0.271   4.604
 1142SOL    HW2 4326   5.262   0.227   4.448
 1143SOL     OW 4327   3.905   2.099   2.368
 1143SOL    HW1 4328   3.810   2.088   2.337
 1143SOL    HW2 4329   3.952   2.165   2.309
 1144SOL     OW 4330   0.120   4.301   4.497
 1144SOL    HW1 4331   0.217   4.310   4.518
 1144SOL    HW2 4332   0.068   4.369   4.549
 1145SOL     OW 4333   0.023   5.261   3.090
 1145SOL    HW1 4334   0.102   5.315   3.060
 1145SOL    HW2 4335   0.052   5.167   3.108
 1146SOL     OW 4336   5.132   1.499   1.276
 1146SOL    HW1 4337   5.179   1.572   1.326
 1146SOL    HW2 4338   5.034   1.501   1.297
 1147SOL     OW 4339   1.680   3.848   1.080
 1147SOL    HW1 4340   1.672   3.758   1.039
 1147SOL    HW2 4341   1.592   3.875   1.119
 1148SOL     OW 4342   3.440   6.014   6.025
 1148SOL    HW1 4343   3.476   6.031   5.934
 1148SOL    HW2 4344   3.355   5.961   6.019
 1149SOL     OW 4345   5.972   3.394   2.627
 1149SOL    HW1 4346   6.040   3.369   2.696
 1149SOL    HW2 4347   6.004   3.364   2.537
 1150SOL     OW 4348   2.445   4.297   0.833
 1150SOL    HW1 4349   2.534   4.251   0.830
 1150SOL    HW2 4350   2.430   4.335   0.924
 1151SOL     OW 4351   5.675   5.809   6.282
 1151SOL    HW1 4352   5.729   5.846   6.206
 1151SOL    HW2 4353   5.690   5.865   6.364
 1152SOL     OW 4354   1.099   6.892   4.991
 1152SOL    HW1 4355   1.153   6.973   5.011
 1152SOL    HW2 4356   1.008   6.901   5.032
 1153SOL     OW 4357   2.109   6.491   2.941
 1153SOL    HW1 4358   2.091   6.393   2.945
 1153SOL    HW2 4359   2.027   6.541   2.969
 1154SOL     OW 4360   0.216   3.534   1.359
 1154SOL    HW1 4361   0.171   3.539   1.448
 1154SOL    HW2 4362   0.147   3.533   1.287
 1155SOL     OW 4363   3.408   5.900   6.879
 1155SOL    HW1 4364   3.471   5.841   6.829
 1155SOL    HW2 4365   3.440   5.911   6.974
 1156SOL     OW 4366   2.123   0.389   3.540
 1156SOL    HW1 4367   2.078   0.479   3.544
 1156SOL    HW2 4368   2.053   0.318   3.537
 1157SOL     OW 4369   0.033   2.386   4.684
 1157SOL    HW1 4370   0.061   2.332   4.764
 1157SOL    HW2 4371   7.008   2.328   4.621
 1158SOL     OW 4372   5.768   5.175   5.355
 1158SOL    HW1 4373   5.841   5.211   5.297
 1158SOL    HW2 4374   5.687   5.232   5.345
 1159SOL     OW 4375   4.245   0.185   2.640
 1159SOL    HW1 4376   4.239   0.185   2.540
 1159SOL    HW2 4377   4.174   0.245   2.678
 1160SOL     OW 4378   4.081   3.837   1.868
 1160SOL    HW1 4379   4.002   3.890   1.899
 1160SOL    HW2 4380   4.153   3.900   1.838
 1161SOL     OW 4381   5.407   0.076   5.071
 1161SOL    HW1 4382   5.387   0.173   5.058
 1161SOL    HW2 4383   5.363   0.023   4.999
 1162SOL     OW 4384   3.683   2.640   1.048
 1162SOL    HW1 4385   3.666   2.600   1.138
 1162SOL    HW2 4386   3.769   2.606   1.012
 1163SOL     OW 4387   5.297   2.261   2.116
 1163SOL    HW1 4388   5.207   2.250   2.158
 1163SOL    HW2 4389   5.368   2.237   2.182
 1164SOL     OW 4390   5.180   2.815   3.498
 1164SOL    HW1 4391   5.110   2.744   3.489
 1164SOL    HW2 4392   5.210   2.844   3.408
 1165SOL     OW 4393   1.554   3.418   3.711
 1165SOL    HW1 4394   1.458   3.432   3.737
 1165SOL    HW2 4395   1.592   3.343   3.765
 1166SOL     OW 4396   4.253   1.687   6.623
 1166SOL    HW1 4397   4.189   1.757   6.657
 1166SOL    HW2 4398   4.285   1.713   6.532
 1167SOL     OW 4399   3.699   6.934   5.524
 1167SOL    HW1 4400   3.689   6.862   5.592
 1167SOL    HW2 4401   3.681   6.897   5.433
 1168SOL     OW 4402   6.117   0.029   2.408
 1168SOL    HW1 4403   6.182   0.033   2.332
 1168SOL    HW2 4404   6.072   6.965   2.408
 1169SOL     OW 4405   6.958   2.961   0.597
 1169SOL    HW1 4406   0.025   2.932   0.621
 1169SOL    HW2 4407   6.927   3.031   0.661
 1170SOL     OW 4408   3.914   0.453   1.992
 1170SOL    HW1 4409   3.906   0.428   2.089
 1170SOL    HW2 4410   3.828   0.494   1.962
 1171SOL     OW 4411   2.852   5.682   0.911
 1171SOL    HW1 4412   2.763   5.729   0.912
 1171SOL    HW2 4413   2.907   5.714   0.988
 1172SOL     OW 4414   3.101   3.969   3.709
 1172SOL    HW1 4415   3.066   3.974   3.615
 1172SOL    HW2 4416   3.179   4.031   3.719
 1173SOL     OW 4417   3.493   0.195   5.613
 1173SOL    HW1 4418   3.434   0.226   5.539
 1173SOL    HW2 4419   3.587   0.225   5.596
 1174SOL     OW 4420   2.266   5.802   0.588
 1174SOL    HW1 4421   2.300   5.868   0.655
 1174SOL    HW2 4422   2.340   5.744   0.557
 1175SOL     OW 4423   5.516   5.004   6.881
 1175SOL    HW1 4424   5.452   4.937   6.918
 1175SOL    HW2 4425   5.466   5.071   6.826
 1176SOL     OW 4426   6.072   5.191   0.862
 1176SOL    HW1 4427   6.099   5.151   0.949
 1176SOL    HW2 4428   5.982   5.233   0.871
 1177SOL     OW 4429   0.233   2.578   5.282
 1177SOL    HW1 4430   0.170   2.514   5.325
 1177SOL    HW2 4431   0.191   2.669   5.279
 1178SOL     OW 4432   4.720   4.230   1.814
 1178SOL    HW1 4433   4.632   4.257   1.852
 1178SOL    HW2 4434   4.708   4.147   1.758
 1179SOL     OW 4435   2.048   4.355   0.499
 1179SOL    HW1 4436   2.145   4.338   0.516
 1179SOL    HW2 4437   2.027   4.334   0.403
 1180SOL     OW 4438   2.088   0.658   3.584
 1180SOL    HW1 4439   2.182   0.637   3.557
 1180SOL    HW2 4440   2.057   0.740   3.535
 1181SOL     OW 4441   0.943   4.224   4.712
 1181SOL    HW1 4442   1.019   4.204   4.650
 1181SOL    HW2 4443   0.864   4.256   4.659
 1182SOL     OW 4444   1.996   4.501   3.404
 1182SOL    HW1 4445   1.947   4.457   3.480
 1182SOL    HW2 4446   1.934   4.564   3.357
 1183SOL     OW 4447   4.400   5.652   1.713
 1183SOL    HW1 4448   4.349   5.722   1.762
 1183SOL    HW2 4449   4.437   5.585   1.778
 1184SOL     OW 4450   3.045   3.288   5.581
 1184SOL    HW1 4451   3.001   3.324   5.499
 1184SOL    HW2 4452   3.045   3.359   5.652
 1185SOL     OW 4453   2.215   0.631   0.241
 1185SOL    HW1 4454   2.119   0.643   0.214
 1185SOL    HW2 4455   2.258   0.562   0.183
 1186SOL     OW 4456   6.196   0.394   5.408
 1186SOL    HW1 4457   6.138   0.352   5.477
 1186SOL    HW2 4458   6.237   0.478   5.445
 1187SOL     OW 4459   5.512   5.887   5.266
 1187SOL    HW1 4460   5.463   5.831   5.333
 1187SOL    HW2 4461   5.458   5.894   5.182
 1188SOL     OW 4462   3.020   6.509   6.246
 1188SOL    HW1 4463   3.006   6.443   6.321
 1188SOL    HW2 4464   3.116   6.509   6.219
 1189SOL     OW 4465   4.937   1.573   2.467
 1189SOL    HW1 4466   4.869   1.539   2.403
 1189SOL    HW2 4467   4.948   1.672   2.455
 1190SOL     OW 4468   3.985   5.168   3.684
 1190SOL    HW1 4469   4.058   5.107   3.652
 1190SOL    HW2 4470   3.995   5.184   3.782
 1191SOL     OW 4471   3.688   5.303   6.002
 1191SOL    HW1 4472   3.732   5.385   6.039
 1191SOL    HW2 4473   3.664   5.241   6.078
 1192SOL     OW 4474   5.465   4.478   3.007
 1192SOL    HW1 4475   5.472   4.496   3.105
 1192SOL    HW2 4476   5.467   4.565   2.957
 1193SOL     OW 4477   5.651   0.019   4.557
 1193SOL    HW1 4478   5.634   7.021   4.653
 1193SOL    HW2 4479   5.644   6.962   4.501
 1194SOL     OW 4480   0.250   0.895   0.579
 1194SOL    HW1 4481   0.305   0.964   0.531
 1194SOL    HW2 4482   0.167   0.877   0.527
 1195SOL     OW 4483   6.128   1.500   0.095
 1195SOL    HW1 4484   6.179   1.550   0.025
 1195SOL    HW2 4485   6.032   1.528   0.093
 1196SOL     OW 4486   0.016   5.025   2.090
 1196SOL    HW1 4487   0.044   4.959   2.159
 1196SOL    HW2 4488   0.015   4.981   2.000
 1197SOL     OW 4489   4.177   5.803   5.632
 1197SOL    HW1 4490   4.146   5.735   5.698
 1197SOL    HW2 4491   4.196   5.889   5.680
 1198SOL     OW 4492   2.250   2.742   2.086
 1198SOL    HW1 4493   2.267   2.727   2.184
 1198SOL    HW2 4494   2.310   2.682   2.033
 1199SOL     OW 4495   3.898   4.016   2.983
 1199SOL    HW1 4496   3.908   3.991   3.079
 1199SOL    HW2 4497   3.805   4.052   2.968
 1200SOL     OW 4498   4.160   3.965   5.421
 1200SOL    HW1 4499   4.127   4.034   5.357
 1200SOL    HW2 4500   4.246   3.926   5.388
 1201SOL     OW 4501   1.395   1.195   4.958
 1201SOL    HW1 4502   1.311   1.237   4.992
 1201SOL    HW2 4503   1.469   1.262   4.960
 1202SOL     OW 4504   5.880   0.322   6.271
 1202SOL    HW1 4505   5.913   0.307   6.178
 1202SOL    HW2 4506   5.806   0.389   6.271
 1203SOL     OW 4507   5.533   0.089   1.156
 1203SOL    HW1 4508   5.562   0.179   1.125
 1203SOL    HW2 4509   5.494   0.038   1.079
 1204SOL     OW 4510   3.844   1.160   0.422
 1204SOL    HW1 4511   3.868   1.082   0.480
 1204SOL    HW2 4512   3.799   1.230   0.478
 1205SOL     OW 4513   5.595   3.140   7.023
 1205SOL    HW1 4514   5.568   3.233   0.024
 1205SOL    HW2 4515   5.514   3.086   7.003
 1206SOL     OW 4516   1.683   1.794   4.888
 1206SOL    HW1 4517   1.591   1.754   4.882
 1206SOL    HW2 4518   1.751   1.729   4.854
 1207SOL     OW 4519   6.542   6.496   0.608
 1207SOL    HW1 4520   6.578   6.566   0.670
 1207SOL    HW2 4521   6.548   6.529   0.513
 1208SOL     OW 4522   3.524   4.121   2.667
 1208SOL    HW1 4523   3.490   4.213   2.687
 1208SOL    HW2 4524   3.570   4.084   2.747
 1209SOL     OW 4525   6.553   5.944   5.618
 1209SOL    HW1 4526   6.498   5.920   5.699
 1209SOL    HW2 4527   6.493   5.985   5.549
 1210SOL     OW 4528   4.041   0.379   2.734
 1210SOL    HW1 4529   4.083   0.466   2.709
 1210SOL    HW2 4530   3.955   0.396   2.781
 1211SOL     OW 4531   1.700   3.604   3.581
 1211SOL    HW1 4532   1.796   3.581   3.600
 1211SOL    HW2 4533   1.641   3.534   3.621
 1212SOL     OW 4534   1.209   2.868   5.563
 1212SOL    HW1 4535   1.156   2.940   5.517
 1212SOL    HW2 4536   1.148   2.794   5.589
 1213SOL     OW 4537   6.139   2.813   5.151
 1213SOL    HW1 4538   6.065   2.869   5.114
 1213SOL    HW2 4539   6.170   2.748   5.082
 1214SOL     OW 4540   1.838   3.347   4.057
 1214SOL    HW1 4541   1.810   3.425   4.001
 1214SOL    HW2 4542   1.857   3.269   3.998
 1215SOL     OW 4543   2.127   4.207   2.652
 1215SOL    HW1 4544   2.205   4.252   2.609
 1215SOL    HW2 4545   2.064   4.174   2.582
 1216SOL     OW 4546   0.087   7.010   1.981
 1216SOL    HW1 4547   0.101   0.016   1.887
 1216SOL    HW2 4548   0.069   0.063   2.040
 1217SOL     OW 4549   0.944   6.371   0.421
 1217SOL    HW1 4550   0.987   6.429   0.352
 1217SOL    HW2 4551   1.005   6.294   0.443
 1218SOL     OW 4552   1.223   3.109   5.101
 1218SOL    HW1 4553   1.319   3.124   5.126
 1218SOL    HW2 4554   1.163   3.144   5.173
 1219SOL     OW 4555   4.281   5.022   0.862
 1219SOL    HW1 4556   4.259   4.978   0.775
 1219SOL    HW2 4557   4.314   5.115   0.846
 1220SOL     OW 4558   5.496   3.491   2.480
 1220SOL    HW1 4559   5.466   3.539   2.398
 1220SOL    HW2 4560   5.421   3.436   2.516
 1221SOL     OW 4561   6.028   3.946   0.008
 1221SOL    HW1 4562   6.067   3.861   0.042
 1221SOL    HW2 4563   6.038   3.951   6.934
 1222SOL     OW 4564   0.030   6.816   0.854
 1222SOL    HW1 4565   7.005   6.736   0.888
 1222SOL    HW2 4566   0.001   6.897   0.904
 1223SOL     OW 4567   5.945   0.359   0.119
 1223SOL    HW1 4568   6.037   0.394   0.139
 1223SOL    HW2 4569   5.877   0.421   0.159
 1224SOL     OW 4570   4.268   6.284   6.611
 1224SOL    HW1 4571   4.205   6.304   6.536
 1224SOL    HW2 4572   4.267   6.359   6.677
 1225SOL     OW 4573   3.857   1.526   0.918
 1225SOL    HW1 4574   3.911   1.593   0.969
 1225SOL    HW2 4575   3.915   1.481   0.850
 1226SOL     OW 4576   5.786   6.467   0.764
 1226SOL    HW1 4577   5.818   6.437   0.854
 1226SOL    HW2 4578   5.716   6.538   0.776
 1227SOL     OW 4579   5.884   4.759   5.365
 1227SOL    HW1 4580   5.789   4.729   5.358
 1227SOL    HW2 4581   5.917   4.743   5.459
 1228SOL     OW 4582   3.985   2.886   1.774
 1228SOL    HW1 4583   3.915   2.907   1.706
 1228SOL    HW2 4584   3.955   2.916   1.865
 1229SOL     OW 4585   0.433   7.022   2.237
 1229SOL    HW1 4586   0.527   6.986   2.242
 1229SOL    HW2 4587   0.426   0.077   2.296
 1230SOL     OW 4588   5.407   5.693   3.216
 1230SOL    HW1 4589   5.310   5.703   3.195
 1230SOL    HW2 4590   5.455   5.777   3.191
 1231SOL     OW 4591   1.807   2.782   6.171
 1231SOL    HW1 4592   1.743   2.822   6.236
 1231SOL    HW2 4593   1.803   2.832   6.085
 1232SOL     OW 4594   4.009   1.568   4.820
 1232SOL    HW1 4595   3.990   1.551   4.723
 1232SOL    HW2 4596   3.924   1.564   4.872
 1233SOL     OW 4597   1.219   4.668   3.560
 1233SOL    HW1 4598   1.178   4.608   3.492
 1233SOL    HW2 4599   1.151   4.692   3.629
 1234SOL     OW 4600   6.503   2.928   6.825
 1234SOL    HW1 4601   6.571   2.943   6.753
 1234SOL    HW2 4602   6.533   2.975   6.909
 1235SOL     OW 4603   6.224   4.968   6.920
 1235SOL    HW1 4604   6.281   4.939   6.843
 1235SOL    HW2 4605   6.136   4.922   6.916
 1236SOL     OW 4606   3.580   1.623   0.475
 1236SOL    HW1 4607   3.666   1.590   0.436
 1236SOL    HW2 4608   3.530   1.547   0.516
 1237SOL     OW 4609   1.576   0.126   4.736
 1237SOL    HW1 4610   1.662   0.124   4.685
 1237SOL    HW2 4611   1.500   0.140   4.673
 1238SOL     OW 4612   0.568   6.707   2.812
 1238SOL    HW1 4613   0.532   6.702   2.906
 1238SOL    HW2 4614   0.668   6.708   2.815
 1239SOL     OW 4615   6.772   4.825   4.325
 1239SOL    HW1 4616   6.702   4.833   4.396
 1239SOL    HW2 4617   6.848   4.770   4.359
 1240SOL     OW 4618   6.189   5.657   2.685
 1240SOL    HW1 4619   6.108   5.624   2.636
 1240SOL    HW2 4620   6.243   5.579   2.716
 1241SOL     OW 4621   0.116   4.959   4.331
 1241SOL    HW1 4622   0.043   4.957   4.264
 1241SOL    HW2 4623   0.083   4.926   4.419
 1242SOL     OW 4624   2.221   3.863   6.771
 1242SOL    HW1 4625   2.252   3.934   6.834
 1242SOL    HW2 4626   2.129   3.833   6.797
 1243SOL     OW 4627   0.922   2.781   5.415
 1243SOL    HW1 4628   0.864   2.708   5.452
 1243SOL    HW2 4629   0.868   2.838   5.354
 1244SOL     OW 4630   5.783   6.390   5.427
 1244SOL    HW1 4631   5.693   6.413   5.389
 1244SOL    HW2 4632   5.843   6.470   5.420
 1245SOL     OW 4633   5.758   5.624   1.344
 1245SOL    HW1 4634   5.732   5.651   1.436
 1245SOL    HW2 4635   5.832   5.556   1.349
 1246SOL     OW 4636   4.684   0.600   1.187
 1246SOL    HW1 4637   4.709   0.517   1.236
 1246SOL    HW2 4638   4.713   0.680   1.240
 1247SOL     OW 4639   6.441   6.614   4.290
 1247SOL    HW1 4640   6.509   6.603   4.363
 1247SOL    HW2 4641   6.469   6.689   4.230
 1248SOL     OW 4642   0.450   6.552   4.555
 1248SOL    HW1 4643   0.434   6.647   4.581
 1248SOL    HW2 4644   0.514   6.548   4.478
 1249SOL     OW 4645   0.493   4.154   1.349
 1249SOL    HW1 4646   0.570   4.093   1.369
 1249SOL    HW2 4647   0.433   4.158   1.429
 1250SOL     OW 4648   5.984   3.420   5.259
 1250SOL    HW1 4649   6.071   3.375   5.239
 1250SOL    HW2 4650   5.984   3.513   5.222
 1251SOL     OW 4651   2.311   1.775   2.865
 1251SOL    HW1 4652   2.241   1.840   2.834
 1251SOL    HW2 4653   2.400   1.804   2.828
 1252SOL     OW 4654   3.028   5.486   6.759
 1252SOL    HW1 4655   3.035   5.460   6.663
 1252SOL    HW2 4656   3.108   5.453   6.809
 1253SOL     OW 4657   2.989   0.867   0.990
 1253SOL    HW1 4658   2.929   0.788   0.974
 1253SOL    HW2 4659   3.065   0.839   1.049
 1254SOL     OW 4660   5.773   1.609   3.340
 1254SOL    HW1 4661   5.767   1.520   3.295
 1254SOL    HW2 4662   5.868   1.627   3.367
 1255SOL     OW 4663   5.634   2.353   5.001
 1255SOL    HW1 4664   5.723   2.389   5.032
 1255SOL    HW2 4665   5.604   2.282   5.063
 1256SOL     OW 4666   6.631   5.708   3.251
 1256SOL    HW1 4667   6.721   5.675   3.223
 1256SOL    HW2 4668   6.642   5.774   3.325
 1257SOL     OW 4669   0.202   4.531   4.153
 1257SOL    HW1 4670   0.142   4.524   4.073
 1257SOL    HW2 4671   0.218   4.439   4.189
 1258SOL     OW 4672   1.944   6.037   3.457
 1258SOL    HW1 4673   1.961   6.120   3.510
 1258SOL    HW2 4674   1.846   6.028   3.440
 1259SOL     OW 4675   4.663   0.060   5.051
 1259SOL    HW1 4676   4.639   0.014   5.137
 1259SOL    HW2 4677   4.591   0.124   5.026
 1260SOL     OW 4678   2.775   0.733   2.259
 1260SOL    HW1 4679   2.681   0.698   2.259
 1260SOL    HW2 4680   2.778   0.821   2.212
 1261SOL     OW 4681   0.053   3.424   6.959
 1261SOL    HW1 4682   0.047   3.523   6.947
 1261SOL    HW2 4683   0.131   3.389   6.906
 1262SOL     OW 4684   4.480   4.803   1.251
 1262SOL    HW1 4685   4.511   4.711   1.227
 1262SOL    HW2 4686   4.402   4.828   1.193
 1263SOL     OW 4687   6.664   2.104   1.134
 1263SOL    HW1 4688   6.588   2.154   1.177
 1263SOL    HW2 4689   6.631   2.057   1.052
 1264SOL     OW 4690   0.432   4.073   3.321
 1264SOL    HW1 4691   0.423   4.133   3.400
 1264SOL    HW2 4692   0.527   4.042   3.314
 1265SOL     OW 4693   0.345   3.953   4.007
 1265SOL    HW1 4694   0.293   3.927   3.926
 1265SOL    HW2 4695   0.301   4.030   4.053
 1266SOL     OW 4696   2.693   1.815   4.997
 1266SOL    HW1 4697   2.783   1.839   4.960
 1266SOL    HW2 4698   2.704   1.765   5.083
 1267SOL     OW 4699   6.555   6.048   2.382
 1267SOL    HW1 4700   6.613   6.125   2.354
 1267SOL    HW2 4701   6.540   6.052   2.481
 1268SOL     OW 4702   5.780   2.474   0.382
 1268SOL    HW1 4703   5.736   2.486   0.471
 1268SOL    HW2 4704   5.733   2.530   0.313
 1269SOL     OW 4705   6.627   6.840   5.476
 1269SOL    HW1 4706   6.628   6.909   5.403
 1269SOL    HW2 4707   6.700   6.774   5.461
 1270SOL     OW 4708   1.996   4.317   4.900
 1270SOL    HW1 4709   1.945   4.231   4.907
 1270SOL    HW2 4710   1.972   4.377   4.977
 1271SOL     OW 4711   3.411   1.815   3.270
 1271SOL    HW1 4712   3.365   1.903   3.259
 1271SOL    HW2 4713   3.353   1.743   3.233
 1272SOL     OW 4714   0.190   5.791   0.691
 1272SOL    HW1 4715   0.251   5.864   0.721
 1272SOL    HW2 4716   0.173   5.728   0.767
 1273SOL     OW 4717   2.062   3.948   0.493
 1273SOL    HW1 4718   2.137   4.011   0.477
 1273SOL    HW2 4719   2.021   3.922   0.406
 1274SOL     OW 4720   0.454   3.125   1.804
 1274SOL    HW1 4721   0.494   3.211   1.836
 1274SOL    HW2 4722   0.356   3.124   1.824
 1275SOL     OW 4723   4.261   0.617   3.823
 1275SOL    HW1 4724   4.338   0.650   3.878
 1275SOL    HW2 4725   4.208   0.552   3.877
 1276SOL     OW 4726   6.766   0.163   3.369
 1276SOL    HW1 4727   6.695   0.187   3.435
 1276SOL    HW2 4728   6.856   0.189   3.405
 1277SOL     OW 4729   0.418   1.204   4.624
 1277SOL    HW1 4730   0.362   1.126   4.653
 1277SOL    HW2 4731   0.478   1.176   4.549
 1278SOL     OW 4732   1.965   1.952   5.270
 1278SOL    HW1 4733   1.957   1.973   5.173
 1278SOL    HW2 4734   1.938   2.032   5.324
 1279SOL     OW 4735   2.445   0.040   0.698
 1279SOL    HW1 4736   2.418   0.124   0.745
 1279SOL    HW2 4737   2.489   7.004   0.763
 1280SOL     OW 4738   2.761   0.010   3.187
 1280SOL    HW1 4739   2.768   6.952   3.132
 1280SOL    HW2 4740   2.697   0.073   3.143
 1281SOL     OW 4741   0.943   5.190   3.005
 1281SOL    HW1 4742   0.984   5.245   3.078
 1281SOL    HW2 4743   0.932   5.096   3.037
 1282SOL     OW 4744   0.628   0.882   0.958
 1282SOL    HW1 4745   0.593   0.789   0.969
 1282SOL    HW2 4746   0.643   0.901   0.861
 1283SOL     OW 4747   5.508   3.601   5.653
 1283SOL    HW1 4748   5.577   3.645   5.712
 1283SOL    HW2 4749   5.524   3.503   5.651
 1284SOL     OW 4750   3.288   2.754   1.671
 1284SOL    HW1 4751   3.195   2.738   1.705
 1284SOL    HW2 4752   3.326   2.668   1.637
 1285SOL     OW 4753   5.585   3.603   6.597
 1285SOL    HW1 4754   5.567   3.571   6.690
 1285SOL    HW2 4755   5.562   3.700   6.590
 1286SOL     OW 4756   4.662   4.932   1.872
 1286SOL    HW1 4757   4.636   5.011   1.815
 1286SOL    HW2 4758   4.587   4.866   1.873
 1287SOL     OW 4759   5.754   4.864   6.844
 1287SOL    HW1 4760   5.788   4.912   6.763
 1287SOL    HW2 4761   5.686   4.920   6.889
 1288SOL     OW 4762   0.163   2.797   0.670
 1288SOL    HW1 4763   0.228   2.765   0.601
 1288SOL    HW2 4764   0.173   2.742   0.753
 1289SOL     OW 4765   0.193   5.671   1.345
 1289SOL    HW1 4766   0.217   5.611   1.421
 1289SOL    HW2 4767   0.094   5.677   1.337
 1290SOL     OW 4768   0.867   0.861   0.022
 1290SOL    HW1 4769   0.947   0.802   0.010
 1290SOL    HW2 4770   0.871   0.903   0.112
 1291SOL     OW 4771   1.537   4.703   6.507
 1291SOL    HW1 4772   1.510   4.732   6.416
 1291SOL    HW2 4773   1.504   4.769   6.574
 1292SOL     OW 4774   7.008   4.574   2.117
 1292SOL    HW1 4775   6.976   4.580   2.023
 1292SOL    HW2 4776   7.023   4.478   2.142
 1293SOL     OW 4777   3.151   1.013   6.167
 1293SOL    HW1 4778   3.099   0.935   6.133
 1293SOL    HW2 4779   3.244   1.010   6.130
 1294SOL     OW 4780   0.258   2.929   1.270
 1294SOL    HW1 4781   0.323   2.867   1.225
 1294SOL    HW2 4782   0.167   2.890   1.267
 1295SOL     OW 4783   6.251   3.646   2.680
 1295SOL    HW1 4784   6.166   3.668   2.633
 1295SOL    HW2 4785   6.320   3.716   2.660
 1296SOL     OW 4786   3.969   1.518   6.468
 1296SOL    HW1 4787   4.039   1.553   6.405
 1296SOL    HW2 4788   3.925   1.438   6.427
 1297SOL     OW 4789   5.556   1.210   6.073
 1297SOL    HW1 4790   5.606   1.136   6.117
 1297SOL    HW2 4791   5.604   1.297   6.089
 1298SOL     OW 4792   5.784   3.275   3.544
 1298SOL    HW1 4793   5.878   3.263   3.513
 1298SOL    HW2 4794   5.760   3.372   3.544
 1299SOL     OW 4795   1.873   4.013   3.364
 1299SOL    HW1 4796   1.897   4.083   3.430
 1299SOL    HW2 4797   1.871   4.052   3.272
 1300SOL     OW 4798   3.117   3.675   2.083
 1300SOL    HW1 4799   3.088   3.769   2.105
 1300SOL    HW2 4800   3.051   3.610   2.120
 1301SOL     OW 4801   1.080   6.371   2.641
 1301SOL    HW1 4802   1.125   6.284   2.665
 1301SOL    HW2 4803   0.984   6.353   2.620
 1302SOL     OW 4804   2.532   6.644   4.621
 1302SOL    HW1 4805   2.592   6.584   4.567
 1302SOL    HW2 4806   2.585   6.721   4.656
 1303SOL     OW 4807   3.813   0.818   0.789
 1303SOL    HW1 4808   3.731   0.780   0.747
 1303SOL    HW2 4809   3.873   0.855   0.718
 1304SOL     OW 4810   1.901   1.222   6.415
 1304SOL    HW1 4811   1.861   1.310   6.391
 1304SOL    HW2 4812   1.896   1.160   6.336
 1305SOL     OW 4813   5.980   5.565   6.058
 1305SOL    HW1 4814   5.895   5.610   6.034
 1305SOL    HW2 4815   5.960   5.473   6.093
 1306SOL     OW 4816   0.796   4.172   5.291
 1306SOL    HW1 4817   0.895   4.160   5.282
 1306SOL    HW2 4818   0.766   4.248   5.234
 1307SOL     OW 4819   1.819   3.072   4.542
 1307SOL    HW1 4820   1.723   3.044   4.543
 1307SOL    HW2 4821   1.869   3.023   4.612
 1308SOL     OW 4822   4.349   5.919   4.662
 1308SOL    HW1 4823   4.353   5.825   4.694
 1308SOL    HW2 4824   4.274   5.930   4.597
 1309SOL     OW 4825   5.420   3.201   5.289
 1309SOL    HW1 4826   5.370   3.277   5.248
 1309SOL    HW2 4827   5.518   3.213   5.272
 1310SOL     OW 4828   5.519   3.544   5.084
 1310SOL    HW1 4829   5.543   3.452   5.055
 1310SOL    HW2 4830   5.594   3.607   5.063
 1311SOL     OW 4831   6.363   6.331   3.947
 1311SOL    HW1 4832   6.351   6.416   3.998
 1311SOL    HW2 4833   6.335   6.253   4.004
 1312SOL     OW 4834   0.877   0.735   6.693
 1312SOL    HW1 4835   0.858   0.830   6.668
 1312SOL    HW2 4836   0.870   0.677   6.611
 1313SOL     OW 4837   2.382   5.735   5.684
 1313SOL    HW1 4838   2.480   5.717   5.679
 1313SOL    HW2 4839   2.333   5.667   5.629
 1314SOL     OW 4840   1.848   1.230   5.698
 1314SOL    HW1 4841   1.906   1.298   5.653
 1314SOL    HW2 4842   1.758   1.270   5.716
 1315SOL     OW 4843   0.910   1.046   0.249
 1315SOL    HW1 4844   0.836   1.054   0.316
 1315SOL    HW2 4845   0.998   1.043   0.297
 1316SOL     OW 4846   2.069   6.971   2.901
 1316SOL    HW1 4847   2.061   0.037   2.862
 1316SOL    HW2 4848   1.992   6.914   2.872
 1317SOL     OW 4849   0.508   4.501   4.682
 1317SOL    HW1 4850   0.434   4.568   4.677
 1317SOL    HW2 4851   0.596   4.546   4.670
 1318SOL     OW 4852   0.629   0.930   0.709
 1318SOL    HW1 4853   0.720   0.962   0.681
 1318SOL    HW2 4854   0.600   0.857   0.647
 1319SOL     OW 4855   6.470   1.714   0.122
 1319SOL    HW1 4856   6.528   1.634   0.132
 1319SOL    HW2 4857   6.391   1.706   0.182
 1320SOL     OW 4858   5.798   4.649   0.340
 1320SOL    HW1 4859   5.872   4.663   0.406
 1320SOL    HW2 4860   5.716   4.618   0.389
 1321SOL     OW 4861   4.197   2.696   0.183
 1321SOL    HW1 4862   4.191   2.596   0.190
 1321SOL    HW2 4863   4.189   2.723   0.087
 1322SOL     OW 4864   5.212   0.844   3.193
 1322SOL    HW1 4865   5.148   0.858   3.269
 1322SOL    HW2 4866   5.184   0.901   3.115
 1323SOL     OW 4867   5.514   1.773   5.518
 1323SOL    HW1 4868   5.547   1.803   5.429
 1323SOL    HW2 4869   5.577   1.805   5.589
 1324SOL     OW 4870   1.470   2.281   1.863
 1324SOL    HW1 4871   1.552   2.224   1.855
 1324SOL    HW2 4872   1.392   2.225   1.890
 1325SOL     OW 4873   2.597   6.695   3.007
 1325SOL    HW1 4874   2.501   6.666   3.006
 1325SOL    HW2 4875   2.628   6.712   2.914
 1326SOL     OW 4876   4.771   2.819   4.606
 1326SOL    HW1 4877   4.713   2.771   4.671
 1326SOL    HW2 4878   4.741   2.799   4.512
 1327SOL     OW 4879   2.901   5.566   2.841
 1327SOL    HW1 4880   2.893   5.518   2.928
 1327SOL    HW2 4881   2.938   5.504   2.772
 1328SOL     OW 4882   0.739   2.366   0.537
 1328SOL    HW1 4883   0.647   2.350   0.503
 1328SOL    HW2 4884   0.801   2.297   0.498
 1329SOL     OW 4885   6.515   1.535   0.945
 1329SOL    HW1 4886   6.459   1.569   1.021
 1329SOL    HW2 4887   6.554   1.612   0.895
 1330SOL     OW 4888   6.368   0.243   0.943
 1330SOL    HW1 4889   6.405   0.183   1.014
 1330SOL    HW2 4890   6.308   0.311   0.985
 1331SOL     OW 4891   5.180   2.037   3.176
 1331SOL    HW1 4892   5.159   2.005   3.269
 1331SOL    HW2 4893   5.270   2.002   3.148
 1332SOL     OW 4894   3.547   0.233   0.834
 1332SOL    HW1 4895   3.583   0.270   0.920
 1332SOL    HW2 4896   3.579   0.288   0.758
 1333SOL     OW 4897   3.561   4.388   5.535
 1333SOL    HW1 4898   3.502   4.369   5.614
 1333SOL    HW2 4899   3.504   4.416   5.457
 1334SOL     OW 4900   0.699   3.082   4.522
 1334SOL    HW1 4901   0.755   3.116   4.447
 1334SOL    HW2 4902   0.606   3.065   4.490
 1335SOL     OW 4903   2.083   6.201   2.937
 1335SOL    HW1 4904   2.146   6.128   2.907
 1335SOL    HW2 4905   2.011   6.162   2.994
 1336SOL     OW 4906   1.539   1.246   6.227
 1336SOL    HW1 4907   1.512   1.161   6.271
 1336SOL    HW2 4908   1.463   1.311   6.230
 1337SOL     OW 4909   1.061   2.504   5.063
 1337SOL    HW1 4910   1.062   2.593   5.108
 1337SOL    HW2 4911   0.967   2.473   5.053
 1338SOL     OW 4912   4.319   3.726   6.336
 1338SOL    HW1 4913   4.360   3.658   6.397
 1338SOL    HW2 4914   4.381   3.743   6.259
 1339SOL     OW 4915   6.784   5.235   6.829
 1339SOL    HW1 4916   6.771   5.307   6.761
 1339SOL    HW2 4917   6.875   5.195   6.819
 1340SOL     OW 4918   1.168   1.899   1.482
 1340SOL    HW1 4919   1.143   1.828   1.548
 1340SOL    HW2 4920   1.139   1.871   1.391
 1341SOL     OW 4921   4.376   0.896   5.303
 1341SOL    HW1 4922   4.396   0.808   5.346
 1341SOL    HW2 4923   4.433   0.967   5.344
 1342SOL     OW 4924   1.173   5.586   6.617
 1342SOL    HW1 4925   1.244   5.657   6.613
 1342SOL    HW2 4926   1.097   5.619   6.673
 1343SOL     OW 4927   3.757   6.728   2.380
 1343SOL    HW1 4928   3.672   6.774   2.357
 1343SOL    HW2 4929   3.830   6.761   2.321
 1344SOL     OW 4930   7.024   2.636   3.377
 1344SOL    HW1 4931   0.094   2.657   3.355
 1344SOL    HW2 4932   6.993   2.558   3.323
 1345SOL     OW 4933   0.653   1.239   3.765
 1345SOL    HW1 4934   0.571   1.213   3.714
 1345SOL    HW2 4935   0.734   1.222   3.709
 1346SOL     OW 4936   1.270   0.134   2.769
 1346SOL    HW1 4937   1.351   0.174   2.725
 1346SOL    HW2 4938   1.298   0.052   2.821
 1347SOL     OW 4939   6.102   6.353   3.546
 1347SOL    HW1 4940   6.128   6.405   3.628
 1347SOL    HW2 4941   6.159   6.383   3.469
 1348SOL     OW 4942   5.484   5.316   3.502
 1348SOL    HW1 4943   5.424   5.236   3.511
 1348SOL    HW2 4944   5.499   5.336   3.405
 1349SOL     OW 4945   4.887   2.820   6.702
 1349SOL    HW1 4946   4.819   2.882   6.741
 1349SOL    HW2 4947   4.855   2.725   6.712
 1350SOL     OW 4948   3.799   5.095   6.591
 1350SOL    HW1 4949   3.816   5.187   6.625
 1350SOL    HW2 4950   3.834   5.028   6.656
 1351SOL     OW 4951   0.900   0.881   2.752
 1351SOL    HW1 4952   0.841   0.957   2.723
 1351SOL    HW2 4953   0.907   0.879   2.851
 1352SOL     OW 4954   0.449   0.106   3.718
 1352SOL    HW1 4955   0.450   0.204   3.700
 1352SOL    HW2 4956   0.455   0.091   3.817
 1353SOL     OW 4957   6.597   4.398   5.793
 1353SOL    HW1 4958   6.639   4.443   5.872
 1353SOL    HW2 4959   6.666   4.346   5.743
 1354SOL     OW 4960   6.951   1.248   0.996
 1354SOL    HW1 4961   7.020   1.228   0.927
 1354SOL    HW2 4962   6.897   1.166   1.015
 1355SOL     OW 4963   5.471   4.019   0.090
 1355SOL    HW1 4964   5.508   3.998   7.024
 1355SOL    HW2 4965   5.472   3.936   0.146
 1356SOL     OW 4966   3.580   3.799   3.716
 1356SOL    HW1 4967   3.649   3.726   3.715
 1356SOL    HW2 4968   3.498   3.767   3.764
 1357SOL     OW 4969   2.397   3.556   6.173
 1357SOL    HW1 4970   2.441   3.637   6.212
 1357SOL    HW2 4971   2.355   3.579   6.086
 1358SOL     OW 4972   2.488   2.238   5.728
 1358SOL    HW1 4973   2.527   2.223   5.637
 1358SOL    HW2 4974   2.547   2.299   5.780
 1359SOL     OW 4975   6.612   3.835   1.469
 1359SOL    HW1 4976   6.513   3.823   1.457
 1359SOL    HW2 4977   6.659   3.786   1.396
 1360SOL     OW 4978   3.828   3.618   2.419
 1360SOL    HW1 4979   3.770   3.602   2.499
 1360SOL    HW2 4980   3.901   3.551   2.416
 1361SOL     OW 4981   0.363   0.080   6.252
 1361SOL    HW1 4982   0.312   0.117   6.174
 1361SOL    HW2 4983   0.399   7.015   6.228
 1362SOL     OW 4984   2.792   3.319   5.465
 1362SOL    HW1 4985   2.763   3.409   5.433
 1362SOL    HW2 4986   2.770   3.250   5.397
 1363SOL     OW 4987   6.520   5.697   3.960
 1363SOL    HW1 4988   6.516   5.757   4.039
 1363SOL    HW2 4989   6.469   5.614   3.978
 1364SOL     OW 4990   0.008   2.617   0.169
 1364SOL    HW1 4991   6.957   2.560   0.139
 1364SOL    HW2 4992   7.011   2.659   0.257
 1365SOL     OW 4993   0.689   3.900   5.331
 1365SOL    HW1 4994   0.744   3.820   5.354
 1365SOL    HW2 4995   0.733   3.982   5.367
 1366SOL     OW 4996   6.995   3.103   0.968
 1366SOL    HW1 4997   6.959   3.143   0.884
 1366SOL    HW2 4998   0.062   3.067   0.951
 1367SOL     OW 4999   1.320   4.958   3.601
 1367SOL    HW1 5000   1.379   4.903   3.542
 1367SOL    HW2 5001   1.285   4.901   3.676
 1368SOL     OW 5002   6.766   6.987   4.177
 1368SOL    HW1 5003   6.837   0.005   4.233
 1368SOL    HW2 5004   6.676   7.021   4.203
 1369SOL     OW 5005   2.361   6.048   1.818
 1369SOL    HW1 5006   2.262   6.044   1.815
 1369SOL    HW2 5007   2.395   6.111   1.748
 1370SOL     OW 5008   6.747   1.551   4.245
 1370SOL    HW1 5009   6.668   1.489   4.246
 1370SOL    HW2 5010   6.775   1.567   4.150
 1371SOL     OW 5011   4.816   1.444   5.137
 1371SOL    HW1 5012   4.778   1.473   5.225
 1371SOL    HW2 5013   4.761   1.369   5.100
 1372SOL     OW 5014   6.241   2.066   1.148
 1372SOL    HW1 5015   6.194   2.065   1.059
 1372SOL    HW2 5016   6.311   1.995   1.150
 1373SOL     OW 5017   5.312   1.600   0.910
 1373SOL    HW1 5018   5.302   1.501   0.917
 1373SOL    HW2 5019   5.349   1.636   0.996
 1374SOL     OW 5020   5.624   4.563   0.086
 1374SOL    HW1 5021   5.641   4.599   0.177
 1374SOL    HW2 5022   5.615   4.463   0.090
 1375SOL     OW 5023   0.006   6.333   6.222
 1375SOL    HW1 5024   7.023   6.274   6.142
 1375SOL    HW2 5025   0.090   6.310   6.272
 1376SOL     OW 5026   3.384   4.874   6.130
 1376SOL    HW1 5027   3.384   4.954   6.069
 1376SOL    HW2 5028   3.311   4.812   6.103
 1377SOL     OW 5029   1.370   2.756   3.969
 1377SOL    HW1 5030   1.419   2.678   3.928
 1377SOL    HW2 5031   1.309   2.723   4.040
 1378SOL     OW 5032   4.800   2.586   5.044
 1378SOL    HW1 5033   4.751   2.668   5.013
 1378SOL    HW2 5034   4.894   2.610   5.068
 1379SOL     OW 5035   4.860   5.727   2.850
 1379SOL    HW1 5036   4.946   5.778   2.847
 1379SOL    HW2 5037   4.840   5.701   2.945
 1380SOL     OW 5038   6.708   6.632   2.827
 1380SOL    HW1 5039   6.629   6.658   2.770
 1380SOL    HW2 5040   6.792   6.658   2.781
 1381SOL     OW 5041   5.636   2.012   6.447
 1381SOL    HW1 5042   5.726   1.985   6.411
 1381SOL    HW2 5043   5.619   1.964   6.534
 1382SOL     OW 5044   4.829   3.441   1.288
 1382SOL    HW1 5045   4.901   3.471   1.351
 1382SOL    HW2 5046   4.837   3.343   1.272
 1383SOL     OW 5047   0.739   0.193   1.334
 1383SOL    HW1 5048   0.656   0.230   1.376
 1383SOL    HW2 5049   0.715   0.120   1.271
 1384SOL     OW 5050   4.434   7.007   0.911
 1384SOL    HW1 5051   4.532   7.025   0.922
 1384SOL    HW2 5052   4.407   0.005   0.817
 1385SOL     OW 5053   2.066   4.671   3.702
 1385SOL    HW1 5054   2.156   4.690   3.664
 1385SOL    HW2 5055   2.031   4.586   3.664
 1386SOL     OW 5056   3.266   0.177   3.208
 1386SOL    HW1 5057   3.279   0.078   3.201
 1386SOL    HW2 5058   3.271   0.204   3.304
 1387SOL     OW 5059   2.891   5.698   1.983
 1387SOL    HW1 5060   2.831   5.723   2.059
 1387SOL    HW2 5061   2.877   5.601   1.961
 1388SOL     OW 5062   6.404   6.477   1.221
 1388SOL    HW1 5063   6.384   6.437   1.132
 1388SOL    HW2 5064   6.322   6.519   1.259
 1389SOL     OW 5065   5.740   2.290   3.430
 1389SOL    HW1 5066   5.733   2.317   3.334
 1389SOL    HW2 5067   5.792   2.359   3.481
 1390SOL     OW 5068   0.050   3.911   0.168
 1390SOL    HW1 5069   0.078   3.981   0.102
 1390SOL    HW2 5070   6.980   3.925   0.194
 1391SOL     OW 5071   6.473   0.071   4.200
 1391SOL    HW1 5072   6.387   0.040   4.241
 1391SOL    HW2 5073   6.453   0.133   4.124
 1392SOL     OW 5074   5.424   5.723   6.278
 1392SOL    HW1 5075   5.364   5.771   6.214
 1392SOL    HW2 5076   5.517   5.758   6.269
 1393SOL     OW 5077   6.062   4.588   5.200
 1393SOL    HW1 5078   5.981   4.634   5.235
 1393SOL    HW2 5079   6.054   4.489   5.216
 1394SOL     OW 5080   2.931   6.102   4.984
 1394SOL    HW1 5081   2.844   6.086   5.031
 1394SOL    HW2 5082   2.916   6.100   4.885
 1395SOL     OW 5083   2.548   3.882   5.818
 1395SOL    HW1 5084   2.470   3.873   5.756
 1395SOL    HW2 5085   2.515   3.881   5.913
 1396SOL     OW 5086   1.790   0.911   5.011
 1396SOL    HW1 5087   1.847   0.919   5.093
 1396SOL    HW2 5088   1.792   0.817   4.977
 1397SOL     OW 5089   0.331   0.381   4.048
 1397SOL    HW1 5090   0.240   0.371   4.006
 1397SOL    HW2 5091   0.357   0.477   4.049
 1398SOL     OW 5092   2.832   0.958   5.752
 1398SOL    HW1 5093   2.785   1.019   5.688
 1398SOL    HW2 5094   2.771   0.937   5.828
 1399SOL     OW 5095   3.455   6.278   0.730
 1399SOL    HW1 5096   3.359   6.296   0.753
 1399SOL    HW2 5097   3.508   6.362   0.745
 1400SOL     OW 5098   0.100   1.460   2.847
 1400SOL    HW1 5099   0.029   1.454   2.917
 1400SOL    HW2 5100   0.063   1.505   2.766
 1401SOL     OW 5101   0.031   2.090   4.809
 1401SOL    HW1 5102   6.975   2.078   4.866
 1401SOL    HW2 5103   0.004   2.093   4.712
 1402SOL     OW 5104   0.814   3.832   0.314
 1402SOL    HW1 5105   0.787   3.882   0.231
 1402SOL    HW2 5106   0.855   3.744   0.288
 1403SOL     OW 5107   2.703   1.891   1.543
 1403SOL    HW1 5108   2.735   1.979   1.509
 1403SOL    HW2 5109   2.763   1.818   1.510
 1404SOL     OW 5110   5.579   0.080   0.250
 1404SOL    HW1 5111   5.658   0.024   0.277
 1404SOL    HW2 5112   5.495   0.036   0.283
 1405SOL     OW 5113   2.195   3.478   0.863
 1405SOL    HW1 5114   2.101   3.471   0.828
 1405SOL    HW2 5115   2.226   3.572   0.858
 1406SOL     OW 5116   1.157   5.225   1.458
 1406SOL    HW1 5117   1.191   5.157   1.393
 1406SOL    HW2 5118   1.152   5.314   1.414
 1407SOL     OW 5119   0.687   1.803   2.082
 1407SOL    HW1 5120   0.738   1.841   2.005
 1407SOL    HW2 5121   0.666   1.875   2.147
 1408SOL     OW 5122   5.501   1.252   5.776
 1408SOL    HW1 5123   5.503   1.262   5.876
 1408SOL    HW2 5124   5.586   1.287   5.737
 1409SOL     OW 5125   0.547   0.870   4.742
 1409SOL    HW1 5126   0.527   0.795   4.680
 1409SOL    HW2 5127   0.601   0.939   4.694
 1410SOL     OW 5128   2.088   3.425   6.395
 1410SOL    HW1 5129   2.095   3.328   6.416
 1410SOL    HW2 5130   2.158   3.475   6.445
 1411SOL     OW 5131   2.492   6.588   1.946
 1411SOL    HW1 5132   2.549   6.651   1.892
 1411SOL    HW2 5133   2.549   6.545   2.016
 1412SOL     OW 5134   0.256   1.982   1.096
 1412SOL    HW1 5135   0.262   2.070   1.050
 1412SOL    HW2 5136   0.161   1.952   1.098
 1413SOL     OW 5137   1.774   1.060   5.396
 1413SOL    HW1 5138   1.712   1.013   5.459
 1413SOL    HW2 5139   1.776   1.013   5.308
 1414SOL     OW 5140   2.650   1.201   1.729
 1414SOL    HW1 5141   2.746   1.205   1.757
 1414SOL    HW2 5142   2.641   1.229   1.634
 1415SOL     OW 5143   2.242   0.613   4.764
 1415SOL    HW1 5144   2.306   0.685   4.792
 1415SOL    HW2 5145   2.167   0.609   4.829
 1416SOL     OW 5146   4.595   4.405   4.092
 1416SOL    HW1 5147   4.500   4.426   4.113
 1416SOL    HW2 5148   4.637   4.483   4.044
 1417SOL     OW 5149   3.279   1.703   0.319
 1417SOL    HW1 5150   3.336   1.650   0.257
 1417SOL    HW2 5151   3.315   1.796   0.326
 1418SOL     OW 5152   3.121   3.397   3.644
 1418SOL    HW1 5153   3.058   3.419   3.718
 1418SOL    HW2 5154   3.200   3.347   3.681
 1419SOL     OW 5155   2.426   6.133   5.052
 1419SOL    HW1 5156   2.402   6.108   4.958
 1419SOL    HW2 5157   2.391   6.225   5.071
 1420SOL     OW 5158   2.261   0.301   1.559
 1420SOL    HW1 5159   2.182   0.358   1.583
 1420SOL    HW2 5160   2.247   0.209   1.595
 1421SOL     OW 5161   1.789   3.339   3.356
 1421SOL    HW1 5162   1.888   3.332   3.367
 1421SOL    HW2 5163   1.767   3.424   3.307
 1422SOL     OW 5164   1.777   3.679   1.314
 1422SOL    HW1 5165   1.845   3.647   1.381
 1422SOL    HW2 5166   1.814   3.668   1.222
 1423SOL     OW 5167   5.399   6.446   3.114
 1423SOL    HW1 5168   5.391   6.371   3.180
 1423SOL    HW2 5169   5.445   6.524   3.158
 1424SOL     OW 5170   6.523   4.815   5.113
 1424SOL    HW1 5171   6.591   4.791   5.182
 1424SOL    HW2 5172   6.536   4.758   5.032
 1425SOL     OW 5173   1.054   6.518   4.648
 1425SOL    HW1 5174   1.010   6.455   4.713
 1425SOL    HW2 5175   1.096   6.593   4.699
 1426SOL     OW 5176   1.828   2.226   6.105
 1426SOL    HW1 5177   1.893   2.222   6.029
 1426SOL    HW2 5178   1.809   2.322   6.127
 1427SOL     OW 5179   0.317   6.472   3.445
 1427SOL    HW1 5180   0.257   6.515   3.378
 1427SOL    HW2 5181   0.376   6.541   3.486
 1428SOL     OW 5182   5.812   2.771   0.937
 1428SOL    HW1 5183   5.888   2.725   0.892
 1428SOL    HW2 5184   5.846   2.824   1.015
 1429SOL     OW 5185   5.365   2.159   0.472
 1429SOL    HW1 5186   5.352   2.179   0.570
 1429SOL    HW2 5187   5.407   2.069   0.462
 1430SOL     OW 5188   1.745   4.527   4.088
 1430SOL    HW1 5189   1.664   4.526   4.147
 1430SOL    HW2 5190   1.819   4.478   4.132
 1431SOL     OW 5191   2.228   1.894   0.420
 1431SOL    HW1 5192   2.284   1.924   0.496
 1431SOL    HW2 5193   2.214   1.970   0.356
 1432SOL     OW 5194   3.318   1.296   2.714
 1432SOL    HW1 5195   3.243   1.358   2.740
 1432SOL    HW2 5196   3.314   1.281   2.615
 1433SOL     OW 5197   4.035   1.579   5.368
 1433SOL    HW1 5198   3.982   1.545   5.291
 1433SOL    HW2 5199   3.994   1.662   5.404
 1434SOL     OW 5200   0.188   0.636   6.141
 1434SOL    HW1 5201   0.161   0.689   6.222
 1434SOL    HW2 5202   0.282   0.659   6.117
 1435SOL     OW 5203   6.221   0.106   2.830
 1435SOL    HW1 5204   6.249   0.076   2.921
 1435SOL    HW2 5205   6.212   0.206   2.831
 1436SOL     OW 5206   6.073   4.114   0.251
 1436SOL    HW1 5207   6.069   4.026   0.297
 1436SOL    HW2 5208   6.029   4.108   0.162
 1437SOL     OW 5209   2.577   2.370   3.275
 1437SOL    HW1 5210   2.677   2.361   3.274
 1437SOL    HW2 5211   2.549   2.421   3.355
 1438SOL     OW 5212   3.346   6.056   1.172
 1438SOL    HW1 5213   3.332   5.970   1.220
 1438SOL    HW2 5214   3.321   6.046   1.076
 1439SOL     OW 5215   6.887   5.861   1.184
 1439SOL    HW1 5216   6.937   5.945   1.208
 1439SOL    HW2 5217   6.949   5.797   1.138
 1440SOL     OW 5218   3.209   3.672   6.972
 1440SOL    HW1 5219   3.300   3.702   7.000
 1440SOL    HW2 5220   3.201   3.573   6.989
 1441SOL     OW 5221   5.838   1.047   3.112
 1441SOL    HW1 5222   5.773   1.109   3.069
 1441SOL    HW2 5223   5.821   1.044   3.211
 1442SOL     OW 5224   6.813   5.896   0.072
 1442SOL    HW1 5225   6.787   5.931   0.162
 1442SOL    HW2 5226   6.737   5.844   0.033
 1443SOL     OW 5227   0.342   3.228   2.525
 1443SOL    HW1 5228   0.425   3.232   2.582
 1443SOL    HW2 5229   0.269   3.182   2.576
 1444SOL     OW 5230   5.256   5.821   0.928
 1444SOL    HW1 5231   5.228   5.905   0.975
 1444SOL    HW2 5232   5.205   5.812   0.843
 1445SOL     OW 5233   0.560   2.676   2.610
 1445SOL    HW1 5234   0.488   2.745   2.600
 1445SOL    HW2 5235   0.632   2.693   2.543
 1446SOL     OW 5236   5.992   1.160   0.119
 1446SOL    HW1 5237   6.074   1.131   0.069
 1446SOL    HW2 5238   5.946   1.232   0.068
 1447SOL     OW 5239   6.249   5.919   4.322
 1447SOL    HW1 5240   6.280   5.923   4.417
 1447SOL    HW2 5241   6.326   5.901   4.262
 1448SOL     OW 5242   6.416   2.919   5.505
 1448SOL    HW1 5243   6.453   2.831   5.534
 1448SOL    HW2 5244   6.366   2.961   5.580
 1449SOL     OW 5245   1.267   3.725   5.434
 1449SOL    HW1 5246   1.362   3.742   5.459
 1449SOL    HW2 5247   1.210   3.729   5.516
 1450SOL     OW 5248   0.923   2.097   0.176
 1450SOL    HW1 5249   0.853   2.158   0.212
 1450SOL    HW2 5250   1.014   2.136   0.196
 1451SOL     OW 5251   1.240   6.606   2.246
 1451SOL    HW1 5252   1.235   6.617   2.346
 1451SOL    HW2 5253   1.277   6.515   2.225
 1452SOL     OW 5254   4.261   2.486   5.518
 1452SOL    HW1 5255   4.346   2.460   5.565
 1452SOL    HW2 5256   4.225   2.570   5.558
 1453SOL     OW 5257   0.682   4.042   6.060
 1453SOL    HW1 5258   0.752   4.067   5.994
 1453SOL    HW2 5259   0.724   4.020   6.148
 1454SOL     OW 5260   1.094   2.451   1.772
 1454SOL    HW1 5261   1.132   2.373   1.722
 1454SOL    HW2 5262   1.159   2.526   1.770
 1455SOL     OW 5263   1.748   6.793   2.331
 1455SOL    HW1 5264   1.679   6.725   2.353
 1455SOL    HW2 5265   1.785   6.833   2.416
 1456SOL     OW 5266   6.498   0.500   6.246
 1456SOL    HW1 5267   6.415   0.445   6.260
 1456SOL    HW2 5268   6.538   0.477   6.157
 1457SOL     OW 5269   0.983   5.784   0.895
 1457SOL    HW1 5270   0.907   5.835   0.934
 1457SOL    HW2 5271   1.035   5.844   0.833
 1458SOL     OW 5272   5.891   4.961   5.212
 1458SOL    HW1 5273   5.852   5.033   5.269
 1458SOL    HW2 5274   5.891   4.874   5.262
 1459SOL     OW 5275   4.071   6.750   5.240
 1459SOL    HW1 5276   3.988   6.787   5.281
 1459SOL    HW2 5277   4.151   6.798   5.278
 1460SOL     OW 5278   1.242   6.894   5.555
 1460SOL    HW1 5279   1.320   6.956   5.557
 1460SOL    HW2 5280   1.274   6.803   5.525
 1461SOL     OW 5281   6.974   3.897   2.981
 1461SOL    HW1 5282   0.043   3.896   2.950
 1461SOL    HW2 5283   6.918   3.949   2.917
 1462SOL     OW 5284   1.053   1.064   6.663
 1462SOL    HW1 5285   1.092   1.154   6.679
 1462SOL    HW2 5286   0.968   1.054   6.716
 1463SOL     OW 5287   1.014   5.393   5.726
 1463SOL    HW1 5288   1.103   5.438   5.719
 1463SOL    HW2 5289   1.020   5.301   5.687
 1464SOL     OW 5290   6.861   5.546   2.013
 1464SOL    HW1 5291   6.936   5.610   1.995
 1464SOL    HW2 5292   6.867   5.470   1.947
 1465SOL     OW 5293   1.749   0.596   4.268
 1465SOL    HW1 5294   1.670   0.559   4.317
 1465SOL    HW2 5295   1.825   0.609   4.332
 1466SOL     OW 5296   3.537   1.647   2.113
 1466SOL    HW1 5297   3.462   1.711   2.133
 1466SOL    HW2 5298   3.505   1.578   2.049
 1467SOL     OW 5299   1.513   1.284   3.705
 1467SOL    HW1 5300   1.549   1.293   3.612
 1467SOL    HW2 5301   1.447   1.209   3.708
 1468SOL     OW 5302   2.080   5.718   2.240
 1468SOL    HW1 5303   2.171   5.681   2.222
 1468SOL    HW2 5304   2.082   5.817   2.230
 1469SOL     OW 5305   6.766   0.150   2.782
 1469SOL    HW1 5306   6.680   0.100   2.789
 1469SOL    HW2 5307   6.842   0.086   2.794
 1470SOL     OW 5308   0.825   1.309   1.979
 1470SOL    HW1 5309   0.829   1.266   1.889
 1470SOL    HW2 5310   0.862   1.245   2.047
 1471SOL     OW 5311   0.941   0.251   0.168
 1471SOL    HW1 5312   1.040   0.239   0.169
 1471SOL    HW2 5313   0.914   0.304   0.249
 1472SOL     OW 5314   2.730   6.130   6.868
 1472SOL    HW1 5315   2.705   6.154   6.961
 1472SOL    HW2 5316   2.653   6.083   6.824
 1473SOL     OW 5317   3.423   5.586   5.313
 1473SOL    HW1 5318   3.389   5.678   5.291
 1473SOL    HW2 5319   3.513   5.574   5.272
 1474SOL     OW 5320   4.840   4.284   1.066
 1474SOL    HW1 5321   4.938   4.275   1.047
 1474SOL    HW2 5322   4.789   4.289   0.980
 1475SOL     OW 5323   5.236   0.746   0.802
 1475SOL    HW1 5324   5.142   0.778   0.791
 1475SOL    HW2 5325   5.285   0.755   0.715
 1476SOL     OW 5326   2.422   1.844   0.792
 1476SOL    HW1 5327   2.457   1.760   0.751
 1476SOL    HW2 5328   2.376   1.822   0.879
 1477SOL     OW 5329   3.690   6.080   6.560
 1477SOL    HW1 5330   3.602   6.076   6.607
 1477SOL    HW2 5331   3.676   6.103   6.464
 1478SOL     OW 5332   6.161   5.378   5.254
 1478SOL    HW1 5333   6.200   5.448   5.315
 1478SOL    HW2 5334   6.234   5.320   5.219
 1479SOL     OW 5335   3.020   3.448   0.902
 1479SOL    HW1 5336   2.945   3.501   0.943
 1479SOL    HW2 5337   3.056   3.384   0.970
 1480SOL     OW 5338   3.132   6.659   4.306
 1480SOL    HW1 5339   3.143   6.757   4.318
 1480SOL    HW2 5340   3.061   6.642   4.237
 1481SOL     OW 5341   5.902   3.390   6.271
 1481SOL    HW1 5342   5.864   3.299   6.255
 1481SOL    HW2 5343   5.984   3.382   6.327
 1482SOL     OW 5344   4.679   0.417   1.564
 1482SOL    HW1 5345   4.580   0.405   1.557
 1482SOL    HW2 5346   4.700   0.513   1.583
 1483SOL     OW 5347   5.732   2.169   5.358
 1483SOL    HW1 5348   5.690   2.149   5.270
 1483SOL    HW2 5349   5.661   2.188   5.426
 1484SOL     OW 5350   4.629   4.743   3.684
 1484SOL    HW1 5351   4.613   4.828   3.734
 1484SOL    HW2 5352   4.542   4.709   3.647
 1485SOL     OW 5353   5.157   0.544   4.519
 1485SOL    HW1 5354   5.178   0.447   4.524
 1485SOL    HW2 5355   5.105   0.562   4.435
 1486SOL     OW 5356   5.050   0.531   3.508
 1486SOL    HW1 5357   4.973   0.588   3.480
 1486SOL    HW2 5358   5.092   0.490   3.427
 1487SOL     OW 5359   0.177   2.205   6.892
 1487SOL    HW1 5360   0.101   2.162   6.844
 1487SOL    HW2 5361   0.217   2.141   6.957
 1488SOL     OW 5362   4.604   0.006   3.777
 1488SOL    HW1 5363   4.661   6.952   3.798
 1488SOL    HW2 5364   4.511   7.001   3.757
 1489SOL     OW 5365   3.342   4.956   6.374
 1489SOL    HW1 5366   3.333   4.915   6.283
 1489SOL    HW2 5367   3.439   4.968   6.395
 1490SOL     OW 5368   0.200   3.652   0.954
 1490SOL    HW1 5369   0.140   3.585   0.910
 1490SOL    HW2 5370   0.295   3.628   0.938
 1491SOL     OW 5371   6.679   3.852   2.646
 1491SOL    HW1 5372   6.619   3.924   2.681
 1491SOL    HW2 5373   6.650   3.826   2.554
 1492SOL     OW 5374   6.109   0.286   2.319
 1492SOL    HW1 5375   6.015   0.320   2.317
 1492SOL    HW2 5376   6.111   0.200   2.369
 1493SOL     OW 5377   3.925   0.393   6.057
 1493SOL    HW1 5378   3.966   0.399   5.966
 1493SOL    HW2 5379   3.945   0.304   6.097
 1494SOL     OW 5380   6.010   2.585   6.913
 1494SOL    HW1 5381   5.983   2.567   7.008
 1494SOL    HW2 5382   6.096   2.538   6.893
 1495SOL     OW 5383   0.167   4.131   5.598
 1495SOL    HW1 5384   0.246   4.115   5.540
 1495SOL    HW2 5385   0.084   4.099   5.552
 1496SOL     OW 5386   1.362   0.982   0.441
 1496SOL    HW1 5387   1.296   1.056   0.448
 1496SOL    HW2 5388   1.366   0.932   0.528
 1497SOL     OW 5389   5.115   3.068   2.019
 1497SOL    HW1 5390   5.080   3.115   2.100
 1497SOL    HW2 5391   5.195   3.013   2.044
 1498SOL     OW 5392   2.507   4.569   0.597
 1498SOL    HW1 5393   2.466   4.616   0.519
 1498SOL    HW2 5394   2.598   4.536   0.572
 1499SOL     OW 5395   0.322   3.137   5.734
 1499SOL    HW1 5396   0.408   3.093   5.758
 1499SOL    HW2 5397   0.253   3.115   5.803
 1500SOL     OW 5398   0.327   6.647   0.413
 1500SOL    HW1 5399   0.281   6.728   0.452
 1500SOL    HW2 5400   0.311   6.568   0.472
 1501SOL     OW 5401   5.900   1.929   6.401
 1501SOL    HW1 5402   5.928   1.955   6.309
 1501SOL    HW2 5403   5.981   1.910   6.457
 1502SOL     OW 5404   4.782   1.055   0.049
 1502SOL    HW1 5405   4.801   0.999   6.994
 1502SOL    HW2 5406   4.858   1.047   0.114
 1503SOL     OW 5407   1.621   3.365   2.388
 1503SOL    HW1 5408   1.532   3.409   2.406
 1503SOL    HW2 5409   1.676   3.367   2.471
 1504SOL     OW 5410   0.476   0.145   4.022
 1504SOL    HW1 5411   0.574   0.139   4.006
 1504SOL    HW2 5412   0.449   0.241   4.028
 1505SOL     OW 5413   5.003   0.088   5.759
 1505SOL    HW1 5414   5.064   0.168   5.757
 1505SOL    HW2 5415   4.922   0.110   5.813
 1506SOL     OW 5416   0.966   7.014   0.181
 1506SOL    HW1 5417   0.998   6.989   0.089
 1506SOL    HW2 5418   0.929   0.082   0.179
 1507SOL     OW 5419   6.866   2.001   5.585
 1507SOL    HW1 5420   6.828   2.071   5.524
 1507SOL    HW2 5421   6.953   2.034   5.624
 1508SOL     OW 5422   5.905   1.458   1.493
 1508SOL    HW1 5423   5.870   1.532   1.550
 1508SOL    HW2 5424   5.963   1.398   1.548
 1509SOL     OW 5425   4.845   2.054   5.099
 1509SOL    HW1 5426   4.766   1.992   5.099
 1509SOL    HW2 5427   4.826   2.131   5.038
 1510SOL     OW 5428   5.549   6.994   4.796
 1510SOL    HW1 5429   5.461   7.008   4.750
 1510SOL    HW2 5430   5.558   6.898   4.822
 1511SOL     OW 5431   4.091   3.757   4.038
 1511SOL    HW1 5432   4.112   3.850   4.070
 1511SOL    HW2 5433   4.124   3.691   4.105
 1512SOL     OW 5434   6.677   5.796   1.335
 1512SOL    HW1 5435   6.670   5.711   1.282
 1512SOL    HW2 5436   6.748   5.853   1.294
 1513SOL     OW 5437   3.805   0.455   4.620
 1513SOL    HW1 5438   3.749   0.392   4.675
 1513SOL    HW2 5439   3.850   0.521   4.680
 1514SOL     OW 5440   3.860   3.027   5.906
 1514SOL    HW1 5441   3.833   2.931   5.898
 1514SOL    HW2 5442   3.783   3.082   5.936
 1515SOL     OW 5443   5.620   1.455   2.721
 1515SOL    HW1 5444   5.631   1.506   2.806
 1515SOL    HW2 5445   5.524   1.460   2.691
 1516SOL     OW 5446   6.108   5.507   5.757
 1516SOL    HW1 5447   6.024   5.473   5.716
 1516SOL    HW2 5448   6.086   5.556   5.842
 1517SOL     OW 5449   4.145   5.821   2.852
 1517SOL    HW1 5450   4.229   5.852   2.809
 1517SOL    HW2 5451   4.078   5.895   2.851
 1518SOL     OW 5452   7.003   2.024   0.485
 1518SOL    HW1 5453   6.955   2.089   0.543
 1518SOL    HW2 5454   6.936   1.965   0.439
 1519SOL     OW 5455   6.339   4.484   1.268
 1519SOL    HW1 5456   6.346   4.490   1.367
 1519SOL    HW2 5457   6.274   4.552   1.235
 1520SOL     OW 5458   0.414   4.523   1.376
 1520SOL    HW1 5459   0.422   4.464   1.296
 1520SOL    HW2 5460   0.372   4.472   1.451
 1521SOL     OW 5461   2.610   4.436   6.316
 1521SOL    HW1 5462   2.638   4.355   6.264
 1521SOL    HW2 5463   2.682   4.463   6.379
 1522SOL     OW 5464   6.288   5.589   5.012
 1522SOL    HW1 5465   6.381   5.557   4.998
 1522SOL    HW2 5466   6.224   5.521   4.976
 1523SOL     OW 5467   3.601   6.440   6.924
 1523SOL    HW1 5468   3.633   6.428   6.830
 1523SOL    HW2 5469   3.501   6.442   6.926
 1524SOL     OW 5470   2.420   1.865   1.853
 1524SOL    HW1 5471   2.395   1.788   1.912
 1524SOL    HW2 5472   2.519   1.867   1.841
 1525SOL     OW 5473   6.249   2.934   0.615
 1525SOL    HW1 5474   6.237   2.956   0.518
 1525SOL    HW2 5475   6.195   2.999   0.670
 1526SOL     OW 5476   6.842   1.118   0.048
 1526SOL    HW1 5477   6.880   1.054   7.006
 1526SOL    HW2 5478   6.744   1.100   0.059
 1527SOL     OW 5479   3.430   1.071   3.965
 1527SOL    HW1 5480   3.439   1.167   3.990
 1527SOL    HW2 5481   3.336   1.053   3.936
 1528SOL     OW 5482   4.298   4.658   2.608
 1528SOL    HW1 5483   4.379   4.706   2.573
 1528SOL    HW2 5484   4.303   4.562   2.581
 1529SOL     OW 5485   4.479   0.646   0.052
 1529SOL    HW1 5486   4.409   0.613   7.014
 1529SOL    HW2 5487   4.479   0.746   0.053
 1530SOL     OW 5488   3.891   1.595   2.018
 1530SOL    HW1 5489   3.900   1.613   1.920
 1530SOL    HW2 5490   3.801   1.628   2.050
 1531SOL     OW 5491   4.855   0.848   5.051
 1531SOL    HW1 5492   4.942   0.807   5.025
 1531SOL    HW2 5493   4.784   0.819   4.987
 1532SOL     OW 5494   3.772   3.922   5.884
 1532SOL    HW1 5495   3.766   4.017   5.914
 1532SOL    HW2 5496   3.859   3.906   5.838
 1533SOL     OW 5497   5.979   5.135   0.421
 1533SOL    HW1 5498   6.040   5.209   0.452
 1533SOL    HW2 5499   5.916   5.171   0.353
 1534SOL     OW 5500   3.040   6.212   6.026
 1534SOL    HW1 5501   3.083   6.236   6.113
 1534SOL    HW2 5502   3.069   6.277   5.955
 1535SOL     OW 5503   5.511   5.848   4.347
 1535SOL    HW1 5504   5.609   5.847   4.368
 1535SOL    HW2 5505   5.484   5.941   4.319
 1536SOL     OW 5506   4.224   5.545   6.069
 1536SOL    HW1 5507   4.286   5.612   6.110
 1536SOL    HW2 5508   4.259   5.453   6.086
 1537SOL     OW 5509   4.552   5.803   3.890
 1537SOL    HW1 5510   4.529   5.709   3.867
 1537SOL    HW2 5511   4.484   5.865   3.850
 1538SOL     OW 5512   3.418   6.638   6.655
 1538SOL    HW1 5513   3.371   6.694   6.587
 1538SOL    HW2 5514   3.502   6.602   6.616
 1539SOL     OW 5515   4.761   3.636   1.674
 1539SOL    HW1 5516   4.720   3.705   1.734
 1539SOL    HW2 5517   4.696   3.612   1.602
 1540SOL     OW 5518   0.219   6.860   5.449
 1540SOL    HW1 5519   0.227   6.774   5.500
 1540SOL    HW2 5520   0.234   6.843   5.352
 1541SOL     OW 5521   3.317   3.079   4.136
 1541SOL    HW1 5522   3.310   3.041   4.043
 1541SOL    HW2 5523   3.225   3.087   4.175
 1542SOL     OW 5524   6.526   0.681   2.769
 1542SOL    HW1 5525   6.573   0.718   2.688
 1542SOL    HW2 5526   6.439   0.728   2.781
 1543SOL     OW 5527   3.560   4.947   4.645
 1543SOL    HW1 5528   3.466   4.976   4.629
 1543SOL    HW2 5529   3.618   4.982   4.572
 1544SOL     OW 5530   3.251   3.603   3.293
 1544SOL    HW1 5531   3.176   3.594   3.226
 1544SOL    HW2 5532   3.323   3.538   3.270
 1545SOL     OW 5533   4.531   0.501   3.067
 1545SOL    HW1 5534   4.572   0.460   3.148
 1545SOL    HW2 5535   4.453   0.446   3.037
 1546SOL     OW 5536   5.106   6.843   5.435
 1546SOL    HW1 5537   5.131   6.850   5.532
 1546SOL    HW2 5538   5.090   6.747   5.412
 1547SOL     OW 5539   1.901   4.003   1.139
 1547SOL    HW1 5540   1.818   3.951   1.119
 1547SOL    HW2 5541   1.932   4.049   1.056
 1548SOL     OW 5542   5.615   4.077   6.887
 1548SOL    HW1 5543   5.541   4.136   6.854
 1548SOL    HW2 5544   5.703   4.122   6.870
 1549SOL     OW 5545   4.175   1.445   1.365
 1549SOL    HW1 5546   4.112   1.393   1.308
 1549SOL    HW2 5547   4.137   1.536   1.383
 1550SOL     OW 5548   2.818   3.532   0.524
 1550SOL    HW1 5549   2.896   3.588   0.497
 1550SOL    HW2 5550   2.749   3.534   0.452
 1551SOL     OW 5551   1.961   4.269   6.242
 1551SOL    HW1 5552   1.950   4.348   6.182
 1551SOL    HW2 5553   2.048   4.275   6.291
 1552SOL     OW 5554   2.440   5.376   0.782
 1552SOL    HW1 5555   2.413   5.281   0.766
 1552SOL    HW2 5556   2.433   5.428   0.697
 1553SOL     OW 5557   5.859   1.546   0.117
 1553SOL    HW1 5558   5.827   1.459   0.080
 1553SOL    HW2 5559   5.788   1.585   0.175
 1554SOL     OW 5560   3.350   1.772   3.636
 1554SOL    HW1 5561   3.263   1.750   3.591
 1554SOL    HW2 5562   3.364   1.871   3.634
 1555SOL     OW 5563   5.743   3.287   0.206
 1555SOL    HW1 5564   5.667   3.299   0.142
 1555SOL    HW2 5565   5.724   3.211   0.267
 1556SOL     OW 5566   2.135   2.258   6.706
 1556SOL    HW1 5567   2.165   2.199   6.632
 1556SOL    HW2 5568   2.215   2.291   6.756
 1557SOL     OW 5569   1.624   2.510   4.779
 1557SOL    HW1 5570   1.658   2.602   4.758
 1557SOL    HW2 5571   1.559   2.516   4.854
 1558SOL     OW 5572   6.053   0.487   4.550
 1558SOL    HW1 5573   6.011   0.460   4.464
 1558SOL    HW2 5574   6.080   0.583   4.545
 1559SOL     OW 5575   1.841   2.901   6.528
 1559SOL    HW1 5576   1.764   2.922   6.468
 1559SOL    HW2 5577   1.809   2.850   6.607
 1560SOL     OW 5578   6.690   0.874   6.075
 1560SOL    HW1 5579   6.717   0.804   6.009
 1560SOL    HW2 5580   6.697   0.964   6.032
 1561SOL     OW 5581   5.487   6.328   3.724
 1561SOL    HW1 5582   5.444   6.403   3.774
 1561SOL    HW2 5583   5.556   6.285   3.782
 1562SOL     OW 5584   5.072   6.059   2.686
 1562SOL    HW1 5585   4.979   6.095   2.687
 1562SOL    HW2 5586   5.136   6.130   2.654
 1563SOL     OW 5587   2.700   0.422   4.878
 1563SOL    HW1 5588   2.682   0.469   4.792
 1563SOL    HW2 5589   2.758   0.342   4.861
 1564SOL     OW 5590   1.540   1.841   3.210
 1564SOL    HW1 5591   1.440   1.844   3.207
 1564SOL    HW2 5592   1.577   1.887   3.128
 1565SOL     OW 5593   4.896   4.337   3.647
 1565SOL    HW1 5594   4.838   4.261   3.677
 1565SOL    HW2 5595   4.839   4.408   3.606
 1566SOL     OW 5596   5.721   4.253   2.613
 1566SOL    HW1 5597   5.751   4.303   2.532
 1566SOL    HW2 5598   5.666   4.314   2.671
 1567SOL     OW 5599   6.642   6.257   0.697
 1567SOL    HW1 5600   6.728   6.242   0.648
 1567SOL    HW2 5601   6.601   6.343   0.667
 1568SOL     OW 5602   1.577   6.602   6.970
 1568SOL    HW1 5603   1.630   6.587   6.886
 1568SOL    HW2 5604   1.614   6.544   0.017
 1569SOL     OW 5605   4.600   6.090   3.652
 1569SOL    HW1 5606   4.699   6.087   3.661
 1569SOL    HW2 5607   4.569   6.018   3.590
 1570SOL     OW 5608   1.818   0.586   0.671
 1570SOL    HW1 5609   1.748   0.526   0.710
 1570SOL    HW2 5610   1.794   0.610   0.577
 1571SOL     OW 5611   5.801   2.465   0.954
 1571SOL    HW1 5612   5.800   2.564   0.966
 1571SOL    HW2 5613   5.827   2.421   1.040
 1572SOL     OW 5614   0.213   0.052   1.397
 1572SOL    HW1 5615   0.296   7.022   1.395
 1572SOL    HW2 5616   0.135   7.019   1.419
 1573SOL     OW 5617   5.333   2.209   2.510
 1573SOL    HW1 5618   5.312   2.282   2.575
 1573SOL    HW2 5619   5.313   2.241   2.417
 1574SOL     OW 5620   6.199   1.168   2.089
 1574SOL    HW1 5621   6.222   1.163   1.992
 1574SOL    HW2 5622   6.253   1.102   2.140
 1575SOL     OW 5623   3.088   1.220   0.342
 1575SOL    HW1 5624   3.014   1.271   0.298
 1575SOL    HW2 5625   3.095   1.247   0.438
 1576SOL     OW 5626   6.993   5.766   4.009
 1576SOL    HW1 5627   6.943   5.684   4.035
 1576SOL    HW2 5628   7.010   5.765   3.910
 1577SOL     OW 5629   3.332   1.657   4.340
 1577SOL    HW1 5630   3.380   1.572   4.364
 1577SOL    HW2 5631   3.387   1.735   4.370
 1578SOL     OW 5632   6.041   3.705   5.871
 1578SOL    HW1 5633   6.139   3.692   5.886
 1578SOL    HW2 5634   5.993   3.696   5.958
 1579SOL     OW 5635   6.938   1.721   3.230
 1579SOL    HW1 5636   7.005   1.647   3.238
 1579SOL    HW2 5637   6.851   1.684   3.199
 1580SOL     OW 5638   2.732   3.539   5.334
 1580SOL    HW1 5639   2.695   3.631   5.320
 1580SOL    HW2 5640   2.831   3.544   5.347
 1581SOL     OW 5641   6.944   4.541   5.061
 1581SOL    HW1 5642   6.972   4.584   4.975
 1581SOL    HW2 5643   7.023   4.496   5.103
 1582SOL     OW 5644   1.711   6.476   4.362
 1582SOL    HW1 5645   1.659   6.452   4.444
 1582SOL    HW2 5646   1.647   6.494   4.287
 1583SOL     OW 5647   0.757   3.142   3.791
 1583SOL    HW1 5648   0.838   3.148   3.848
 1583SOL    HW2 5649   0.698   3.068   3.824
 1584SOL     OW 5650   1.408   6.690   4.848
 1584SOL    HW1 5651   1.389   6.785   4.872
 1584SOL    HW2 5652   1.462   6.648   4.922
 1585SOL     OW 5653   5.549   1.607   3.509
 1585SOL    HW1 5654   5.509   1.521   3.477
 1585SOL    HW2 5655   5.630   1.629   3.455
 1586SOL     OW 5656   3.366   4.299   1.237
 1586SOL    HW1 5657   3.398   4.392   1.253
 1586SOL    HW2 5658   3.425   4.234   1.284
 1587SOL     OW 5659   2.971   5.006   0.227
 1587SOL    HW1 5660   2.923   4.948   0.161
 1587SOL    HW2 5661   3.070   4.998   0.213
 1588SOL     OW 5662   4.760   1.039   3.277
 1588SOL    HW1 5663   4.716   1.128   3.272
 1588SOL    HW2 5664   4.726   0.990   3.358
 1589SOL     OW 5665   5.983   4.116   3.084
 1589SOL    HW1 5666   5.929   4.044   3.041
 1589SOL    HW2 5667   5.985   4.102   3.183
 1590SOL     OW 5668   2.558   6.666   5.998
 1590SOL    HW1 5669   2.480   6.616   6.036
 1590SOL    HW2 5670   2.535   6.697   5.906
 1591SOL     OW 5671   0.612   5.040   2.884
 1591SOL    HW1 5672   0.666   5.024   2.967
 1591SOL    HW2 5673   0.613   5.137   2.862
 1592SOL     OW 5674   2.504   4.618   1.533
 1592SOL    HW1 5675   2.580   4.576   1.482
 1592SOL    HW2 5676   2.521   4.610   1.631
 1593SOL     OW 5677   1.017   6.549   3.831
 1593SOL    HW1 5678   0.950   6.611   3.872
 1593SOL    HW2 5679   0.980   6.457   3.828
 1594SOL     OW 5680   6.923   5.029   2.824
 1594SOL    HW1 5681   6.984   5.050   2.900
 1594SOL    HW2 5682   6.886   4.936   2.835
 1595SOL     OW 5683   0.948   5.238   6.495
 1595SOL    HW1 5684   1.007   5.179   6.440
 1595SOL    HW2 5685   0.897   5.299   6.435
 1596SOL     OW 5686   0.833   2.480   5.736
 1596SOL    HW1 5687   0.786   2.499   5.650
 1596SOL    HW2 5688   0.914   2.538   5.743
 1597SOL     OW 5689   3.029   5.678   0.402
 1597SOL    HW1 5690   2.997   5.719   0.487
 1597SOL    HW2 5691   3.063   5.585   0.420
 1598SOL     OW 5692   0.865   3.950   0.075
 1598SOL    HW1 5693   0.781   4.004   0.076
 1598SOL    HW2 5694   0.854   3.873   0.012
 1599SOL     OW 5695   5.030   4.194   5.855
 1599SOL    HW1 5696   4.973   4.236   5.784
 1599SOL    HW2 5697   5.016   4.095   5.855
 1600SOL     OW 5698   5.308   1.993   5.156
 1600SOL    HW1 5699   5.357   1.921   5.205
 1600SOL    HW2 5700   5.235   1.953   5.100
 1601SOL     OW 5701   0.307   5.208   4.578
 1601SOL    HW1 5702   0.324   5.135   4.512
 1601SOL    HW2 5703   0.388   5.267   4.584
 1602SOL     OW 5704   2.088   5.564   4.153
 1602SOL    HW1 5705   2.043   5.626   4.088
 1602SOL    HW2 5706   2.186   5.580   4.152
 1603SOL     OW 5707   0.690   6.022   2.276
 1603SOL    HW1 5708   0.702   5.936   2.325
 1603SOL    HW2 5709   0.607   6.068   2.308
 1604SOL     OW 5710   5.990   4.807   6.942
 1604SOL    HW1 5711   5.892   4.823   6.937
 1604SOL    HW2 5712   6.011   4.751   7.023
 1605SOL     OW 5713   6.166   6.785   1.971
 1605SOL    HW1 5714   6.215   6.697   1.974
 1605SOL    HW2 5715   6.105   6.786   1.892
 1606SOL     OW 5716   4.047   0.223   4.957
 1606SOL    HW1 5717   4.110   0.147   4.977
 1606SOL    HW2 5718   4.030   0.275   5.041
 1607SOL     OW 5719   4.372   2.227   0.805
 1607SOL    HW1 5720   4.336   2.210   0.713
 1607SOL    HW2 5721   4.439   2.301   0.801
 1608SOL     OW 5722   1.546   0.723   5.972
 1608SOL    HW1 5723   1.491   0.806   5.968
 1608SOL    HW2 5724   1.556   0.694   6.067
 1609SOL     OW 5725   4.176   0.727   6.648
 1609SOL    HW1 5726   4.223   0.705   6.733
 1609SOL    HW2 5727   4.080   0.701   6.655
 1610SOL     OW 5728   6.182   4.023   5.328
 1610SOL    HW1 5729   6.189   4.067   5.238
 1610SOL    HW2 5730   6.271   3.986   5.353
 1611SOL     OW 5731   3.656   3.435   1.705
 1611SOL    HW1 5732   3.749   3.409   1.731
 1611SOL    HW2 5733   3.631   3.387   1.621
 1612SOL     OW 5734   3.151   1.202   5.446
 1612SOL    HW1 5735   3.219   1.275   5.446
 1612SOL    HW2 5736   3.103   1.202   5.534
 1613SOL     OW 5737   1.741   5.958   1.652
 1613SOL    HW1 5738   1.729   6.054   1.679
 1613SOL    HW2 5739   1.822   5.920   1.697
 1614SOL     OW 5740   6.341   3.836   0.565
 1614SOL    HW1 5741   6.411   3.862   0.498
 1614SOL    HW2 5742   6.383   3.778   0.636
 1615SOL     OW 5743   6.162   4.686   1.120
 1615SOL    HW1 5744   6.231   4.686   1.047
 1615SOL    HW2 5745   6.188   4.753   1.190
 1616SOL     OW 5746   4.393   2.374   5.823
 1616SOL    HW1 5747   4.459   2.351   5.752
 1616SOL    HW2 5748   4.405   2.470   5.851
 1617SOL     OW 5749   5.555   6.589   1.205
 1617SOL    HW1 5750   5.551   6.601   1.304
 1617SOL    HW2 5751   5.604   6.666   1.164
 1618SOL     OW 5752   0.577   3.889   0.757
 1618SOL    HW1 5753   0.647   3.849   0.696
 1618SOL    HW2 5754   0.549   3.821   0.825
 1619SOL     OW 5755   1.450   1.896   4.386
 1619SOL    HW1 5756   1.358   1.907   4.424
 1619SOL    HW2 5757   1.459   1.806   4.345
 1620SOL     OW 5758   1.913   6.059   0.823
 1620SOL    HW1 5759   2.000   6.085   0.864
 1620SOL    HW2 5760   1.861   6.004   0.888
 1621SOL     OW 5761   0.292   1.362   0.646
 1621SOL    HW1 5762   0.344   1.279   0.666
 1621SOL    HW2 5763   0.260   1.359   0.551
 1622SOL     OW 5764   1.390   2.360   4.250
 1622SOL    HW1 5765   1.415   2.387   4.344
 1622SOL    HW2 5766   1.473   2.331   4.201
 1623SOL     OW 5767   2.591   2.662   5.897
 1623SOL    HW1 5768   2.616   2.569   5.868
 1623SOL    HW2 5769   2.493   2.676   5.881
 1624SOL     OW 5770   3.359   0.771   5.904
 1624SOL    HW1 5771   3.436   0.731   5.855
 1624SOL    HW2 5772   3.281   0.709   5.901
 1625SOL     OW 5773   1.504   5.912   2.060
 1625SOL    HW1 5774   1.433   5.906   1.989
 1625SOL    HW2 5775   1.475   5.861   2.141
 1626SOL     OW 5776   2.917   1.687   6.526
 1626SOL    HW1 5777   2.856   1.765   6.517
 1626SOL    HW2 5778   2.904   1.644   6.615
 1627SOL     OW 5779   6.231   2.656   4.082
 1627SOL    HW1 5780   6.165   2.650   4.007
 1627SOL    HW2 5781   6.202   2.727   4.147
 1628SOL     OW 5782   4.568   5.069   6.781
 1628SOL    HW1 5783   4.662   5.100   6.784
 1628SOL    HW2 5784   4.547   5.015   6.863
 1629SOL     OW 5785   3.446   1.980   4.609
 1629SOL    HW1 5786   3.450   1.946   4.703
 1629SOL    HW2 5787   3.511   2.055   4.598
 1630SOL     OW 5788   1.009   6.194   5.581
 1630SOL    HW1 5789   1.017   6.277   5.636
 1630SOL    HW2 5790   1.048   6.209   5.490
 1631SOL     OW 5791   7.009   0.949   5.966
 1631SOL    HW1 5792   0.021   0.857   5.951
 1631SOL    HW2 5793   6.959   0.978   5.884
 1632SOL     OW 5794   0.309   1.487   6.907
 1632SOL    HW1 5795   0.403   1.467   6.936
 1632SOL    HW2 5796   0.311   1.541   6.823
 1633SOL     OW 5797   5.132   2.258   3.936
 1633SOL    HW1 5798   5.124   2.194   3.859
 1633SOL    HW2 5799   5.203   2.325   3.916
 1634SOL     OW 5800   4.155   5.545   5.448
 1634SOL    HW1 5801   4.225   5.584   5.507
 1634SOL    HW2 5802   4.114   5.465   5.492
 1635SOL     OW 5803   6.275   4.884   5.026
 1635SOL    HW1 5804   6.221   4.806   5.059
 1635SOL    HW2 5805   6.372   4.866   5.042
 1636SOL     OW 5806   2.164   4.241   1.197
 1636SOL    HW1 5807   2.128   4.279   1.112
 1636SOL    HW2 5808   2.088   4.212   1.256
 1637SOL     OW 5809   6.248   0.643   2.872
 1637SOL    HW1 5810   6.227   0.729   2.825
 1637SOL    HW2 5811   6.295   0.663   2.958
 1638SOL     OW 5812   0.716   4.185   3.855
 1638SOL    HW1 5813   0.656   4.120   3.901
 1638SOL    HW2 5814   0.771   4.234   3.923
 1639SOL     OW 5815   4.655   6.579   2.724
 1639SOL    HW1 5816   4.692   6.509   2.662
 1639SOL    HW2 5817   4.594   6.639   2.673
 1640SOL     OW 5818   5.766   1.649   0.813
 1640SOL    HW1 5819   5.746   1.704   0.895
 1640SOL    HW2 5820   5.829   1.575   0.837
 1641SOL     OW 5821   5.765   2.617   3.825
 1641SOL    HW1 5822   5.759   2.714   3.801
 1641SOL    HW2 5823   5.673   2.577   3.822
 1642SOL     OW 5824   6.438   3.324   0.314
 1642SOL    HW1 5825   6.433   3.249   0.380
 1642SOL    HW2 5826   6.452   3.410   0.363
 1643SOL     OW 5827   3.010   5.874   4.106
 1643SOL    HW1 5828   2.968   5.850   4.193
 1643SOL    HW2 5829   3.097   5.920   4.122
 1644SOL     OW 5830   1.668   2.409   0.999
 1644SOL    HW1 5831   1.739   2.475   0.974
 1644SOL    HW2 5832   1.668   2.334   0.932
 1645SOL     OW 5833   3.421   6.189   5.045
 1645SOL    HW1 5834   3.348   6.122   5.055
 1645SOL    HW2 5835   3.387   6.268   4.993
 1646SOL     OW 5836   2.593   5.270   1.257
 1646SOL    HW1 5837   2.626   5.349   1.309
 1646SOL    HW2 5838   2.659   5.248   1.185
 1647SOL     OW 5839   5.474   2.680   4.363
 1647SOL    HW1 5840   5.487   2.713   4.269
 1647SOL    HW2 5841   5.448   2.584   4.361
 1648SOL     OW 5842   6.126   6.258   1.668
 1648SOL    HW1 5843   6.072   6.325   1.617
 1648SOL    HW2 5844   6.216   6.249   1.625
 1649SOL     OW 5845   3.267   0.550   3.387
 1649SOL    HW1 5846   3.270   0.451   3.395
 1649SOL    HW2 5847   3.280   0.591   3.477
 1650SOL     OW 5848   2.787   0.014   4.043
 1650SOL    HW1 5849   2.837   6.983   3.977
 1650SOL    HW2 5850   2.850   0.078   4.088
 1651SOL     OW 5851   0.850   0.886   1.129
 1651SOL    HW1 5852   0.936   0.893   1.079
 1651SOL    HW2 5853   0.776   0.865   1.065
 1652SOL     OW 5854   1.590   2.660   1.650
 1652SOL    HW1 5855   1.574   2.577   1.596
 1652SOL    HW2 5856   1.686   2.662   1.681
 1653SOL     OW 5857   0.781   6.087   1.642
 1653SOL    HW1 5858   0.815   6.144   1.717
 1653SOL    HW2 5859   0.737   6.005   1.678
 1654SOL     OW 5860   0.032   2.858   2.002
 1654SOL    HW1 5861   0.011   2.791   2.073
 1654SOL    HW2 5862   6.982   2.861   1.936
 1655SOL     OW 5863   5.381   3.862   6.205
 1655SOL    HW1 5864   5.444   3.935   6.232
 1655SOL    HW2 5865   5.418   3.814   6.125
 1656SOL     OW 5866   1.485   4.625   3.052
 1656SOL    HW1 5867   1.526   4.715   3.060
 1656SOL    HW2 5868   1.438   4.617   2.964
 1657SOL     OW 5869   6.917   1.391   4.380
 1657SOL    HW1 5870   6.857   1.438   4.315
 1657SOL    HW2 5871   6.994   1.451   4.403
 1658SOL     OW 5872   0.635   0.204   3.222
 1658SOL    HW1 5873   0.636   0.118   3.170
 1658SOL    HW2 5874   0.549   0.211   3.273
 1659SOL     OW 5875   3.992   2.120   6.189
 1659SOL    HW1 5876   3.992   2.161   6.281
 1659SOL    HW2 5877   4.036   2.031   6.192
 1660SOL     OW 5878   1.738   4.870   4.333
 1660SOL    HW1 5879   1.780   4.813   4.263
 1660SOL    HW2 5880   1.798   4.876   4.412
 1661SOL     OW 5881   3.421   1.557   1.573
 1661SOL    HW1 5882   3.335   1.579   1.526
 1661SOL    HW2 5883   3.498   1.576   1.512
 1662SOL     OW 5884   6.102   1.096   3.818
 1662SOL    HW1 5885   6.196   1.066   3.805
 1662SOL    HW2 5886   6.100   1.170   3.886
 1663SOL     OW 5887   2.358   1.369   2.857
 1663SOL    HW1 5888   2.305   1.437   2.908
 1663SOL    HW2 5889   2.351   1.389   2.759
 1664SOL     OW 5890   1.293   0.090   4.152
 1664SOL    HW1 5891   1.292   0.123   4.246
 1664SOL    HW2 5892   1.213   0.126   4.103
 1665SOL     OW 5893   7.004   1.890   2.558
 1665SOL    HW1 5894   6.918   1.929   2.528
 1665SOL    HW2 5895   0.052   1.917   2.495
 1666SOL     OW 5896   6.026   3.568   0.646
 1666SOL    HW1 5897   5.997   3.485   0.599
 1666SOL    HW2 5898   5.974   3.646   0.612
 1667SOL     OW 5899   5.570   6.606   0.873
 1667SOL    HW1 5900   5.528   6.553   0.946
 1667SOL    HW2 5901   5.586   6.700   0.904
 1668SOL     OW 5902   5.010   6.464   5.765
 1668SOL    HW1 5903   4.960   6.539   5.808
 1668SOL    HW2 5904   4.981   6.377   5.805
 1669SOL     OW 5905   6.183   6.701   0.554
 1669SOL    HW1 5906   6.271   6.738   0.585
 1669SOL    HW2 5907   6.133   6.666   0.633
 1670SOL     OW 5908   0.248   5.758   5.992
 1670SOL    HW1 5909   0.292   5.832   6.043
 1670SOL    HW2 5910   0.185   5.797   5.925
 1671SOL     OW 5911   4.533   2.652   0.933
 1671SOL    HW1 5912   4.450   2.701   0.906
 1671SOL    HW2 5913   4.557   2.676   1.027
 1672SOL     OW 5914   1.736   3.848   2.772
 1672SOL    HW1 5915   1.829   3.861   2.807
 1672SOL    HW2 5916   1.741   3.828   2.674
 1673SOL     OW 5917   0.491   2.491   4.496
 1673SOL    HW1 5918   0.469   2.477   4.399
 1673SOL    HW2 5919   0.577   2.543   4.502
 1674SOL     OW 5920   1.679   3.901   1.726
 1674SOL    HW1 5921   1.778   3.889   1.738
 1674SOL    HW2 5922   1.653   3.875   1.633
 1675SOL     OW 5923   4.167   7.023   6.176
 1675SOL    HW1 5924   4.159   7.016   6.076
 1675SOL    HW2 5925   4.220   0.079   6.199
 1676SOL     OW 5926   3.389   1.300   2.462
 1676SOL    HW1 5927   3.307   1.272   2.411
 1676SOL    HW2 5928   3.393   1.399   2.467
 1677SOL     OW 5929   4.537   2.333   5.597
 1677SOL    HW1 5930   4.604   2.262   5.620
 1677SOL    HW2 5931   4.575   2.391   5.525
 1678SOL     OW 5932   5.214   4.780   4.559
 1678SOL    HW1 5933   5.265   4.720   4.497
 1678SOL    HW2 5934   5.235   4.757   4.653
 1679SOL     OW 5935   2.089   3.715   5.432
 1679SOL    HW1 5936   2.009   3.747   5.381
 1679SOL    HW2 5937   2.172   3.745   5.387
 1680SOL     OW 5938   1.358   1.511   4.073
 1680SOL    HW1 5939   1.420   1.516   3.994
 1680SOL    HW2 5940   1.309   1.598   4.082
 1681SOL     OW 5941   6.618   5.931   0.983
 1681SOL    HW1 5942   6.518   5.920   0.982
 1681SOL    HW2 5943   6.653   5.910   1.074
 1682SOL     OW 5944   0.279   3.117   4.905
 1682SOL    HW1 5945   0.373   3.143   4.884
 1682SOL    HW2 5946   0.217   3.169   4.846
 1683SOL     OW 5947   4.033   5.330   1.267
 1683SOL    HW1 5948   4.070   5.342   1.360
 1683SOL    HW2 5949   4.107   5.311   1.204
 1684SOL     OW 5950   1.137   6.331   2.985
 1684SOL    HW1 5951   1.121   6.239   3.019
 1684SOL    HW2 5952   1.101   6.338   2.892
 1685SOL     OW 5953   2.610   1.601   6.181
 1685SOL    HW1 5954   2.690   1.541   6.194
 1685SOL    HW2 5955   2.570   1.623   6.270
 1686SOL     OW 5956   2.273   5.322   5.638
 1686SOL    HW1 5957   2.268   5.422   5.632
 1686SOL    HW2 5958   2.314   5.296   5.725
 1687SOL     OW 5959   1.894   3.300   1.335
 1687SOL    HW1 5960   1.973   3.336   1.385
 1687SOL    HW2 5961   1.869   3.211   1.373
 1688SOL     OW 5962   1.635   2.147   3.529
 1688SOL    HW1 5963   1.677   2.238   3.524
 1688SOL    HW2 5964   1.668   2.091   3.453
 1689SOL     OW 5965   3.527   0.777   2.055
 1689SOL    HW1 5966   3.435   0.738   2.052
 1689SOL    HW2 5967   3.521   0.874   2.078
 1690SOL     OW 5968   1.119   2.937   3.224
 1690SOL    HW1 5969   1.190   3.005   3.245
 1690SOL    HW2 5970   1.150   2.847   3.253
 1691SOL     OW 5971   4.916   3.804   2.887
 1691SOL    HW1 5972   4.954   3.879   2.834
 1691SOL    HW2 5973   4.941   3.815   2.983
 1692SOL     OW 5974   6.553   6.789   1.539
 1692SOL    HW1 5975   6.523   6.795   1.444
 1692SOL    HW2 5976   6.567   6.693   1.563
 1693SOL     OW 5977   1.209   2.592   2.352
 1693SOL    HW1 5978   1.204   2.688   2.377
 1693SOL    HW2 5979   1.215   2.583   2.253
 1694SOL     OW 5980   4.501   6.678   4.083
 1694SOL    HW1 5981   4.470   6.636   4.169
 1694SOL    HW2 5982   4.580   6.626   4.048
 1695SOL     OW 5983   2.468   1.017   5.022
 1695SOL    HW1 5984   2.417   1.103   5.016
 1695SOL    HW2 5985   2.556   1.027   4.975
 1696SOL     OW 5986   5.636   5.443   0.972
 1696SOL    HW1 5987   5.603   5.402   1.057
 1696SOL    HW2 5988   5.587   5.528   0.954
 1697SOL     OW 5989   6.712   6.745   1.803
 1697SOL    HW1 5990   6.660   6.722   1.721
 1697SOL    HW2 5991   6.651   6.747   1.882
 1698SOL     OW 5992   4.363   1.345   0.703
 1698SOL    HW1 5993   4.400   1.435   0.682
 1698SOL    HW2 5994   4.343   1.340   0.801
 1699SOL     OW 5995   3.132   1.675   2.394
 1699SOL    HW1 5996   3.101   1.770   2.387
 1699SOL    HW2 5997   3.138   1.636   2.302
 1700SOL     OW 5998   6.517   2.563   3.817
 1700SOL    HW1 5999   6.595   2.624   3.831
 1700SOL    HW2 6000   6.491   2.523   3.904
 1701SOL     OW 6001   4.893   3.170   5.114
 1701SOL    HW1 6002   4.861   3.136   5.025
 1701SOL    HW2 6003   4.819   3.218   5.160
 1702SOL     OW 6004   6.709   3.607   0.592
 1702SOL    HW1 6005   6.780   3.585   0.525
 1702SOL    HW2 6006   6.732   3.693   0.638
 1703SOL     OW 6007   3.823   4.005   3.306
 1703SOL    HW1 6008   3.786   4.089   3.347
 1703SOL    HW2 6009   3.881   3.959   3.373
 1704SOL     OW 6010   0.668   1.436   1.046
 1704SOL    HW1 6011   0.605   1.471   0.976
 1704SOL    HW2 6012   0.688   1.340   1.027
 1705SOL     OW 6013   3.480   2.041   1.984
 1705SOL    HW1 6014   3.428   2.096   1.917
 1705SOL    HW2 6015   3.570   2.083   1.998
 1706SOL     OW 6016   4.083   6.318   1.236
 1706SOL    HW1 6017   4.031   6.401   1.218
 1706SOL    HW2 6018   4.179   6.342   1.255
 1707SOL     OW 6019   4.035   1.427   2.634
 1707SOL    HW1 6020   4.080   1.341   2.612
 1707SOL    HW2 6021   4.103   1.501   2.633
 1708SOL     OW 6022   5.689   5.638   2.483
 1708SOL    HW1 6023   5.629   5.638   2.403
 1708SOL    HW2 6024   5.644   5.588   2.557
 1709SOL     OW 6025   2.887   6.028   1.997
 1709SOL    HW1 6026   2.949   5.998   1.925
 1709SOL    HW2 6027   2.793   6.009   1.970
 1710SOL     OW 6028   5.971   4.617   3.652
 1710SOL    HW1 6029   5.949   4.519   3.647
 1710SOL    HW2 6030   5.907   4.668   3.595
 1711SOL     OW 6031   1.319   4.905   5.423
 1711SOL    HW1 6032   1.263   4.826   5.398
 1711SOL    HW2 6033   1.282   4.987   5.379
 1712SOL     OW 6034   0.448   3.435   6.371
 1712SOL    HW1 6035   0.509   3.499   6.325
 1712SOL    HW2 6036   0.377   3.405   6.307
 1713SOL     OW 6037   2.801   2.042   1.115
 1713SOL    HW1 6038   2.845   1.958   1.082
 1713SOL    HW2 6039   2.807   2.113   1.045
 1714SOL     OW 6040   4.216   1.611   6.290
 1714SOL    HW1 6041   4.251   1.577   6.203
 1714SOL    HW2 6042   4.291   1.655   6.341
 1715SOL     OW 6043   6.634   3.549   2.756
 1715SOL    HW1 6044   6.650   3.590   2.846
 1715SOL    HW2 6045   6.694   3.591   2.689
 1716SOL     OW 6046   5.434   6.586   1.707
 1716SOL    HW1 6047   5.396   6.510   1.654
 1716SOL    HW2 6048   5.433   6.562   1.804
 1717SOL     OW 6049   1.865   6.393   6.466
 1717SOL    HW1 6050   1.770   6.404   6.437
 1717SOL    HW2 6051   1.920   6.361   6.389
 1718SOL     OW 6052   1.731   1.828   0.815
 1718SOL    HW1 6053   1.719   1.819   0.914
 1718SOL    HW2 6054   1.816   1.877   0.796
 1719SOL     OW 6055   2.701   4.464   1.443
 1719SOL    HW1 6056   2.794   4.496   1.462
 1719SOL    HW2 6057   2.692   4.445   1.345
 1720SOL     OW 6058   6.527   1.317   1.527
 1720SOL    HW1 6059   6.510   1.294   1.623
 1720SOL    HW2 6060   6.446   1.292   1.473
 1721SOL     OW 6061   1.431   6.705   2.782
 1721SOL    HW1 6062   1.430   6.624   2.723
 1721SOL    HW2 6063   1.389   6.782   2.734
 1722SOL     OW 6064   5.318   1.204   3.839
 1722SOL    HW1 6065   5.307   1.289   3.788
 1722SOL    HW2 6066   5.273   1.212   3.928
 1723SOL     OW 6067   6.803   2.155   3.420
 1723SOL    HW1 6068   6.832   2.175   3.326
 1723SOL    HW2 6069   6.826   2.233   3.478
 1724SOL     OW 6070   5.983   1.465   0.563
 1724SOL    HW1 6071   6.041   1.461   0.644
 1724SOL    HW2 6072   5.993   1.554   0.519
 1725SOL     OW 6073   3.181   4.539   0.144
 1725SOL    HW1 6074   3.111   4.497   0.087
 1725SOL    HW2 6075   3.203   4.478   0.220
 1726SOL     OW 6076   0.064   4.719   5.585
 1726SOL    HW1 6077   0.086   4.816   5.594
 1726SOL    HW2 6078   0.047   4.680   5.675
 1727SOL     OW 6079   3.475   3.034   4.410
 1727SOL    HW1 6080   3.439   3.039   4.503
 1727SOL    HW2 6081   3.407   3.069   4.346
 1728SOL     OW 6082   5.161   5.138   4.704
 1728SOL    HW1 6083   5.100   5.058   4.699
 1728SOL    HW2 6084   5.126   5.210   4.644
 1729SOL     OW 6085   2.157   3.732   3.920
 1729SOL    HW1 6086   2.185   3.792   3.995
 1729SOL    HW2 6087   2.123   3.788   3.844
 1730SOL     OW 6088   6.559   0.866   4.812
 1730SOL    HW1 6089   6.520   0.841   4.901
 1730SOL    HW2 6090   6.590   0.961   4.815
 1731SOL     OW 6091   0.825   5.426   2.344
 1731SOL    HW1 6092   0.842   5.334   2.310
 1731SOL    HW2 6093   0.850   5.493   2.274
 1732SOL     OW 6094   2.591   4.408   5.973
 1732SOL    HW1 6095   2.609   4.350   6.052
 1732SOL    HW2 6096   2.640   4.495   5.984
 1733SOL     OW 6097   1.194   3.650   2.776
 1733SOL    HW1 6098   1.222   3.567   2.728
 1733SOL    HW2 6099   1.274   3.699   2.808
 1734SOL     OW 6100   4.616   3.147   1.560
 1734SOL    HW1 6101   4.643   3.130   1.654
 1734SOL    HW2 6102   4.524   3.112   1.545
 1735SOL     OW 6103   5.801   5.294   1.332
 1735SOL    HW1 6104   5.737   5.368   1.317
 1735SOL    HW2 6105   5.801   5.268   1.428
 1736SOL     OW 6106   4.687   1.504   0.306
 1736SOL    HW1 6107   4.641   1.453   0.234
 1736SOL    HW2 6108   4.701   1.445   0.385
 1737SOL     OW 6109   2.871   0.795   4.097
 1737SOL    HW1 6110   2.793   0.735   4.083
 1737SOL    HW2 6111   2.840   0.885   4.128
 1738SOL     OW 6112   2.257   2.402   3.587
 1738SOL    HW1 6113   2.184   2.442   3.533
 1738SOL    HW2 6114   2.219   2.338   3.654
 1739SOL     OW 6115   4.796   2.655   5.421
 1739SOL    HW1 6116   4.714   2.627   5.472
 1739SOL    HW2 6117   4.769   2.713   5.345
 1740SOL     OW 6118   6.961   1.589   6.676
 1740SOL    HW1 6119   6.951   1.574   6.774
 1740SOL    HW2 6120   6.970   1.501   6.629
 1741SOL     OW 6121   2.667   0.977   2.145
 1741SOL    HW1 6122   2.631   0.928   2.065
 1741SOL    HW2 6123   2.698   1.067   2.117
 1742SOL     OW 6124   4.505   6.261   5.755
 1742SOL    HW1 6125   4.487   6.321   5.833
 1742SOL    HW2 6126   4.472   6.304   5.671
 1743SOL     OW 6127   2.005   1.557   1.906
 1743SOL    HW1 6128   1.951   1.479   1.875
 1743SOL    HW2 6129   2.055   1.532   1.989
 1744SOL     OW 6130   0.562   6.857   1.712
 1744SOL    HW1 6131   0.629   6.915   1.758
 1744SOL    HW2 6132   0.470   6.880   1.743
 1745SOL     OW 6133   0.146   1.265   4.295
 1745SOL    HW1 6134   0.199   1.197   4.244
 1745SOL    HW2 6135   0.052   1.265   4.262
 1746SOL     OW 6136   2.010   5.756   5.699
 1746SOL    HW1 6137   2.040   5.661   5.684
 1746SOL    HW2 6138   1.971   5.765   5.790
 1747SOL     OW 6139   4.844   6.786   2.614
 1747SOL    HW1 6140   4.842   6.773   2.515
 1747SOL    HW2 6141   4.784   6.718   2.658
 1748SOL     OW 6142   0.070   0.317   3.718
 1748SOL    HW1 6143   0.107   0.409   3.708
 1748SOL    HW2 6144   0.045   0.301   3.814
 1749SOL     OW 6145   3.309   6.397   4.909
 1749SOL    HW1 6146   3.235   6.362   4.851
 1749SOL    HW2 6147   3.386   6.424   4.851
 1750SOL     OW 6148   5.508   1.104   3.519
 1750SOL    HW1 6149   5.409   1.104   3.534
 1750SOL    HW2 6150   5.546   1.018   3.551
 1751SOL     OW 6151   3.261   5.258   4.791
 1751SOL    HW1 6152   3.291   5.241   4.885
 1751SOL    HW2 6153   3.170   5.219   4.778
 1752SOL     OW 6154   6.642   2.371   2.448
 1752SOL    HW1 6155   6.655   2.276   2.474
 1752SOL    HW2 6156   6.549   2.400   2.474
 1753SOL     OW 6157   0.261   1.386   0.368
 1753SOL    HW1 6158   0.216   1.311   0.321
 1753SOL    HW2 6159   0.205   1.469   0.361
 1754SOL     OW 6160   3.543   3.174   1.533
 1754SOL    HW1 6161   3.445   3.192   1.530
 1754SOL    HW2 6162   3.590   3.239   1.473
 1755SOL     OW 6163   6.015   5.097   1.914
 1755SOL    HW1 6164   5.952   5.126   1.985
 1755SOL    HW2 6165   5.967   5.091   1.827
 1756SOL     OW 6166   4.231   4.445   5.845
 1756SOL    HW1 6167   4.154   4.506   5.825
 1756SOL    HW2 6168   4.211   4.353   5.811
 1757SOL     OW 6169   2.407   5.889   4.577
 1757SOL    HW1 6170   2.377   5.844   4.492
 1757SOL    HW2 6171   2.395   5.827   4.654
 1758SOL     OW 6172   2.640   0.347   3.183
 1758SOL    HW1 6173   2.607   0.326   3.274
 1758SOL    HW2 6174   2.616   0.272   3.120
 1759SOL     OW 6175   1.368   5.140   6.692
 1759SOL    HW1 6176   1.412   5.169   6.607
 1759SOL    HW2 6177   1.276   5.106   6.672
 1760SOL     OW 6178   6.274   1.420   1.732
 1760SOL    HW1 6179   6.229   1.340   1.691
 1760SOL    HW2 6180   6.357   1.390   1.778
 1761SOL     OW 6181   7.021   0.038   0.489
 1761SOL    HW1 6182   7.000   7.016   0.403
 1761SOL    HW2 6183   0.095   0.045   0.499
 1762SOL     OW 6184   6.176   1.397   5.209
 1762SOL    HW1 6185   6.204   1.435   5.298
 1762SOL    HW2 6186   6.134   1.308   5.223
 1763SOL     OW 6187   1.626   3.859   4.864
 1763SOL    HW1 6188   1.718   3.820   4.859
 1763SOL    HW2 6189   1.585   3.859   4.772
 1764SOL     OW 6190   1.754   4.103   3.133
 1764SOL    HW1 6191   1.736   4.108   3.035
 1764SOL    HW2 6192   1.693   4.035   3.175
 1765SOL     OW 6193   3.532   2.202   6.985
 1765SOL    HW1 6194   3.490   2.254   0.034
 1765SOL    HW2 6195   3.462   2.150   6.936
 1766SOL     OW 6196   4.952   2.969   4.442
 1766SOL    HW1 6197   4.997   3.019   4.516
 1766SOL    HW2 6198   4.872   2.920   4.479
 1767SOL     OW 6199   5.733   3.725   2.773
 1767SOL    HW1 6200   5.697   3.817   2.754
 1767SOL    HW2 6201   5.723   3.668   2.692
 1768SOL     OW 6202   3.731   1.317   4.684
 1768SOL    HW1 6203   3.823   1.327   4.723
 1768SOL    HW2 6204   3.663   1.338   4.754
 1769SOL     OW 6205   4.427   2.457   4.811
 1769SOL    HW1 6206   4.375   2.456   4.896
 1769SOL    HW2 6207   4.397   2.383   4.752
 1770SOL     OW 6208   1.319   5.826   4.516
 1770SOL    HW1 6209   1.403   5.879   4.519
 1770SOL    HW2 6210   1.274   5.830   4.605
 1771SOL     OW 6211   2.813   5.114   6.697
 1771SOL    HW1 6212   2.791   5.038   6.636
 1771SOL    HW2 6213   2.758   5.107   6.780
 1772SOL     OW 6214   3.203   6.353   3.664
 1772SOL    HW1 6215   3.155   6.415   3.727
 1772SOL    HW2 6216   3.217   6.399   3.577
 1773SOL     OW 6217   2.443   5.339   5.841
 1773SOL    HW1 6218   2.512   5.268   5.857
 1773SOL    HW2 6219   2.459   5.416   5.902
 1774SOL     OW 6220   4.314   6.280   1.628
 1774SOL    HW1 6221   4.383   6.331   1.679
 1774SOL    HW2 6222   4.318   6.306   1.531
 1775SOL     OW 6223   1.588   4.450   4.288
 1775SOL    HW1 6224   1.501   4.407   4.264
 1775SOL    HW2 6225   1.639   4.391   4.350
 1776SOL     OW 6226   3.153   0.240   3.934
 1776SOL    HW1 6227   3.138   0.194   3.847
 1776SOL    HW2 6228   3.222   0.312   3.923
 1777SOL     OW 6229   3.046   5.077   5.791
 1777SOL    HW1 6230   3.114   5.093   5.720
 1777SOL    HW2 6231   2.980   5.153   5.792
 1778SOL     OW 6232   4.254   3.446   5.355
 1778SOL    HW1 6233   4.196   3.519   5.317
 1778SOL    HW2 6234   4.280   3.470   5.448
 1779SOL     OW 6235   3.989   1.043   4.603
 1779SOL    HW1 6236   3.931   1.003   4.531
 1779SOL    HW2 6237   4.085   1.032   4.578
 1780SOL     OW 6238   3.326   2.922   6.482
 1780SOL    HW1 6239   3.262   2.886   6.414
 1780SOL    HW2 6240   3.397   2.855   6.500
 1781SOL     OW 6241   4.777   5.915   4.005
 1781SOL    HW1 6242   4.686   5.892   3.970
 1781SOL    HW2 6243   4.806   6.003   3.968
 1782SOL     OW 6244   3.574   2.050   2.895
 1782SOL    HW1 6245   3.658   2.073   2.845
 1782SOL    HW2 6246   3.581   1.957   2.930
 1783SOL     OW 6247   1.154   5.169   6.307
 1783SOL    HW1 6248   1.153   5.072   6.281
 1783SOL    HW2 6249   1.221   5.182   6.381
 1784SOL     OW 6250   3.422   1.155   5.733
 1784SOL    HW1 6251   3.394   1.224   5.800
 1784SOL    HW2 6252   3.370   1.167   5.649
 1785SOL     OW 6253   6.344   4.559   3.127
 1785SOL    HW1 6254   6.355   4.592   3.221
 1785SOL    HW2 6255   6.393   4.472   3.116
 1786SOL     OW 6256   1.630   2.359   0.626
 1786SOL    HW1 6257   1.572   2.435   0.656
 1786SOL    HW2 6258   1.618   2.281   0.687
 1787SOL     OW 6259   2.411   0.800   4.835
 1787SOL    HW1 6260   2.479   0.828   4.768
 1787SOL    HW2 6261   2.414   0.863   4.914
 1788SOL     OW 6262   3.424   3.003   0.695
 1788SOL    HW1 6263   3.496   3.029   0.759
 1788SOL    HW2 6264   3.459   2.939   0.628
 1789SOL     OW 6265   6.162   2.428   3.345
 1789SOL    HW1 6266   6.107   2.495   3.295
 1789SOL    HW2 6267   6.133   2.336   3.320
 1790SOL     OW 6268   4.225   6.097   4.284
 1790SOL    HW1 6269   4.317   6.102   4.245
 1790SOL    HW2 6270   4.195   6.189   4.309
 1791SOL     OW 6271   6.420   0.774   3.697
 1791SOL    HW1 6272   6.324   0.746   3.684
 1791SOL    HW2 6273   6.425   0.873   3.705
 1792SOL     OW 6274   0.026   2.842   4.841
 1792SOL    HW1 6275   6.998   2.900   4.903
 1792SOL    HW2 6276   7.024   2.861   4.746
 1793SOL     OW 6277   0.102   6.538   3.759
 1793SOL    HW1 6278   0.133   6.452   3.798
 1793SOL    HW2 6279   0.031   6.520   3.690
 1794SOL     OW 6280   5.718   6.181   6.281
 1794SOL    HW1 6281   5.636   6.143   6.239
 1794SOL    HW2 6282   5.691   6.244   6.354
 1795SOL     OW 6283   1.258   2.721   0.925
 1795SOL    HW1 6284   1.314   2.741   1.005
 1795SOL    HW2 6285   1.220   2.806   0.889
 1796SOL     OW 6286   2.361   0.720   4.232
 1796SOL    HW1 6287   2.335   0.709   4.328
 1796SOL    HW2 6288   2.351   0.815   4.205
 1797SOL     OW 6289   1.712   0.076   6.887
 1797SOL    HW1 6290   1.669   7.011   6.880
 1797SOL    HW2 6291   1.803   0.072   6.846
 1798SOL     OW 6292   5.382   2.390   4.065
 1798SOL    HW1 6293   5.429   2.443   3.995
 1798SOL    HW2 6294   5.406   2.293   4.055
 1799SOL     OW 6295   6.582   1.421   5.958
 1799SOL    HW1 6296   6.625   1.382   5.876
 1799SOL    HW2 6297   6.652   1.440   6.027
 1800SOL     OW 6298   3.963   4.992   1.962
 1800SOL    HW1 6299   3.919   4.950   2.041
 1800SOL    HW2 6300   4.017   5.071   1.991
 1801SOL     OW 6301   0.290   0.441   2.265
 1801SOL    HW1 6302   0.311   0.518   2.324
 1801SOL    HW2 6303   0.193   0.444   2.238
 1802SOL     OW 6304   5.472   5.420   3.253
 1802SOL    HW1 6305   5.380   5.393   3.227
 1802SOL    HW2 6306   5.486   5.517   3.232
 1803SOL     OW 6307   0.658   6.251   6.845
 1803SOL    HW1 6308   0.616   6.195   6.917
 1803SOL    HW2 6309   0.627   6.219   6.756
 1804SOL     OW 6310   2.649   3.809   5.283
 1804SOL    HW1 6311   2.634   3.828   5.380
 1804SOL    HW2 6312   2.590   3.867   5.228
 1805SOL     OW 6313   6.265   4.157   5.578
 1805SOL    HW1 6314   6.187   4.153   5.641
 1805SOL    HW2 6315   6.255   4.085   5.509
 1806SOL     OW 6316   0.597   0.786   0.334
 1806SOL    HW1 6317   0.696   0.799   0.335
 1806SOL    HW2 6318   0.570   0.731   0.413
 1807SOL     OW 6319   5.019   2.660   5.569
 1807SOL    HW1 6320   5.119   2.660   5.559
 1807SOL    HW2 6321   4.977   2.686   5.482
 1808SOL     OW 6322   0.878   3.994   6.253
 1808SOL    HW1 6323   0.889   3.933   6.331
 1808SOL    HW2 6324   0.957   4.055   6.247
 1809SOL     OW 6325   2.178   2.440   4.521
 1809SOL    HW1 6326   2.079   2.454   4.509
 1809SOL    HW2 6327   2.194   2.351   4.564
 1810SOL     OW 6328   3.174   6.911   3.487
 1810SOL    HW1 6329   3.265   6.871   3.491
 1810SOL    HW2 6330   3.124   6.872   3.409
 1811SOL     OW 6331   5.689   5.075   3.137
 1811SOL    HW1 6332   5.608   5.117   3.097
 1811SOL    HW2 6333   5.761   5.069   3.067
 1812SOL     OW 6334   4.426   6.406   5.204
 1812SOL    HW1 6335   4.484   6.452   5.271
 1812SOL    HW2 6336   4.481   6.343   5.150
 1813SOL     OW 6337   6.665   5.584   1.155
 1813SOL    HW1 6338   6.710   5.495   1.165
 1813SOL    HW2 6339   6.665   5.611   1.059
 1814SOL     OW 6340   6.046   1.248   0.826
 1814SOL    HW1 6341   6.057   1.346   0.841
 1814SOL    HW2 6342   6.093   1.198   0.898
 1815SOL     OW 6343   6.799   1.931   2.226
 1815SOL    HW1 6344   6.713   1.974   2.253
 1815SOL    HW2 6345   6.806   1.840   2.267
 1816SOL     OW 6346   2.810   3.607   0.991
 1816SOL    HW1 6347   2.722   3.599   0.945
 1816SOL    HW2 6348   2.797   3.599   1.090
 1817SOL     OW 6349   3.575   0.014   2.605
 1817SOL    HW1 6350   3.524   0.085   2.556
 1817SOL    HW2 6351   3.547   0.013   2.701
 1818SOL     OW 6352   1.738   6.527   2.746
 1818SOL    HW1 6353   1.724   6.509   2.844
 1818SOL    HW2 6354   1.650   6.521   2.699
 1819SOL     OW 6355   1.169   4.850   1.621
 1819SOL    HW1 6356   1.160   4.946   1.646
 1819SOL    HW2 6357   1.171   4.842   1.521
 1820SOL     OW 6358   4.546   0.491   2.535
 1820SOL    HW1 6359   4.448   0.500   2.520
 1820SOL    HW2 6360   4.594   0.493   2.447
 1821SOL     OW 6361   0.795   0.857   2.302
 1821SOL    HW1 6362   0.886   0.818   2.290
 1821SOL    HW2 6363   0.783   0.933   2.239
 1822SOL     OW 6364   2.649   3.221   1.198
 1822SOL    HW1 6365   2.680   3.162   1.123
 1822SOL    HW2 6366   2.549   3.225   1.198
 1823SOL     OW 6367   3.066   5.745   2.978
 1823SOL    HW1 6368   3.005   5.696   2.916
 1823SOL    HW2 6369   3.158   5.706   2.971
 1824SOL     OW 6370   3.317   2.503   1.551
 1824SOL    HW1 6371   3.410   2.481   1.579
 1824SOL    HW2 6372   3.317   2.541   1.459
 1825SOL     OW 6373   1.514   1.706   2.814
 1825SOL    HW1 6374   1.516   1.607   2.829
 1825SOL    HW2 6375   1.607   1.743   2.825
 1826SOL     OW 6376   3.471   0.193   1.296
 1826SOL    HW1 6377   3.384   0.150   1.321
 1826SOL    HW2 6378   3.487   0.272   1.354
 1827SOL     OW 6379   0.060   5.049   2.586
 1827SOL    HW1 6380   6.998   5.049   2.634
 1827SOL    HW2 6381   0.068   5.130   2.529
 1828SOL     OW 6382   0.947   2.189   0.492
 1828SOL    HW1 6383   1.019   2.175   0.424
 1828SOL    HW2 6384   0.900   2.103   0.509
 1829SOL     OW 6385   3.679   0.332   3.726
 1829SOL    HW1 6386   3.688   0.424   3.764
 1829SOL    HW2 6387   3.766   0.306   3.683
 1830SOL     OW 6388   6.106   5.719   3.906
 1830SOL    HW1 6389   6.089   5.639   3.849
 1830SOL    HW2 6390   6.161   5.785   3.856
 1831SOL     OW 6391   5.872   0.412   2.379
 1831SOL    HW1 6392   5.915   0.477   2.441
 1831SOL    HW2 6393   5.856   0.456   2.290
 1832SOL     OW 6394   5.170   1.377   1.040
 1832SOL    HW1 6395   5.109   1.300   1.019
 1832SOL    HW2 6396   5.143   1.418   1.127
 1833SOL     OW 6397   5.612   0.328   5.052
 1833SOL    HW1 6398   5.683   0.394   5.075
 1833SOL    HW2 6399   5.528   0.377   5.028
 1834SOL     OW 6400   2.966   3.790   0.445
 1834SOL    HW1 6401   2.955   3.859   0.517
 1834SOL    HW2 6402   3.027   3.718   0.476
 1835SOL     OW 6403   1.333   4.377   1.329
 1835SOL    HW1 6404   1.379   4.416   1.250
 1835SOL    HW2 6405   1.256   4.434   1.356
 1836SOL     OW 6406   5.277   1.276   1.327
 1836SOL    HW1 6407   5.236   1.363   1.299
 1836SOL    HW2 6408   5.274   1.268   1.426
 1837SOL     OW 6409   0.705   2.264   4.472
 1837SOL    HW1 6410   0.716   2.211   4.556
 1837SOL    HW2 6411   0.720   2.361   4.492
 1838SOL     OW 6412   6.931   2.216   4.148
 1838SOL    HW1 6413   6.954   2.296   4.204
 1838SOL    HW2 6414   6.990   2.139   4.174
 1839SOL     OW 6415   4.671   2.839   4.951
 1839SOL    HW1 6416   4.610   2.799   4.883
 1839SOL    HW2 6417   4.737   2.899   4.906
 1840SOL     OW 6418   3.744   5.862   1.413
 1840SOL    HW1 6419   3.697   5.774   1.406
 1840SOL    HW2 6420   3.842   5.846   1.423
 1841SOL     OW 6421   2.324   2.330   4.329
 1841SOL    HW1 6422   2.424   2.327   4.338
 1841SOL    HW2 6423   2.285   2.377   4.408
 1842SOL     OW 6424   0.923   5.559   0.714
 1842SOL    HW1 6425   0.910   5.649   0.755
 1842SOL    HW2 6426   0.942   5.492   0.785
 1843SOL     OW 6427   0.381   1.987   4.424
 1843SOL    HW1 6428   0.336   2.059   4.476
 1843SOL    HW2 6429   0.347   1.898   4.455
 1844SOL     OW 6430   3.713   1.023   5.637
 1844SOL    HW1 6431   3.640   1.055   5.698
 1844SOL    HW2 6432   3.755   0.941   5.675
 1845SOL     OW 6433   2.263   6.569   4.988
 1845SOL    HW1 6434   2.177   6.568   4.935
 1845SOL    HW2 6435   2.293   6.663   5.000
 1846SOL     OW 6436   4.319   1.833   0.632
 1846SOL    HW1 6437   4.391   1.859   0.696
 1846SOL    HW2 6438   4.230   1.859   0.671
 1847SOL     OW 6439   1.231   0.422   6.048
 1847SOL    HW1 6440   1.268   0.334   6.020
 1847SOL    HW2 6441   1.242   0.488   5.974
 1848SOL     OW 6442   0.463   6.914   2.514
 1848SOL    HW1 6443   0.458   6.945   2.609
 1848SOL    HW2 6444   0.379   6.938   2.467
 1849SOL     OW 6445   3.457   1.873   0.455
 1849SOL    HW1 6446   3.514   1.938   0.404
 1849SOL    HW2 6447   3.500   1.783   0.453
 1850SOL     OW 6448   6.811   2.954   2.340
 1850SOL    HW1 6449   6.731   2.914   2.295
 1850SOL    HW2 6450   6.852   3.023   2.281
 1851SOL     OW 6451   0.923   1.865   1.305
 1851SOL    HW1 6452   0.870   1.941   1.268
 1851SOL    HW2 6453   0.995   1.840   1.241
 1852SOL     OW 6454   5.813   3.235   1.784
 1852SOL    HW1 6455   5.851   3.266   1.871
 1852SOL    HW2 6456   5.714   3.225   1.793
 1853SOL     OW 6457   0.346   2.933   2.816
 1853SOL    HW1 6458   0.410   2.981   2.757
 1853SOL    HW2 6459   0.252   2.953   2.787
 1854SOL     OW 6460   2.537   6.140   2.926
 1854SOL    HW1 6461   2.593   6.140   2.844
 1854SOL    HW2 6462   2.446   6.106   2.905
 1855SOL     OW 6463   4.573   4.213   0.041
 1855SOL    HW1 6464   4.639   4.223   6.993
 1855SOL    HW2 6465   4.565   4.116   0.065
 1856SOL     OW 6466   6.238   3.630   5.111
 1856SOL    HW1 6467   6.275   3.656   5.022
 1856SOL    HW2 6468   6.313   3.610   5.174
 1857SOL     OW 6469   3.488   0.496   6.203
 1857SOL    HW1 6470   3.459   0.588   6.176
 1857SOL    HW2 6471   3.481   0.486   6.302
 1858SOL     OW 6472   5.681   2.925   3.960
 1858SOL    HW1 6473   5.734   2.976   4.028
 1858SOL    HW2 6474   5.679   2.976   3.874
 1859SOL     OW 6475   4.339   1.277   3.392
 1859SOL    HW1 6476   4.344   1.207   3.321
 1859SOL    HW2 6477   4.266   1.342   3.370
 1860SOL     OW 6478   6.273   0.392   3.657
 1860SOL    HW1 6479   6.365   0.420   3.687
 1860SOL    HW2 6480   6.278   0.302   3.615
 1861SOL     OW 6481   5.310   6.912   2.606
 1861SOL    HW1 6482   5.244   6.844   2.638
 1861SOL    HW2 6483   5.265   7.001   2.598
 1862SOL     OW 6484   2.458   0.413   6.402
 1862SOL    HW1 6485   2.409   0.364   6.330
 1862SOL    HW2 6486   2.554   0.425   6.375
 1863SOL     OW 6487   2.108   1.628   0.111
 1863SOL    HW1 6488   2.023   1.661   0.153
 1863SOL    HW2 6489   2.108   1.528   0.111
 1864SOL     OW 6490   0.821   6.830   5.738
 1864SOL    HW1 6491   0.911   6.870   5.724
 1864SOL    HW2 6492   0.771   6.884   5.806
 1865SOL     OW 6493   3.706   6.969   5.924
 1865SOL    HW1 6494   3.612   6.935   5.916
 1865SOL    HW2 6495   3.712   0.034   5.881
 1866SOL     OW 6496   4.556   4.882   3.066
 1866SOL    HW1 6497   4.528   4.813   3.133
 1866SOL    HW2 6498   4.627   4.844   3.006
 1867SOL     OW 6499   1.024   4.274   0.036
 1867SOL    HW1 6500   0.924   4.269   0.048
 1867SOL    HW2 6501   1.062   4.182   0.039
 1868SOL     OW 6502   5.052   3.906   0.483
 1868SOL    HW1 6503   5.095   3.816   0.480
 1868SOL    HW2 6504   5.123   3.977   0.481
 1869SOL     OW 6505   6.321   2.663   5.700
 1869SOL    HW1 6506   6.289   2.729   5.768
 1869SOL    HW2 6507   6.252   2.591   5.687
 1870SOL     OW 6508   1.906   2.694   5.550
 1870SOL    HW1 6509   2.001   2.710   5.521
 1870SOL    HW2 6510   1.854   2.779   5.540
 1871SOL     OW 6511   0.227   0.830   6.597
 1871SOL    HW1 6512   0.296   0.896   6.568
 1871SOL    HW2 6513   0.254   0.789   6.683
 1872SOL     OW 6514   3.722   2.967   0.308
 1872SOL    HW1 6515   3.667   2.974   0.225
 1872SOL    HW2 6516   3.799   2.905   0.291
 1873SOL     OW 6517   4.676   1.509   5.909
 1873SOL    HW1 6518   4.699   1.604   5.928
 1873SOL    HW2 6519   4.735   1.474   5.837
 1874SOL     OW 6520   3.268   1.194   1.153
 1874SOL    HW1 6521   3.352   1.248   1.159
 1874SOL    HW2 6522   3.288   1.098   1.173
 1875SOL     OW 6523   0.474   1.298   0.194
 1875SOL    HW1 6524   0.430   1.221   0.148
 1875SOL    HW2 6525   0.419   1.326   0.273
 1876SOL     OW 6526   3.991   0.060   5.946
 1876SOL    HW1 6527   3.908   0.026   5.902
 1876SOL    HW2 6528   4.057   0.088   5.876
 1877SOL     OW 6529   0.501   0.493   2.914
 1877SOL    HW1 6530   0.469   0.532   2.828
 1877SOL    HW2 6531   0.553   0.409   2.896
 1878SOL     OW 6532   6.636   1.793   3.694
 1878SOL    HW1 6533   6.654   1.809   3.597
 1878SOL    HW2 6534   6.723   1.778   3.742
 1879SOL     OW 6535   1.219   4.425   4.356
 1879SOL    HW1 6536   1.190   4.516   4.325
 1879SOL    HW2 6537   1.313   4.408   4.324
 1880SOL     OW 6538   0.042   1.775   4.714
 1880SOL    HW1 6539   6.994   1.831   4.752
 1880SOL    HW2 6540   0.017   1.744   4.623
 1881SOL     OW 6541   5.718   1.982   3.023
 1881SOL    HW1 6542   5.707   1.967   2.924
 1881SOL    HW2 6543   5.701   1.896   3.071
 1882SOL     OW 6544   1.550   4.038   6.235
 1882SOL    HW1 6545   1.601   3.993   6.308
 1882SOL    HW2 6546   1.504   3.969   6.179
 1883SOL     OW 6547   6.721   1.901   3.457
 1883SOL    HW1 6548   6.782   1.834   3.414
 1883SOL    HW2 6549   6.761   1.992   3.449
 1884SOL     OW 6550   0.029   1.713   0.492
 1884SOL    HW1 6551   0.076   1.756   0.568
 1884SOL    HW2 6552   6.993   1.642   0.526
 1885SOL     OW 6553   1.925   1.975   6.188
 1885SOL    HW1 6554   1.893   1.958   6.281
 1885SOL    HW2 6555   1.912   2.071   6.165
 1886SOL     OW 6556   1.362   0.424   1.475
 1886SOL    HW1 6557   1.402   0.473   1.552
 1886SOL    HW2 6558   1.287   0.367   1.508
 1887SOL     OW 6559   0.997   5.300   5.215
 1887SOL    HW1 6560   1.010   5.399   5.208
 1887SOL    HW2 6561   0.918   5.281   5.275
 1888SOL     OW 6562   3.020   2.279   6.703
 1888SOL    HW1 6563   2.950   2.315   6.765
 1888SOL    HW2 6564   3.111   2.300   6.739
 1889SOL     OW 6565   0.637   3.451   5.411
 1889SOL    HW1 6566   0.572   3.375   5.407
 1889SOL    HW2 6567   0.587   3.538   5.410
 1890SOL     OW 6568   1.576   5.783   3.930
 1890SOL    HW1 6569   1.609   5.841   4.005
 1890SOL    HW2 6570   1.479   5.800   3.915
 1891SOL     OW 6571   5.195   2.587   2.199
 1891SOL    HW1 6572   5.128   2.634   2.140
 1891SOL    HW2 6573   5.178   2.489   2.196
 1892SOL     OW 6574   1.430   0.570   2.347
 1892SOL    HW1 6575   1.337   0.590   2.314
 1892SOL    HW2 6576   1.482   0.655   2.351
 1893SOL     OW 6577   3.119   3.787   1.550
 1893SOL    HW1 6578   3.166   3.752   1.631
 1893SOL    HW2 6579   3.160   3.749   1.467
 1894SOL     OW 6580   3.620   4.149   3.949
 1894SOL    HW1 6581   3.712   4.156   3.911
 1894SOL    HW2 6582   3.621   4.178   4.045
 1895SOL     OW 6583   4.449   0.478   1.222
 1895SOL    HW1 6584   4.373   0.533   1.187
 1895SOL    HW2 6585   4.535   0.511   1.183
 1896SOL     OW 6586   5.273   1.476   1.656
 1896SOL    HW1 6587   5.314   1.567   1.665
 1896SOL    HW2 6588   5.177   1.480   1.684
 1897SOL     OW 6589   2.455   5.271   1.556
 1897SOL    HW1 6590   2.373   5.263   1.612
 1897SOL    HW2 6591   2.432   5.251   1.461
 1898SOL     OW 6592   2.104   5.136   3.870
 1898SOL    HW1 6593   2.106   5.046   3.913
 1898SOL    HW2 6594   2.106   5.126   3.771
 1899SOL     OW 6595   0.460   1.382   1.348
 1899SOL    HW1 6596   0.503   1.311   1.403
 1899SOL    HW2 6597   0.363   1.362   1.337
 1900SOL     OW 6598   2.386   0.699   6.966
 1900SOL    HW1 6599   2.304   0.753   6.983
 1900SOL    HW2 6600   2.419   0.716   6.873
 1901SOL     OW 6601   1.564   1.972   0.679
 1901SOL    HW1 6602   1.582   2.067   0.705
 1901SOL    HW2 6603   1.626   1.911   0.728
 1902SOL     OW 6604   2.036   0.614   4.967
 1902SOL    HW1 6605   2.021   0.584   5.062
 1902SOL    HW2 6606   1.949   0.637   4.925
 1903SOL     OW 6607   0.173   3.713   3.199
 1903SOL    HW1 6608   0.214   3.803   3.183
 1903SOL    HW2 6609   0.239   3.642   3.178
 1904SOL     OW 6610   6.185   5.272   3.901
 1904SOL    HW1 6611   6.204   5.238   3.809
 1904SOL    HW2 6612   6.258   5.333   3.931
 1905SOL     OW 6613   0.836   0.177   3.425
 1905SOL    HW1 6614   0.913   0.195   3.364
 1905SOL    HW2 6615   0.753   0.164   3.370
 1906SOL     OW 6616   2.307   0.079   5.019
 1906SOL    HW1 6617   2.350   0.164   5.050
 1906SOL    HW2 6618   2.279   0.089   4.924
 1907SOL     OW 6619   4.295   1.760   1.900
 1907SOL    HW1 6620   4.335   1.808   1.822
 1907SOL    HW2 6621   4.210   1.805   1.927
 1908SOL     OW 6622   3.708   6.224   5.599
 1908SOL    HW1 6623   3.705   6.251   5.695
 1908SOL    HW2 6624   3.668   6.134   5.588
 1909SOL     OW 6625   0.801   3.403   3.639
 1909SOL    HW1 6626   0.874   3.463   3.672
 1909SOL    HW2 6627   0.799   3.319   3.693
 1910SOL     OW 6628   0.060   5.338   5.958
 1910SOL    HW1 6629   0.074   5.403   6.033
 1910SOL    HW2 6630   6.987   5.319   5.948
 1911SOL     OW 6631   6.766   3.430   4.670
 1911SOL    HW1 6632   6.716   3.366   4.729
 1911SOL    HW2 6633   6.766   3.395   4.576
 1912SOL     OW 6634   2.864   5.963   1.242
 1912SOL    HW1 6635   2.948   5.984   1.292
 1912SOL    HW2 6636   2.797   5.923   1.303
 1913SOL     OW 6637   2.652   0.522   4.647
 1913SOL    HW1 6638   2.732   0.572   4.614
 1913SOL    HW2 6639   2.639   0.440   4.591
 1914SOL     OW 6640   3.749   2.898   6.524
 1914SOL    HW1 6641   3.753   2.913   6.425
 1914SOL    HW2 6642   3.843   2.894   6.560
 1915SOL     OW 6643   3.800   2.597   5.635
 1915SOL    HW1 6644   3.834   2.668   5.573
 1915SOL    HW2 6645   3.815   2.507   5.595
 1916SOL     OW 6646   4.031   5.817   1.422
 1916SOL    HW1 6647   4.049   5.742   1.358
 1916SOL    HW2 6648   4.028   5.904   1.372
 1917SOL     OW 6649   2.363   3.477   6.938
 1917SOL    HW1 6650   2.435   3.436   6.882
 1917SOL    HW2 6651   2.359   3.431   0.001
 1918SOL     OW 6652   1.343   1.347   4.638
 1918SOL    HW1 6653   1.292   1.399   4.707
 1918SOL    HW2 6654   1.328   1.388   4.548
 1919SOL     OW 6655   1.469   1.697   1.386
 1919SOL    HW1 6656   1.555   1.652   1.360
 1919SOL    HW2 6657   1.489   1.783   1.432
 1920SOL     OW 6658   6.615   4.060   3.223
 1920SOL    HW1 6659   6.561   4.145   3.221
 1920SOL    HW2 6660   6.622   4.023   3.131
 1921SOL     OW 6661   2.070   3.499   6.956
 1921SOL    HW1 6662   2.170   3.503   6.953
 1921SOL    HW2 6663   2.034   3.491   6.863
 1922SOL     OW 6664   2.938   3.584   1.548
 1922SOL    HW1 6665   2.961   3.681   1.547
 1922SOL    HW2 6666   2.857   3.569   1.605
 1923SOL     OW 6667   3.945   1.794   6.513
 1923SOL    HW1 6668   3.954   1.697   6.490
 1923SOL    HW2 6669   3.969   1.808   6.610
 1924SOL     OW 6670   4.541   6.577   0.384
 1924SOL    HW1 6671   4.452   6.588   0.340
 1924SOL    HW2 6672   4.596   6.659   0.370
 1925SOL     OW 6673   1.271   4.973   1.035
 1925SOL    HW1 6674   1.263   4.878   1.065
 1925SOL    HW2 6675   1.362   4.987   0.995
 1926SOL     OW 6676   3.218   0.105   2.391
 1926SOL    HW1 6677   3.142   0.085   2.329
 1926SOL    HW2 6678   3.239   0.203   2.388
 1927SOL     OW 6679   2.394   4.866   0.116
 1927SOL    HW1 6680   2.348   4.867   0.205
 1927SOL    HW2 6681   2.442   4.779   0.104
 1928SOL     OW 6682   5.749   3.969   4.964
 1928SOL    HW1 6683   5.715   4.001   4.875
 1928SOL    HW2 6684   5.846   3.990   4.971
 1929SOL     OW 6685   2.534   0.624   1.694
 1929SOL    HW1 6686   2.524   0.666   1.604
 1929SOL    HW2 6687   2.445   0.622   1.740
 1930SOL     OW 6688   5.281   3.637   6.705
 1930SOL    HW1 6689   5.282   3.666   6.609
 1930SOL    HW2 6690   5.196   3.668   6.749
 1931SOL     OW 6691   0.775   1.861   0.225
 1931SOL    HW1 6692   0.801   1.952   0.193
 1931SOL    HW2 6693   0.757   1.802   0.146
 1932SOL     OW 6694   4.553   2.515   3.550
 1932SOL    HW1 6695   4.539   2.611   3.575
 1932SOL    HW2 6696   4.484   2.458   3.594
 1933SOL     OW 6697   0.949   2.738   0.699
 1933SOL    HW1 6698   0.940   2.647   0.739
 1933SOL    HW2 6699   0.894   2.744   0.616
 1934SOL     OW 6700   6.903   1.403   4.888
 1934SOL    HW1 6701   6.864   1.427   4.977
 1934SOL    HW2 6702   6.833   1.412   4.818
 1935SOL     OW 6703   4.234   4.789   4.003
 1935SOL    HW1 6704   4.255   4.702   3.959
 1935SOL    HW2 6705   4.167   4.839   3.948
 1936SOL     OW 6706   4.872   3.758   3.857
 1936SOL    HW1 6707   4.969   3.780   3.856
 1936SOL    HW2 6708   4.840   3.744   3.763
 1937SOL     OW 6709   4.439   6.352   0.018
 1937SOL    HW1 6710   4.510   6.346   6.973
 1937SOL    HW2 6711   4.394   6.441   0.012
 1938SOL     OW 6712   1.632   2.108   1.104
 1938SOL    HW1 6713   1.558   2.046   1.126
 1938SOL    HW2 6714   1.667   2.150   1.187
 1939SOL     OW 6715   6.689   6.626   4.474
 1939SOL    HW1 6716   6.697   6.684   4.555
 1939SOL    HW2 6717   6.780   6.594   4.447
 1940SOL     OW 6718   6.099   4.324   1.219
 1940SOL    HW1 6719   6.195   4.353   1.219
 1940SOL    HW2 6720   6.077   4.281   1.132
 1941SOL     OW 6721   1.615   2.670   3.686
 1941SOL    HW1 6722   1.562   2.747   3.651
 1941SOL    HW2 6723   1.712   2.685   3.666
 1942SOL     OW 6724   5.254   3.473   2.700
 1942SOL    HW1 6725   5.208   3.479   2.788
 1942SOL    HW2 6726   5.186   3.464   2.627
 1943SOL     OW 6727   1.038   0.778   2.372
 1943SOL    HW1 6728   1.102   0.731   2.311
 1943SOL    HW2 6729   1.063   0.761   2.467
 1944SOL     OW 6730   6.014   4.363   0.243
 1944SOL    HW1 6731   6.056   4.280   0.279
 1944SOL    HW2 6732   5.917   4.346   0.224
 1945SOL     OW 6733   3.817   5.955   0.530
 1945SOL    HW1 6734   3.782   5.931   0.621
 1945SOL    HW2 6735   3.814   6.055   0.519
 1946SOL     OW 6736   5.879   6.717   1.564
 1946SOL    HW1 6737   5.904   6.625   1.531
 1946SOL    HW2 6738   5.857   6.775   1.486
 1947SOL     OW 6739   5.765   5.622   4.047
 1947SOL    HW1 6740   5.751   5.541   3.990
 1947SOL    HW2 6741   5.853   5.616   4.094
 1948SOL     OW 6742   5.835   5.254   2.538
 1948SOL    HW1 6743   5.890   5.190   2.485
 1948SOL    HW2 6744   5.874   5.263   2.630
 1949SOL     OW 6745   4.164   3.574   0.239
 1949SOL    HW1 6746   4.213   3.528   0.165
 1949SOL    HW2 6747   4.070   3.540   0.244
 1950SOL     OW 6748   4.023   3.283   3.226
 1950SOL    HW1 6749   4.074   3.326   3.151
 1950SOL    HW2 6750   3.976   3.202   3.192
 1951SOL     OW 6751   0.198   4.690   5.980
 1951SOL    HW1 6752   0.149   4.722   6.062
 1951SOL    HW2 6753   0.241   4.602   6.001
 1952SOL     OW 6754   5.891   5.020   1.289
 1952SOL    HW1 6755   5.875   4.979   1.379
 1952SOL    HW2 6756   5.830   5.098   1.277
 1953SOL     OW 6757   6.800   1.498   6.164
 1953SOL    HW1 6758   6.845   1.570   6.217
 1953SOL    HW2 6759   6.746   1.440   6.226
 1954SOL     OW 6760   5.588   6.925   1.556
 1954SOL    HW1 6761   5.591   6.898   1.652
 1954SOL    HW2 6762   5.588   7.025   1.550
 1955SOL     OW 6763   0.248   0.976   1.614
 1955SOL    HW1 6764   0.194   1.057   1.590
 1955SOL    HW2 6765   0.223   0.901   1.554
 1956SOL     OW 6766   4.802   0.023   2.670
 1956SOL    HW1 6767   4.875   6.982   2.652
 1956SOL    HW2 6768   4.715   7.000   2.682
 1957SOL     OW 6769   5.151   4.569   3.987
 1957SOL    HW1 6770   5.146   4.632   4.065
 1957SOL    HW2 6771   5.084   4.496   3.998
 1958SOL     OW 6772   4.737   0.926   1.920
 1958SOL    HW1 6773   4.774   0.895   2.008
 1958SOL    HW2 6774   4.640   0.949   1.931
 1959SOL     OW 6775   0.137   6.289   3.903
 1959SOL    HW1 6776   0.227   6.294   3.946
 1959SOL    HW2 6777   0.116   6.194   3.880
 1960SOL     OW 6778   0.232   3.731   2.470
 1960SOL    HW1 6779   0.159   3.764   2.530
 1960SOL    HW2 6780   0.193   3.667   2.403
 1961SOL     OW 6781   5.778   4.693   4.439
 1961SOL    HW1 6782   5.784   4.761   4.366
 1961SOL    HW2 6783   5.689   4.700   4.484
 1962SOL     OW 6784   1.031   6.086   3.038
 1962SOL    HW1 6785   0.945   6.134   3.021
 1962SOL    HW2 6786   1.020   5.989   3.018
 1963SOL     OW 6787   1.436   1.944   1.213
 1963SOL    HW1 6788   1.359   2.005   1.195
 1963SOL    HW2 6789   1.470   1.960   1.305
 1964SOL     OW 6790   4.701   5.119   1.667
 1964SOL    HW1 6791   4.666   5.050   1.602
 1964SOL    HW2 6792   4.789   5.154   1.635
 1965SOL     OW 6793   2.043   2.727   4.184
 1965SOL    HW1 6794   1.967   2.749   4.245
 1965SOL    HW2 6795   2.060   2.629   4.187
 1966SOL     OW 6796   1.713   5.481   1.203
 1966SOL    HW1 6797   1.746   5.492   1.109
 1966SOL    HW2 6798   1.613   5.481   1.203
 1967SOL     OW 6799   6.075   2.599   4.389
 1967SOL    HW1 6800   6.154   2.659   4.396
 1967SOL    HW2 6801   6.023   2.602   4.474
 1968SOL     OW 6802   2.599   0.780   5.352
 1968SOL    HW1 6803   2.518   0.770   5.293
 1968SOL    HW2 6804   2.642   0.691   5.364
 1969SOL     OW 6805   3.281   0.588   1.610
 1969SOL    HW1 6806   3.285   0.561   1.513
 1969SOL    HW2 6807   3.186   0.587   1.640
 1970SOL     OW 6808   0.122   0.256   5.356
 1970SOL    HW1 6809   0.209   0.261   5.404
 1970SOL    HW2 6810   0.066   0.183   5.394
 1971SOL     OW 6811   0.407   0.860   5.316
 1971SOL    HW1 6812   0.455   0.934   5.364
 1971SOL    HW2 6813   0.330   0.829   5.372
 1972SOL     OW 6814   5.713   2.595   1.625
 1972SOL    HW1 6815   5.670   2.523   1.679
 1972SOL    HW2 6816   5.651   2.672   1.617
 1973SOL     OW 6817   2.618   4.286   1.642
 1973SOL    HW1 6818   2.664   4.347   1.577
 1973SOL    HW2 6819   2.532   4.327   1.672
 1974SOL     OW 6820   4.530   6.729   4.602
 1974SOL    HW1 6821   4.441   6.734   4.557
 1974SOL    HW2 6822   4.598   6.691   4.539
 1975SOL     OW 6823   2.176   2.094   3.967
 1975SOL    HW1 6824   2.079   2.071   3.974
 1975SOL    HW2 6825   2.218   2.088   4.057
 1976SOL     OW 6826   5.336   6.013   6.895
 1976SOL    HW1 6827   5.372   6.081   6.958
 1976SOL    HW2 6828   5.408   5.947   6.873
 1977SOL     OW 6829   2.122   3.089   5.415
 1977SOL    HW1 6830   2.167   3.177   5.400
 1977SOL    HW2 6831   2.185   3.026   5.460
 1978SOL     OW 6832   1.633   5.964   2.770
 1978SOL    HW1 6833   1.693   5.898   2.816
 1978SOL    HW2 6834   1.554   5.984   2.827
 1979SOL     OW 6835   5.249   5.326   6.835
 1979SOL    HW1 6836   5.271   5.273   6.753
 1979SOL    HW2 6837   5.258   5.267   6.915
 1980SOL     OW 6838   3.702   0.742   3.070
 1980SOL    HW1 6839   3.623   0.686   3.043
 1980SOL    HW2 6840   3.773   0.682   3.106
 1981SOL     OW 6841   5.728   2.571   2.550
 1981SOL    HW1 6842   5.640   2.620   2.555
 1981SOL    HW2 6843   5.786   2.616   2.482
 1982SOL     OW 6844   6.554   3.837   3.786
 1982SOL    HW1 6845   6.555   3.738   3.772
 1982SOL    HW2 6846   6.633   3.878   3.740
 1983SOL     OW 6847   0.806   0.283   1.606
 1983SOL    HW1 6848   0.814   0.377   1.574
 1983SOL    HW2 6849   0.842   0.221   1.536
 1984SOL     OW 6850   4.537   2.575   5.468
 1984SOL    HW1 6851   4.477   2.653   5.485
 1984SOL    HW2 6852   4.554   2.566   5.370
 1985SOL     OW 6853   6.795   5.615   2.279
 1985SOL    HW1 6854   6.816   5.594   2.184
 1985SOL    HW2 6855   6.747   5.703   2.284
 1986SOL     OW 6856   2.930   1.158   5.942
 1986SOL    HW1 6857   2.942   1.061   5.961
 1986SOL    HW2 6858   2.839   1.187   5.970
 1987SOL     OW 6859   2.113   1.642   3.574
 1987SOL    HW1 6860   2.128   1.718   3.637
 1987SOL    HW2 6861   2.064   1.675   3.493
 1988SOL     OW 6862   0.341   1.648   1.050
 1988SOL    HW1 6863   0.374   1.743   1.048
 1988SOL    HW2 6864   0.327   1.619   1.144
 1989SOL     OW 6865   2.427   5.860   3.946
 1989SOL    HW1 6866   2.381   5.883   4.031
 1989SOL    HW2 6867   2.362   5.863   3.871
 1990SOL     OW 6868   3.732   6.446   0.639
 1990SOL    HW1 6869   3.687   6.515   0.583
 1990SOL    HW2 6870   3.692   6.445   0.731
 1991SOL     OW 6871   2.068   5.242   0.169
 1991SOL    HW1 6872   2.165   5.221   0.180
 1991SOL    HW2 6873   2.056   5.338   0.147
 1992SOL     OW 6874   6.634   0.338   0.561
 1992SOL    HW1 6875   6.665   0.369   0.651
 1992SOL    HW2 6876   6.631   0.415   0.497
 1993SOL     OW 6877   3.528   2.051   4.958
 1993SOL    HW1 6878   3.567   2.070   5.049
 1993SOL    HW2 6879   3.430   2.069   4.960
 1994SOL     OW 6880   4.884   1.788   1.081
 1994SOL    HW1 6881   4.903   1.860   1.015
 1994SOL    HW2 6882   4.970   1.758   1.123
 1995SOL     OW 6883   5.613   3.524   4.105
 1995SOL    HW1 6884   5.687   3.457   4.103
 1995SOL    HW2 6885   5.625   3.590   4.031
 1996SOL     OW 6886   2.711   1.720   1.284
 1996SOL    HW1 6887   2.675   1.633   1.317
 1996SOL    HW2 6888   2.656   1.795   1.320
 1997SOL     OW 6889   3.224   1.705   3.885
 1997SOL    HW1 6890   3.253   1.658   3.968
 1997SOL    HW2 6891   3.298   1.703   3.818
 1998SOL     OW 6892   1.580   3.926   0.773
 1998SOL    HW1 6893   1.481   3.915   0.778
 1998SOL    HW2 6894   1.623   3.836   0.767
 1999SOL     OW 6895   0.534   0.616   4.601
 1999SOL    HW1 6896   0.553   0.609   4.699
 1999SOL    HW2 6897   0.485   0.534   4.572
 2000SOL     OW 6898   4.203   3.316   6.127
 2000SOL    HW1 6899   4.108   3.305   6.155
 2000SOL    HW2 6900   4.210   3.390   6.060
 2001SOL     OW 6901   1.761   1.664   6.997
 2001SOL    HW1 6902   1.794   1.657   0.066
 2001SOL    HW2 6903   1.746   1.761   6.974
 2002SOL     OW 6904   0.553   5.628   0.768
 2002SOL    HW1 6905   0.587   5.709   0.720
 2002SOL    HW2 6906   0.521   5.655   0.859
 2003SOL     OW 6907   6.744   5.340   1.799
 2003SOL    HW1 6908   6.785   5.287   1.724
 2003SOL    HW2 6909   6.715   5.277   1.871
 2004SOL     OW 6910   4.602   1.095   4.958
 2004SOL    HW1 6911   4.522   1.154   4.945
 2004SOL    HW2 6912   4.683   1.152   4.973
 2005SOL     OW 6913   6.810   4.933   0.006
 2005SOL    HW1 6914   6.794   4.975   6.941
 2005SOL    HW2 6915   6.785   4.999   0.077
 2006SOL     OW 6916   5.658   6.798   4.401
 2006SOL    HW1 6917   5.704   6.740   4.469
 2006SOL    HW2 6918   5.720   6.814   4.324
 2007SOL     OW 6919   5.478   4.016   1.485
 2007SOL    HW1 6920   5.383   3.989   1.501
 2007SOL    HW2 6921   5.485   4.063   1.397
 2008SOL     OW 6922   2.208   3.221   3.783
 2008SOL    HW1 6923   2.158   3.285   3.842
 2008SOL    HW2 6924   2.306   3.233   3.797
 2009SOL     OW 6925   5.515   6.483   2.261
 2009SOL    HW1 6926   5.544   6.575   2.235
 2009SOL    HW2 6927   5.418   6.485   2.287
 2010SOL     OW 6928   1.658   1.518   1.266
 2010SOL    HW1 6929   1.745   1.471   1.256
 2010SOL    HW2 6930   1.586   1.465   1.221
 2011SOL     OW 6931   0.207   0.798   4.673
 2011SOL    HW1 6932   0.234   0.829   4.765
 2011SOL    HW2 6933   0.212   0.698   4.670
 2012SOL     OW 6934   1.276   3.656   1.933
 2012SOL    HW1 6935   1.298   3.725   1.864
 2012SOL    HW2 6936   1.300   3.565   1.899
 2013SOL     OW 6937   6.775   3.073   3.366
 2013SOL    HW1 6938   6.706   3.019   3.317
 2013SOL    HW2 6939   6.747   3.083   3.461
 2014SOL     OW 6940   2.908   0.200   2.995
 2014SOL    HW1 6941   2.917   0.293   3.031
 2014SOL    HW2 6942   2.813   0.184   2.968
 2015SOL     OW 6943   3.345   6.577   1.018
 2015SOL    HW1 6944   3.398   6.560   1.102
 2015SOL    HW2 6945   3.283   6.654   1.033
 2016SOL     OW 6946   1.728   5.829   5.274
 2016SOL    HW1 6947   1.630   5.850   5.271
 2016SOL    HW2 6948   1.766   5.856   5.362
 2017SOL     OW 6949   4.085   0.334   3.379
 2017SOL    HW1 6950   4.104   0.388   3.461
 2017SOL    HW2 6951   4.081   0.395   3.299
 2018SOL     OW 6952   6.901   2.712   4.048
 2018SOL    HW1 6953   6.907   2.803   4.007
 2018SOL    HW2 6954   6.982   2.695   4.104
 2019SOL     OW 6955   5.961   4.481   6.067
 2019SOL    HW1 6956   5.897   4.527   6.127
 2019SOL    HW2 6957   6.012   4.412   6.119
 2020SOL     OW 6958   1.815   6.218   5.917
 2020SOL    HW1 6959   1.880   6.220   5.841
 2020SOL    HW2 6960   1.724   6.196   5.883
 2021SOL     OW 6961   6.179   6.515   3.777
 2021SOL    HW1 6962   6.251   6.501   3.844
 2021SOL    HW2 6963   6.178   6.610   3.747
 2022SOL     OW 6964   2.128   4.729   4.615
 2022SOL    HW1 6965   2.212   4.781   4.600
 2022SOL    HW2 6966   2.121   4.703   4.711
 2023SOL     OW 6967   0.285   0.217   6.856
 2023SOL    HW1 6968   0.316   0.130   6.895
 2023SOL    HW2 6969   0.352   0.249   6.789
 2024SOL     OW 6970   0.268   5.537   3.948
 2024SOL    HW1 6971   0.282   5.612   4.012
 2024SOL    HW2 6972   0.340   5.538   3.879
 2025SOL     OW 6973   2.928   0.638   3.273
 2025SOL    HW1 6974   3.012   0.689   3.259
 2025SOL    HW2 6975   2.881   0.671   3.355
 2026SOL     OW 6976   6.570   2.027   6.678
 2026SOL    HW1 6977   6.606   2.068   6.762
 2026SOL    HW2 6978   6.646   1.989   6.625
 2027SOL     OW 6979   0.516   6.542   1.395
 2027SOL    HW1 6980   0.543   6.451   1.426
 2027SOL    HW2 6981   0.444   6.577   1.454
 2028SOL     OW 6982   3.489   5.781   2.788
 2028SOL    HW1 6983   3.407   5.725   2.785
 2028SOL    HW2 6984   3.516   5.795   2.884
 2029SOL     OW 6985   6.862   2.454   0.034
 2029SOL    HW1 6986   6.868   2.356   0.048
 2029SOL    HW2 6987   6.772   2.477   7.022
 2030SOL     OW 6988   3.134   6.728   2.220
 2030SOL    HW1 6989   3.046   6.734   2.266
 2030SOL    HW2 6990   3.203   6.778   2.272
 2031SOL     OW 6991   6.692   6.316   2.362
 2031SOL    HW1 6992   6.787   6.292   2.382
 2031SOL    HW2 6993   6.644   6.334   2.448
 2032SOL     OW 6994   3.486   1.132   0.804
 2032SOL    HW1 6995   3.490   1.229   0.829
 2032SOL    HW2 6996   3.518   1.121   0.710
 2033SOL     OW 6997   1.961   1.364   0.610
 2033SOL    HW1 6998   1.918   1.279   0.580
 2033SOL    HW2 6999   2.042   1.343   0.665
 2034SOL     OW 7000   1.927   5.079   5.863
 2034SOL    HW1 7001   1.917   4.984   5.833
 2034SOL    HW2 7002   1.853   5.135   5.825
 2035SOL     OW 7003   6.439   6.990   2.295
 2035SOL    HW1 7004   6.445   6.890   2.301
 2035SOL    HW2 7005   6.526   0.005   2.323
 2036SOL     OW 7006   1.679   3.593   3.263
 2036SOL    HW1 7007   1.646   3.619   3.354
 2036SOL    HW2 7008   1.605   3.604   3.197
 2037SOL     OW 7009   6.718   2.683   6.088
 2037SOL    HW1 7010   6.663   2.766   6.077
 2037SOL    HW2 7011   6.659   2.607   6.115
 2038SOL     OW 7012   2.733   1.194   0.065
 2038SOL    HW1 7013   2.755   1.098   0.083
 2038SOL    HW2 7014   2.644   1.215   0.104
 2039SOL     OW 7015   6.926   6.208   2.432
 2039SOL    HW1 7016   7.000   6.180   2.371
 2039SOL    HW2 7017   6.906   6.134   2.496
 2040SOL     OW 7018   1.925   1.956   6.930
 2040SOL    HW1 7019   2.022   1.975   6.945
 2040SOL    HW2 7020   1.906   1.957   6.831
 2041SOL     OW 7021   1.259   0.262   5.462
 2041SOL    HW1 7022   1.190   0.269   5.389
 2041SOL    HW2 7023   1.248   0.339   5.525
 2042SOL     OW 7024   4.819   7.007   6.095
 2042SOL    HW1 7025   4.820   0.076   6.063
 2042SOL    HW2 7026   4.769   7.002   6.182
 2043SOL     OW 7027   6.460   2.406   2.074
 2043SOL    HW1 7028   6.523   2.481   2.095
 2043SOL    HW2 7029   6.418   2.422   1.985
 2044SOL     OW 7030   5.875   1.084   1.520
 2044SOL    HW1 7031   5.846   0.990   1.535
 2044SOL    HW2 7032   5.838   1.143   1.591
 2045SOL     OW 7033   1.173   5.893   4.742
 2045SOL    HW1 7034   1.193   5.990   4.754
 2045SOL    HW2 7035   1.076   5.877   4.758
 2046SOL     OW 7036   6.773   2.207   5.400
 2046SOL    HW1 7037   6.765   2.267   5.479
 2046SOL    HW2 7038   6.792   2.261   5.318
 2047SOL     OW 7039   6.011   2.086   1.310
 2047SOL    HW1 7040   5.939   2.124   1.253
 2047SOL    HW2 7041   6.096   2.082   1.258
 2048SOL     OW 7042   0.115   1.241   4.808
 2048SOL    HW1 7043   0.019   1.256   4.830
 2048SOL    HW2 7044   0.143   1.305   4.736
 2049SOL     OW 7045   4.702   1.447   4.686
 2049SOL    HW1 7046   4.630   1.493   4.738
 2049SOL    HW2 7047   4.773   1.415   4.749
 2050SOL     OW 7048   0.193   2.358   4.945
 2050SOL    HW1 7049   0.232   2.450   4.946
 2050SOL    HW2 7050   0.263   2.291   4.970
 2051SOL     OW 7051   1.975   5.919   0.257
 2051SOL    HW1 7052   1.987   5.985   0.183
 2051SOL    HW2 7053   1.925   5.961   0.332
 2052SOL     OW 7054   1.157   3.187   0.740
 2052SOL    HW1 7055   1.120   3.203   0.648
 2052SOL    HW2 7056   1.137   3.093   0.768
 2053SOL     OW 7057   0.942   5.446   4.549
 2053SOL    HW1 7058   0.928   5.408   4.640
 2053SOL    HW2 7059   0.875   5.518   4.531
 2054SOL     OW 7060   3.116   3.033   3.164
 2054SOL    HW1 7061   3.100   2.934   3.157
 2054SOL    HW2 7062   3.169   3.064   3.085
 2055SOL     OW 7063   6.949   2.554   4.871
 2055SOL    HW1 7064   7.004   2.506   4.803
 2055SOL    HW2 7065   6.862   2.582   4.830
 2056SOL     OW 7066   4.411   4.339   1.172
 2056SOL    HW1 7067   4.353   4.376   1.100
 2056SOL    HW2 7068   4.354   4.309   1.248
 2057SOL     OW 7069   5.237   3.173   4.285
 2057SOL    HW1 7070   5.256   3.099   4.349
 2057SOL    HW2 7071   5.279   3.257   4.318
 2058SOL     OW 7072   0.540   6.630   2.436
 2058SOL    HW1 7073   0.515   6.721   2.470
 2058SOL    HW2 7074   0.466   6.566   2.454
 2059SOL     OW 7075   2.751   0.586   5.527
 2059SOL    HW1 7076   2.693   0.654   5.571
 2059SOL    HW2 7077   2.829   0.631   5.485
 2060SOL     OW 7078   0.757   3.138   1.080
 2060SOL    HW1 7079   0.805   3.167   1.163
 2060SOL    HW2 7080   0.779   3.043   1.060
 2061SOL     OW 7081   1.843   2.860   2.258
 2061SOL    HW1 7082   1.900   2.931   2.300
 2061SOL    HW2 7083   1.832   2.879   2.161
 2062SOL     OW 7084   6.707   5.426   5.462
 2062SOL    HW1 7085   6.711   5.370   5.545
 2062SOL    HW2 7086   6.616   5.465   5.452
 2063SOL     OW 7087   1.378   6.413   4.773
 2063SOL    HW1 7088   1.390   6.512   4.772
 2063SOL    HW2 7089   1.418   6.376   4.857
 2064SOL     OW 7090   1.357   3.514   4.228
 2064SOL    HW1 7091   1.412   3.530   4.146
 2064SOL    HW2 7092   1.330   3.602   4.267
 2065SOL     OW 7093   5.303   3.150   6.256
 2065SOL    HW1 7094   5.230   3.145   6.189
 2065SOL    HW2 7095   5.375   3.211   6.223
 2066SOL     OW 7096   6.687   3.830   5.446
 2066SOL    HW1 7097   6.738   3.864   5.525
 2066SOL    HW2 7098   6.636   3.749   5.471
 2067SOL     OW 7099   6.291   4.840   1.719
 2067SOL    HW1 7100   6.259   4.827   1.813
 2067SOL    HW2 7101   6.213   4.864   1.661
 2068SOL     OW 7102   3.694   1.535   4.210
 2068SOL    HW1 7103   3.631   1.515   4.286
 2068SOL    HW2 7104   3.644   1.575   4.134
 2069SOL     OW 7105   0.118   2.010   4.242
 2069SOL    HW1 7106   0.162   2.085   4.291
 2069SOL    HW2 7107   0.170   1.926   4.255
 2070SOL     OW 7108   1.548   2.710   0.984
 2070SOL    HW1 7109   1.645   2.705   0.962
 2070SOL    HW2 7110   1.512   2.617   0.998
 2071SOL     OW 7111   6.123   1.658   6.271
 2071SOL    HW1 7112   6.028   1.656   6.302
 2071SOL    HW2 7113   6.167   1.742   6.304
 2072SOL     OW 7114   3.977   5.241   5.477
 2072SOL    HW1 7115   3.911   5.315   5.463
 2072SOL    HW2 7116   3.937   5.173   5.538
 2073SOL     OW 7117   3.790   6.075   5.911
 2073SOL    HW1 7118   3.809   6.062   6.008
 2073SOL    HW2 7119   3.776   6.173   5.893
 2074SOL     OW 7120   1.571   2.640   6.315
 2074SOL    HW1 7121   1.584   2.571   6.386
 2074SOL    HW2 7122   1.592   2.731   6.352
 2075SOL     OW 7123   6.237   2.079   2.851
 2075SOL    HW1 7124   6.235   2.179   2.842
 2075SOL    HW2 7125   6.168   2.039   2.791
 2076SOL     OW 7126   6.207   0.333   5.152
 2076SOL    HW1 7127   6.199   0.407   5.085
 2076SOL    HW2 7128   6.232   0.372   5.241
 2077SOL     OW 7129   6.618   2.111   1.683
 2077SOL    HW1 7130   6.693   2.051   1.656
 2077SOL    HW2 7131   6.599   2.099   1.781
 2078SOL     OW 7132   1.573   4.961   6.023
 2078SOL    HW1 7133   1.638   5.017   6.074
 2078SOL    HW2 7134   1.540   5.012   5.944
 2079SOL     OW 7135   5.627   1.097   2.376
 2079SOL    HW1 7136   5.650   1.001   2.395
 2079SOL    HW2 7137   5.548   1.101   2.315
 2080SOL     OW 7138   3.441   1.814   4.872
 2080SOL    HW1 7139   3.348   1.789   4.901
 2080SOL    HW2 7140   3.484   1.872   4.941
 2081SOL     OW 7141   0.683   6.315   3.252
 2081SOL    HW1 7142   0.609   6.255   3.283
 2081SOL    HW2 7143   0.740   6.341   3.330
 2082SOL     OW 7144   1.014   5.778   3.114
 2082SOL    HW1 7145   1.106   5.745   3.096
 2082SOL    HW2 7146   1.005   5.799   3.212
 2083SOL     OW 7147   0.504   5.679   3.937
 2083SOL    HW1 7148   0.590   5.649   3.978
 2083SOL    HW2 7149   0.498   5.646   3.843
 2084SOL     OW 7150   1.206   2.081   1.137
 2084SOL    HW1 7151   1.263   2.139   1.078
 2084SOL    HW2 7152   1.131   2.136   1.175
 2085SOL     OW 7153   4.869   5.910   0.432
 2085SOL    HW1 7154   4.873   5.815   0.399
 2085SOL    HW2 7155   4.961   5.949   0.432
 2086SOL     OW 7156   3.314   6.426   7.012
 2086SOL    HW1 7157   3.262   6.478   0.055
 2086SOL    HW2 7158   3.271   6.337   6.999
 2087SOL     OW 7159   3.945   2.332   0.015
 2087SOL    HW1 7160   3.940   2.417   6.987
 2087SOL    HW2 7161   3.889   2.262   6.997
 2088SOL     OW 7162   0.829   6.064   5.355
 2088SOL    HW1 7163   0.896   6.115   5.301
 2088SOL    HW2 7164   0.805   6.116   5.437
 2089SOL     OW 7165   3.873   2.540   5.330
 2089SOL    HW1 7166   3.969   2.530   5.304
 2089SOL    HW2 7167   3.841   2.631   5.306
 2090SOL     OW 7168   4.584   3.131   5.622
 2090SOL    HW1 7169   4.517   3.088   5.683
 2090SOL    HW2 7170   4.652   3.180   5.677
 2091SOL     OW 7171   0.010   6.048   1.293
 2091SOL    HW1 7172   0.004   6.060   1.392
 2091SOL    HW2 7173   7.014   6.135   1.248
 2092SOL     OW 7174   5.236   3.595   1.195
 2092SOL    HW1 7175   5.247   3.518   1.257
 2092SOL    HW2 7176   5.325   3.633   1.173
 2093SOL     OW 7177   3.637   2.090   2.300
 2093SOL    HW1 7178   3.658   2.131   2.211
 2093SOL    HW2 7179   3.539   2.073   2.306
 2094SOL     OW 7180   6.057   2.697   0.479
 2094SOL    HW1 7181   6.138   2.675   0.424
 2094SOL    HW2 7182   5.994   2.752   0.424
 2095SOL     OW 7183   6.192   6.265   3.113
 2095SOL    HW1 7184   6.165   6.350   3.159
 2095SOL    HW2 7185   6.283   6.238   3.144
 2096SOL     OW 7186   4.727   6.010   3.014
 2096SOL    HW1 7187   4.690   6.033   3.104
 2096SOL    HW2 7188   4.813   5.960   3.024
 2097SOL     OW 7189   3.046   4.129   6.162
 2097SOL    HW1 7190   3.016   4.217   6.201
 2097SOL    HW2 7191   3.107   4.083   6.226
 2098SOL     OW 7192   4.230   6.286   3.155
 2098SOL    HW1 7193   4.211   6.191   3.133
 2098SOL    HW2 7194   4.325   6.295   3.188
 2099SOL     OW 7195   4.277   1.966   0.145
 2099SOL    HW1 7196   4.218   2.047   0.152
 2099SOL    HW2 7197   4.297   1.932   0.237
 2100SOL     OW 7198   4.897   1.197   0.677
 2100SOL    HW1 7199   4.954   1.271   0.713
 2100SOL    HW2 7200   4.951   1.140   0.616
 2101SOL     OW 7201   0.317   6.142   0.591
 2101SOL    HW1 7202   0.306   6.043   0.580
 2101SOL    HW2 7203   0.280   6.189   0.511
 2102SOL     OW 7204   3.949   3.547   1.416
 2102SOL    HW1 7205   3.925   3.582   1.325
 2102SOL    HW2 7206   3.961   3.624   1.479
 2103SOL     OW 7207   3.246   4.155   0.152
 2103SOL    HW1 7208   3.267   4.157   0.250
 2103SOL    HW2 7209   3.171   4.092   0.135
 2104SOL     OW 7210   1.714   4.912   2.398
 2104SOL    HW1 7211   1.687   4.991   2.343
 2104SOL    HW2 7212   1.663   4.914   2.485
 2105SOL     OW 7213   4.698   4.598   0.490
 2105SOL    HW1 7214   4.668   4.629   0.400
 2105SOL    HW2 7215   4.710   4.499   0.489
 2106SOL     OW 7216   5.248   3.831   1.486
 2106SOL    HW1 7217   5.235   3.771   1.565
 2106SOL    HW2 7218   5.171   3.819   1.422
 2107SOL     OW 7219   5.355   3.457   5.887
 2107SOL    HW1 7220   5.440   3.404   5.882
 2107SOL    HW2 7221   5.362   3.537   5.828
 2108SOL     OW 7222   5.490   6.601   6.262
 2108SOL    HW1 7223   5.436   6.537   6.207
 2108SOL    HW2 7224   5.582   6.610   6.222
 2109SOL     OW 7225   2.955   5.302   2.121
 2109SOL    HW1 7226   2.984   5.211   2.153
 2109SOL    HW2 7227   2.971   5.369   2.193
 2110SOL     OW 7228   4.013   0.575   6.237
 2110SOL    HW1 7229   4.000   0.520   6.155
 2110SOL    HW2 7230   4.032   0.669   6.212
 2111SOL     OW 7231   1.267   2.362   5.757
 2111SOL    HW1 7232   1.192   2.377   5.821
 2111SOL    HW2 7233   1.325   2.288   5.790
 2112SOL     OW 7234   5.904   1.944   6.802
 2112SOL    HW1 7235   5.923   1.924   6.898
 2112SOL    HW2 7236   5.942   2.034   6.779
 2113SOL     OW 7237   2.272   6.543   4.528
 2113SOL    HW1 7238   2.208   6.560   4.603
 2113SOL    HW2 7239   2.364   6.574   4.554
 2114SOL     OW 7240   2.863   2.937   0.317
 2114SOL    HW1 7241   2.908   2.848   0.325
 2114SOL    HW2 7242   2.933   3.009   0.312
 2115SOL     OW 7243   1.200   4.428   2.130
 2115SOL    HW1 7244   1.286   4.409   2.082
 2115SOL    HW2 7245   1.127   4.445   2.064
 2116SOL     OW 7246   0.650   2.696   0.887
 2116SOL    HW1 7247   0.633   2.750   0.805
 2116SOL    HW2 7248   0.671   2.757   0.963
 2117SOL     OW 7249   5.119   2.933   1.699
 2117SOL    HW1 7250   5.044   2.886   1.744
 2117SOL    HW2 7251   5.136   3.020   1.746
 2118SOL     OW 7252   6.603   3.764   2.420
 2118SOL    HW1 7253   6.641   3.798   2.334
 2118SOL    HW2 7254   6.557   3.677   2.403
 2119SOL     OW 7255   1.702   0.535   6.810
 2119SOL    HW1 7256   1.683   0.624   6.767
 2119SOL    HW2 7257   1.617   0.486   6.824
 2120SOL     OW 7258   6.693   2.150   3.004
 2120SOL    HW1 7259   6.733   2.094   2.932
 2120SOL    HW2 7260   6.651   2.231   2.964
 2121SOL     OW 7261   2.478   1.621   5.938
 2121SOL    HW1 7262   2.420   1.543   5.914
 2121SOL    HW2 7263   2.501   1.616   6.035
 2122SOL     OW 7264   6.003   6.878   6.007
 2122SOL    HW1 7265   6.030   6.790   6.046
 2122SOL    HW2 7266   6.030   6.951   6.070
 2123SOL     OW 7267   6.986   6.610   2.524
 2123SOL    HW1 7268   0.007   6.688   2.482
 2123SOL    HW2 7269   6.995   6.616   2.624
 2124SOL     OW 7270   3.158   2.656   5.551
 2124SOL    HW1 7271   3.194   2.729   5.492
 2124SOL    HW2 7272   3.146   2.573   5.497
 2125SOL     OW 7273   1.973   6.040   3.198
 2125SOL    HW1 7274   1.979   6.050   3.297
 2125SOL    HW2 7275   2.057   5.999   3.163
 2126SOL     OW 7276   3.801   3.233   0.360
 2126SOL    HW1 7277   3.731   3.291   0.401
 2126SOL    HW2 7278   3.765   3.141   0.346
 2127SOL     OW 7279   6.766   2.587   5.787
 2127SOL    HW1 7280   6.727   2.626   5.704
 2127SOL    HW2 7281   6.732   2.638   5.867
 2128SOL     OW 7282   5.254   3.690   0.877
 2128SOL    HW1 7283   5.161   3.664   0.905
 2128SOL    HW2 7284   5.280   3.638   0.796
 2129SOL     OW 7285   5.195   4.051   3.329
 2129SOL    HW1 7286   5.099   4.023   3.332
 2129SOL    HW2 7287   5.250   3.987   3.381
 2130SOL     OW 7288   2.298   1.952   1.197
 2130SOL    HW1 7289   2.379   1.936   1.254
 2130SOL    HW2 7290   2.306   2.041   1.152
 2131SOL     OW 7291   5.142   2.097   6.368
 2131SOL    HW1 7292   5.235   2.132   6.359
 2131SOL    HW2 7293   5.136   2.005   6.328
 2132SOL     OW 7294   3.135   1.139   6.531
 2132SOL    HW1 7295   3.225   1.098   6.549
 2132SOL    HW2 7296   3.095   1.171   6.617
 2133SOL     OW 7297   2.570   1.973   1.268
 2133SOL    HW1 7298   2.625   1.990   1.186
 2133SOL    HW2 7299   2.604   2.031   1.343
 2134SOL     OW 7300   0.655   0.477   4.403
 2134SOL    HW1 7301   0.559   0.454   4.388
 2134SOL    HW2 7302   0.667   0.517   4.494
 2135SOL     OW 7303   0.606   2.070   3.673
 2135SOL    HW1 7304   0.681   2.130   3.644
 2135SOL    HW2 7305   0.643   1.980   3.696
 2136SOL     OW 7306   1.177   3.642   4.863
 2136SOL    HW1 7307   1.166   3.704   4.785
 2136SOL    HW2 7308   1.088   3.621   4.902
 2137SOL     OW 7309   0.830   6.803   5.455
 2137SOL    HW1 7310   0.802   6.713   5.424
 2137SOL    HW2 7311   0.789   6.821   5.545
 2138SOL     OW 7312   6.676   2.366   1.622
 2138SOL    HW1 7313   6.658   2.278   1.667
 2138SOL    HW2 7314   6.598   2.390   1.564
 2139SOL     OW 7315   2.962   0.830   3.824
 2139SOL    HW1 7316   2.926   0.843   3.916
 2139SOL    HW2 7317   3.028   0.754   3.824
 2140SOL     OW 7318   2.499   6.349   2.708
 2140SOL    HW1 7319   2.575   6.413   2.718
 2140SOL    HW2 7320   2.504   6.279   2.779
 2141SOL     OW 7321   6.780   2.729   1.191
 2141SOL    HW1 7322   6.783   2.655   1.124
 2141SOL    HW2 7323   6.810   2.694   1.280
 2142SOL     OW 7324   1.616   2.032   3.000
 2142SOL    HW1 7325   1.699   1.978   2.985
 2142SOL    HW2 7326   1.640   2.128   3.013
 2143SOL     OW 7327   3.912   6.246   1.446
 2143SOL    HW1 7328   3.958   6.239   1.357
 2143SOL    HW2 7329   3.981   6.252   1.518
 2144SOL     OW 7330   1.299   0.833   3.066
 2144SOL    HW1 7331   1.284   0.862   3.161
 2144SOL    HW2 7332   1.347   0.905   3.017
 2145SOL     OW 7333   3.403   5.479   3.750
 2145SOL    HW1 7334   3.307   5.469   3.722
 2145SOL    HW2 7335   3.418   5.572   3.786
 2146SOL     OW 7336   3.038   3.945   2.151
 2146SOL    HW1 7337   3.085   4.025   2.114
 2146SOL    HW2 7338   3.040   3.948   2.251
 2147SOL     OW 7339   0.098   1.490   0.055
 2147SOL    HW1 7340   0.171   1.489   7.012
 2147SOL    HW2 7341   0.080   1.584   0.083
 2148SOL     OW 7342   4.929   3.713   3.470
 2148SOL    HW1 7343   4.879   3.648   3.527
 2148SOL    HW2 7344   4.984   3.773   3.528
 2149SOL     OW 7345   3.884   0.285   1.747
 2149SOL    HW1 7346   3.785   0.289   1.733
 2149SOL    HW2 7347   3.916   0.371   1.788
 2150SOL     OW 7348   3.800   2.048   2.750
 2150SOL    HW1 7349   3.891   2.009   2.764
 2150SOL    HW2 7350   3.789   2.073   2.654
 2151SOL     OW 7351   3.543   2.421   5.525
 2151SOL    HW1 7352   3.502   2.468   5.604
 2151SOL    HW2 7353   3.479   2.352   5.491
 2152SOL     OW 7354   5.871   6.233   2.299
 2152SOL    HW1 7355   5.809   6.265   2.227
 2152SOL    HW2 7356   5.953   6.291   2.300
 2153SOL     OW 7357   4.632   1.667   4.183
 2153SOL    HW1 7358   4.609   1.741   4.246
 2153SOL    HW2 7359   4.731   1.658   4.178
 2154SOL     OW 7360   3.215   5.792   4.904
 2154SOL    HW1 7361   3.223   5.768   4.807
 2154SOL    HW2 7362   3.235   5.712   4.960
 2155SOL     OW 7363   1.874   5.048   0.262
 2155SOL    HW1 7364   1.865   5.008   0.172
 2155SOL    HW2 7365   1.933   5.129   0.256
 2156SOL     OW 7366   1.837   0.550   1.244
 2156SOL    HW1 7367   1.821   0.619   1.174
 2156SOL    HW2 7368   1.749   0.513   1.275
 2157SOL     OW 7369   6.628   1.548   4.988
 2157SOL    HW1 7370   6.614   1.484   4.912
 2157SOL    HW2 7371   6.689   1.507   5.055
 2158SOL     OW 7372   3.286   6.653   0.467
 2158SOL    HW1 7373   3.368   6.682   0.515
 2158SOL    HW2 7374   3.236   6.587   0.523
 2159SOL     OW 7375   1.264   6.756   5.235
 2159SOL    HW1 7376   1.186   6.817   5.220
 2159SOL    HW2 7377   1.349   6.805   5.218
 2160SOL     OW 7378   3.858   4.422   1.192
 2160SOL    HW1 7379   3.828   4.359   1.264
 2160SOL    HW2 7380   3.801   4.411   1.111
 2161SOL     OW 7381   4.988   3.382   3.307
 2161SOL    HW1 7382   4.956   3.394   3.400
 2161SOL    HW2 7383   5.034   3.293   3.298
 2162SOL     OW 7384   2.156   0.580   6.739
 2162SOL    HW1 7385   2.074   0.558   6.686
 2162SOL    HW2 7386   2.155   0.677   6.763
 2163SOL     OW 7387   1.423   0.291   6.611
 2163SOL    HW1 7388   1.433   0.366   6.546
 2163SOL    HW2 7389   1.449   0.323   6.702
 2164SOL     OW 7390   2.142   0.491   6.172
 2164SOL    HW1 7391   2.192   0.568   6.211
 2164SOL    HW2 7392   2.118   0.512   6.077
 2165SOL     OW 7393   1.602   1.138   2.812
 2165SOL    HW1 7394   1.589   1.173   2.720
 2165SOL    HW2 7395   1.611   1.038   2.809
 2166SOL     OW 7396   1.530   2.535   5.676
 2166SOL    HW1 7397   1.470   2.458   5.701
 2166SOL    HW2 7398   1.485   2.592   5.607
 2167SOL     OW 7399   2.642   0.801   1.909
 2167SOL    HW1 7400   2.741   0.796   1.916
 2167SOL    HW2 7401   2.607   0.718   1.865
 2168SOL     OW 7402   6.130   3.062   5.433
 2168SOL    HW1 7403   6.159   3.048   5.527
 2168SOL    HW2 7404   6.037   3.100   5.431
 2169SOL     OW 7405   5.651   2.735   6.334
 2169SOL    HW1 7406   5.653   2.698   6.241
 2169SOL    HW2 7407   5.620   2.830   6.331
 2170SOL     OW 7408   5.044   4.541   5.036
 2170SOL    HW1 7409   4.970   4.594   5.078
 2170SOL    HW2 7410   5.109   4.513   5.107
 2171SOL     OW 7411   6.651   2.733   0.345
 2171SOL    HW1 7412   6.613   2.791   0.417
 2171SOL    HW2 7413   6.645   2.638   0.373
 2172SOL     OW 7414   2.884   0.802   0.298
 2172SOL    HW1 7415   2.814   0.811   0.227
 2172SOL    HW2 7416   2.861   0.724   0.357
 2173SOL     OW 7417   4.263   0.457   5.988
 2173SOL    HW1 7418   4.225   0.545   5.959
 2173SOL    HW2 7419   4.255   0.391   5.913
 2174SOL     OW 7420   6.579   4.149   5.569
 2174SOL    HW1 7421   6.621   4.112   5.652
 2174SOL    HW2 7422   6.488   4.184   5.591
 2175SOL     OW 7423   3.215   0.363   2.688
 2175SOL    HW1 7424   3.296   0.414   2.716
 2175SOL    HW2 7425   3.179   0.311   2.766
 2176SOL     OW 7426   1.853   2.194   1.554
 2176SOL    HW1 7427   1.879   2.261   1.624
 2176SOL    HW2 7428   1.832   2.106   1.598
 2177SOL     OW 7429   6.811   1.372   2.089
 2177SOL    HW1 7430   6.862   1.292   2.121
 2177SOL    HW2 7431   6.806   1.370   1.989
 2178SOL     OW 7432   1.004   4.682   0.146
 2178SOL    HW1 7433   1.093   4.683   0.190
 2178SOL    HW2 7434   0.933   4.667   0.215
 2179SOL     OW 7435   1.146   5.912   3.522
 2179SOL    HW1 7436   1.160   5.823   3.477
 2179SOL    HW2 7437   1.088   5.969   3.464
 2180SOL     OW 7438   3.434   3.825   2.883
 2180SOL    HW1 7439   3.447   3.851   2.979
 2180SOL    HW2 7440   3.381   3.896   2.836
 2181SOL     OW 7441   4.898   4.664   5.909
 2181SOL    HW1 7442   4.938   4.574   5.921
 2181SOL    HW2 7443   4.812   4.671   5.960
 2182SOL     OW 7444   0.239   3.462   6.752
 2182SOL    HW1 7445   0.213   3.395   6.683
 2182SOL    HW2 7446   0.283   3.540   6.709
 2183SOL     OW 7447   3.110   3.077   0.629
 2183SOL    HW1 7448   3.205   3.056   0.653
 2183SOL    HW2 7449   3.077   3.009   0.563
 2184SOL     OW 7450   3.877   0.967   6.352
 2184SOL    HW1 7451   3.974   0.973   6.327
 2184SOL    HW2 7452   3.869   0.934   6.446
 2185SOL     OW 7453   1.867   1.058   0.538
 2185SOL    HW1 7454   1.783   1.072   0.486
 2185SOL    HW2 7455   1.846   1.007   0.622
 2186SOL     OW 7456   6.965   4.252   2.544
 2186SOL    HW1 7457   0.001   4.304   2.603
 2186SOL    HW2 7458   6.871   4.259   2.580
 2187SOL     OW 7459   6.875   1.368   1.448
 2187SOL    HW1 7460   6.790   1.367   1.395
 2187SOL    HW2 7461   6.889   1.278   1.490
 2188SOL     OW 7462   5.100   6.370   3.868
 2188SOL    HW1 7463   5.181   6.429   3.873
 2188SOL    HW2 7464   5.109   6.296   3.935
 2189SOL     OW 7465   1.565   6.695   5.763
 2189SOL    HW1 7466   1.564   6.721   5.666
 2189SOL    HW2 7467   1.548   6.775   5.820
 2190SOL     OW 7468   6.618   2.982   1.819
 2190SOL    HW1 7469   6.647   3.037   1.897
 2190SOL    HW2 7470   6.591   3.042   1.744
 2191SOL     OW 7471   3.282   2.646   6.631
 2191SOL    HW1 7472   3.211   2.717   6.628
 2191SOL    HW2 7473   3.366   2.682   6.590
 2192SOL     OW 7474   4.467   6.024   5.292
 2192SOL    HW1 7475   4.510   6.032   5.381
 2192SOL    HW2 7476   4.380   5.975   5.301
 2193SOL     OW 7477   0.364   5.154   5.463
 2193SOL    HW1 7478   0.394   5.116   5.375
 2193SOL    HW2 7479   0.278   5.112   5.490
 2194SOL     OW 7480   2.013   5.758   0.522
 2194SOL    HW1 7481   2.104   5.780   0.558
 2194SOL    HW2 7482   2.013   5.771   0.423
 2195SOL     OW 7483   0.837   6.251   1.870
 2195SOL    HW1 7484   0.904   6.306   1.920
 2195SOL    HW2 7485   0.791   6.309   1.802
 2196SOL     OW 7486   3.668   0.621   5.249
 2196SOL    HW1 7487   3.737   0.566   5.201
 2196SOL    HW2 7488   3.665   0.712   5.208
 2197SOL     OW 7489   4.823   4.634   1.675
 2197SOL    HW1 7490   4.876   4.710   1.637
 2197SOL    HW2 7491   4.853   4.618   1.769
 2198SOL     OW 7492   6.687   3.993   6.664
 2198SOL    HW1 7493   6.673   3.974   6.761
 2198SOL    HW2 7494   6.598   3.997   6.617
 2199SOL     OW 7495   4.737   6.796   0.382
 2199SOL    HW1 7496   4.722   6.869   0.450
 2199SOL    HW2 7497   4.824   6.811   0.335
 2200SOL     OW 7498   4.274   1.056   4.525
 2200SOL    HW1 7499   4.339   1.066   4.449
 2200SOL    HW2 7500   4.305   1.111   4.602
 2201SOL     OW 7501   6.133   3.303   1.943
 2201SOL    HW1 7502   6.038   3.315   1.971
 2201SOL    HW2 7503   6.170   3.392   1.915
 2202SOL     OW 7504   3.972   4.942   4.237
 2202SOL    HW1 7505   3.908   4.920   4.163
 2202SOL    HW2 7506   4.006   5.035   4.226
 2203SOL     OW 7507   3.408   2.038   3.642
 2203SOL    HW1 7508   3.468   2.059   3.565
 2203SOL    HW2 7509   3.451   2.069   3.727
 2204SOL     OW 7510   3.583   1.356   6.747
 2204SOL    HW1 7511   3.545   1.351   6.655
 2204SOL    HW2 7512   3.679   1.383   6.742
 2205SOL     OW 7513   1.461   0.210   0.120
 2205SOL    HW1 7514   1.560   0.223   0.113
 2205SOL    HW2 7515   1.442   0.131   0.178
 2206SOL     OW 7516   3.434   3.437   6.355
 2206SOL    HW1 7517   3.404   3.505   6.287
 2206SOL    HW2 7518   3.509   3.475   6.409
 2207SOL     OW 7519   1.092   4.172   6.277
 2207SOL    HW1 7520   1.149   4.254   6.269
 2207SOL    HW2 7521   1.123   4.116   6.354
 2208SOL     OW 7522   0.162   3.552   1.963
 2208SOL    HW1 7523   0.123   3.469   1.922
 2208SOL    HW2 7524   0.232   3.589   1.902
 2209SOL     OW 7525   1.910   5.883   6.726
 2209SOL    HW1 7526   1.988   5.869   6.665
 2209SOL    HW2 7527   1.828   5.901   6.673
 2210SOL     OW 7528   1.062   5.300   3.372
 2210SOL    HW1 7529   1.110   5.319   3.457
 2210SOL    HW2 7530   1.041   5.202   3.366
 2211SOL     OW 7531   5.956   1.471   5.434
 2211SOL    HW1 7532   6.019   1.546   5.449
 2211SOL    HW2 7533   5.969   1.402   5.505
 2212SOL     OW 7534   0.690   6.985   5.991
 2212SOL    HW1 7535   0.706   0.002   6.080
 2212SOL    HW2 7536   0.593   6.986   5.970
 2213SOL     OW 7537   4.239   2.206   4.162
 2213SOL    HW1 7538   4.275   2.134   4.103
 2213SOL    HW2 7539   4.158   2.173   4.209
 2214SOL     OW 7540   5.098   0.761   4.945
 2214SOL    HW1 7541   5.113   0.735   4.850
 2214SOL    HW2 7542   5.115   0.859   4.956
 2215SOL     OW 7543   6.843   1.495   5.719
 2215SOL    HW1 7544   6.798   1.583   5.705
 2215SOL    HW2 7545   6.921   1.488   5.657
 2216SOL     OW 7546   1.236   6.818   1.122
 2216SOL    HW1 7547   1.263   6.737   1.175
 2216SOL    HW2 7548   1.299   6.893   1.142
 2217SOL     OW 7549   4.104   6.800   0.893
 2217SOL    HW1 7550   4.005   6.813   0.886
 2217SOL    HW2 7551   4.139   6.848   0.974
 2218SOL     OW 7552   1.252   5.827   6.325
 2218SOL    HW1 7553   1.183   5.897   6.306
 2218SOL    HW2 7554   1.301   5.804   6.241
 2219SOL     OW 7555   1.462   3.789   3.511
 2219SOL    HW1 7556   1.537   3.767   3.573
 2219SOL    HW2 7557   1.481   3.876   3.465
 2220SOL     OW 7558   0.612   2.073   5.100
 2220SOL    HW1 7559   0.672   2.096   5.176
 2220SOL    HW2 7560   0.599   1.973   5.097
 2221SOL     OW 7561   6.804   1.971   1.553
 2221SOL    HW1 7562   6.809   1.874   1.528
 2221SOL    HW2 7563   6.844   1.984   1.644
 2222SOL     OW 7564   4.452   0.149   1.883
 2222SOL    HW1 7565   4.506   0.101   1.814
 2222SOL    HW2 7566   4.488   0.241   1.896
 2223SOL     OW 7567   5.925   4.974   3.709
 2223SOL    HW1 7568   5.956   4.932   3.624
 2223SOL    HW2 7569   5.828   4.996   3.703
 2224SOL     OW 7570   1.837   5.153   1.589
 2224SOL    HW1 7571   1.910   5.092   1.561
 2224SOL    HW2 7572   1.804   5.204   1.509
 2225SOL     OW 7573   6.367   4.787   2.445
 2225SOL    HW1 7574   6.379   4.876   2.490
 2225SOL    HW2 7575   6.433   4.779   2.371
 2226SOL     OW 7576   3.804   2.813   1.424
 2226SOL    HW1 7577   3.891   2.787   1.383
 2226SOL    HW2 7578   3.818   2.885   1.491
 2227SOL     OW 7579   6.512   4.135   6.173
 2227SOL    HW1 7580   6.447   4.174   6.108
 2227SOL    HW2 7581   6.480   4.046   6.203
 2228SOL     OW 7582   2.988   4.783   6.773
 2228SOL    HW1 7583   2.957   4.780   6.677
 2228SOL    HW2 7584   3.055   4.856   6.784
 2229SOL     OW 7585   4.714   1.195   3.878
 2229SOL    HW1 7586   4.747   1.289   3.883
 2229SOL    HW2 7587   4.636   1.184   3.941
 2230SOL     OW 7588   1.399   5.294   4.335
 2230SOL    HW1 7589   1.317   5.260   4.289
 2230SOL    HW2 7590   1.480   5.256   4.289
 2231SOL     OW 7591   1.846   1.073   2.112
 2231SOL    HW1 7592   1.933   1.025   2.101
 2231SOL    HW2 7593   1.861   1.172   2.105
 2232SOL     OW 7594   0.133   3.236   2.745
 2232SOL    HW1 7595   0.135   3.334   2.727
 2232SOL    HW2 7596   0.040   3.202   2.730
 2233SOL     OW 7597   3.568   5.454   0.428
 2233SOL    HW1 7598   3.540   5.390   0.356
 2233SOL    HW2 7599   3.510   5.536   0.423
 2234SOL     OW 7600   3.773   1.956   0.806
 2234SOL    HW1 7601   3.713   1.877   0.796
 2234SOL    HW2 7602   3.746   2.027   0.741
 2235SOL     OW 7603   1.199   0.186   0.021
 2235SOL    HW1 7604   1.185   0.088   0.007
 2235SOL    HW2 7605   1.278   0.200   0.080
 2236SOL     OW 7606   0.626   4.302   0.993
 2236SOL    HW1 7607   0.719   4.334   0.976
 2236SOL    HW2 7608   0.602   4.233   0.924
 2237SOL     OW 7609   6.845   3.188   4.887
 2237SOL    HW1 7610   6.762   3.152   4.845
 2237SOL    HW2 7611   6.832   3.285   4.909
 2238SOL     OW 7612   0.190   5.454   2.100
 2238SOL    HW1 7613   0.230   5.530   2.049
 2238SOL    HW2 7614   0.214   5.462   2.197
 2239SOL     OW 7615   4.159   4.720   3.525
 2239SOL    HW1 7616   4.146   4.621   3.528
 2239SOL    HW2 7617   4.256   4.742   3.537
 2240SOL     OW 7618   6.672   5.029   3.672
 2240SOL    HW1 7619   6.581   4.990   3.656
 2240SOL    HW2 7620   6.725   5.025   3.587
 2241SOL     OW 7621   0.103   6.042   2.265
 2241SOL    HW1 7622   0.132   5.996   2.349
 2241SOL    HW2 7623   0.137   6.136   2.264
 2242SOL     OW 7624   4.718   1.804   3.382
 2242SOL    HW1 7625   4.743   1.899   3.364
 2242SOL    HW2 7626   4.648   1.775   3.317
 2243SOL     OW 7627   2.481   6.219   4.497
 2243SOL    HW1 7628   2.466   6.121   4.510
 2243SOL    HW2 7629   2.565   6.246   4.544
 2244SOL     OW 7630   3.479   0.680   4.402
 2244SOL    HW1 7631   3.444   0.699   4.494
 2244SOL    HW2 7632   3.563   0.731   4.387
 2245SOL     OW 7633   6.899   2.211   2.595
 2245SOL    HW1 7634   6.989   2.189   2.634
 2245SOL    HW2 7635   6.905   2.297   2.545
 2246SOL     OW 7636   1.509   3.609   5.907
 2246SOL    HW1 7637   1.504   3.605   5.807
 2246SOL    HW2 7638   1.589   3.663   5.934
 2247SOL     OW 7639   2.213   2.098   5.379
 2247SOL    HW1 7640   2.270   2.140   5.308
 2247SOL    HW2 7641   2.120   2.133   5.371
 2248SOL     OW 7642   4.613   4.019   5.377
 2248SOL    HW1 7643   4.690   3.967   5.340
 2248SOL    HW2 7644   4.648   4.089   5.439
 2249SOL     OW 7645   5.302   6.078   3.041
 2249SOL    HW1 7646   5.330   6.151   2.979
 2249SOL    HW2 7647   5.345   6.090   3.130
 2250SOL     OW 7648   5.775   3.587   1.487
 2250SOL    HW1 7649   5.706   3.649   1.448
 2250SOL    HW2 7650   5.739   3.494   1.488
 2251SOL     OW 7651   5.903   1.849   0.079
 2251SOL    HW1 7652   5.821   1.901   0.101
 2251SOL    HW2 7653   5.899   1.759   0.124
 2252SOL     OW 7654   5.327   2.679   5.541
 2252SOL    HW1 7655   5.352   2.640   5.630
 2252SOL    HW2 7656   5.399   2.661   5.475
 2253SOL     OW 7657   2.736   3.024   6.836
 2253SOL    HW1 7658   2.820   3.062   6.797
 2253SOL    HW2 7659   2.736   3.036   6.935
 2254SOL     OW 7660   1.953   3.611   6.019
 2254SOL    HW1 7661   1.933   3.583   6.113
 2254SOL    HW2 7662   1.924   3.540   5.956
 2255SOL     OW 7663   6.230   2.815   1.958
 2255SOL    HW1 7664   6.140   2.819   1.914
 2255SOL    HW2 7665   6.276   2.904   1.948
 2256SOL     OW 7666   4.050   4.862   2.284
 2256SOL    HW1 7667   3.973   4.842   2.223
 2256SOL    HW2 7668   4.048   4.959   2.309
 2257SOL     OW 7669   1.588   3.813   4.601
 2257SOL    HW1 7670   1.617   3.726   4.562
 2257SOL    HW2 7671   1.617   3.888   4.540
 2258SOL     OW 7672   1.989   5.291   5.284
 2258SOL    HW1 7673   1.906   5.247   5.250
 2258SOL    HW2 7674   2.023   5.242   5.364
 2259SOL     OW 7675   5.748   3.922   6.402
 2259SOL    HW1 7676   5.780   4.006   6.359
 2259SOL    HW2 7677   5.712   3.942   6.493
 2260SOL     OW 7678   4.467   5.167   2.041
 2260SOL    HW1 7679   4.451   5.074   2.006
 2260SOL    HW2 7680   4.455   5.232   1.966
 2261SOL     OW 7681   5.268   6.464   0.936
 2261SOL    HW1 7682   5.230   6.498   0.850
 2261SOL    HW2 7683   5.303   6.371   0.922
 2262SOL     OW 7684   5.226   2.590   4.167
 2262SOL    HW1 7685   5.281   2.517   4.128
 2262SOL    HW2 7686   5.282   2.672   4.180
 2263SOL     OW 7687   1.465   5.590   5.563
 2263SOL    HW1 7688   1.439   5.638   5.647
 2263SOL    HW2 7689   1.411   5.506   5.554
 2264SOL     OW 7690   2.942   3.707   3.041
 2264SOL    HW1 7691   2.936   3.652   3.124
 2264SOL    HW2 7692   3.037   3.733   3.025
 2265SOL     OW 7693   0.057   0.864   2.110
 2265SOL    HW1 7694   0.092   0.888   2.019
 2265SOL    HW2 7695   0.051   0.764   2.118
 2266SOL     OW 7696   6.165   0.653   0.960
 2266SOL    HW1 7697   6.132   0.737   1.003
 2266SOL    HW2 7698   6.262   0.640   0.982
 2267SOL     OW 7699   5.957   2.374   5.033
 2267SOL    HW1 7700   5.994   2.289   5.069
 2267SOL    HW2 7701   6.032   2.438   5.014
 2268SOL     OW 7702   0.021   6.390   0.430
 2268SOL    HW1 7703   6.986   6.469   0.442
 2268SOL    HW2 7704   0.042   6.378   0.333
 2269SOL     OW 7705   6.816   6.014   6.205
 2269SOL    HW1 7706   6.813   6.077   6.282
 2269SOL    HW2 7707   6.794   6.063   6.120
 2270SOL     OW 7708   2.841   3.320   1.961
 2270SOL    HW1 7709   2.798   3.231   1.979
 2270SOL    HW2 7710   2.913   3.309   1.893
 2271SOL     OW 7711   5.674   4.586   1.589
 2271SOL    HW1 7712   5.758   4.531   1.592
 2271SOL    HW2 7713   5.685   4.659   1.523
 2272SOL     OW 7714   5.374   2.009   5.576
 2272SOL    HW1 7715   5.282   2.015   5.538
 2272SOL    HW2 7716   5.407   1.915   5.567
 2273SOL     OW 7717   0.545   0.712   3.555
 2273SOL    HW1 7718   0.641   0.742   3.556
 2273SOL    HW2 7719   0.496   0.762   3.484
 2274SOL     OW 7720   1.442   3.894   5.059
 2274SOL    HW1 7721   1.516   3.896   4.992
 2274SOL    HW2 7722   1.402   3.803   5.063
 2275SOL     OW 7723   5.239   5.717   4.751
 2275SOL    HW1 7724   5.328   5.735   4.709
 2275SOL    HW2 7725   5.224   5.618   4.754
 2276SOL     OW 7726   4.185   4.065   0.749
 2276SOL    HW1 7727   4.147   4.134   0.687
 2276SOL    HW2 7728   4.281   4.086   0.767
 2277SOL     OW 7729   3.067   3.121   6.072
 2277SOL    HW1 7730   2.975   3.087   6.085
 2277SOL    HW2 7731   3.116   3.064   6.006
 2278SOL     OW 7732   5.653   6.419   2.479
 2278SOL    HW1 7733   5.620   6.417   2.384
 2278SOL    HW2 7734   5.683   6.328   2.506
 2279SOL     OW 7735   5.723   3.336   4.987
 2279SOL    HW1 7736   5.819   3.361   4.998
 2279SOL    HW2 7737   5.691   3.367   4.897
 2280SOL     OW 7738   6.764   6.341   5.333
 2280SOL    HW1 7739   6.848   6.331   5.280
 2280SOL    HW2 7740   6.698   6.397   5.283
 2281SOL     OW 7741   3.750   2.063   1.765
 2281SOL    HW1 7742   3.684   1.989   1.778
 2281SOL    HW2 7743   3.712   2.148   1.803
 2282SOL     OW 7744   4.280   5.711   3.857
 2282SOL    HW1 7745   4.248   5.616   3.853
 2282SOL    HW2 7746   4.299   5.735   3.952
 2283SOL     OW 7747   6.778   3.934   3.526
 2283SOL    HW1 7748   6.827   3.929   3.439
 2283SOL    HW2 7749   6.693   3.882   3.519
 2284SOL     OW 7750   2.405   2.366   1.572
 2284SOL    HW1 7751   2.452   2.277   1.571
 2284SOL    HW2 7752   2.466   2.436   1.534
 2285SOL     OW 7753   1.508   3.598   0.193
 2285SOL    HW1 7754   1.512   3.687   0.148
 2285SOL    HW2 7755   1.529   3.608   0.290
 2286SOL     OW 7756   6.527   5.647   4.641
 2286SOL    HW1 7757   6.513   5.590   4.723
 2286SOL    HW2 7758   6.577   5.594   4.572
 2287SOL     OW 7759   2.557   2.524   1.072
 2287SOL    HW1 7760   2.651   2.542   1.103
 2287SOL    HW2 7761   2.516   2.609   1.041
 2288SOL     OW 7762   0.472   6.704   3.076
 2288SOL    HW1 7763   0.553   6.647   3.094
 2288SOL    HW2 7764   0.428   6.728   3.162
 2289SOL     OW 7765   5.682   1.497   2.344
 2289SOL    HW1 7766   5.652   1.577   2.292
 2289SOL    HW2 7767   5.603   1.441   2.368
 2290SOL     OW 7768   2.964   3.893   3.392
 2290SOL    HW1 7769   2.962   3.869   3.295
 2290SOL    HW2 7770   2.973   3.810   3.447
 2291SOL     OW 7771   1.939   2.007   1.070
 2291SOL    HW1 7772   1.941   2.102   1.101
 2291SOL    HW2 7773   1.874   1.955   1.126
 2292SOL     OW 7774   4.734   2.119   3.683
 2292SOL    HW1 7775   4.801   2.057   3.723
 2292SOL    HW2 7776   4.642   2.082   3.696
 2293SOL     OW 7777   5.327   1.177   0.776
 2293SOL    HW1 7778   5.245   1.226   0.747
 2293SOL    HW2 7779   5.376   1.143   0.696
 2294SOL     OW 7780   1.439   2.557   6.094
 2294SOL    HW1 7781   1.498   2.600   6.025
 2294SOL    HW2 7782   1.474   2.579   6.185
 2295SOL     OW 7783   6.732   0.183   1.779
 2295SOL    HW1 7784   6.693   0.168   1.869
 2295SOL    HW2 7785   6.664   0.229   1.721
 2296SOL     OW 7786   2.409   5.013   3.230
 2296SOL    HW1 7787   2.379   4.964   3.147
 2296SOL    HW2 7788   2.332   5.067   3.266
 2297SOL     OW 7789   4.960   4.878   5.746
 2297SOL    HW1 7790   5.025   4.821   5.797
 2297SOL    HW2 7791   4.883   4.901   5.805
 2298SOL     OW 7792   3.840   3.028   4.824
 2298SOL    HW1 7793   3.912   3.009   4.891
 2298SOL    HW2 7794   3.877   3.087   4.752
 2299SOL     OW 7795   5.290   3.373   5.132
 2299SOL    HW1 7796   5.340   3.459   5.145
 2299SOL    HW2 7797   5.192   3.392   5.128
 2300SOL     OW 7798   3.878   0.065   3.264
 2300SOL    HW1 7799   3.855   0.043   3.358
 2300SOL    HW2 7800   3.962   0.017   3.237
 2301SOL     OW 7801   3.040   3.116   4.228
 2301SOL    HW1 7802   2.973   3.051   4.262
 2301SOL    HW2 7803   2.994   3.188   4.175
 2302SOL     OW 7804   4.140   1.421   0.380
 2302SOL    HW1 7805   4.222   1.368   0.399
 2302SOL    HW2 7806   4.136   1.444   0.283
 2303SOL     OW 7807   2.884   2.825   0.798
 2303SOL    HW1 7808   2.901   2.923   0.790
 2303SOL    HW2 7809   2.791   2.810   0.832
 2304SOL     OW 7810   6.719   5.977   3.027
 2304SOL    HW1 7811   6.749   6.000   2.934
 2304SOL    HW2 7812   6.621   5.958   3.026
 2305SOL     OW 7813   1.565   1.186   4.718
 2305SOL    HW1 7814   1.516   1.110   4.760
 2305SOL    HW2 7815   1.499   1.252   4.682
 2306SOL     OW 7816   1.944   4.910   3.726
 2306SOL    HW1 7817   1.904   4.922   3.818
 2306SOL    HW2 7818   2.005   4.831   3.726
 2307SOL     OW 7819   1.596   2.891   5.698
 2307SOL    HW1 7820   1.596   2.825   5.774
 2307SOL    HW2 7821   1.556   2.848   5.617
 2308SOL     OW 7822   2.193   4.506   1.330
 2308SOL    HW1 7823   2.180   4.412   1.297
 2308SOL    HW2 7824   2.221   4.504   1.426
 2309SOL     OW 7825   1.466   6.844   4.524
 2309SOL    HW1 7826   1.386   6.798   4.486
 2309SOL    HW2 7827   1.546   6.784   4.515
 2310SOL     OW 7828   4.452   6.652   1.802
 2310SOL    HW1 7829   4.464   6.650   1.901
 2310SOL    HW2 7830   4.523   6.597   1.758
 2311SOL     OW 7831   2.707   6.017   0.462
 2311SOL    HW1 7832   2.724   5.934   0.409
 2311SOL    HW2 7833   2.783   6.081   0.449
 2312SOL     OW 7834   3.562   6.066   2.548
 2312SOL    HW1 7835   3.625   6.052   2.624
 2312SOL    HW2 7836   3.486   6.001   2.555
 2313SOL     OW 7837   4.868   4.978   2.726
 2313SOL    HW1 7838   4.836   4.941   2.813
 2313SOL    HW2 7839   4.948   5.035   2.743
 2314SOL     OW 7840   2.975   5.361   3.105
 2314SOL    HW1 7841   2.927   5.338   3.190
 2314SOL    HW2 7842   3.043   5.432   3.123
 2315SOL     OW 7843   4.535   3.122   6.206
 2315SOL    HW1 7844   4.472   3.190   6.242
 2315SOL    HW2 7845   4.486   3.036   6.190
 2316SOL     OW 7846   5.772   2.726   3.170
 2316SOL    HW1 7847   5.683   2.729   3.124
 2316SOL    HW2 7848   5.774   2.794   3.244
 2317SOL     OW 7849   1.622   4.556   2.766
 2317SOL    HW1 7850   1.658   4.576   2.857
 2317SOL    HW2 7851   1.524   4.578   2.763
 2318SOL     OW 7852   0.328   1.540   2.997
 2318SOL    HW1 7853   0.244   1.507   2.953
 2318SOL    HW2 7854   0.404   1.482   2.969
 2319SOL     OW 7855   1.843   4.766   4.932
 2319SOL    HW1 7856   1.862   4.854   4.975
 2319SOL    HW2 7857   1.928   4.713   4.925
 2320SOL     OW 7858   0.111   2.466   4.057
 2320SOL    HW1 7859   0.135   2.449   3.961
 2320SOL    HW2 7860   0.012   2.459   4.068
 2321SOL     OW 7861   2.846   6.781   4.403
 2321SOL    HW1 7862   2.771   6.842   4.378
 2321SOL    HW2 7863   2.878   6.731   4.322
 2322SOL     OW 7864   1.348   1.149   5.348
 2322SOL    HW1 7865   1.288   1.069   5.350
 2322SOL    HW2 7866   1.372   1.175   5.442
 2323SOL     OW 7867   4.561   5.368   2.877
 2323SOL    HW1 7868   4.602   5.368   2.968
 2323SOL    HW2 7869   4.615   5.310   2.816
 2324SOL     OW 7870   0.846   5.924   2.746
 2324SOL    HW1 7871   0.823   5.892   2.654
 2324SOL    HW2 7872   0.865   5.846   2.804
 2325SOL     OW 7873   1.235   4.161   1.114
 2325SOL    HW1 7874   1.223   4.215   1.198
 2325SOL    HW2 7875   1.295   4.211   1.051
 2326SOL     OW 7876   1.557   5.257   6.854
 2326SOL    HW1 7877   1.477   5.228   6.801
 2326SOL    HW2 7878   1.640   5.217   6.814
 2327SOL     OW 7879   4.771   2.617   4.175
 2327SOL    HW1 7880   4.699   2.578   4.118
 2327SOL    HW2 7881   4.861   2.586   4.142
 2328SOL     OW 7882   4.612   1.356   3.344
 2328SOL    HW1 7883   4.665   1.403   3.415
 2328SOL    HW2 7884   4.519   1.342   3.376
 2329SOL     OW 7885   1.290   5.659   3.872
 2329SOL    HW1 7886   1.303   5.630   3.967
 2329SOL    HW2 7887   1.250   5.750   3.869
 2330SOL     OW 7888   0.821   4.539   2.280
 2330SOL    HW1 7889   0.852   4.623   2.235
 2330SOL    HW2 7890   0.899   4.490   2.319
 2331SOL     OW 7891   0.446   3.997   5.420
 2331SOL    HW1 7892   0.510   3.962   5.351
 2331SOL    HW2 7893   0.390   4.069   5.380
 2332SOL     OW 7894   5.606   2.366   5.787
 2332SOL    HW1 7895   5.562   2.408   5.866
 2332SOL    HW2 7896   5.598   2.427   5.708
 2333SOL     OW 7897   1.401   5.186   3.253
 2333SOL    HW1 7898   1.430   5.240   3.174
 2333SOL    HW2 7899   1.477   5.180   3.318
 2334SOL     OW 7900   3.181   0.060   6.724
 2334SOL    HW1 7901   3.119   0.069   6.802
 2334SOL    HW2 7902   3.249   0.134   6.726
 2335SOL     OW 7903   5.107   6.923   3.248
 2335SOL    HW1 7904   5.027   6.911   3.189
 2335SOL    HW2 7905   5.099   7.009   3.298
 2336SOL     OW 7906   5.017   0.848   6.209
 2336SOL    HW1 7907   4.926   0.871   6.245
 2336SOL    HW2 7908   5.010   0.831   6.111
 2337SOL     OW 7909   5.435   0.217   3.182
 2337SOL    HW1 7910   5.355   0.187   3.130
 2337SOL    HW2 7911   5.518   0.180   3.140
 2338SOL     OW 7912   0.116   6.886   6.838
 2338SOL    HW1 7913   0.079   6.940   6.763
 2338SOL    HW2 7914   0.074   6.916   6.924
 2339SOL     OW 7915   3.819   4.731   6.374
 2339SOL    HW1 7916   3.864   4.756   6.460
 2339SOL    HW2 7917   3.767   4.809   6.339
 2340SOL     OW 7918   3.646   5.631   4.691
 2340SOL    HW1 7919   3.580   5.647   4.765
 2340SOL    HW2 7920   3.705   5.711   4.682
 2341SOL     OW 7921   5.788   5.229   0.895
 2341SOL    HW1 7922   5.741   5.165   0.955
 2341SOL    HW2 7923   5.731   5.310   0.880
 2342SOL     OW 7924   6.707   0.522   4.801
 2342SOL    HW1 7925   6.704   0.549   4.897
 2342SOL    HW2 7926   6.781   0.456   4.787
 2343SOL     OW 7927   1.164   5.509   1.376
 2343SOL    HW1 7928   1.219   5.565   1.314
 2343SOL    HW2 7929   1.148   5.560   1.461
 2344SOL     OW 7930   2.266   2.186   2.574
 2344SOL    HW1 7931   2.336   2.166   2.505
 2344SOL    HW2 7932   2.308   2.188   2.664
 2345SOL     OW 7933   1.558   0.529   4.480
 2345SOL    HW1 7934   1.470   0.509   4.523
 2345SOL    HW2 7935   1.567   0.628   4.468
 2346SOL     OW 7936   5.098   3.504   5.981
 2346SOL    HW1 7937   5.100   3.568   6.058
 2346SOL    HW2 7938   5.184   3.453   5.978
 2347SOL     OW 7939   1.562   3.217   1.801
 2347SOL    HW1 7940   1.473   3.209   1.756
 2347SOL    HW2 7941   1.598   3.309   1.787
 2348SOL     OW 7942   3.136   6.152   2.869
 2348SOL    HW1 7943   3.173   6.190   2.784
 2348SOL    HW2 7944   3.038   6.171   2.875
 2349SOL     OW 7945   0.072   6.666   6.057
 2349SOL    HW1 7946   0.018   6.698   5.979
 2349SOL    HW2 7947   0.141   6.601   6.026
 2350SOL     OW 7948   2.852   0.344   5.665
 2350SOL    HW1 7949   2.952   0.346   5.662
 2350SOL    HW2 7950   2.817   0.435   5.642
 2351SOL     OW 7951   2.606   4.831   3.625
 2351SOL    HW1 7952   2.669   4.805   3.698
 2351SOL    HW2 7953   2.537   4.895   3.660
 2352SOL     OW 7954   0.156   4.220   3.196
 2352SOL    HW1 7955   0.065   4.197   3.230
 2352SOL    HW2 7956   0.223   4.158   3.236
 2353SOL     OW 7957   2.824   4.435   5.675
 2353SOL    HW1 7958   2.743   4.375   5.673
 2353SOL    HW2 7959   2.800   4.521   5.720
 2354SOL     OW 7960   3.674   2.161   0.656
 2354SOL    HW1 7961   3.626   2.242   0.691
 2354SOL    HW2 7962   3.722   2.185   0.571
 2355SOL     OW 7963   0.397   6.497   0.198
 2355SOL    HW1 7964   0.359   6.551   0.273
 2355SOL    HW2 7965   0.489   6.467   0.222
 2356SOL     OW 7966   2.505   4.938   2.729
 2356SOL    HW1 7967   2.414   4.917   2.694
 2356SOL    HW2 7968   2.573   4.918   2.658
 2357SOL     OW 7969   5.604   4.408   2.151
 2357SOL    HW1 7970   5.523   4.440   2.201
 2357SOL    HW2 7971   5.625   4.473   2.077
 2358SOL     OW 7972   4.019   0.348   5.788
 2358SOL    HW1 7973   3.956   0.405   5.734
 2358SOL    HW2 7974   4.113   0.378   5.771
 2359SOL     OW 7975   2.451   1.693   5.287
 2359SOL    HW1 7976   2.433   1.687   5.386
 2359SOL    HW2 7977   2.403   1.772   5.249
 2360SOL     OW 7978   4.206   4.888   1.099
 2360SOL    HW1 7979   4.150   4.808   1.077
 2360SOL    HW2 7980   4.247   4.924   1.015
 2361SOL     OW 7981   3.420   6.602   2.398
 2361SOL    HW1 7982   3.431   6.578   2.301
 2361SOL    HW2 7983   3.407   6.700   2.407
 2362SOL     OW 7984   4.896   5.575   4.707
 2362SOL    HW1 7985   4.857   5.652   4.757
 2362SOL    HW2 7986   4.869   5.579   4.611
 2363SOL     OW 7987   3.230   3.396   6.999
 2363SOL    HW1 7988   3.260   3.325   6.935
 2363SOL    HW2 7989   3.150   3.363   0.024
 2364SOL     OW 7990   4.763   1.605   2.078
 2364SOL    HW1 7991   4.772   1.537   2.151
 2364SOL    HW2 7992   4.666   1.628   2.065
 2365SOL     OW 7993   5.300   3.114   4.030
 2365SOL    HW1 7994   5.346   3.189   3.982
 2365SOL    HW2 7995   5.266   3.147   4.118
 2366SOL     OW 7996   2.382   3.891   5.588
 2366SOL    HW1 7997   2.420   3.942   5.511
 2366SOL    HW2 7998   2.284   3.908   5.594
 2367SOL     OW 7999   0.779   3.643   6.369
 2367SOL    HW1 8000   0.859   3.644   6.310
 2367SOL    HW2 8001   0.696   3.646   6.313
 2368SOL     OW 8002   5.390   0.543   4.223
 2368SOL    HW1 8003   5.362   0.561   4.128
 2368SOL    HW2 8004   5.316   0.496   4.271
 2369SOL     OW 8005   3.039   1.550   3.732
 2369SOL    HW1 8006   3.081   1.627   3.780
 2369SOL    HW2 8007   3.072   1.464   3.772
 2370SOL     OW 8008   5.229   2.908   1.027
 2370SOL    HW1 8009   5.288   2.939   1.102
 2370SOL    HW2 8010   5.144   2.872   1.065
 2371SOL     OW 8011   1.123   6.589   3.077
 2371SOL    HW1 8012   1.123   6.489   3.079
 2371SOL    HW2 8013   1.108   6.620   2.983
 2372SOL     OW 8014   6.484   1.398   5.566
 2372SOL    HW1 8015   6.473   1.491   5.600
 2372SOL    HW2 8016   6.551   1.350   5.624
 2373SOL     OW 8017   6.305   0.624   6.414
 2373SOL    HW1 8018   6.257   0.653   6.332
 2373SOL    HW2 8019   6.393   0.582   6.388
 2374SOL     OW 8020   6.204   5.983   3.063
 2374SOL    HW1 8021   6.250   5.924   3.130
 2374SOL    HW2 8022   6.212   6.078   3.093
 2375SOL     OW 8023   0.966   0.331   3.934
 2375SOL    HW1 8024   0.969   0.425   3.968
 2375SOL    HW2 8025   0.958   0.332   3.834
 2376SOL     OW 8026   6.420   2.507   3.382
 2376SOL    HW1 8027   6.325   2.486   3.406
 2376SOL    HW2 8028   6.443   2.462   3.295
 2377SOL     OW 8029   4.223   4.972   6.157
 2377SOL    HW1 8030   4.133   5.014   6.162
 2377SOL    HW2 8031   4.233   4.925   6.069
 2378SOL     OW 8032   6.095   1.909   0.719
 2378SOL    HW1 8033   6.189   1.911   0.683
 2378SOL    HW2 8034   6.032   1.940   0.648
 2379SOL     OW 8035   6.999   5.280   0.298
 2379SOL    HW1 8036   0.069   5.264   0.325
 2379SOL    HW2 8037   6.963   5.357   0.351
 2380SOL     OW 8038   5.675   3.332   5.628
 2380SOL    HW1 8039   5.637   3.245   5.597
 2380SOL    HW2 8040   5.731   3.371   5.555
 2381SOL     OW 8041   2.435   4.752   5.243
 2381SOL    HW1 8042   2.341   4.719   5.248
 2381SOL    HW2 8043   2.448   4.828   5.306
 2382SOL     OW 8044   1.517   5.870   2.544
 2382SOL    HW1 8045   1.547   5.903   2.634
 2382SOL    HW2 8046   1.492   5.948   2.486
 2383SOL     OW 8047   5.473   5.915   5.677
 2383SOL    HW1 8048   5.448   5.841   5.614
 2383SOL    HW2 8049   5.434   6.001   5.644
 2384SOL     OW 8050   0.879   1.979   1.626
 2384SOL    HW1 8051   0.809   1.909   1.614
 2384SOL    HW2 8052   0.959   1.956   1.570
 2385SOL     OW 8053   0.477   1.771   0.242
 2385SOL    HW1 8054   0.462   1.860   0.286
 2385SOL    HW2 8055   0.557   1.776   0.183
 2386SOL     OW 8056   3.406   5.445   4.292
 2386SOL    HW1 8057   3.428   5.439   4.194
 2386SOL    HW2 8058   3.309   5.424   4.306
 2387SOL     OW 8059   0.992   2.519   3.445
 2387SOL    HW1 8060   0.939   2.454   3.391
 2387SOL    HW2 8061   1.046   2.470   3.514
 2388SOL     OW 8062   0.054   2.161   6.329
 2388SOL    HW1 8063   6.988   2.169   6.369
 2388SOL    HW2 8064   0.122   2.154   6.403
 2389SOL     OW 8065   5.286   4.985   4.176
 2389SOL    HW1 8066   5.198   5.016   4.140
 2389SOL    HW2 8067   5.340   4.944   4.103
 2390SOL     OW 8068   4.613   3.482   6.127
 2390SOL    HW1 8069   4.582   3.410   6.065
 2390SOL    HW2 8070   4.603   3.452   6.222
 2391SOL     OW 8071   3.637   3.787   6.263
 2391SOL    HW1 8072   3.655   3.708   6.321
 2391SOL    HW2 8073   3.626   3.757   6.168
 2392SOL     OW 8074   3.138   5.384   5.655
 2392SOL    HW1 8075   3.149   5.419   5.748
 2392SOL    HW2 8076   3.043   5.394   5.626
 2393SOL     OW 8077   3.747   5.357   1.333
 2393SOL    HW1 8078   3.751   5.317   1.424
 2393SOL    HW2 8079   3.838   5.390   1.308
 2394SOL     OW 8080   6.997   3.486   3.390
 2394SOL    HW1 8081   0.004   3.575   3.356
 2394SOL    HW2 8082   0.038   3.415   3.366
 2395SOL     OW 8083   0.378   3.093   6.556
 2395SOL    HW1 8084   0.477   3.089   6.547
 2395SOL    HW2 8085   0.349   3.188   6.566
 2396SOL     OW 8086   5.460   0.648   4.815
 2396SOL    HW1 8087   5.559   0.655   4.803
 2396SOL    HW2 8088   5.429   0.559   4.783
 2397SOL     OW 8089   0.810   5.094   5.420
 2397SOL    HW1 8090   0.812   5.043   5.334
 2397SOL    HW2 8091   0.742   5.167   5.414
 2398SOL     OW 8092   2.867   5.312   3.376
 2398SOL    HW1 8093   2.848   5.405   3.407
 2398SOL    HW2 8094   2.782   5.268   3.347
 2399SOL     OW 8095   2.588   2.361   3.779
 2399SOL    HW1 8096   2.623   2.273   3.811
 2399SOL    HW2 8097   2.588   2.427   3.854
 2400SOL     OW 8098   1.975   3.829   0.245
 2400SOL    HW1 8099   1.987   3.738   0.205
 2400SOL    HW2 8100   2.032   3.894   0.195
 2401SOL     OW 8101   3.507   0.086   4.720
 2401SOL    HW1 8102   3.425   0.029   4.724
 2401SOL    HW2 8103   3.588   0.027   4.714
 2402SOL     OW 8104   0.777   2.156   2.679
 2402SOL    HW1 8105   0.711   2.231   2.683
 2402SOL    HW2 8106   0.729   2.071   2.656
 2403SOL     OW 8107   3.988   3.309   1.540
 2403SOL    HW1 8108   3.989   3.394   1.487
 2403SOL    HW2 8109   4.078   3.265   1.534
 2404SOL     OW 8110   6.687   1.333   1.203
 2404SOL    HW1 8111   6.668   1.301   1.110
 2404SOL    HW2 8112   6.617   1.400   1.229
 2405SOL     OW 8113   2.619   4.726   6.813
 2405SOL    HW1 8114   2.689   4.662   6.781
 2405SOL    HW2 8115   2.602   4.711   6.910
 2406SOL     OW 8116   1.716   0.549   3.917
 2406SOL    HW1 8117   1.688   0.632   3.966
 2406SOL    HW2 8118   1.816   0.546   3.910
 2407SOL     OW 8119   3.998   2.115   3.403
 2407SOL    HW1 8120   4.029   2.023   3.378
 2407SOL    HW2 8121   4.067   2.182   3.375
 2408SOL     OW 8122   2.319   5.885   3.703
 2408SOL    HW1 8123   2.275   5.961   3.655
 2408SOL    HW2 8124   2.304   5.800   3.653
 2409SOL     OW 8125   2.527   2.782   0.991
 2409SOL    HW1 8126   2.591   2.846   1.033
 2409SOL    HW2 8127   2.452   2.832   0.948
 2410SOL     OW 8128   5.883   3.324   5.882
 2410SOL    HW1 8129   5.784   3.336   5.888
 2410SOL    HW2 8130   5.922   3.392   5.819
 2411SOL     OW 8131   2.896   4.059   6.502
 2411SOL    HW1 8132   2.877   4.146   6.455
 2411SOL    HW2 8133   2.919   4.077   6.597
 2412SOL     OW 8134   3.106   2.846   6.687
 2412SOL    HW1 8135   3.162   2.928   6.675
 2412SOL    HW2 8136   3.027   2.851   6.626
 2413SOL     OW 8137   6.881   3.459   6.027
 2413SOL    HW1 8138   6.828   3.380   6.059
 2413SOL    HW2 8139   6.927   3.503   6.104
 2414SOL     OW 8140   5.431   2.843   4.138
 2414SOL    HW1 8141   5.530   2.842   4.127
 2414SOL    HW2 8142   5.396   2.934   4.119
 2415SOL     OW 8143   2.285   6.710   1.175
 2415SOL    HW1 8144   2.375   6.669   1.164
 2415SOL    HW2 8145   2.216   6.654   1.128
 2416SOL     OW 8146   0.412   3.291   2.847
 2416SOL    HW1 8147   0.326   3.241   2.857
 2416SOL    HW2 8148   0.393   3.388   2.833
 2417SOL     OW 8149   4.800   2.555   6.760
 2417SOL    HW1 8150   4.745   2.495   6.701
 2417SOL    HW2 8151   4.875   2.501   6.800
 2418SOL     OW 8152   4.091   4.215   5.246
 2418SOL    HW1 8153   4.164   4.258   5.192
 2418SOL    HW2 8154   4.010   4.203   5.188
 2419SOL     OW 8155   2.150   6.853   4.406
 2419SOL    HW1 8156   2.197   6.785   4.349
 2419SOL    HW2 8157   2.203   6.868   4.490
 2420SOL     OW 8158   3.529   5.374   2.121
 2420SOL    HW1 8159   3.539   5.468   2.090
 2420SOL    HW2 8160   3.433   5.356   2.142
 2421SOL     OW 8161   3.589   6.455   3.983
 2421SOL    HW1 8162   3.585   6.546   4.026
 2421SOL    HW2 8163   3.497   6.417   3.976
 2422SOL     OW 8164   3.990   6.920   1.429
 2422SOL    HW1 8165   3.956   6.973   1.352
 2422SOL    HW2 8166   4.083   6.890   1.410
 2423SOL     OW 8167   2.082   5.089   2.009
 2423SOL    HW1 8168   2.123   5.007   1.968
 2423SOL    HW2 8169   1.992   5.066   2.046
 2424SOL     OW 8170   5.588   7.017   6.988
 2424SOL    HW1 8171   5.611   0.014   0.058
 2424SOL    HW2 8172   5.525   6.940   6.987
 2425SOL     OW 8173   4.933   5.487   5.679
 2425SOL    HW1 8174   4.863   5.427   5.640
 2425SOL    HW2 8175   4.939   5.471   5.778
 2426SOL     OW 8176   1.297   5.941   5.013
 2426SOL    HW1 8177   1.279   5.899   4.924
 2426SOL    HW2 8178   1.258   6.032   5.015
 2427SOL     OW 8179   5.035   6.674   6.379
 2427SOL    HW1 8180   5.051   6.585   6.422
 2427SOL    HW2 8181   5.122   6.710   6.344
 2428SOL     OW 8182   6.872   1.325   3.332
 2428SOL    HW1 8183   6.965   1.302   3.361
 2428SOL    HW2 8184   6.807   1.297   3.403
 2429SOL     OW 8185   5.208   4.922   2.179
 2429SOL    HW1 8186   5.133   4.856   2.185
 2429SOL    HW2 8187   5.189   5.001   2.238
 2430SOL     OW 8188   5.750   2.156   0.667
 2430SOL    HW1 8189   5.658   2.163   0.704
 2430SOL    HW2 8190   5.809   2.225   0.709
 2431SOL     OW 8191   6.189   1.760   2.263
 2431SOL    HW1 8192   6.155   1.803   2.346
 2431SOL    HW2 8193   6.207   1.663   2.281
 2432SOL     OW 8194   3.235   5.191   1.795
 2432SOL    HW1 8195   3.178   5.227   1.868
 2432SOL    HW2 8196   3.201   5.224   1.707
 2433SOL     OW 8197   0.252   5.545   0.125
 2433SOL    HW1 8198   0.209   5.559   0.214
 2433SOL    HW2 8199   0.190   5.578   0.053
 2434SOL     OW 8200   4.354   2.202   2.663
 2434SOL    HW1 8201   4.354   2.126   2.598
 2434SOL    HW2 8202   4.352   2.166   2.756
 2435SOL     OW 8203   5.416   6.448   0.067
 2435SOL    HW1 8204   5.345   6.498   0.117
 2435SOL    HW2 8205   5.459   6.382   0.128
 2436SOL     OW 8206   1.442   1.300   1.297
 2436SOL    HW1 8207   1.437   1.367   1.371
 2436SOL    HW2 8208   1.376   1.228   1.313
 2437SOL     OW 8209   6.156   6.031   2.286
 2437SOL    HW1 8210   6.061   6.057   2.301
 2437SOL    HW2 8211   6.190   5.980   2.365
 2438SOL     OW 8212   3.618   1.741   4.436
 2438SOL    HW1 8213   3.634   1.834   4.403
 2438SOL    HW2 8214   3.666   1.676   4.377
 2439SOL     OW 8215   0.200   5.644   6.765
 2439SOL    HW1 8216   0.247   5.628   6.678
 2439SOL    HW2 8217   0.248   5.715   6.816
 2440SOL     OW 8218   4.192   1.068   4.223
 2440SOL    HW1 8219   4.244   1.013   4.158
 2440SOL    HW2 8220   4.132   1.009   4.277
 2441SOL     OW 8221   5.656   0.883   7.007
 2441SOL    HW1 8222   5.690   0.840   0.066
 2441SOL    HW2 8223   5.687   0.830   6.928
 2442SOL     OW 8224   4.940   3.730   2.396
 2442SOL    HW1 8225   4.924   3.637   2.431
 2442SOL    HW2 8226   4.869   3.752   2.328
 2443SOL     OW 8227   2.495   1.250   6.873
 2443SOL    HW1 8228   2.411   1.201   6.899
 2443SOL    HW2 8229   2.474   1.346   6.857
 2444SOL     OW 8230   4.424   4.652   0.203
 2444SOL    HW1 8231   4.490   4.710   0.250
 2444SOL    HW2 8232   4.467   4.613   0.121
 2445SOL     OW 8233   6.428   1.404   2.099
 2445SOL    HW1 8234   6.492   1.481   2.101
 2445SOL    HW2 8235   6.428   1.358   2.188
 2446SOL     OW 8236   1.048   2.798   2.159
 2446SOL    HW1 8237   1.110   2.876   2.160
 2446SOL    HW2 8238   1.099   2.714   2.139
 2447SOL     OW 8239   2.483   0.883   0.532
 2447SOL    HW1 8240   2.474   0.842   0.442
 2447SOL    HW2 8241   2.557   0.839   0.582
 2448SOL     OW 8242   6.226   2.246   4.096
 2448SOL    HW1 8243   6.187   2.282   4.181
 2448SOL    HW2 8244   6.240   2.148   4.104
 2449SOL     OW 8245   1.399   3.825   1.771
 2449SOL    HW1 8246   1.497   3.819   1.791
 2449SOL    HW2 8247   1.370   3.920   1.781
 2450SOL     OW 8248   3.120   5.160   6.793
 2450SOL    HW1 8249   3.025   5.131   6.779
 2450SOL    HW2 8250   3.168   5.094   6.850
 2451SOL     OW 8251   0.743   6.995   4.312
 2451SOL    HW1 8252   0.753   0.069   4.304
 2451SOL    HW2 8253   0.824   6.958   4.358
 2452SOL     OW 8254   2.402   2.244   2.782
 2452SOL    HW1 8255   2.381   2.254   2.879
 2452SOL    HW2 8256   2.494   2.280   2.763
 2453SOL     OW 8257   6.867   2.147   0.716
 2453SOL    HW1 8258   6.815   2.231   0.698
 2453SOL    HW2 8259   6.804   2.076   0.750
 2454SOL     OW 8260   3.226   5.776   0.191
 2454SOL    HW1 8261   3.182   5.817   0.112
 2454SOL    HW2 8262   3.156   5.738   0.252
 2455SOL     OW 8263   3.349   1.310   0.257
 2455SOL    HW1 8264   3.267   1.271   0.302
 2455SOL    HW2 8265   3.328   1.330   0.162
 2456SOL     OW 8266   0.812   3.754   6.928
 2456SOL    HW1 8267   0.817   3.752   6.828
 2456SOL    HW2 8268   0.738   3.696   6.960
 2457SOL     OW 8269   5.803   0.920   5.806
 2457SOL    HW1 8270   5.711   0.926   5.844
 2457SOL    HW2 8271   5.810   0.839   5.749
 2458SOL     OW 8272   0.910   0.955   3.085
 2458SOL    HW1 8273   0.861   1.002   3.159
 2458SOL    HW2 8274   0.983   0.898   3.124
 2459SOL     OW 8275   2.788   5.884   5.863
 2459SOL    HW1 8276   2.798   5.804   5.922
 2459SOL    HW2 8277   2.743   5.958   5.914
 2460SOL     OW 8278   1.165   0.585   0.172
 2460SOL    HW1 8279   1.177   0.538   0.084
 2460SOL    HW2 8280   1.068   0.599   0.190
 2461SOL     OW 8281   4.611   6.952   4.082
 2461SOL    HW1 8282   4.514   6.971   4.096
 2461SOL    HW2 8283   4.623   6.859   4.048
 2462SOL     OW 8284   0.940   5.431   0.990
 2462SOL    HW1 8285   0.993   5.346   0.990
 2462SOL    HW2 8286   0.938   5.468   1.083
 2463SOL     OW 8287   6.610   1.708   0.752
 2463SOL    HW1 8288   6.700   1.663   0.749
 2463SOL    HW2 8289   6.565   1.698   0.663
 2464SOL     OW 8290   1.223   2.849   2.672
 2464SOL    HW1 8291   1.125   2.849   2.693
 2464SOL    HW2 8292   1.268   2.778   2.726
 2465SOL     OW 8293   6.859   6.176   6.425
 2465SOL    HW1 8294   6.761   6.184   6.443
 2465SOL    HW2 8295   6.892   6.263   6.387
 2466SOL     OW 8296   1.917   1.926   2.429
 2466SOL    HW1 8297   1.959   1.993   2.489
 2466SOL    HW2 8298   1.853   1.869   2.481
 2467SOL     OW 8299   4.600   1.923   5.936
 2467SOL    HW1 8300   4.538   1.941   6.012
 2467SOL    HW2 8301   4.688   1.889   5.972
 2468SOL     OW 8302   4.205   0.203   6.710
 2468SOL    HW1 8303   4.141   0.126   6.705
 2468SOL    HW2 8304   4.260   0.206   6.626
 2469SOL     OW 8305   3.818   3.293   5.738
 2469SOL    HW1 8306   3.805   3.202   5.775
 2469SOL    HW2 8307   3.856   3.353   5.809
 2470SOL     OW 8308   4.015   5.073   6.368
 2470SOL    HW1 8309   3.991   5.092   6.273
 2470SOL    HW2 8310   3.944   5.108   6.429
 2471SOL     OW 8311   3.270   0.022   0.442
 2471SOL    HW1 8312   3.335   0.038   0.368
 2471SOL    HW2 8313   3.178   0.041   0.410
 2472SOL     OW 8314   4.085   2.233   3.660
 2472SOL    HW1 8315   4.080   2.207   3.756
 2472SOL    HW2 8316   3.993   2.233   3.620
 2473SOL     OW 8317   1.158   4.401   5.396
 2473SOL    HW1 8318   1.219   4.403   5.316
 2473SOL    HW2 8319   1.176   4.319   5.450
 2474SOL     OW 8320   1.178   5.446   0.616
 2474SOL    HW1 8321   1.105   5.508   0.645
 2474SOL    HW2 8322   1.229   5.414   0.696
 2475SOL     OW 8323   4.716   0.174   1.727
 2475SOL    HW1 8324   4.760   0.122   1.655
 2475SOL    HW2 8325   4.726   0.272   1.708
 2476SOL     OW 8326   5.665   0.480   2.592
 2476SOL    HW1 8327   5.577   0.433   2.584
 2476SOL    HW2 8328   5.737   0.422   2.554
 2477SOL     OW 8329   3.926   1.011   3.297
 2477SOL    HW1 8330   4.013   0.978   3.262
 2477SOL    HW2 8331   3.889   1.080   3.235
 2478SOL     OW 8332   5.019   0.972   2.156
 2478SOL    HW1 8333   5.017   0.884   2.204
 2478SOL    HW2 8334   5.041   1.045   2.220
 2479SOL     OW 8335   1.464   2.818   1.461
 2479SOL    HW1 8336   1.525   2.789   1.536
 2479SOL    HW2 8337   1.427   2.737   1.416
 2480SOL     OW 8338   4.034   2.744   1.242
 2480SOL    HW1 8339   4.066   2.682   1.171
 2480SOL    HW2 8340   4.076   2.719   1.330
 2481SOL     OW 8341   3.100   0.289   1.410
 2481SOL    HW1 8342   3.152   0.217   1.456
 2481SOL    HW2 8343   3.084   0.263   1.315
 2482SOL     OW 8344   5.494   3.614   6.869
 2482SOL    HW1 8345   5.537   3.703   6.886
 2482SOL    HW2 8346   5.411   3.627   6.815
 2483SOL     OW 8347   1.853   1.653   0.231
 2483SOL    HW1 8348   1.885   1.728   0.289
 2483SOL    HW2 8349   1.793   1.594   0.285
 2484SOL     OW 8350   3.609   0.512   0.133
 2484SOL    HW1 8351   3.581   0.421   0.163
 2484SOL    HW2 8352   3.558   0.581   0.185
 2485SOL     OW 8353   5.071   3.182   0.490
 2485SOL    HW1 8354   5.022   3.249   0.545
 2485SOL    HW2 8355   5.168   3.182   0.515
 2486SOL     OW 8356   1.215   5.524   5.386
 2486SOL    HW1 8357   1.260   5.592   5.327
 2486SOL    HW2 8358   1.118   5.548   5.396
 2487SOL     OW 8359   4.292   6.522   6.736
 2487SOL    HW1 8360   4.371   6.515   6.796
 2487SOL    HW2 8361   4.293   6.611   6.689
 2488SOL     OW 8362   0.759   3.626   1.943
 2488SOL    HW1 8363   0.685   3.672   1.992
 2488SOL    HW2 8364   0.732   3.612   1.848
 2489SOL     OW 8365   1.110   5.700   3.367
 2489SOL    HW1 8366   1.099   5.608   3.404
 2489SOL    HW2 8367   1.200   5.709   3.325
 2490SOL     OW 8368   0.539   5.754   1.014
 2490SOL    HW1 8369   0.587   5.681   1.063
 2490SOL    HW2 8370   0.500   5.818   1.080
 2491SOL     OW 8371   3.425   4.487   0.980
 2491SOL    HW1 8372   3.375   4.534   0.908
 2491SOL    HW2 8373   3.362   4.454   1.050
 2492SOL     OW 8374   4.282   3.793   0.792
 2492SOL    HW1 8375   4.280   3.883   0.749
 2492SOL    HW2 8376   4.374   3.754   0.783
 2493SOL     OW 8377   6.513   6.957   1.751
 2493SOL    HW1 8378   6.591   6.929   1.808
 2493SOL    HW2 8379   6.512   6.903   1.667
 2494SOL     OW 8380   5.518   4.166   2.351
 2494SOL    HW1 8381   5.592   4.230   2.370
 2494SOL    HW2 8382   5.502   4.160   2.252
 2495SOL     OW 8383   5.211   5.753   3.651
 2495SOL    HW1 8384   5.264   5.692   3.592
 2495SOL    HW2 8385   5.185   5.705   3.735
 2496SOL     OW 8386   0.148   2.745   6.777
 2496SOL    HW1 8387   0.069   2.770   6.720
 2496SOL    HW2 8388   0.224   2.807   6.756
 2497SOL     OW 8389   0.620   0.343   0.836
 2497SOL    HW1 8390   0.597   0.262   0.889
 2497SOL    HW2 8391   0.549   0.361   0.768
 2498SOL     OW 8392   2.812   2.300   5.511
 2498SOL    HW1 8393   2.890   2.347   5.469
 2498SOL    HW2 8394   2.805   2.328   5.607
 2499SOL     OW 8395   6.115   3.345   2.384
 2499SOL    HW1 8396   6.053   3.320   2.310
 2499SOL    HW2 8397   6.159   3.262   2.419
 2500SOL     OW 8398   3.536   4.434   6.735
 2500SOL    HW1 8399   3.587   4.390   6.809
 2500SOL    HW2 8400   3.549   4.533   6.739
 2501SOL     OW 8401   5.246   5.626   0.566
 2501SOL    HW1 8402   5.245   5.570   0.648
 2501SOL    HW2 8403   5.340   5.654   0.546
 2502SOL     OW 8404   0.887   0.443   4.691
 2502SOL    HW1 8405   0.952   0.410   4.759
 2502SOL    HW2 8406   0.937   0.479   4.612
 2503SOL     OW 8407   2.424   6.919   4.061
 2503SOL    HW1 8408   2.446   6.972   3.978
 2503SOL    HW2 8409   2.346   6.960   4.107
 2504SOL     OW 8410   3.516   5.342   3.546
 2504SOL    HW1 8411   3.528   5.425   3.492
 2504SOL    HW2 8412   3.482   5.365   3.637
 2505SOL     OW 8413   0.205   6.841   3.057
 2505SOL    HW1 8414   0.207   6.899   3.138
 2505SOL    HW2 8415   0.294   6.843   3.012
 2506SOL     OW 8416   6.607   3.567   6.439
 2506SOL    HW1 8417   6.552   3.647   6.464
 2506SOL    HW2 8418   6.672   3.593   6.367
 2507SOL     OW 8419   6.478   3.134   0.512
 2507SOL    HW1 8420   6.499   3.040   0.540
 2507SOL    HW2 8421   6.399   3.167   0.563
 2508SOL     OW 8422   2.766   1.518   3.690
 2508SOL    HW1 8423   2.863   1.532   3.713
 2508SOL    HW2 8424   2.757   1.501   3.592
 2509SOL     OW 8425   0.189   4.450   0.820
 2509SOL    HW1 8426   0.254   4.402   0.762
 2509SOL    HW2 8427   0.175   4.542   0.785
 2510SOL     OW 8428   2.791   4.784   0.849
 2510SOL    HW1 8429   2.752   4.870   0.881
 2510SOL    HW2 8430   2.719   4.723   0.817
 2511SOL     OW 8431   3.359   2.115   4.141
 2511SOL    HW1 8432   3.334   2.063   4.059
 2511SOL    HW2 8433   3.302   2.085   4.218
 2512SOL     OW 8434   4.382   3.857   5.328
 2512SOL    HW1 8435   4.430   3.772   5.308
 2512SOL    HW2 8436   4.448   3.933   5.330
 2513SOL     OW 8437   2.053   5.030   4.877
 2513SOL    HW1 8438   2.067   5.032   4.976
 2513SOL    HW2 8439   1.957   5.053   4.856
 2514SOL     OW 8440   0.353   3.551   5.073
 2514SOL    HW1 8441   0.434   3.609   5.067
 2514SOL    HW2 8442   0.354   3.501   5.160
 2515SOL     OW 8443   1.595   6.292   0.531
 2515SOL    HW1 8444   1.545   6.210   0.558
 2515SOL    HW2 8445   1.531   6.369   0.525
 2516SOL     OW 8446   4.942   1.255   2.997
 2516SOL    HW1 8447   4.930   1.352   2.979
 2516SOL    HW2 8448   4.865   1.204   2.958
 2517SOL     OW 8449   0.998   0.292   6.147
 2517SOL    HW1 8450   1.014   0.194   6.143
 2517SOL    HW2 8451   1.072   0.336   6.198
 2518SOL     OW 8452   1.291   5.362   0.844
 2518SOL    HW1 8453   1.260   5.338   0.936
 2518SOL    HW2 8454   1.370   5.423   0.850
 2519SOL     OW 8455   3.973   6.815   2.154
 2519SOL    HW1 8456   4.068   6.789   2.140
 2519SOL    HW2 8457   3.924   6.811   2.068
 2520SOL     OW 8458   3.388   1.746   1.057
 2520SOL    HW1 8459   3.461   1.809   1.084
 2520SOL    HW2 8460   3.426   1.673   1.001
 2521SOL     OW 8461   3.205   0.456   5.355
 2521SOL    HW1 8462   3.210   0.507   5.441
 2521SOL    HW2 8463   3.109   0.432   5.338
 2522SOL     OW 8464   0.897   2.336   5.282
 2522SOL    HW1 8465   0.960   2.356   5.356
 2522SOL    HW2 8466   0.855   2.247   5.296
 2523SOL     OW 8467   1.166   2.578   1.153
 2523SOL    HW1 8468   1.111   2.585   1.070
 2523SOL    HW2 8469   1.262   2.565   1.128
 2524SOL     OW 8470   6.867   6.581   5.136
 2524SOL    HW1 8471   6.933   6.508   5.156
 2524SOL    HW2 8472   6.820   6.560   5.051
 2525SOL     OW 8473   1.237   2.351   5.485
 2525SOL    HW1 8474   1.196   2.439   5.460
 2525SOL    HW2 8475   1.246   2.346   5.585
 2526SOL     OW 8476   1.419   5.209   6.437
 2526SOL    HW1 8477   1.470   5.178   6.357
 2526SOL    HW2 8478   1.450   5.301   6.462
 2527SOL     OW 8479   6.062   6.412   6.086
 2527SOL    HW1 8480   6.095   6.504   6.107
 2527SOL    HW2 8481   6.018   6.411   5.996
 2528SOL     OW 8482   6.454   4.928   0.060
 2528SOL    HW1 8483   6.473   5.010   0.114
 2528SOL    HW2 8484   6.369   4.941   0.009
 2529SOL     OW 8485   6.212   6.573   6.403
 2529SOL    HW1 8486   6.249   6.506   6.467
 2529SOL    HW2 8487   6.269   6.655   6.404
 2530SOL     OW 8488   2.823   6.113   4.421
 2530SOL    HW1 8489   2.803   6.138   4.326
 2530SOL    HW2 8490   2.790   6.021   4.439
 2531SOL     OW 8491   5.775   5.848   4.498
 2531SOL    HW1 8492   5.835   5.770   4.520
 2531SOL    HW2 8493   5.734   5.882   4.582
 2532SOL     OW 8494   0.489   6.021   0.351
 2532SOL    HW1 8495   0.589   6.023   0.349
 2532SOL    HW2 8496   0.454   6.114   0.351
 2533SOL     OW 8497   3.971   6.842   3.843
 2533SOL    HW1 8498   3.888   6.786   3.839
 2533SOL    HW2 8499   4.024   6.828   3.760
 2534SOL     OW 8500   3.708   1.175   2.236
 2534SOL    HW1 8501   3.675   1.126   2.317
 2534SOL    HW2 8502   3.666   1.266   2.232
 2535SOL     OW 8503   3.028   3.017   5.566
 2535SOL    HW1 8504   3.090   2.960   5.512
 2535SOL    HW2 8505   3.068   3.109   5.576
 2536SOL     OW 8506   1.133   1.597   5.040
 2536SOL    HW1 8507   1.179   1.510   5.061
 2536SOL    HW2 8508   1.188   1.672   5.076
 2537SOL     OW 8509   3.405   0.074   6.153
 2537SOL    HW1 8510   3.406   0.080   6.253
 2537SOL    HW2 8511   3.448   0.155   6.114
 2538SOL     OW 8512   0.725   4.032   3.335
 2538SOL    HW1 8513   0.765   4.028   3.243
 2538SOL    HW2 8514   0.761   3.957   3.390
 2539SOL     OW 8515   5.879   0.901   4.862
 2539SOL    HW1 8516   5.838   0.815   4.892
 2539SOL    HW2 8517   5.977   0.901   4.881
 2540SOL     OW 8518   4.022   1.912   2.801
 2540SOL    HW1 8519   4.090   1.909   2.875
 2540SOL    HW2 8520   4.068   1.901   2.713
 2541SOL     OW 8521   2.872   0.638   4.582
 2541SOL    HW1 8522   2.901   0.710   4.519
 2541SOL    HW2 8523   2.933   0.637   4.662
 2542SOL     OW 8524   3.045   2.761   6.033
 2542SOL    HW1 8525   2.990   2.689   5.989
 2542SOL    HW2 8526   3.091   2.814   5.963
 2543SOL     OW 8527   0.781   0.823   3.379
 2543SOL    HW1 8528   0.779   0.761   3.299
 2543SOL    HW2 8529   0.783   0.918   3.347
 2544SOL     OW 8530   0.726   5.957   1.244
 2544SOL    HW1 8531   0.651   5.908   1.289
 2544SOL    HW2 8532   0.773   6.015   1.311
 2545SOL     OW 8533   0.675   6.902   2.170
 2545SOL    HW1 8534   0.656   6.816   2.124
 2545SOL    HW2 8535   0.708   6.969   2.104
 2546SOL     OW 8536   6.727   1.059   2.250
 2546SOL    HW1 8537   6.814   1.054   2.299
 2546SOL    HW2 8538   6.679   0.972   2.257
 2547SOL     OW 8539   6.607   4.392   0.199
 2547SOL    HW1 8540   6.695   4.439   0.196
 2547SOL    HW2 8541   6.622   4.294   0.215
 2548SOL     OW 8542   0.642   0.047   5.543
 2548SOL    HW1 8543   0.725   0.098   5.560
 2548SOL    HW2 8544   0.639   0.018   5.447
 2549SOL     OW 8545   1.403   0.148   1.067
 2549SOL    HW1 8546   1.466   0.207   1.017
 2549SOL    HW2 8547   1.417   0.053   1.041
 2550SOL     OW 8548   0.314   0.699   6.858
 2550SOL    HW1 8549   0.239   0.640   6.827
 2550SOL    HW2 8550   0.399   0.673   6.811
 2551SOL     OW 8551   3.600   4.645   0.038
 2551SOL    HW1 8552   3.671   4.663   0.106
 2551SOL    HW2 8553   3.609   4.552   0.004
 2552SOL     OW 8554   1.924   6.025   4.299
 2552SOL    HW1 8555   1.873   6.110   4.313
 2552SOL    HW2 8556   1.957   5.991   4.387
 2553SOL     OW 8557   4.510   3.293   5.959
 2553SOL    HW1 8558   4.430   3.289   5.899
 2553SOL    HW2 8559   4.505   3.219   6.026
 2554SOL     OW 8560   2.605   6.983   0.399
 2554SOL    HW1 8561   2.621   0.056   0.400
 2554SOL    HW2 8562   2.571   6.953   0.488
 2555SOL     OW 8563   5.706   0.072   4.995
 2555SOL    HW1 8564   5.669   0.154   5.039
 2555SOL    HW2 8565   5.641   0.039   4.927
 2556SOL     OW 8566   3.971   6.151   6.977
 2556SOL    HW1 8567   3.974   6.145   0.052
 2556SOL    HW2 8568   4.030   6.226   6.947
 2557SOL     OW 8569   2.410   4.448   6.689
 2557SOL    HW1 8570   2.459   4.519   6.639
 2557SOL    HW2 8571   2.312   4.454   6.668
 2558SOL     OW 8572   5.077   1.778   5.415
 2558SOL    HW1 8573   5.093   1.876   5.426
 2558SOL    HW2 8574   5.038   1.760   5.325
 2559SOL     OW 8575   0.607   3.679   4.998
 2559SOL    HW1 8576   0.616   3.776   5.023
 2559SOL    HW2 8577   0.643   3.665   4.906
 2560SOL     OW 8578   5.563   3.017   4.812
 2560SOL    HW1 8579   5.535   2.935   4.862
 2560SOL    HW2 8580   5.508   3.095   4.843
 2561SOL     OW 8581   3.176   6.013   5.064
 2561SOL    HW1 8582   3.174   5.933   5.005
 2561SOL    HW2 8583   3.106   6.078   5.035
 2562SOL     OW 8584   2.347   4.958   1.363
 2562SOL    HW1 8585   2.270   4.958   1.426
 2562SOL    HW2 8586   2.431   4.936   1.412
 2563SOL     OW 8587   3.472   2.170   0.375
 2563SOL    HW1 8588   3.412   2.189   0.453
 2563SOL    HW2 8589   3.557   2.221   0.385
 2564SOL     OW 8590   2.505   5.698   6.479
 2564SOL    HW1 8591   2.547   5.789   6.477
 2564SOL    HW2 8592   2.405   5.708   6.479
 2565SOL     OW 8593   1.538   6.876   6.836
 2565SOL    HW1 8594   1.564   6.813   6.909
 2565SOL    HW2 8595   1.553   6.833   6.747
 2566SOL     OW 8596   2.241   0.144   1.272
 2566SOL    HW1 8597   2.146   0.141   1.304
 2566SOL    HW2 8598   2.277   0.237   1.284
 2567SOL     OW 8599   1.344   0.427   0.652
 2567SOL    HW1 8600   1.290   0.450   0.733
 2567SOL    HW2 8601   1.302   0.468   0.571
 2568SOL     OW 8602   4.297   1.022   6.949
 2568SOL    HW1 8603   4.298   1.062   6.857
 2568SOL    HW2 8604   4.204   1.027   6.986
 2569SOL     OW 8605   2.984   0.668   2.433
 2569SOL    HW1 8606   2.956   0.603   2.504
 2569SOL    HW2 8607   2.904   0.695   2.379
 2570SOL     OW 8608   5.472   0.061   6.745
 2570SOL    HW1 8609   5.481   0.026   6.838
 2570SOL    HW2 8610   5.541   0.018   6.686
 2571SOL     OW 8611   2.442   4.401   5.177
 2571SOL    HW1 8612   2.390   4.351   5.107
 2571SOL    HW2 8613   2.395   4.392   5.265
 2572SOL     OW 8614   2.347   6.100   0.742
 2572SOL    HW1 8615   2.392   6.190   0.747
 2572SOL    HW2 8616   2.416   6.030   0.724
 2573SOL     OW 8617   6.935   1.648   1.863
 2573SOL    HW1 8618   6.988   1.667   1.780
 2573SOL    HW2 8619   6.995   1.609   1.933
 2574SOL     OW 8620   5.740   4.042   0.432
 2574SOL    HW1 8621   5.644   4.033   0.458
 2574SOL    HW2 8622   5.796   4.041   0.515
 2575SOL     OW 8623   4.976   5.461   0.915
 2575SOL    HW1 8624   4.994   5.498   1.006
 2575SOL    HW2 8625   4.946   5.535   0.855
 2576SOL     OW 8626   4.513   6.517   4.783
 2576SOL    HW1 8627   4.544   6.602   4.740
 2576SOL    HW2 8628   4.579   6.491   4.854
 2577SOL     OW 8629   4.042   6.540   2.510
 2577SOL    HW1 8630   4.088   6.552   2.423
 2577SOL    HW2 8631   3.961   6.483   2.498
 2578SOL     OW 8632   4.501   1.586   4.785
 2578SOL    HW1 8633   4.497   1.595   4.885
 2578SOL    HW2 8634   4.449   1.660   4.743
 2579SOL     OW 8635   1.258   6.638   3.593
 2579SOL    HW1 8636   1.300   6.675   3.676
 2579SOL    HW2 8637   1.160   6.658   3.594
 2580SOL     OW 8638   3.004   4.715   6.482
 2580SOL    HW1 8639   3.060   4.637   6.510
 2580SOL    HW2 8640   3.009   4.725   6.382
 2581SOL     OW 8641   2.379   4.839   2.161
 2581SOL    HW1 8642   2.286   4.821   2.194
 2581SOL    HW2 8643   2.386   4.935   2.131
 2582SOL     OW 8644   0.417   4.338   1.177
 2582SOL    HW1 8645   0.484   4.334   1.103
 2582SOL    HW2 8646   0.448   4.279   1.252
 2583SOL     OW 8647   1.361   1.661   6.428
 2583SOL    HW1 8648   1.351   1.704   6.518
 2583SOL    HW2 8649   1.458   1.654   6.405
 2584SOL     OW 8650   5.166   5.407   6.059
 2584SOL    HW1 8651   5.215   5.391   6.145
 2584SOL    HW2 8652   5.232   5.421   5.986
 2585SOL     OW 8653   3.751   3.334   0.955
 2585SOL    HW1 8654   3.693   3.414   0.939
 2585SOL    HW2 8655   3.845   3.365   0.973
 2586SOL     OW 8656   3.372   0.667   5.075
 2586SOL    HW1 8657   3.357   0.582   5.126
 2586SOL    HW2 8658   3.284   0.710   5.056
 2587SOL     OW 8659   5.938   0.941   3.648
 2587SOL    HW1 8660   5.982   0.992   3.722
 2587SOL    HW2 8661   5.864   0.886   3.686
 2588SOL     OW 8662   4.415   2.186   6.300
 2588SOL    HW1 8663   4.370   2.097   6.306
 2588SOL    HW2 8664   4.441   2.203   6.204
 2589SOL     OW 8665   1.392   6.474   5.740
 2589SOL    HW1 8666   1.301   6.501   5.772
 2589SOL    HW2 8667   1.458   6.545   5.763
 2590SOL     OW 8668   3.891   4.808   6.969
 2590SOL    HW1 8669   3.825   4.772   6.902
 2590SOL    HW2 8670   3.940   4.732   7.012
 2591SOL     OW 8671   6.514   4.333   3.178
 2591SOL    HW1 8672   6.582   4.353   3.108
 2591SOL    HW2 8673   6.535   4.385   3.261
 2592SOL     OW 8674   3.342   4.755   0.083
 2592SOL    HW1 8675   3.277   4.683   0.105
 2592SOL    HW2 8676   3.434   4.717   0.075
 2593SOL     OW 8677   4.281   6.124   0.053
 2593SOL    HW1 8678   4.368   6.076   0.045
 2593SOL    HW2 8679   4.297   6.223   0.050
 2594SOL     OW 8680   1.903   4.177   5.907
 2594SOL    HW1 8681   1.925   4.229   5.824
 2594SOL    HW2 8682   1.981   4.180   5.969
 2595SOL     OW 8683   0.059   0.613   4.130
 2595SOL    HW1 8684   0.074   0.614   4.228
 2595SOL    HW2 8685   7.000   0.563   4.109
 2596SOL     OW 8686   3.056   2.375   1.649
 2596SOL    HW1 8687   3.147   2.417   1.649
 2596SOL    HW2 8688   3.005   2.404   1.730
 2597SOL     OW 8689   0.484   5.154   6.468
 2597SOL    HW1 8690   0.459   5.203   6.551
 2597SOL    HW2 8691   0.412   5.090   6.443
 2598SOL     OW 8692   6.451   1.508   2.732
 2598SOL    HW1 8693   6.520   1.547   2.793
 2598SOL    HW2 8694   6.425   1.576   2.664
 2599SOL     OW 8695   1.270   5.735   0.829
 2599SOL    HW1 8696   1.319   5.800   0.771
 2599SOL    HW2 8697   1.197   5.691   0.776
 2600SOL     OW 8698   5.666   2.866   4.512
 2600SOL    HW1 8699   5.651   2.913   4.599
 2600SOL    HW2 8700   5.611   2.783   4.509
 2601SOL     OW 8701   1.389   1.437   1.542
 2601SOL    HW1 8702   1.289   1.443   1.546
 2601SOL    HW2 8703   1.428   1.528   1.552
 2602SOL     OW 8704   1.181   4.652   5.131
 2602SOL    HW1 8705   1.179   4.724   5.201
 2602SOL    HW2 8706   1.133   4.684   5.050
 2603SOL     OW 8707   2.969   1.425   3.040
 2603SOL    HW1 8708   2.979   1.504   3.100
 2603SOL    HW2 8709   2.872   1.401   3.031
 2604SOL     OW 8710   4.584   1.962   2.941
 2604SOL    HW1 8711   4.607   1.958   2.844
 2604SOL    HW2 8712   4.662   1.999   2.992
 2605SOL     OW 8713   1.459   3.485   2.671
 2605SOL    HW1 8714   1.476   3.390   2.696
 2605SOL    HW2 8715   1.432   3.491   2.575
 2606SOL     OW 8716   6.333   5.322   1.794
 2606SOL    HW1 8717   6.290   5.406   1.761
 2606SOL    HW2 8718   6.364   5.267   1.717
 2607SOL     OW 8719   0.758   1.166   1.010
 2607SOL    HW1 8720   0.847   1.178   0.966
 2607SOL    HW2 8721   0.713   1.086   0.971
 2608SOL     OW 8722   3.921   5.351   0.336
 2608SOL    HW1 8723   3.895   5.370   0.241
 2608SOL    HW2 8724   3.861   5.280   0.374
 2609SOL     OW 8725   6.098   1.524   1.923
 2609SOL    HW1 8726   6.165   1.587   1.964
 2609SOL    HW2 8727   6.135   1.488   1.837
 2610SOL     OW 8728   0.775   4.568   4.602
 2610SOL    HW1 8729   0.840   4.605   4.667
 2610SOL    HW2 8730   0.797   4.599   4.510
 2611SOL     OW 8731   4.545   6.285   0.412
 2611SOL    HW1 8732   4.553   6.374   0.366
 2611SOL    HW2 8733   4.504   6.297   0.502
 2612SOL     OW 8734   5.867   6.359   4.903
 2612SOL    HW1 8735   5.830   6.277   4.858
 2612SOL    HW2 8736   5.811   6.382   4.982
 2613SOL     OW 8737   2.410   5.437   6.342
 2613SOL    HW1 8738   2.312   5.425   6.362
 2613SOL    HW2 8739   2.448   5.505   6.403
 2614SOL     OW 8740   6.601   1.908   0.293
 2614SOL    HW1 8741   6.587   1.982   0.227
 2614SOL    HW2 8742   6.556   1.825   0.260
 2615SOL     OW 8743   1.146   3.399   1.749
 2615SOL    HW1 8744   1.104   3.308   1.747
 2615SOL    HW2 8745   1.217   3.402   1.819
 2616SOL     OW 8746   1.810   1.848   5.978
 2616SOL    HW1 8747   1.868   1.900   6.040
 2616SOL    HW2 8748   1.813   1.751   6.003
 2617SOL     OW 8749   4.549   1.191   0.814
 2617SOL    HW1 8750   4.478   1.197   0.744
 2617SOL    HW2 8751   4.613   1.266   0.804
 2618SOL     OW 8752   7.007   6.762   4.220
 2618SOL    HW1 8753   0.055   6.710   4.264
 2618SOL    HW2 8754   6.993   6.727   4.128
 2619SOL     OW 8755   4.469   1.622   2.052
 2619SOL    HW1 8756   4.395   1.657   1.995
 2619SOL    HW2 8757   4.469   1.522   2.049
 2620SOL     OW 8758   6.569   0.285   3.019
 2620SOL    HW1 8759   6.513   0.329   2.949
 2620SOL    HW2 8760   6.623   0.211   2.977
 2621SOL     OW 8761   1.171   5.007   2.514
 2621SOL    HW1 8762   1.084   4.991   2.561
 2621SOL    HW2 8763   1.166   5.094   2.465
 2622SOL     OW 8764   2.797   3.520   6.134
 2622SOL    HW1 8765   2.897   3.524   6.142
 2622SOL    HW2 8766   2.757   3.607   6.162
 2623SOL     OW 8767   0.912   0.859   5.104
 2623SOL    HW1 8768   0.819   0.884   5.130
 2623SOL    HW2 8769   0.909   0.789   5.032
 2624SOL     OW 8770   0.099   1.916   5.108
 2624SOL    HW1 8771   0.159   1.897   5.185
 2624SOL    HW2 8772   0.037   1.991   5.132
 2625SOL     OW 8773   2.448   3.628   5.586
 2625SOL    HW1 8774   2.529   3.632   5.528
 2625SOL    HW2 8775   2.410   3.720   5.597
 2626SOL     OW 8776   6.479   0.017   6.241
 2626SOL    HW1 8777   6.554   6.992   6.197
 2626SOL    HW2 8778   6.487   0.010   6.340
 2627SOL     OW 8779   1.571   0.964   5.880
 2627SOL    HW1 8780   1.553   1.062   5.873
 2627SOL    HW2 8781   1.655   0.942   5.831
 2628SOL     OW 8782   1.861   3.830   5.296
 2628SOL    HW1 8783   1.762   3.822   5.302
 2628SOL    HW2 8784   1.886   3.873   5.210
 2629SOL     OW 8785   3.998   3.645   2.681
 2629SOL    HW1 8786   3.924   3.700   2.641
 2629SOL    HW2 8787   3.970   3.549   2.685
 2630SOL     OW 8788   3.546   1.715   3.470
 2630SOL    HW1 8789   3.482   1.738   3.544
 2630SOL    HW2 8790   3.502   1.732   3.382
 2631SOL     OW 8791   5.369   1.055   6.508
 2631SOL    HW1 8792   5.453   1.031   6.557
 2631SOL    HW2 8793   5.389   1.067   6.411
 2632SOL     OW 8794   5.903   3.798   0.531
 2632SOL    HW1 8795   5.882   3.880   0.584
 2632SOL    HW2 8796   5.974   3.820   0.464
 2633SOL     OW 8797   6.677   2.012   4.679
 2633SOL    HW1 8798   6.583   2.039   4.658
 2633SOL    HW2 8799   6.732   2.014   4.596
 2634SOL     OW 8800   0.453   5.575   3.697
 2634SOL    HW1 8801   0.533   5.600   3.643
 2634SOL    HW2 8802   0.380   5.545   3.636
 2635SOL     OW 8803   6.445   5.432   4.046
 2635SOL    HW1 8804   6.398   5.447   4.133
 2635SOL    HW2 8805   6.477   5.337   4.041
 2636SOL     OW 8806   3.897   0.714   6.659
 2636SOL    HW1 8807   3.900   0.814   6.662
 2636SOL    HW2 8808   3.850   0.684   6.576
 2637SOL     OW 8809   6.153   1.678   4.122
 2637SOL    HW1 8810   6.107   1.728   4.048
 2637SOL    HW2 8811   6.246   1.712   4.132
 2638SOL     OW 8812   7.019   6.866   4.771
 2638SOL    HW1 8813   0.064   6.822   4.716
 2638SOL    HW2 8814   0.036   6.917   4.846
 2639SOL     OW 8815   6.270   5.592   6.034
 2639SOL    HW1 8816   6.176   5.587   6.067
 2639SOL    HW2 8817   6.277   5.663   5.964
 2640SOL     OW 8818   6.695   0.248   5.279
 2640SOL    HW1 8819   6.757   0.179   5.240
 2640SOL    HW2 8820   6.740   0.295   5.355
 2641SOL     OW 8821   4.835   1.827   1.454
 2641SOL    HW1 8822   4.767   1.866   1.392
 2641SOL    HW2 8823   4.791   1.758   1.512
 2642SOL     OW 8824   6.359   0.255   4.008
 2642SOL    HW1 8825   6.289   0.185   4.026
 2642SOL    HW2 8826   6.319   0.346   4.018
 2643SOL     OW 8827   1.155   3.129   3.798
 2643SOL    HW1 8828   1.090   3.166   3.864
 2643SOL    HW2 8829   1.110   3.062   3.740
 2644SOL     OW 8830   4.612   5.100   5.006
 2644SOL    HW1 8831   4.692   5.158   4.990
 2644SOL    HW2 8832   4.636   5.004   4.995
 2645SOL     OW 8833   5.214   4.834   3.505
 2645SOL    HW1 8834   5.130   4.851   3.557
 2645SOL    HW2 8835   5.291   4.825   3.567
 2646SOL     OW 8836   0.056   3.081   0.079
 2646SOL    HW1 8837   6.997   3.058   0.030
 2646SOL    HW2 8838   0.114   3.000   0.086
 2647SOL     OW 8839   6.020   6.888   1.771
 2647SOL    HW1 8840   5.959   6.962   1.798
 2647SOL    HW2 8841   5.967   6.815   1.728
 2648SOL     OW 8842   0.161   6.796   4.562
 2648SOL    HW1 8843   0.151   6.724   4.493
 2648SOL    HW2 8844   0.254   6.794   4.598
 2649SOL     OW 8845   6.304   3.082   1.874
 2649SOL    HW1 8846   6.397   3.096   1.908
 2649SOL    HW2 8847   6.252   3.167   1.880
 2650SOL     OW 8848   2.432   5.688   4.769
 2650SOL    HW1 8849   2.441   5.608   4.711
 2650SOL    HW2 8850   2.465   5.667   4.861
 2651SOL     OW 8851   3.475   0.720   0.243
 2651SOL    HW1 8852   3.386   0.688   0.210
 2651SOL    HW2 8853   3.478   0.712   0.343
 2652SOL     OW 8854   4.733   3.288   5.771
 2652SOL    HW1 8855   4.646   3.303   5.819
 2652SOL    HW2 8856   4.748   3.362   5.706
 2653SOL     OW 8857   4.630   6.037   5.802
 2653SOL    HW1 8858   4.728   6.054   5.808
 2653SOL    HW2 8859   4.582   6.123   5.786
 2654SOL     OW 8860   5.230   6.045   1.082
 2654SOL    HW1 8861   5.132   6.057   1.067
 2654SOL    HW2 8862   5.250   6.051   1.179
 2655SOL     OW 8863   4.799   5.044   3.893
 2655SOL    HW1 8864   4.722   5.022   3.833
 2655SOL    HW2 8865   4.870   4.974   3.882
 2656SOL     OW 8866   3.401   4.919   3.459
 2656SOL    HW1 8867   3.473   4.989   3.448
 2656SOL    HW2 8868   3.406   4.881   3.551
 2657SOL     OW 8869   1.930   3.449   0.829
 2657SOL    HW1 8870   1.896   3.427   0.737
 2657SOL    HW2 8871   1.890   3.386   0.895
 2658SOL     OW 8872   4.970   4.695   0.175
 2658SOL    HW1 8873   5.027   4.732   0.247
 2658SOL    HW2 8874   4.906   4.628   0.213
 2659SOL     OW 8875   4.620   3.103   5.351
 2659SOL    HW1 8876   4.590   3.118   5.444
 2659SOL    HW2 8877   4.674   3.181   5.320
 2660SOL     OW 8878   0.794   0.773   1.361
 2660SOL    HW1 8879   0.837   0.815   1.281
 2660SOL    HW2 8880   0.695   0.785   1.355
 2661SOL     OW 8881   1.701   0.168   1.526
 2661SOL    HW1 8882   1.708   0.070   1.544
 2661SOL    HW2 8883   1.698   0.184   1.427
 2662SOL     OW 8884   2.673   0.087   3.580
 2662SOL    HW1 8885   2.610   0.116   3.509
 2662SOL    HW2 8886   2.743   0.157   3.593
 2663SOL     OW 8887   4.495   5.589   6.089
 2663SOL    HW1 8888   4.520   5.646   6.011
 2663SOL    HW2 8889   4.578   5.563   6.140
 2664SOL     OW 8890   4.085   3.000   5.532
 2664SOL    HW1 8891   4.118   3.090   5.504
 2664SOL    HW2 8892   4.047   2.952   5.453
 2665SOL     OW 8893   2.353   3.243   5.337
 2665SOL    HW1 8894   2.288   3.309   5.299
 2665SOL    HW2 8895   2.376   3.175   5.267
 2666SOL     OW 8896   1.592   3.938   2.060
 2666SOL    HW1 8897   1.526   3.981   1.999
 2666SOL    HW2 8898   1.652   4.009   2.099
 2667SOL     OW 8899   0.948   5.347   4.161
 2667SOL    HW1 8900   1.035   5.298   4.161
 2667SOL    HW2 8901   0.953   5.423   4.226
 2668SOL     OW 8902   5.791   3.335   4.517
 2668SOL    HW1 8903   5.727   3.383   4.577
 2668SOL    HW2 8904   5.791   3.378   4.427
 2669SOL     OW 8905   3.101   5.754   6.697
 2669SOL    HW1 8906   3.070   5.663   6.726
 2669SOL    HW2 8907   3.177   5.744   6.632
 2670SOL     OW 8908   6.596   2.666   4.787
 2670SOL    HW1 8909   6.619   2.763   4.788
 2670SOL    HW2 8910   6.638   2.622   4.708
 2671SOL     OW 8911   4.930   5.479   5.937
 2671SOL    HW1 8912   4.914   5.578   5.941
 2671SOL    HW2 8913   5.016   5.457   5.982
 2672SOL     OW 8914   3.252   0.122   1.626
 2672SOL    HW1 8915   3.345   0.109   1.661
 2672SOL    HW2 8916   3.214   0.207   1.664
 2673SOL     OW 8917   5.546   1.936   2.355
 2673SOL    HW1 8918   5.645   1.929   2.341
 2673SOL    HW2 8919   5.503   1.849   2.334
 2674SOL     OW 8920   1.469   4.709   4.001
 2674SOL    HW1 8921   1.566   4.719   3.977
 2674SOL    HW2 8922   1.414   4.768   3.942
 2675SOL     OW 8923   0.205   6.628   4.332
 2675SOL    HW1 8924   0.276   6.682   4.287
 2675SOL    HW2 8925   0.231   6.531   4.332
 2676SOL     OW 8926   3.676   3.737   2.745
 2676SOL    HW1 8927   3.666   3.646   2.704
 2676SOL    HW2 8928   3.621   3.742   2.828
 2677SOL     OW 8929   2.972   4.950   1.162
 2677SOL    HW1 8930   2.884   4.984   1.194
 2677SOL    HW2 8931   3.006   4.880   1.225
 2678SOL     OW 8932   0.050   2.510   2.225
 2678SOL    HW1 8933   7.017   2.582   2.187
 2678SOL    HW2 8934   0.145   2.540   2.222
 2679SOL     OW 8935   1.860   5.187   2.607
 2679SOL    HW1 8936   1.773   5.196   2.557
 2679SOL    HW2 8937   1.891   5.093   2.602
 2680SOL     OW 8938   1.478   2.519   0.095
 2680SOL    HW1 8939   1.394   2.572   0.105
 2680SOL    HW2 8940   1.490   2.494   7.024
 2681SOL     OW 8941   1.415   2.703   4.832
 2681SOL    HW1 8942   1.484   2.744   4.772
 2681SOL    HW2 8943   1.352   2.774   4.863
 2682SOL     OW 8944   5.307   3.769   3.225
 2682SOL    HW1 8945   5.372   3.797   3.295
 2682SOL    HW2 8946   5.341   3.688   3.178
 2683SOL     OW 8947   2.354   4.340   2.529
 2683SOL    HW1 8948   2.380   4.299   2.442
 2683SOL    HW2 8949   2.412   4.420   2.547
 2684SOL     OW 8950   5.082   6.950   1.565
 2684SOL    HW1 8951   5.089   6.984   1.659
 2684SOL    HW2 8952   5.160   6.983   1.512
 2685SOL     OW 8953   6.422   4.591   4.876
 2685SOL    HW1 8954   6.380   4.543   4.953
 2685SOL    HW2 8955   6.443   4.526   4.803
 2686SOL     OW 8956   1.010   1.127   5.182
 2686SOL    HW1 8957   0.985   1.032   5.163
 2686SOL    HW2 8958   1.045   1.170   5.099
 2687SOL     OW 8959   3.530   6.494   1.209
 2687SOL    HW1 8960   3.562   6.525   1.299
 2687SOL    HW2 8961   3.603   6.442   1.164
 2688SOL     OW 8962   3.177   1.815   0.692
 2688SOL    HW1 8963   3.151   1.824   0.595
 2688SOL    HW2 8964   3.191   1.905   0.731
 2689SOL     OW 8965   0.452   3.934   2.454
 2689SOL    HW1 8966   0.393   3.865   2.411
 2689SOL    HW2 8967   0.403   3.976   2.530
 2690SOL     OW 8968   2.975   3.198   6.791
 2690SOL    HW1 8969   2.931   3.278   6.751
 2690SOL    HW2 8970   3.074   3.214   6.798
 2691SOL     OW 8971   0.241   4.197   3.856
 2691SOL    HW1 8972   0.251   4.105   3.820
 2691SOL    HW2 8973   0.176   4.249   3.799
 2692SOL     OW 8974   2.208   6.235   3.266
 2692SOL    HW1 8975   2.266   6.158   3.243
 2692SOL    HW2 8976   2.126   6.234   3.209
 2693SOL     OW 8977   2.016   4.699   4.134
 2693SOL    HW1 8978   1.999   4.662   4.225
 2693SOL    HW2 8979   2.060   4.630   4.078
 2694SOL     OW 8980   4.082   6.949   3.161
 2694SOL    HW1 8981   4.070   6.951   3.061
 2694SOL    HW2 8982   4.113   6.858   3.188
 2695SOL     OW 8983   6.075   6.883   2.783
 2695SOL    HW1 8984   6.126   6.968   2.792
 2695SOL    HW2 8985   5.985   6.902   2.743
 2696SOL     OW 8986   4.492   3.744   6.137
 2696SOL    HW1 8987   4.569   3.806   6.122
 2696SOL    HW2 8988   4.522   3.649   6.121
 2697SOL     OW 8989   4.501   1.465   2.433
 2697SOL    HW1 8990   4.520   1.413   2.517
 2697SOL    HW2 8991   4.433   1.416   2.379
 2698SOL     OW 8992   1.937   4.708   6.751
 2698SOL    HW1 8993   1.843   4.744   6.754
 2698SOL    HW2 8994   1.984   4.732   6.835
 2699SOL     OW 8995   2.574   5.785   0.975
 2699SOL    HW1 8996   2.518   5.762   0.895
 2699SOL    HW2 8997   2.547   5.727   1.052
 2700SOL     OW 8998   2.911   1.792   1.065
 2700SOL    HW1 8999   2.844   1.784   1.139
 2700SOL    HW2 9000   2.906   1.711   1.007
 2701SOL     OW 9001   5.190   2.591   5.796
 2701SOL    HW1 9002   5.115   2.569   5.734
 2701SOL    HW2 9003   5.155   2.633   5.879
 2702SOL     OW 9004   1.333   2.130   2.979
 2702SOL    HW1 9005   1.416   2.082   3.009
 2702SOL    HW2 9006   1.341   2.227   3.003
 2703SOL     OW 9007   1.633   5.467   1.686
 2703SOL    HW1 9008   1.714   5.501   1.639
 2703SOL    HW2 9009   1.587   5.398   1.629
 2704SOL     OW 9010   6.642   5.454   2.662
 2704SOL    HW1 9011   6.693   5.398   2.727
 2704SOL    HW2 9012   6.663   5.426   2.569
 2705SOL     OW 9013   6.371   1.628   5.232
 2705SOL    HW1 9014   6.442   1.557   5.235
 2705SOL    HW2 9015   6.393   1.700   5.298
 2706SOL     OW 9016   5.992   4.223   4.767
 2706SOL    HW1 9017   5.934   4.294   4.726
 2706SOL    HW2 9018   6.081   4.262   4.791
 2707SOL     OW 9019   4.090   6.864   4.253
 2707SOL    HW1 9020   4.117   6.836   4.161
 2707SOL    HW2 9021   4.042   6.951   4.249
 2708SOL     OW 9022   6.754   2.481   0.729
 2708SOL    HW1 9023   6.791   2.558   0.678
 2708SOL    HW2 9024   6.665   2.455   0.690
 2709SOL     OW 9025   4.759   6.977   6.623
 2709SOL    HW1 9026   4.798   6.899   6.574
 2709SOL    HW2 9027   4.783   0.036   6.576
 2710SOL     OW 9028   1.967   2.577   3.574
 2710SOL    HW1 9029   1.998   2.547   3.664
 2710SOL    HW2 9030   1.922   2.666   3.582
 2711SOL     OW 9031   3.137   1.309   3.570
 2711SOL    HW1 9032   3.158   1.308   3.667
 2711SOL    HW2 9033   3.142   1.403   3.536
 2712SOL     OW 9034   2.866   5.434   1.899
 2712SOL    HW1 9035   2.902   5.374   1.970
 2712SOL    HW2 9036   2.892   5.398   1.809
 2713SOL     OW 9037   4.157   4.149   6.588
 2713SOL    HW1 9038   4.132   4.086   6.515
 2713SOL    HW2 9039   4.122   4.115   6.675
 2714SOL     OW 9040   4.020   4.202   0.038
 2714SOL    HW1 9041   4.087   4.272   0.062
 2714SOL    HW2 9042   3.995   4.150   0.119
 2715SOL     OW 9043   5.447   2.391   0.942
 2715SOL    HW1 9044   5.441   2.484   0.980
 2715SOL    HW2 9045   5.366   2.339   0.968
 2716SOL     OW 9046   4.848   2.909   3.373
 2716SOL    HW1 9047   4.835   3.004   3.347
 2716SOL    HW2 9048   4.810   2.893   3.464
 2717SOL     OW 9049   0.794   6.525   2.441
 2717SOL    HW1 9050   0.796   6.440   2.495
 2717SOL    HW2 9051   0.700   6.559   2.437
 2718SOL     OW 9052   6.867   1.054   4.852
 2718SOL    HW1 9053   6.778   1.090   4.822
 2718SOL    HW2 9054   6.918   1.022   4.772
 2719SOL     OW 9055   1.418   4.417   1.979
 2719SOL    HW1 9056   1.437   4.491   1.915
 2719SOL    HW2 9057   1.496   4.354   1.981
 2720SOL     OW 9058   1.111   0.104   4.400
 2720SOL    HW1 9059   1.087   0.193   4.360
 2720SOL    HW2 9060   1.191   0.114   4.459
 2721SOL     OW 9061   3.252   6.505   3.089
 2721SOL    HW1 9062   3.239   6.407   3.073
 2721SOL    HW2 9063   3.341   6.533   3.052
 2722SOL     OW 9064   4.922   5.350   6.582
 2722SOL    HW1 9065   4.953   5.340   6.487
 2722SOL    HW2 9066   4.940   5.443   6.613
 2723SOL     OW 9067   2.470   6.358   6.655
 2723SOL    HW1 9068   2.444   6.424   6.726
 2723SOL    HW2 9069   2.560   6.383   6.618
 2724SOL     OW 9070   1.391   5.794   6.568
 2724SOL    HW1 9071   1.334   5.822   6.491
 2724SOL    HW2 9072   1.400   5.870   6.632
 2725SOL     OW 9073   5.435   3.824   4.418
 2725SOL    HW1 9074   5.436   3.886   4.497
 2725SOL    HW2 9075   5.358   3.762   4.425
 2726SOL     OW 9076   0.756   2.006   1.890
 2726SOL    HW1 9077   0.776   2.010   1.793
 2726SOL    HW2 9078   0.658   2.000   1.904
 2727SOL     OW 9079   1.676   4.038   4.441
 2727SOL    HW1 9080   1.737   4.002   4.371
 2727SOL    HW2 9081   1.706   4.130   4.467
 2728SOL     OW 9082   5.305   6.059   6.447
 2728SOL    HW1 9083   5.257   5.991   6.502
 2728SOL    HW2 9084   5.386   6.090   6.495
 2729SOL     OW 9085   6.809   6.474   7.018
 2729SOL    HW1 9086   6.851   6.557   6.981
 2729SOL    HW2 9087   6.784   6.414   6.942
 2730SOL     OW 9088   0.803   5.620   1.499
 2730SOL    HW1 9089   0.796   5.527   1.535
 2730SOL    HW2 9090   0.813   5.618   1.400
 2731SOL     OW 9091   3.148   3.460   3.053
 2731SOL    HW1 9092   3.049   3.454   3.037
 2731SOL    HW2 9093   3.191   3.513   2.979
 2732SOL     OW 9094   5.863   2.198   1.830
 2732SOL    HW1 9095   5.841   2.110   1.789
 2732SOL    HW2 9096   5.947   2.234   1.790
 2733SOL     OW 9097   0.140   1.568   4.899
 2733SOL    HW1 9098   0.111   1.637   4.832
 2733SOL    HW2 9099   0.067   1.500   4.911
 2734SOL     OW 9100   3.561   5.778   1.713
 2734SOL    HW1 9101   3.605   5.843   1.776
 2734SOL    HW2 9102   3.538   5.694   1.762
 2735SOL     OW 9103   1.377   2.233   0.976
 2735SOL    HW1 9104   1.351   2.239   0.879
 2735SOL    HW2 9105   1.477   2.237   0.983
 2736SOL     OW 9106   6.137   6.263   4.775
 2736SOL    HW1 9107   6.170   6.345   4.729
 2736SOL    HW2 9108   6.193   6.245   4.856
 2737SOL     OW 9109   2.747   2.746   6.124
 2737SOL    HW1 9110   2.811   2.671   6.139
 2737SOL    HW2 9111   2.694   2.729   6.041
 2738SOL     OW 9112   6.372   6.558   2.548
 2738SOL    HW1 9113   6.317   6.614   2.610
 2738SOL    HW2 9114   6.328   6.555   2.458
 2739SOL     OW 9115   0.797   5.008   1.176
 2739SOL    HW1 9116   0.699   4.997   1.161
 2739SOL    HW2 9117   0.824   4.958   1.258
 2740SOL     OW 9118   6.981   5.277   2.134
 2740SOL    HW1 9119   0.045   5.321   2.145
 2740SOL    HW2 9120   6.994   5.181   2.110
 2741SOL     OW 9121   0.281   1.865   4.898
 2741SOL    HW1 9122   0.227   1.846   4.816
 2741SOL    HW2 9123   0.224   1.913   4.965
 2742SOL     OW 9124   2.690   5.163   1.691
 2742SOL    HW1 9125   2.747   5.114   1.625
 2742SOL    HW2 9126   2.658   5.249   1.650
 2743SOL     OW 9127   6.829   4.161   2.235
 2743SOL    HW1 9128   6.834   4.167   2.335
 2743SOL    HW2 9129   6.734   4.161   2.206
 2744SOL     OW 9130   4.208   3.295   1.852
 2744SOL    HW1 9131   4.264   3.234   1.796
 2744SOL    HW2 9132   4.233   3.390   1.833
 2745SOL     OW 9133   6.780   1.304   5.425
 2745SOL    HW1 9134   6.828   1.390   5.440
 2745SOL    HW2 9135   6.709   1.293   5.495
 2746SOL     OW 9136   0.467   2.111   4.019
 2746SOL    HW1 9137   0.479   2.091   3.922
 2746SOL    HW2 9138   0.552   2.147   4.056
 2747SOL     OW 9139   4.710   5.527   6.627
 2747SOL    HW1 9140   4.617   5.544   6.595
 2747SOL    HW2 9141   4.748   5.447   6.581
 2748SOL     OW 9142   4.710   0.669   1.676
 2748SOL    HW1 9143   4.627   0.702   1.632
 2748SOL    HW2 9144   4.786   0.732   1.656
 2749SOL     OW 9145   0.690   4.961   0.709
 2749SOL    HW1 9146   0.777   5.009   0.725
 2749SOL    HW2 9147   0.624   5.025   0.669
 2750SOL     OW 9148   2.094   4.477   2.002
 2750SOL    HW1 9149   2.157   4.554   1.994
 2750SOL    HW2 9150   2.115   4.409   1.932
 2751SOL     OW 9151   1.657   2.297   1.387
 2751SOL    HW1 9152   1.597   2.301   1.467
 2751SOL    HW2 9153   1.744   2.254   1.414
 2752SOL     OW 9154   3.608   4.427   6.128
 2752SOL    HW1 9155   3.545   4.349   6.120
 2752SOL    HW2 9156   3.692   4.398   6.173
 2753SOL     OW 9157   6.754   6.232   4.978
 2753SOL    HW1 9158   6.676   6.269   5.028
 2753SOL    HW2 9159   6.839   6.254   5.027
 2754SOL     OW 9160   0.602   0.085   0.274
 2754SOL    HW1 9161   0.511   0.059   0.305
 2754SOL    HW2 9162   0.668   0.015   0.302
 2755SOL     OW 9163   3.816   0.321   3.176
 2755SOL    HW1 9164   3.716   0.317   3.179
 2755SOL    HW2 9165   3.854   0.233   3.203
 2756SOL     OW 9166   4.055   6.002   0.209
 2756SOL    HW1 9167   4.134   6.038   0.160
 2756SOL    HW2 9168   4.086   5.941   0.282
 2757SOL     OW 9169   1.723   6.689   0.663
 2757SOL    HW1 9170   1.640   6.700   0.608
 2757SOL    HW2 9171   1.726   6.596   0.699
 2758SOL     OW 9172   5.058   0.153   4.818
 2758SOL    HW1 9173   5.015   0.145   4.908
 2758SOL    HW2 9174   5.097   0.245   4.809
 2759SOL     OW 9175   5.284   6.628   5.025
 2759SOL    HW1 9176   5.338   6.594   4.948
 2759SOL    HW2 9177   5.252   6.551   5.080
 2760SOL     OW 9178   1.195   5.673   1.637
 2760SOL    HW1 9179   1.284   5.717   1.654
 2760SOL    HW2 9180   1.127   5.744   1.619
 2761SOL     OW 9181   2.373   4.738   4.328
 2761SOL    HW1 9182   2.356   4.654   4.275
 2761SOL    HW2 9183   2.424   4.715   4.411
 2762SOL     OW 9184   0.735   1.273   5.120
 2762SOL    HW1 9185   0.770   1.297   5.030
 2762SOL    HW2 9186   0.809   1.236   5.176
 2763SOL     OW 9187   5.685   1.577   3.807
 2763SOL    HW1 9188   5.602   1.529   3.777
 2763SOL    HW2 9189   5.761   1.551   3.748
 2764SOL     OW 9190   6.188   0.391   1.062
 2764SOL    HW1 9191   6.134   0.470   1.035
 2764SOL    HW2 9192   6.141   0.341   1.135
 2765SOL     OW 9193   5.869   0.198   0.809
 2765SOL    HW1 9194   5.814   0.282   0.810
 2765SOL    HW2 9195   5.809   0.118   0.810
 2766SOL     OW 9196   5.094   2.590   0.461
 2766SOL    HW1 9197   5.115   2.548   0.373
 2766SOL    HW2 9198   5.097   2.690   0.452
 2767SOL     OW 9199   6.811   4.963   6.597
 2767SOL    HW1 9200   6.847   4.991   6.508
 2767SOL    HW2 9201   6.875   4.991   6.669
 2768SOL     OW 9202   4.997   0.732   0.132
 2768SOL    HW1 9203   4.910   0.687   0.151
 2768SOL    HW2 9204   4.984   0.831   0.130
 2769SOL     OW 9205   6.591   4.146   4.014
 2769SOL    HW1 9206   6.526   4.162   3.940
 2769SOL    HW2 9207   6.608   4.231   4.063
 2770SOL     OW 9208   2.252   5.763   6.376
 2770SOL    HW1 9209   2.284   5.678   6.335
 2770SOL    HW2 9210   2.240   5.832   6.304
 2771SOL     OW 9211   5.403   1.437   1.993
 2771SOL    HW1 9212   5.434   1.512   1.934
 2771SOL    HW2 9213   5.477   1.370   2.001
 2772SOL     OW 9214   4.418   1.753   0.982
 2772SOL    HW1 9215   4.371   1.671   0.950
 2772SOL    HW2 9216   4.439   1.812   0.904
 2773SOL     OW 9217   5.507   3.115   5.533
 2773SOL    HW1 9218   5.443   3.147   5.463
 2773SOL    HW2 9219   5.573   3.052   5.491
 2774SOL     OW 9220   6.829   3.152   2.981
 2774SOL    HW1 9221   6.847   3.132   2.885
 2774SOL    HW2 9222   6.881   3.088   3.038
 2775SOL     OW 9223   0.019   5.166   0.053
 2775SOL    HW1 9224   7.021   5.239   7.015
 2775SOL    HW2 9225   7.009   5.188   0.144
 2776SOL     OW 9226   5.090   5.103   5.615
 2776SOL    HW1 9227   5.030   5.129   5.539
 2776SOL    HW2 9228   5.058   5.018   5.655
 2777SOL     OW 9229   2.891   1.086   1.853
 2777SOL    HW1 9230   2.846   1.056   1.769
 2777SOL    HW2 9231   2.870   1.022   1.927
 2778SOL     OW 9232   1.239   1.035   4.818
 2778SOL    HW1 9233   1.287   1.086   4.890
 2778SOL    HW2 9234   1.237   0.938   4.841
 2779SOL     OW 9235   4.855   6.813   0.801
 2779SOL    HW1 9236   4.829   6.730   0.850
 2779SOL    HW2 9237   4.804   6.818   0.715
 2780SOL     OW 9238   6.938   5.686   6.323
 2780SOL    HW1 9239   6.970   5.777   6.347
 2780SOL    HW2 9240   6.871   5.693   6.248
 2781SOL     OW 9241   6.016   5.794   1.657
 2781SOL    HW1 9242   5.976   5.875   1.613
 2781SOL    HW2 9243   6.116   5.801   1.654
 2782SOL     OW 9244   2.921   2.254   5.777
 2782SOL    HW1 9245   2.991   2.209   5.720
 2782SOL    HW2 9246   2.869   2.184   5.827
 2783SOL     OW 9247   6.032   3.166   4.857
 2783SOL    HW1 9248   5.942   3.149   4.817
 2783SOL    HW2 9249   6.059   3.261   4.839
 2784SOL     OW 9250   3.219   2.033   0.867
 2784SOL    HW1 9251   3.302   2.055   0.817
 2784SOL    HW2 9252   3.243   1.981   0.949
 2785SOL     OW 9253   5.608   1.505   0.606
 2785SOL    HW1 9254   5.661   1.564   0.667
 2785SOL    HW2 9255   5.647   1.413   0.606
 2786SOL     OW 9256   4.086   5.804   1.689
 2786SOL    HW1 9257   4.083   5.791   1.590
 2786SOL    HW2 9258   4.180   5.824   1.718
 2787SOL     OW 9259   2.561   2.648   6.685
 2787SOL    HW1 9260   2.655   2.618   6.669
 2787SOL    HW2 9261   2.554   2.746   6.668
 2788SOL     OW 9262   2.437   4.456   6.951
 2788SOL    HW1 9263   2.454   4.369   6.996
 2788SOL    HW2 9264   2.461   4.450   6.854
 2789SOL     OW 9265   1.969   3.038   3.507
 2789SOL    HW1 9266   2.030   3.101   3.458
 2789SOL    HW2 9267   2.025   2.973   3.560
 2790SOL     OW 9268   2.824   5.481   2.502
 2790SOL    HW1 9269   2.766   5.562   2.504
 2790SOL    HW2 9270   2.772   5.402   2.533
 2791SOL     OW 9271   1.157   4.198   4.532
 2791SOL    HW1 9272   1.175   4.284   4.484
 2791SOL    HW2 9273   1.243   4.160   4.566
 2792SOL     OW 9274   0.596   6.684   4.913
 2792SOL    HW1 9275   0.671   6.719   4.968
 2792SOL    HW2 9276   0.519   6.747   4.918
 2793SOL     OW 9277   4.812   2.810   2.831
 2793SOL    HW1 9278   4.905   2.774   2.838
 2793SOL    HW2 9279   4.775   2.826   2.922
 2794SOL     OW 9280   0.061   2.156   0.911
 2794SOL    HW1 9281   0.024   2.091   0.976
 2794SOL    HW2 9282   7.022   2.171   0.836
 2795SOL     OW 9283   2.243   3.198   0.776
 2795SOL    HW1 9284   2.229   3.155   0.865
 2795SOL    HW2 9285   2.239   3.297   0.785
 2796SOL     OW 9286   6.617   4.976   2.995
 2796SOL    HW1 9287   6.593   4.921   3.075
 2796SOL    HW2 9288   6.606   5.073   3.018
 2797SOL     OW 9289   4.879   5.616   4.427
 2797SOL    HW1 9290   4.840   5.666   4.350
 2797SOL    HW2 9291   4.917   5.529   4.395
 2798SOL     OW 9292   1.171   4.766   1.881
 2798SOL    HW1 9293   1.145   4.764   1.785
 2798SOL    HW2 9294   1.223   4.684   1.904
 2799SOL     OW 9295   0.045   5.951   6.903
 2799SOL    HW1 9296   0.030   6.017   6.830
 2799SOL    HW2 9297   6.984   5.935   6.952
 2800SOL     OW 9298   4.327   5.196   6.748
 2800SOL    HW1 9299   4.316   5.283   6.701
 2800SOL    HW2 9300   4.424   5.168   6.746
 2801SOL     OW 9301   4.460   5.710   4.363
 2801SOL    HW1 9302   4.459   5.641   4.434
 2801SOL    HW2 9303   4.521   5.785   4.389
 2802SOL     OW 9304   4.757   3.233   6.349
 2802SOL    HW1 9305   4.832   3.168   6.341
 2802SOL    HW2 9306   4.679   3.203   6.293
 2803SOL     OW 9307   3.366   6.248   6.127
 2803SOL    HW1 9308   3.399   6.166   6.082
 2803SOL    HW2 9309   3.298   6.224   6.196
 2804SOL     OW 9310   0.058   4.787   4.598
 2804SOL    HW1 9311   0.018   4.733   4.524
 2804SOL    HW2 9312   0.016   4.761   4.685
 2805SOL     OW 9313   4.978   2.593   1.685
 2805SOL    HW1 9314   5.001   2.503   1.649
 2805SOL    HW2 9315   4.896   2.628   1.638
 2806SOL     OW 9316   6.325   4.805   4.279
 2806SOL    HW1 9317   6.348   4.880   4.341
 2806SOL    HW2 9318   6.284   4.842   4.195
 2807SOL     OW 9319   6.058   5.150   4.100
 2807SOL    HW1 9320   5.994   5.226   4.104
 2807SOL    HW2 9321   6.117   5.160   4.020
 2808SOL     OW 9322   5.092   2.807   2.630
 2808SOL    HW1 9323   5.108   2.754   2.713
 2808SOL    HW2 9324   5.021   2.876   2.648
 2809SOL     OW 9325   6.103   2.410   1.862
 2809SOL    HW1 9326   6.032   2.478   1.843
 2809SOL    HW2 9327   6.139   2.424   1.954
 2810SOL     OW 9328   3.225   6.436   4.419
 2810SOL    HW1 9329   3.191   6.498   4.348
 2810SOL    HW2 9330   3.262   6.354   4.377
 2811SOL     OW 9331   0.417   0.802   3.324
 2811SOL    HW1 9332   0.507   0.833   3.292
 2811SOL    HW2 9333   0.379   0.738   3.258
 2812SOL     OW 9334   5.711   3.638   0.412
 2812SOL    HW1 9335   5.757   3.628   0.324
 2812SOL    HW2 9336   5.766   3.697   0.472
 2813SOL     OW 9337   6.284   0.086   6.057
 2813SOL    HW1 9338   6.327   0.042   5.978
 2813SOL    HW2 9339   6.347   0.082   6.135
 2814SOL     OW 9340   4.829   2.927   0.004
 2814SOL    HW1 9341   4.881   3.010   0.025
 2814SOL    HW2 9342   4.763   2.947   6.957
 2815SOL     OW 9343   6.987   1.508   5.477
 2815SOL    HW1 9344   6.933   1.579   5.432
 2815SOL    HW2 9345   7.024   1.446   5.409
 2816SOL     OW 9346   6.777   5.974   3.754
 2816SOL    HW1 9347   6.794   6.035   3.676
 2816SOL    HW2 9348   6.748   6.029   3.833
 2817SOL     OW 9349   2.073   0.432   1.176
 2817SOL    HW1 9350   1.978   0.463   1.188
 2817SOL    HW2 9351   2.133   0.483   1.238
 2818SOL     OW 9352   0.104   6.527   6.989
 2818SOL    HW1 9353   0.200   6.547   6.972
 2818SOL    HW2 9354   0.048   6.602   6.956
 2819SOL     OW 9355   0.053   1.394   1.167
 2819SOL    HW1 9356   7.002   1.366   1.109
 2819SOL    HW2 9357   0.019   1.455   1.239
 2820SOL     OW 9358   1.371   1.959   2.729
 2820SOL    HW1 9359   1.413   1.869   2.738
 2820SOL    HW2 9360   1.341   1.990   2.820
 2821SOL     OW 9361   4.056   3.804   0.054
 2821SOL    HW1 9362   4.054   3.800   0.154
 2821SOL    HW2 9363   4.127   3.867   0.024
 2822SOL     OW 9364   4.309   2.559   6.885
 2822SOL    HW1 9365   4.408   2.565   6.883
 2822SOL    HW2 9366   4.281   2.491   6.953
 2823SOL     OW 9367   3.118   6.899   0.594
 2823SOL    HW1 9368   3.176   6.846   0.655
 2823SOL    HW2 9369   3.174   6.944   0.525
 2824SOL     OW 9370   2.723   1.259   4.414
 2824SOL    HW1 9371   2.678   1.200   4.481
 2824SOL    HW2 9372   2.654   1.294   4.350
 2825SOL     OW 9373   6.893   0.647   6.860
 2825SOL    HW1 9374   6.821   0.607   6.917
 2825SOL    HW2 9375   6.875   0.625   6.764
 2826SOL     OW 9376   5.307   2.098   0.061
 2826SOL    HW1 9377   5.380   2.131   0.121
 2826SOL    HW2 9378   5.317   2.141   6.996
 2827SOL     OW 9379   5.735   0.848   5.161
 2827SOL    HW1 9380   5.699   0.800   5.081
 2827SOL    HW2 9381   5.709   0.945   5.156
 2828SOL     OW 9382   3.263   0.414   0.106
 2828SOL    HW1 9383   3.291   0.326   0.068
 2828SOL    HW2 9384   3.260   0.483   0.033
 2829SOL     OW 9385   3.572   3.778   6.005
 2829SOL    HW1 9386   3.632   3.852   5.975
 2829SOL    HW2 9387   3.484   3.785   5.958
 2830SOL     OW 9388   1.012   3.404   6.846
 2830SOL    HW1 9389   1.014   3.331   6.914
 2830SOL    HW2 9390   1.028   3.492   6.892
 2831SOL     OW 9391   0.385   5.912   3.842
 2831SOL    HW1 9392   0.450   5.988   3.852
 2831SOL    HW2 9393   0.432   5.825   3.855
 2832SOL     OW 9394   0.590   1.095   2.095
 2832SOL    HW1 9395   0.552   1.061   2.009
 2832SOL    HW2 9396   0.593   1.195   2.093
 2833SOL     OW 9397   4.764   2.325   2.748
 2833SOL    HW1 9398   4.690   2.378   2.706
 2833SOL    HW2 9399   4.786   2.247   2.689
 2834SOL     OW 9400   2.888   6.872   5.738
 2834SOL    HW1 9401   2.907   6.814   5.659
 2834SOL    HW2 9402   2.925   6.829   5.820
 2835SOL     OW 9403   6.884   0.681   2.201
 2835SOL    HW1 9404   6.818   0.644   2.266
 2835SOL    HW2 9405   6.881   0.781   2.205
 2836SOL     OW 9406   6.280   6.837   1.687
 2836SOL    HW1 9407   6.188   6.861   1.720
 2836SOL    HW2 9408   6.346   6.904   1.722
 2837SOL     OW 9409   5.740   3.347   3.161
 2837SOL    HW1 9410   5.834   3.380   3.149
 2837SOL    HW2 9411   5.678   3.400   3.104
 2838SOL     OW 9412   1.910   4.202   1.299
 2838SOL    HW1 9413   1.854   4.177   1.378
 2838SOL    HW2 9414   1.923   4.123   1.240
 2839SOL     OW 9415   5.763   1.532   1.926
 2839SOL    HW1 9416   5.851   1.509   1.885
 2839SOL    HW2 9417   5.743   1.469   2.001
 2840SOL     OW 9418   0.983   1.206   3.660
 2840SOL    HW1 9419   1.043   1.274   3.702
 2840SOL    HW2 9420   0.957   1.237   3.568
 2841SOL     OW 9421   0.407   0.971   5.715
 2841SOL    HW1 9422   0.422   0.990   5.618
 2841SOL    HW2 9423   0.312   0.941   5.728
 2842SOL     OW 9424   6.979   3.062   4.245
 2842SOL    HW1 9425   7.019   3.034   4.332
 2842SOL    HW2 9426   0.010   3.132   4.203
 2843SOL     OW 9427   3.015   1.976   3.366
 2843SOL    HW1 9428   2.940   1.997   3.303
 2843SOL    HW2 9429   2.978   1.932   3.447
 2844SOL     OW 9430   1.214   5.693   0.369
 2844SOL    HW1 9431   1.282   5.719   0.300
 2844SOL    HW2 9432   1.185   5.599   0.354
 2845SOL     OW 9433   0.820   2.865   1.040
 2845SOL    HW1 9434   0.914   2.897   1.052
 2845SOL    HW2 9435   0.799   2.796   1.108
 2846SOL     OW 9436   4.410   1.074   6.453
 2846SOL    HW1 9437   4.413   1.168   6.486
 2846SOL    HW2 9438   4.460   1.067   6.367
 2847SOL     OW 9439   5.259   3.161   3.050
 2847SOL    HW1 9440   5.335   3.211   3.009
 2847SOL    HW2 9441   5.175   3.215   3.045
 2848SOL     OW 9442   1.135   3.487   6.612
 2848SOL    HW1 9443   1.168   3.418   6.547
 2848SOL    HW2 9444   1.084   3.442   6.685
 2849SOL     OW 9445   3.971   6.552   1.204
 2849SOL    HW1 9446   3.951   6.639   1.159
 2849SOL    HW2 9447   3.959   6.561   1.302
 2850SOL     OW 9448   3.347   6.863   2.406
 2850SOL    HW1 9449   3.270   6.927   2.410
 2850SOL    HW2 9450   3.414   6.896   2.339
 2851SOL     OW 9451   0.348   3.391   5.849
 2851SOL    HW1 9452   0.249   3.401   5.854
 2851SOL    HW2 9453   0.370   3.299   5.815
 2852SOL     OW 9454   5.598   4.235   0.683
 2852SOL    HW1 9455   5.547   4.221   0.598
 2852SOL    HW2 9456   5.615   4.333   0.696
 2853SOL     OW 9457   2.061   2.649   0.327
 2853SOL    HW1 9458   2.146   2.661   0.275
 2853SOL    HW2 9459   2.027   2.556   0.315
 2854SOL     OW 9460   3.758   1.664   4.952
 2854SOL    HW1 9461   3.735   1.706   4.864
 2854SOL    HW2 9462   3.680   1.671   5.014
 2855SOL     OW 9463   2.636   0.933   5.966
 2855SOL    HW1 9464   2.650   0.859   6.031
 2855SOL    HW2 9465   2.632   1.020   6.016
 2856SOL     OW 9466   1.850   2.971   5.964
 2856SOL    HW1 9467   1.834   3.004   5.871
 2856SOL    HW2 9468   1.892   3.044   6.018
 2857SOL     OW 9469   3.327   1.824   2.189
 2857SOL    HW1 9470   3.228   1.813   2.179
 2857SOL    HW2 9471   3.346   1.898   2.253
 2858SOL     OW 9472   5.911   3.836   1.600
 2858SOL    HW1 9473   5.849   3.911   1.623
 2858SOL    HW2 9474   5.859   3.758   1.565
 2859SOL     OW 9475   5.075   2.182   0.340
 2859SOL    HW1 9476   5.021   2.150   0.262
 2859SOL    HW2 9477   5.165   2.139   0.339
 2860SOL     OW 9478   3.647   2.011   1.327
 2860SOL    HW1 9479   3.738   2.043   1.352
 2860SOL    HW2 9480   3.580   2.043   1.395
 2861SOL     OW 9481   4.663   4.967   6.063
 2861SOL    HW1 9482   4.681   4.869   6.063
 2861SOL    HW2 9483   4.649   4.999   5.969
 2862SOL     OW 9484   5.181   1.899   3.417
 2862SOL    HW1 9485   5.194   1.816   3.363
 2862SOL    HW2 9486   5.262   1.915   3.473
 2863SOL     OW 9487   5.161   1.523   6.537
 2863SOL    HW1 9488   5.073   1.566   6.557
 2863SOL    HW2 9489   5.231   1.562   6.597
 2864SOL     OW 9490   4.293   0.988   1.680
 2864SOL    HW1 9491   4.305   1.082   1.650
 2864SOL    HW2 9492   4.210   0.950   1.639
 2865SOL     OW 9493   5.444   4.607   5.539
 2865SOL    HW1 9494   5.416   4.658   5.620
 2865SOL    HW2 9495   5.364   4.574   5.490
 2866SOL     OW 9496   6.345   6.391   6.849
 2866SOL    HW1 9497   6.310   6.448   6.923
 2866SOL    HW2 9498   6.423   6.337   6.882
 2867SOL     OW 9499   5.878   3.788   2.283
 2867SOL    HW1 9500   5.882   3.884   2.253
 2867SOL    HW2 9501   5.823   3.781   2.366
 2868SOL     OW 9502   0.572   2.928   5.420
 2868SOL    HW1 9503   0.596   2.865   5.347
 2868SOL    HW2 9504   0.506   2.885   5.482
 2869SOL     OW 9505   5.854   1.002   4.009
 2869SOL    HW1 9506   5.861   1.054   3.925
 2869SOL    HW2 9507   5.878   1.060   4.087
 2870SOL     OW 9508   0.243   1.488   4.225
 2870SOL    HW1 9509   0.189   1.409   4.256
 2870SOL    HW2 9510   0.183   1.557   4.187
 2871SOL     OW 9511   0.996   1.630   0.157
 2871SOL    HW1 9512   0.904   1.656   0.130
 2871SOL    HW2 9513   1.035   1.702   0.214
 2872SOL     OW 9514   2.802   1.535   3.379
 2872SOL    HW1 9515   2.891   1.549   3.336
 2872SOL    HW2 9516   2.775   1.439   3.368
 2873SOL     OW 9517   0.359   4.960   2.927
 2873SOL    HW1 9518   0.325   4.882   2.874
 2873SOL    HW2 9519   0.454   4.978   2.901
 2874SOL     OW 9520   3.989   6.374   3.268
 2874SOL    HW1 9521   3.931   6.293   3.284
 2874SOL    HW2 9522   4.073   6.346   3.222
 2875SOL     OW 9523   4.823   6.263   0.378
 2875SOL    HW1 9524   4.730   6.249   0.412
 2875SOL    HW2 9525   4.845   6.361   0.381
 2876SOL     OW 9526   0.896   0.141   2.002
 2876SOL    HW1 9527   0.832   0.200   2.051
 2876SOL    HW2 9528   0.987   0.150   2.042
 2877SOL     OW 9529   3.814   2.793   5.299
 2877SOL    HW1 9530   3.780   2.859   5.366
 2877SOL    HW2 9531   3.911   2.810   5.283
 2878SOL     OW 9532   3.822   5.284   4.429
 2878SOL    HW1 9533   3.785   5.201   4.472
 2878SOL    HW2 9534   3.868   5.260   4.344
 2879SOL     OW 9535   5.205   4.799   0.879
 2879SOL    HW1 9536   5.252   4.715   0.851
 2879SOL    HW2 9537   5.214   4.810   0.978
 2880SOL     OW 9538   5.669   6.793   1.072
 2880SOL    HW1 9539   5.597   6.861   1.057
 2880SOL    HW2 9540   5.757   6.831   1.046
 2881SOL     OW 9541   5.903   6.365   1.001
 2881SOL    HW1 9542   5.967   6.403   1.067
 2881SOL    HW2 9543   5.940   6.281   0.962
 2882SOL     OW 9544   0.523   4.191   2.398
 2882SOL    HW1 9545   0.518   4.092   2.407
 2882SOL    HW2 9546   0.443   4.224   2.347
 2883SOL     OW 9547   5.481   5.899   4.021
 2883SOL    HW1 9548   5.421   5.947   4.085
 2883SOL    HW2 9549   5.575   5.927   4.037
 2884SOL     OW 9550   0.576   5.742   2.921
 2884SOL    HW1 9551   0.504   5.742   2.851
 2884SOL    HW2 9552   0.664   5.723   2.878
 2885SOL     OW 9553   0.494   3.484   2.048
 2885SOL    HW1 9554   0.474   3.581   2.059
 2885SOL    HW2 9555   0.474   3.436   2.133
 2886SOL     OW 9556   2.406   4.024   6.469
 2886SOL    HW1 9557   2.394   3.926   6.459
 2886SOL    HW2 9558   2.334   4.061   6.528
 2887SOL     OW 9559   1.214   0.130   4.758
 2887SOL    HW1 9560   1.253   0.127   4.666
 2887SOL    HW2 9561   1.151   0.053   4.769
 2888SOL     OW 9562   0.805   4.673   6.856
 2888SOL    HW1 9563   0.839   4.756   6.902
 2888SOL    HW2 9564   0.882   4.624   6.815
 2889SOL     OW 9565   1.657   0.007   2.607
 2889SOL    HW1 9566   1.561   0.013   2.632
 2889SOL    HW2 9567   1.704   0.090   2.636
 2890SOL     OW 9568   2.978   0.624   1.202
 2890SOL    HW1 9569   2.939   0.574   1.279
 2890SOL    HW2 9570   3.047   0.688   1.234
 2891SOL     OW 9571   2.173   4.152   3.994
 2891SOL    HW1 9572   2.092   4.200   3.959
 2891SOL    HW2 9573   2.255   4.187   3.949
 2892SOL     OW 9574   5.504   3.776   0.240
 2892SOL    HW1 9575   5.587   3.787   0.186
 2892SOL    HW2 9576   5.489   3.679   0.259
 2893SOL     OW 9577   6.968   6.542   4.711
 2893SOL    HW1 9578   6.945   6.568   4.617
 2893SOL    HW2 9579   6.888   6.554   4.769
 2894SOL     OW 9580   3.077   2.955   0.104
 2894SOL    HW1 9581   3.025   2.894   0.043
 2894SOL    HW2 9582   3.125   2.900   0.173
 2895SOL     OW 9583   4.012   2.904   6.639
 2895SOL    HW1 9584   4.031   2.971   6.711
 2895SOL    HW2 9585   4.079   2.914   6.566
 2896SOL     OW 9586   3.242   5.363   6.633
 2896SOL    HW1 9587   3.259   5.330   6.541
 2896SOL    HW2 9588   3.192   5.294   6.685
 2897SOL     OW 9589   3.163   5.842   3.230
 2897SOL    HW1 9590   3.140   5.775   3.159
 2897SOL    HW2 9591   3.174   5.795   3.317
 2898SOL     OW 9592   4.504   4.976   3.794
 2898SOL    HW1 9593   4.497   4.924   3.879
 2898SOL    HW2 9594   4.429   5.042   3.790
 2899SOL     OW 9595   0.442   2.049   0.175
 2899SOL    HW1 9596   0.372   2.004   0.120
 2899SOL    HW2 9597   0.400   2.085   0.259
 2900SOL     OW 9598   2.022   4.939   5.412
 2900SOL    HW1 9599   2.034   5.029   5.453
 2900SOL    HW2 9600   1.925   4.923   5.393
 2901SOL     OW 9601   1.927   0.349   3.102
 2901SOL    HW1 9602   1.966   0.441   3.106
 2901SOL    HW2 9603   1.831   0.355   3.074
 2902SOL     OW 9604   5.516   6.141   1.760
 2902SOL    HW1 9605   5.531   6.064   1.697
 2902SOL    HW2 9606   5.429   6.127   1.808
 2903SOL     OW 9607   3.053   0.254   1.157
 2903SOL    HW1 9608   3.026   0.314   1.082
 2903SOL    HW2 9609   3.077   0.164   1.120
 2904SOL     OW 9610   1.848   3.420   5.520
 2904SOL    HW1 9611   1.855   3.478   5.439
 2904SOL    HW2 9612   1.820   3.475   5.598
 2905SOL     OW 9613   1.502   2.470   3.476
 2905SOL    HW1 9614   1.502   2.548   3.539
 2905SOL    HW2 9615   1.578   2.480   3.412
 2906SOL     OW 9616   5.217   5.488   2.706
 2906SOL    HW1 9617   5.155   5.562   2.731
 2906SOL    HW2 9618   5.262   5.510   2.620
 2907SOL     OW 9619   0.488   1.343   4.175
 2907SOL    HW1 9620   0.420   1.410   4.207
 2907SOL    HW2 9621   0.451   1.251   4.187
 2908SOL     OW 9622   4.340   7.018   4.020
 2908SOL    HW1 9623   4.281   6.937   4.019
 2908SOL    HW2 9624   4.362   0.017   3.925
 2909SOL     OW 9625   0.745   6.124   3.645
 2909SOL    HW1 9626   0.701   6.037   3.666
 2909SOL    HW2 9627   0.697   6.198   3.692
 2910SOL     OW 9628   4.785   6.150   4.161
 2910SOL    HW1 9629   4.809   6.195   4.076
 2910SOL    HW2 9630   4.823   6.057   4.162
 2911SOL     OW 9631   1.625   5.570   3.546
 2911SOL    HW1 9632   1.565   5.640   3.584
 2911SOL    HW2 9633   1.673   5.522   3.620
 2912SOL     OW 9634   3.902   6.563   6.365
 2912SOL    HW1 9635   3.852   6.496   6.310
 2912SOL    HW2 9636   3.886   6.545   6.462
 2913SOL     OW 9637   1.997   5.042   2.316
 2913SOL    HW1 9638   1.928   5.113   2.306
 2913SOL    HW2 9639   2.083   5.083   2.345
 2914SOL     OW 9640   6.436   6.278   5.852
 2914SOL    HW1 9641   6.460   6.366   5.892
 2914SOL    HW2 9642   6.501   6.208   5.881
 2915SOL     OW 9643   5.220   1.673   5.072
 2915SOL    HW1 9644   5.128   1.703   5.047
 2915SOL    HW2 9645   5.217   1.575   5.096
 2916SOL     OW 9646   6.563   5.352   6.019
 2916SOL    HW1 9647   6.570   5.384   6.113
 2916SOL    HW2 9648   6.511   5.267   6.016
 2917SOL     OW 9649   4.213   0.036   1.880
 2917SOL    HW1 9650   4.153   0.089   1.819
 2917SOL    HW2 9651   4.301   0.082   1.888
 2918SOL     OW 9652   0.150   4.030   3.436
 2918SOL    HW1 9653   0.233   4.057   3.485
 2918SOL    HW2 9654   0.071   4.078   3.475
 2919SOL     OW 9655   6.537   0.929   0.616
 2919SOL    HW1 9656   6.455   0.942   0.560
 2919SOL    HW2 9657   6.572   0.836   0.602
 2920SOL     OW 9658   3.034   1.906   2.331
 2920SOL    HW1 9659   2.949   1.903   2.280
 2920SOL    HW2 9660   3.076   1.996   2.320
 2921SOL     OW 9661   0.841   0.382   3.074
 2921SOL    HW1 9662   0.778   0.313   3.108
 2921SOL    HW2 9663   0.929   0.338   3.051
 2922SOL     OW 9664   5.863   6.898   6.922
 2922SOL    HW1 9665   5.933   6.903   6.993
 2922SOL    HW2 9666   5.773   6.889   6.965
 2923SOL     OW 9667   6.980   4.634   1.803
 2923SOL    HW1 9668   0.022   4.560   1.803
 2923SOL    HW2 9669   6.898   4.605   1.753
 2924SOL     OW 9670   0.168   2.163   6.557
 2924SOL    HW1 9671   0.145   2.258   6.578
 2924SOL    HW2 9672   0.120   2.102   6.619
 2925SOL     OW 9673   5.249   0.707   3.454
 2925SOL    HW1 9674   5.255   0.701   3.355
 2925SOL    HW2 9675   5.174   0.649   3.486
 2926SOL     OW 9676   0.198   1.354   4.550
 2926SOL    HW1 9677   0.287   1.327   4.588
 2926SOL    HW2 9678   0.190   1.319   4.457
 2927SOL     OW 9679   1.508   1.651   2.197
 2927SOL    HW1 9680   1.589   1.638   2.140
 2927SOL    HW2 9681   1.427   1.653   2.139
 2928SOL     OW 9682   6.682   2.317   5.944
 2928SOL    HW1 9683   6.767   2.323   5.996
 2928SOL    HW2 9684   6.665   2.221   5.919
 2929SOL     OW 9685   0.730   1.269   6.319
 2929SOL    HW1 9686   0.717   1.189   6.262
 2929SOL    HW2 9687   0.748   1.241   6.414
 2930SOL     OW 9688   4.804   6.243   5.101
 2930SOL    HW1 9689   4.706   6.226   5.094
 2930SOL    HW2 9690   4.849   6.216   5.016
 2931SOL     OW 9691   5.648   6.005   0.203
 2931SOL    HW1 9692   5.574   5.937   0.202
 2931SOL    HW2 9693   5.705   5.990   0.284
 2932SOL     OW 9694   1.445   5.413   2.002
 2932SOL    HW1 9695   1.534   5.453   1.980
 2932SOL    HW2 9696   1.443   5.318   1.972
 2933SOL     OW 9697   6.351   3.130   3.266
 2933SOL    HW1 9698   6.387   3.119   3.358
 2933SOL    HW2 9699   6.281   3.202   3.266
 2934SOL     OW 9700   3.941   1.254   0.137
 2934SOL    HW1 9701   3.932   1.252   0.237
 2934SOL    HW2 9702   3.860   1.297   0.098
 2935SOL     OW 9703   6.499   3.274   1.397
 2935SOL    HW1 9704   6.494   3.364   1.441
 2935SOL    HW2 9705   6.414   3.224   1.413
 2936SOL     OW 9706   4.723   5.434   2.037
 2936SOL    HW1 9707   4.727   5.491   2.119
 2936SOL    HW2 9708   4.786   5.357   2.048
 2937SOL     OW 9709   4.026   5.004   0.410
 2937SOL    HW1 9710   3.967   5.011   0.330
 2937SOL    HW2 9711   4.027   4.910   0.444
 2938SOL     OW 9712   5.370   4.742   5.780
 2938SOL    HW1 9713   5.358   4.823   5.723
 2938SOL    HW2 9714   5.349   4.764   5.875
 2939SOL     OW 9715   0.580   0.241   4.769
 2939SOL    HW1 9716   0.665   0.232   4.717
 2939SOL    HW2 9717   0.502   0.218   4.710
 2940SOL     OW 9718   5.660   6.977   6.533
 2940SOL    HW1 9719   5.664   0.051   6.518
 2940SOL    HW2 9720   5.752   6.941   6.541
 2941SOL     OW 9721   2.111   1.987   4.727
 2941SOL    HW1 9722   2.123   2.070   4.673
 2941SOL    HW2 9723   2.171   1.915   4.692
 2942SOL     OW 9724   2.569   1.568   1.439
 2942SOL    HW1 9725   2.538   1.598   1.529
 2942SOL    HW2 9726   2.580   1.469   1.438
 2943SOL     OW 9727   6.008   3.661   2.571
 2943SOL    HW1 9728   5.991   3.566   2.599
 2943SOL    HW2 9729   5.946   3.722   2.620
 2944SOL     OW 9730   2.403   5.818   5.185
 2944SOL    HW1 9731   2.467   5.876   5.236
 2944SOL    HW2 9732   2.336   5.874   5.138
 2945SOL     OW 9733   3.855   4.030   3.838
 2945SOL    HW1 9734   3.826   3.961   3.903
 2945SOL    HW2 9735   3.876   3.987   3.750
 2946SOL     OW 9736   0.394   5.353   6.640
 2946SOL    HW1 9737   0.323   5.420   6.618
 2946SOL    HW2 9738   0.455   5.391   6.710
 2947SOL     OW 9739   0.754   4.264   7.007
 2947SOL    HW1 9740   0.773   4.245   6.910
 2947SOL    HW2 9741   0.681   4.204   0.014
 2948SOL     OW 9742   0.272   4.621   5.387
 2948SOL    HW1 9743   0.286   4.670   5.301
 2948SOL    HW2 9744   0.205   4.671   5.443
 2949SOL     OW 9745   1.940   6.576   1.405
 2949SOL    HW1 9746   1.945   6.674   1.385
 2949SOL    HW2 9747   1.941   6.525   1.319
 2950SOL     OW 9748   4.934   3.740   4.469
 2950SOL    HW1 9749   4.906   3.835   4.453
 2950SOL    HW2 9750   4.915   3.715   4.563
 2951SOL     OW 9751   6.894   2.544   0.972
 2951SOL    HW1 9752   6.866   2.522   0.878
 2951SOL    HW2 9753   6.866   2.470   1.033
 2952SOL     OW 9754   0.880   5.994   4.740
 2952SOL    HW1 9755   0.782   5.983   4.757
 2952SOL    HW2 9756   0.898   6.086   4.705
 2953SOL     OW 9757   4.831   3.106   2.929
 2953SOL    HW1 9758   4.807   3.022   2.977
 2953SOL    HW2 9759   4.750   3.164   2.921
 2954SOL     OW 9760   0.716   5.420   2.023
 2954SOL    HW1 9761   0.808   5.412   1.986
 2954SOL    HW2 9762   0.670   5.332   2.017
 2955SOL     OW 9763   1.304   3.850   0.818
 2955SOL    HW1 9764   1.210   3.885   0.820
 2955SOL    HW2 9765   1.324   3.804   0.904
 2956SOL     OW 9766   6.416   6.158   3.216
 2956SOL    HW1 9767   6.514   6.142   3.230
 2956SOL    HW2 9768   6.365   6.110   3.287
 2957SOL     OW 9769   6.882   3.470   1.472
 2957SOL    HW1 9770   6.850   3.394   1.528
 2957SOL    HW2 9771   6.956   3.518   1.520
 2958SOL     OW 9772   2.645   4.624   4.706
 2958SOL    HW1 9773   2.693   4.536   4.715
 2958SOL    HW2 9774   2.627   4.661   4.797
 2959SOL     OW 9775   4.380   4.259   0.629
 2959SOL    HW1 9776   4.334   4.347   0.636
 2959SOL    HW2 9777   4.455   4.256   0.696
 2960SOL     OW 9778   3.329   0.297   6.717
 2960SOL    HW1 9779   3.236   0.313   6.749
 2960SOL    HW2 9780   3.340   0.334   6.625
 2961SOL     OW 9781   5.338   2.723   4.932
 2961SOL    HW1 9782   5.238   2.729   4.942
 2961SOL    HW2 9783   5.360   2.679   4.845
 2962SOL     OW 9784   4.314   1.355   4.019
 2962SOL    HW1 9785   4.402   1.310   4.034
 2962SOL    HW2 9786   4.304   1.431   4.083
 2963SOL     OW 9787   2.205   1.220   6.063
 2963SOL    HW1 9788   2.187   1.203   6.160
 2963SOL    HW2 9789   2.251   1.141   6.024
 2964SOL     OW 9790   0.352   0.147   2.000
 2964SOL    HW1 9791   0.404   0.097   2.068
 2964SOL    HW2 9792   0.415   0.190   1.935
 2965SOL     OW 9793   6.912   1.115   4.397
 2965SOL    HW1 9794   6.919   1.212   4.421
 2965SOL    HW2 9795   6.942   1.060   4.475
 2966SOL     OW 9796   5.997   4.965   4.319
 2966SOL    HW1 9797   5.899   4.952   4.309
 2966SOL    HW2 9798   6.028   5.036   4.254
 2967SOL     OW 9799   6.085   2.090   4.305
 2967SOL    HW1 9800   6.100   2.004   4.355
 2967SOL    HW2 9801   5.991   2.094   4.273
 2968SOL     OW 9802   1.156   4.050   5.929
 2968SOL    HW1 9803   1.251   4.062   5.902
 2968SOL    HW2 9804   1.144   4.081   6.023
 2969SOL     OW 9805   5.671   1.140   4.483
 2969SOL    HW1 9806   5.720   1.144   4.395
 2969SOL    HW2 9807   5.653   1.045   4.506
 2970SOL     OW 9808   1.220   3.757   6.290
 2970SOL    HW1 9809   1.131   3.715   6.273
 2970SOL    HW2 9810   1.287   3.686   6.312
 2971SOL     OW 9811   5.231   2.965   5.804
 2971SOL    HW1 9812   5.156   2.979   5.739
 2971SOL    HW2 9813   5.222   2.875   5.845
 2972SOL     OW 9814   6.411   5.086   6.359
 2972SOL    HW1 9815   6.451   5.039   6.280
 2972SOL    HW2 9816   6.354   5.021   6.410
 2973SOL     OW 9817   5.418   1.211   4.405
 2973SOL    HW1 9818   5.355   1.167   4.469
 2973SOL    HW2 9819   5.509   1.216   4.445
 2974SOL     OW 9820   0.564   3.801   2.703
 2974SOL    HW1 9821   0.488   3.745   2.670
 2974SOL    HW2 9822   0.640   3.742   2.732
 2975SOL     OW 9823   0.800   2.694   4.877
 2975SOL    HW1 9824   0.780   2.600   4.904
 2975SOL    HW2 9825   0.725   2.730   4.822
 2976SOL     OW 9826   4.194   1.600   3.061
 2976SOL    HW1 9827   4.287   1.604   3.023
 2976SOL    HW2 9828   4.131   1.569   2.990
 2977SOL     OW 9829   1.689   6.719   4.473
 2977SOL    HW1 9830   1.768   6.770   4.507
 2977SOL    HW2 9831   1.717   6.627   4.447
 2978SOL     OW 9832   4.099   5.356   6.422
 2978SOL    HW1 9833   4.023   5.411   6.456
 2978SOL    HW2 9834   4.075   5.259   6.429
 2979SOL     OW 9835   5.131   6.618   4.270
 2979SOL    HW1 9836   5.198   6.668   4.325
 2979SOL    HW2 9837   5.107   6.672   4.189
 2980SOL     OW 9838   1.170   5.906   3.799
 2980SOL    HW1 9839   1.158   6.004   3.810
 2980SOL    HW2 9840   1.147   5.879   3.705
 2981SOL     OW 9841   0.858   0.985   5.890
 2981SOL    HW1 9842   0.927   1.013   5.824
 2981SOL    HW2 9843   0.840   0.887   5.879
 2982SOL     OW 9844   5.072   6.253   3.286
 2982SOL    HW1 9845   5.033   6.271   3.196
 2982SOL    HW2 9846   5.034   6.317   3.353
 2983SOL     OW 9847   1.010   1.614   4.281
 2983SOL    HW1 9848   0.963   1.702   4.279
 2983SOL    HW2 9849   0.992   1.565   4.195
 2984SOL     OW 9850   4.805   5.706   1.913
 2984SOL    HW1 9851   4.813   5.614   1.875
 2984SOL    HW2 9852   4.859   5.713   1.997
 2985SOL     OW 9853   1.032   2.827   4.823
 2985SOL    HW1 9854   0.962   2.802   4.890
 2985SOL    HW2 9855   0.997   2.897   4.762
 2986SOL     OW 9856   2.251   3.777   6.405
 2986SOL    HW1 9857   2.246   3.707   6.477
 2986SOL    HW2 9858   2.339   3.772   6.359
 2987SOL     OW 9859   5.021   0.545   4.016
 2987SOL    HW1 9860   5.002   0.447   4.010
 2987SOL    HW2 9861   5.114   0.563   3.984
 2988SOL     OW 9862   0.858   6.855   2.908
 2988SOL    HW1 9863   0.861   6.781   2.840
 2988SOL    HW2 9864   0.912   6.829   2.988
 2989SOL     OW 9865   6.376   6.107   0.559
 2989SOL    HW1 9866   6.446   6.098   0.488
 2989SOL    HW2 9867   6.367   6.020   0.608
 2990SOL     OW 9868   4.413   1.269   3.659
 2990SOL    HW1 9869   4.451   1.177   3.668
 2990SOL    HW2 9870   4.371   1.280   3.569
 2991SOL     OW 9871   6.667   3.887   6.933
 2991SOL    HW1 9872   6.577   3.929   6.949
 2991SOL    HW2 9873   6.694   3.835   7.014
 2992SOL     OW 9874   2.310   5.048   6.058
 2992SOL    HW1 9875   2.344   4.987   5.986
 2992SOL    HW2 9876   2.387   5.091   6.104
 2993SOL     OW 9877   0.942   5.143   1.927
 2993SOL    HW1 9878   0.962   5.186   1.840
 2993SOL    HW2 9879   0.845   5.118   1.931
 2994SOL     OW 9880   4.041   0.188   0.854
 2994SOL    HW1 9881   4.015   0.269   0.907
 2994SOL    HW2 9882   4.139   0.189   0.836
 2995SOL     OW 9883   1.530   3.569   6.894
 2995SOL    HW1 9884   1.472   3.519   6.958
 2995SOL    HW2 9885   1.476   3.597   6.814
 2996SOL     OW 9886   2.567   6.016   3.739
 2996SOL    HW1 9887   2.575   6.035   3.837
 2996SOL    HW2 9888   2.482   5.966   3.722
 2997SOL     OW 9889   5.000   0.125   1.871
 2997SOL    HW1 9890   4.913   0.095   1.832
 2997SOL    HW2 9891   4.984   0.161   1.963
 2998SOL     OW 9892   5.705   6.453   5.092
 2998SOL    HW1 9893   5.680   6.549   5.100
 2998SOL    HW2 9894   5.672   6.403   5.173
 2999SOL     OW 9895   3.182   5.110   3.716
 2999SOL    HW1 9896   3.192   5.209   3.726
 2999SOL    HW2 9897   3.114   5.090   3.645
 3000SOL     OW 9898   1.974   3.756   6.855
 3000SOL    HW1 9899   2.006   3.679   6.911
 3000SOL    HW2 9900   1.881   3.780   6.883
 3001SOL     OW 9901   5.509   6.674   6.756
 3001SOL    HW1 9902   5.557   6.664   6.669
 3001SOL    HW2 9903   5.566   6.638   6.830
 3002SOL     OW 9904   4.633   0.270   6.080
 3002SOL    HW1 9905   4.636   0.225   5.990
 3002SOL    HW2 9906   4.585   0.357   6.072
 3003SOL     OW 9907   2.579   0.055   6.289
 3003SOL    HW1 9908   2.645   7.020   6.244
 3003SOL    HW2 9909   2.486   0.023   6.269
 3004SOL     OW 9910   0.823   5.299   3.926
 3004SOL    HW1 9911   0.736   5.254   3.910
 3004SOL    HW2 9912   0.857   5.275   4.017
 3005SOL     OW 9913   3.051   2.551   6.862
 3005SOL    HW1 9914   3.137   2.543   6.813
 3005SOL    HW2 9915   3.065   2.534   6.959
 3006SOL     OW 9916   6.091   2.156   6.743
 3006SOL    HW1 9917   6.117   2.085   6.809
 3006SOL    HW2 9918   6.098   2.120   6.650
 3007SOL     OW 9919   6.320   5.017   2.048
 3007SOL    HW1 9920   6.267   4.934   2.032
 3007SOL    HW2 9921   6.365   5.011   2.137
 3008SOL     OW 9922   3.100   0.443   6.475
 3008SOL    HW1 9923   3.016   0.394   6.499
 3008SOL    HW2 9924   3.085   0.498   6.393
 3009SOL     OW 9925   0.185   6.372   2.805
 3009SOL    HW1 9926   0.122   6.365   2.883
 3009SOL    HW2 9927   0.223   6.465   2.801
 3010SOL     OW 9928   3.598   6.389   3.297
 3010SOL    HW1 9929   3.526   6.439   3.345
 3010SOL    HW2 9930   3.686   6.437   3.309
 3011SOL     OW 9931   5.698   1.626   0.348
 3011SOL    HW1 9932   5.606   1.651   0.318
 3011SOL    HW2 9933   5.694   1.584   0.439
 3012SOL     OW 9934   1.292   3.498   5.287
 3012SOL    HW1 9935   1.217   3.432   5.279
 3012SOL    HW2 9936   1.271   3.563   5.359
 3013SOL     OW 9937   5.416   5.406   4.802
 3013SOL    HW1 9938   5.468   5.338   4.752
 3013SOL    HW2 9939   5.334   5.431   4.750
 3014SOL     OW 9940   4.968   3.272   4.171
 3014SOL    HW1 9941   4.932   3.354   4.214
 3014SOL    HW2 9942   5.048   3.240   4.222
 3015SOL     OW 9943   2.932   2.581   0.248
 3015SOL    HW1 9944   2.914   2.539   0.337
 3015SOL    HW2 9945   2.993   2.523   0.196
 3016SOL     OW 9946   2.879   5.764   3.862
 3016SOL    HW1 9947   2.912   5.825   3.935
 3016SOL    HW2 9948   2.833   5.818   3.792
 3017SOL     OW 9949   0.658   5.140   2.000
 3017SOL    HW1 9950   0.656   5.134   2.100
 3017SOL    HW2 9951   0.588   5.080   1.961
 3018SOL     OW 9952   2.725   0.066   4.940
 3018SOL    HW1 9953   2.781   0.127   4.884
 3018SOL    HW2 9954   2.696   0.114   5.022
 3019SOL     OW 9955   2.052   0.105   0.881
 3019SOL    HW1 9956   2.105   0.174   0.930
 3019SOL    HW2 9957   2.039   0.133   0.786
 3020SOL     OW 9958   3.567   4.145   1.349
 3020SOL    HW1 9959   3.663   4.173   1.354
 3020SOL    HW2 9960   3.540   4.102   1.435
 3021SOL     OW 9961   3.397   0.974   6.945
 3021SOL    HW1 9962   3.460   1.030   7.000
 3021SOL    HW2 9963   3.440   0.954   6.857
 3022SOL     OW 9964   3.924   5.795   3.534
 3022SOL    HW1 9965   3.897   5.792   3.630
 3022SOL    HW2 9966   3.843   5.814   3.478
 3023SOL     OW 9967   4.509   6.712   2.528
 3023SOL    HW1 9968   4.524   6.794   2.583
 3023SOL    HW2 9969   4.434   6.658   2.567
 3024SOL     OW 9970   4.222   6.918   5.906
 3024SOL    HW1 9971   4.198   6.982   5.832
 3024SOL    HW2 9972   4.310   6.875   5.885
 3025SOL     OW 9973   3.625   1.949   0.247
 3025SOL    HW1 9974   3.627   2.048   0.229
 3025SOL    HW2 9975   3.587   1.902   0.168
 3026SOL     OW 9976   2.227   2.152   0.325
 3026SOL    HW1 9977   2.309   2.194   0.284
 3026SOL    HW2 9978   2.148   2.168   0.266
 3027SOL     OW 9979   4.383   0.714   2.031
 3027SOL    HW1 9980   4.386   0.723   2.130
 3027SOL    HW2 9981   4.456   0.653   2.001
 3028SOL     OW 9982   1.718   3.759   5.962
 3028SOL    HW1 9983   1.809   3.727   5.988
 3028SOL    HW2 9984   1.721   3.857   5.943
 3029SOL     OW 9985   0.021   5.094   5.176
 3029SOL    HW1 9986   0.080   5.027   5.222
 3029SOL    HW2 9987   7.015   5.161   5.243
 3030SOL     OW 9988   0.970   2.428   6.341
 3030SOL    HW1 9989   1.052   2.483   6.323
 3030SOL    HW2 9990   0.994   2.331   6.337
 3031SOL     OW 9991   0.037   3.489   0.833
 3031SOL    HW1 9992   6.976   3.441   0.845
 3031SOL    HW2 9993   0.082   3.456   0.750
 3032SOL     OW 9994   4.558   6.783   1.036
 3032SOL    HW1 9995   4.525   6.840   0.960
 3032SOL    HW2 9996   4.549   6.833   1.122
 3033SOL     OW 9997   0.801   2.811   1.335
 3033SOL    HW1 9998   0.899   2.821   1.354
 3033SOL    HW2 9999   0.778   2.714   1.329
 3034SOL     OW10000   1.658   5.353   3.335
 3034SOL    HW110001   1.595   5.389   3.267
 3034SOL    HW210002   1.641   5.399   3.423
 3035SOL     OW10003   6.731   3.139   0.376
 3035SOL    HW110004   6.731   3.057   0.318
 3035SOL    HW210005   6.642   3.148   0.422
 3036SOL     OW10006   1.509   3.226   6.450
 3036SOL    HW110007   1.486   3.232   6.547
 3036SOL    HW210008   1.598   3.269   6.434
 3037SOL     OW10009   6.841   5.488   3.988
 3037SOL    HW110010   6.918   5.424   3.990
 3037SOL    HW210011   6.807   5.497   3.895
 3038SOL     OW10012   5.599   6.604   6.527
 3038SOL    HW110013   5.553   6.587   6.440
 3038SOL    HW210014   5.691   6.640   6.509
 3039SOL     OW10015   6.667   3.865   2.144
 3039SOL    HW110016   6.685   3.789   2.081
 3039SOL    HW210017   6.574   3.899   2.129
 3040SOL     OW10018   4.896   3.582   6.179
 3040SOL    HW110019   4.825   3.512   6.170
 3040SOL    HW210020   4.944   3.570   6.266
 3041SOL     OW10021   2.146   2.720   5.386
 3041SOL    HW110022   2.224   2.783   5.393
 3041SOL    HW210023   2.099   2.737   5.299
 3042SOL     OW10024   5.614   6.781   1.792
 3042SOL    HW110025   5.712   6.783   1.813
 3042SOL    HW210026   5.590   6.692   1.755
 3043SOL     OW10027   0.815   5.254   1.318
 3043SOL    HW110028   0.726   5.291   1.344
 3043SOL    HW210029   0.803   5.162   1.282
 3044SOL     OW10030   2.984   4.688   6.199
 3044SOL    HW110031   2.886   4.677   6.178
 3044SOL    HW210032   3.028   4.739   6.125
 3045SOL     OW10033   4.862   0.669   3.263
 3045SOL    HW110034   4.907   0.753   3.294
 3045SOL    HW210035   4.774   0.659   3.309
 3046SOL     OW10036   2.727   1.907   6.499
 3046SOL    HW110037   2.660   1.888   6.570
 3046SOL    HW210038   2.693   1.979   6.439
 3047SOL     OW10039   5.641   6.734   2.227
 3047SOL    HW110040   5.696   6.751   2.309
 3047SOL    HW210041   5.700   6.699   2.154
 3048SOL     OW10042   3.902   3.082   2.006
 3048SOL    HW110043   3.843   3.042   2.076
 3048SOL    HW210044   3.978   3.130   2.049
 3049SOL     OW10045   1.275   6.387   1.673
 3049SOL    HW110046   1.245   6.415   1.582
 3049SOL    HW210047   1.350   6.322   1.665
 3050SOL     OW10048   3.491   1.127   3.112
 3050SOL    HW110049   3.539   1.214   3.129
 3050SOL    HW210050   3.479   1.079   3.199
 3051SOL     OW10051   2.149   4.024   0.137
 3051SOL    HW110052   2.195   4.052   0.222
 3051SOL    HW210053   2.209   4.043   0.059
 3052SOL     OW10054   4.291   0.540   2.570
 3052SOL    HW110055   4.249   0.616   2.520
 3052SOL    HW210056   4.259   0.541   2.665
 3053SOL     OW10057   7.022   0.938   6.707
 3053SOL    HW110058   0.003   0.938   6.806
 3053SOL    HW210059   0.056   0.866   6.670
 3054SOL     OW10060   0.429   2.536   1.146
 3054SOL    HW110061   0.368   2.502   1.218
 3054SOL    HW210062   0.385   2.610   1.097
 3055SOL     OW10063   4.732   6.790   3.823
 3055SOL    HW110064   4.730   6.748   3.732
 3055SOL    HW210065   4.823   6.778   3.863
 3056SOL     OW10066   6.688   1.164   6.080
 3056SOL    HW110067   6.707   1.154   6.177
 3056SOL    HW210068   6.774   1.177   6.030
 3057SOL     OW10069   4.365   5.732   3.387
 3057SOL    HW110070   4.309   5.759   3.466
 3057SOL    HW210071   4.306   5.722   3.307
 3058SOL     OW10072   0.010   5.516   0.907
 3058SOL    HW110073   0.081   5.467   0.957
 3058SOL    HW210074   0.003   5.610   0.940
 3059SOL     OW10075   2.257   2.223   4.674
 3059SOL    HW110076   2.279   2.276   4.756
 3059SOL    HW210077   2.334   2.162   4.653
 3060SOL     OW10078   0.598   6.158   0.644
 3060SOL    HW110079   0.626   6.214   0.566
 3060SOL    HW210080   0.501   6.137   0.637
 3061SOL     OW10081   6.051   1.130   5.176
 3061SOL    HW110082   6.130   1.138   5.114
 3061SOL    HW210083   6.012   1.038   5.168
 3062SOL     OW10084   1.319   6.693   6.919
 3062SOL    HW110085   1.391   6.625   6.930
 3062SOL    HW210086   1.338   6.748   6.838
 3063SOL     OW10087   2.740   5.519   1.304
 3063SOL    HW110088   2.742   5.558   1.397
 3063SOL    HW210089   2.664   5.561   1.253
 3064SOL     OW10090   5.197   3.519   3.912
 3064SOL    HW110091   5.238   3.484   3.996
 3064SOL    HW210092   5.109   3.475   3.897
 3065SOL     OW10093   2.169   1.286   6.728
 3065SOL    HW110094   2.204   1.234   6.806
 3065SOL    HW210095   2.237   1.354   6.701
 3066SOL     OW10096   4.844   5.058   0.626
 3066SOL    HW110097   4.759   5.025   0.667
 3066SOL    HW210098   4.921   5.029   0.683
 3067SOL     OW10099   3.968   2.220   4.563
 3067SOL    HW110100   3.994   2.198   4.657
 3067SOL    HW210101   3.997   2.313   4.541
 3068SOL     OW10102   5.496   5.683   0.988
 3068SOL    HW110103   5.499   5.707   1.085
 3068SOL    HW210104   5.414   5.723   0.947
 3069SOL     OW10105   6.673   6.270   1.987
 3069SOL    HW110106   6.693   6.193   2.049
 3069SOL    HW210107   6.759   6.316   1.963
 3070SOL     OW10108   1.640   0.768   2.346
 3070SOL    HW110109   1.637   0.861   2.309
 3070SOL    HW210110   1.611   0.770   2.442
 3071SOL     OW10111   6.033   5.980   3.451
 3071SOL    HW110112   5.963   6.037   3.409
 3071SOL    HW210113   6.052   6.014   3.544
 3072SOL     OW10114   0.781   6.228   0.849
 3072SOL    HW110115   0.804   6.318   0.813
 3072SOL    HW210116   0.704   6.190   0.799
 3073SOL     OW10117   1.082   3.307   5.289
 3073SOL    HW110118   0.984   3.307   5.269
 3073SOL    HW210119   1.103   3.234   5.354
 3074SOL     OW10120   5.875   2.388   1.204
 3074SOL    HW110121   5.973   2.378   1.191
 3074SOL    HW210122   5.857   2.464   1.266
 3075SOL     OW10123   1.944   6.831   1.350
 3075SOL    HW110124   1.919   6.858   1.257
 3075SOL    HW210125   2.036   6.864   1.370
 3076SOL     OW10126   6.584   1.670   4.603
 3076SOL    HW110127   6.542   1.625   4.524
 3076SOL    HW210128   6.672   1.710   4.575
 3077SOL     OW10129   5.024   5.596   2.464
 3077SOL    HW110130   5.014   5.686   2.507
 3077SOL    HW210131   5.121   5.574   2.456
 3078SOL     OW10132   1.435   3.374   1.117
 3078SOL    HW110133   1.377   3.393   1.038
 3078SOL    HW210134   1.459   3.277   1.118
 3079SOL     OW10135   2.535   1.932   4.059
 3079SOL    HW110136   2.585   1.863   4.111
 3079SOL    HW210137   2.441   1.901   4.044
 3080SOL     OW10138   5.164   4.522   2.978
 3080SOL    HW110139   5.127   4.606   2.937
 3080SOL    HW210140   5.261   4.534   2.997
 3081SOL     OW10141   0.284   3.319   6.191
 3081SOL    HW110142   0.248   3.236   6.232
 3081SOL    HW210143   0.207   3.380   6.169
 3082SOL     OW10144   3.473   6.592   3.472
 3082SOL    HW110145   3.475   6.688   3.500
 3082SOL    HW210146   3.378   6.563   3.459
 3083SOL     OW10147   4.144   6.269   3.501
 3083SOL    HW110148   4.125   6.188   3.557
 3083SOL    HW210149   4.128   6.247   3.404
 3084SOL     OW10150   4.847   4.055   4.751
 3084SOL    HW110151   4.895   4.119   4.811
 3084SOL    HW210152   4.755   4.089   4.732
 3085SOL     OW10153   0.654   4.725   2.013
 3085SOL    HW110154   0.667   4.628   2.030
 3085SOL    HW210155   0.742   4.768   1.992
 3086SOL     OW10156   4.015   1.492   2.239
 3086SOL    HW110157   4.030   1.551   2.318
 3086SOL    HW210158   3.962   1.542   2.170
 3087SOL     OW10159   1.063   4.966   4.052
 3087SOL    HW110160   1.056   4.920   4.141
 3087SOL    HW210161   0.972   4.973   4.011
 3088SOL     OW10162   2.086   5.218   6.018
 3088SOL    HW110163   2.039   5.162   5.949
 3088SOL    HW210164   2.178   5.182   6.032
 3089SOL     OW10165   0.776   3.237   0.679
 3089SOL    HW110166   0.847   3.174   0.647
 3089SOL    HW210167   0.725   3.194   0.754
 3090SOL     OW10168   1.932   2.329   1.758
 3090SOL    HW110169   2.032   2.324   1.758
 3090SOL    HW210170   1.898   2.313   1.850
 3091SOL     OW10171   2.245   6.640   0.209
 3091SOL    HW110172   2.288   6.588   0.135
 3091SOL    HW210173   2.192   6.715   0.169
 3092SOL     OW10174   5.061   0.020   0.239
 3092SOL    HW110175   5.029   0.068   0.157
 3092SOL    HW210176   5.064   0.083   0.316
 3093SOL     OW10177   5.344   5.416   5.849
 3093SOL    HW110178   5.413   5.472   5.894
 3093SOL    HW210179   5.389   5.346   5.793
 3094SOL     OW10180   3.307   6.435   4.064
 3094SOL    HW110181   3.230   6.375   4.042
 3094SOL    HW210182   3.324   6.433   4.162
 3095SOL     OW10183   2.782   5.361   4.518
 3095SOL    HW110184   2.866   5.386   4.566
 3095SOL    HW210185   2.768   5.262   4.523
 3096SOL     OW10186   0.678   0.588   4.839
 3096SOL    HW110187   0.732   0.545   4.767
 3096SOL    HW210188   0.739   0.620   4.911
 3097SOL     OW10189   0.592   2.271   1.091
 3097SOL    HW110190   0.670   2.321   1.055
 3097SOL    HW210191   0.521   2.335   1.121
 3098SOL     OW10192   2.535   3.872   0.997
 3098SOL    HW110193   2.629   3.901   0.979
 3098SOL    HW210194   2.497   3.927   1.071
 3099SOL     OW10195   7.008   5.768   4.636
 3099SOL    HW110196   6.985   5.771   4.733
 3099SOL    HW210197   6.974   5.682   4.597
 3100SOL     OW10198   6.359   0.099   4.745
 3100SOL    HW110199   6.339   0.171   4.678
 3100SOL    HW210200   6.311   0.118   4.830
 3101SOL     OW10201   5.334   6.150   5.928
 3101SOL    HW110202   5.420   6.102   5.916
 3101SOL    HW210203   5.258   6.086   5.918
 3102SOL     OW10204   0.463   5.064   3.181
 3102SOL    HW110205   0.547   5.118   3.177
 3102SOL    HW210206   0.438   5.032   3.090
 3103SOL     OW10207   3.400   1.309   1.661
 3103SOL    HW110208   3.309   1.271   1.674
 3103SOL    HW210209   3.394   1.395   1.610
 3104SOL     OW10210   5.832   6.938   5.195
 3104SOL    HW110211   5.899   6.995   5.242
 3104SOL    HW210212   5.779   6.994   5.131
 3105SOL     OW10213   6.467   4.317   2.220
 3105SOL    HW110214   6.408   4.385   2.263
 3105SOL    HW210215   6.418   4.275   2.143
 3106SOL     OW10216   6.335   0.742   3.099
 3106SOL    HW110217   6.320   0.683   3.178
 3106SOL    HW210218   6.283   0.827   3.110
 3107SOL     OW10219   4.180   0.888   3.783
 3107SOL    HW110220   4.126   0.922   3.706
 3107SOL    HW210221   4.184   0.788   3.779
 3108SOL     OW10222   1.481   0.222   4.367
 3108SOL    HW110223   1.579   0.203   4.363
 3108SOL    HW210224   1.466   0.318   4.387
 3109SOL     OW10225   5.405   5.775   2.684
 3109SOL    HW110226   5.476   5.837   2.719
 3109SOL    HW210227   5.427   5.681   2.710
 3110SOL     OW10228   0.973   1.640   3.437
 3110SOL    HW110229   0.931   1.613   3.351
 3110SOL    HW210230   1.051   1.701   3.419
 3111SOL     OW10231   6.657   5.515   3.795
 3111SOL    HW110232   6.614   5.588   3.848
 3111SOL    HW210233   6.655   5.539   3.698
 3112SOL     OW10234   4.906   2.590   6.343
 3112SOL    HW110235   4.993   2.599   6.392
 3112SOL    HW210236   4.918   2.616   6.248
 3113SOL     OW10237   2.062   6.676   4.790
 3113SOL    HW110238   2.065   6.739   4.712
 3113SOL    HW210239   1.988   6.702   4.851
 3114SOL     OW10240   4.390   3.085   6.875
 3114SOL    HW110241   4.404   2.986   6.879
 3114SOL    HW210242   4.407   3.125   6.965
 3115SOL     OW10243   4.410   3.368   6.760
 3115SOL    HW110244   4.455   3.426   6.827
 3115SOL    HW210245   4.412   3.273   6.791
 3116SOL     OW10246   6.669   3.741   0.169
 3116SOL    HW110247   6.670   3.644   0.145
 3116SOL    HW210248   6.589   3.761   0.225
 3117SOL     OW10249   4.505   3.603   5.348
 3117SOL    HW110250   4.458   3.527   5.392
 3117SOL    HW210251   4.571   3.568   5.282
 3118SOL     OW10252   0.312   4.782   0.184
 3118SOL    HW110253   0.225   4.819   0.217
 3118SOL    HW210254   0.310   4.778   0.084
 3119SOL     OW10255   1.452   3.459   5.615
 3119SOL    HW110256   1.354   3.474   5.625
 3119SOL    HW210257   1.489   3.524   5.548
 3120SOL     OW10258   2.381   6.671   3.929
 3120SOL    HW110259   2.364   6.741   3.998
 3120SOL    HW210260   2.299   6.656   3.875
 3121SOL     OW10261   0.674   1.854   2.638
 3121SOL    HW110262   0.652   1.771   2.689
 3121SOL    HW210263   0.732   1.831   2.560
 3122SOL     OW10264   2.832   6.122   6.164
 3122SOL    HW110265   2.900   6.156   6.100
 3122SOL    HW210266   2.817   6.189   6.236
 3123SOL     OW10267   3.486   0.353   4.170
 3123SOL    HW110268   3.434   0.439   4.168
 3123SOL    HW210269   3.478   0.307   4.082
 3124SOL     OW10270   4.411   0.053   4.552
 3124SOL    HW110271   4.369   6.991   4.579
 3124SOL    HW210272   4.413   0.059   4.452
 3125SOL     OW10273   6.181   1.948   5.677
 3125SOL    HW110274   6.206   1.887   5.602
 3125SOL    HW210275   6.088   1.983   5.662
 3126SOL     OW10276   5.279   4.971   6.404
 3126SOL    HW110277   5.199   5.010   6.450
 3126SOL    HW210278   5.279   4.998   6.308
 3127SOL     OW10279   1.403   2.396   3.043
 3127SOL    HW110280   1.440   2.481   3.081
 3127SOL    HW210281   1.411   2.398   2.943
 3128SOL     OW10282   2.437   0.135   6.634
 3128SOL    HW110283   2.408   0.230   6.648
 3128SOL    HW210284   2.402   0.101   6.547
 3129SOL     OW10285   1.537   4.311   6.149
 3129SOL    HW110286   1.532   4.212   6.156
 3129SOL    HW210287   1.581   4.349   6.231
 3130SOL     OW10288   1.956   4.644   1.659
 3130SOL    HW110289   1.997   4.665   1.570
 3130SOL    HW210290   1.983   4.552   1.687
 3131SOL     OW10291   0.586   2.547   1.781
 3131SOL    HW110292   0.488   2.530   1.773
 3131SOL    HW210293   0.602   2.645   1.791
 3132SOL     OW10294   5.204   5.137   5.896
 3132SOL    HW110295   5.175   5.120   5.802
 3132SOL    HW210296   5.154   5.215   5.932
 3133SOL     OW10297   3.167   2.159   3.548
 3133SOL    HW110298   3.235   2.091   3.572
 3133SOL    HW210299   3.150   2.157   3.449
 3134SOL     OW10300   4.866   4.690   1.280
 3134SOL    HW110301   4.876   4.780   1.321
 3134SOL    HW210302   4.771   4.660   1.289
 3135SOL     OW10303   4.657   1.505   5.370
 3135SOL    HW110304   4.559   1.491   5.380
 3135SOL    HW210305   4.691   1.563   5.444
 3136SOL     OW10306   5.725   0.787   6.725
 3136SOL    HW110307   5.801   0.838   6.684
 3136SOL    HW210308   5.722   0.695   6.687
 3137SOL     OW10309   5.841   6.987   3.811
 3137SOL    HW110310   5.771   6.945   3.869
 3137SOL    HW210311   5.808   6.991   3.717
 3138SOL     OW10312   6.640   2.151   3.904
 3138SOL    HW110313   6.626   2.157   3.805
 3138SOL    HW210314   6.559   2.110   3.946
 3139SOL     OW10315   4.302   6.925   6.800
 3139SOL    HW110316   4.348   7.011   6.778
 3139SOL    HW210317   4.261   6.931   6.891
 3140SOL     OW10318   6.113   6.997   6.555
 3140SOL    HW110319   6.139   6.994   6.652
 3140SOL    HW210320   6.104   0.066   6.526
 3141SOL     OW10321   1.021   6.502   6.165
 3141SOL    HW110322   0.977   6.442   6.232
 3141SOL    HW210323   0.984   6.595   6.174
 3142SOL     OW10324   5.018   6.161   1.485
 3142SOL    HW110325   4.987   6.190   1.575
 3142SOL    HW210326   4.975   6.219   1.415
 3143SOL     OW10327   0.568   2.713   6.684
 3143SOL    HW110328   0.534   2.807   6.691
 3143SOL    HW210329   0.620   2.703   6.599
 3144SOL     OW10330   2.765   3.931   1.250
 3144SOL    HW110331   2.853   3.943   1.298
 3144SOL    HW210332   2.704   4.006   1.274
 3145SOL     OW10333   1.888   4.683   2.688
 3145SOL    HW110334   1.902   4.597   2.639
 3145SOL    HW210335   1.858   4.663   2.781
 3146SOL     OW10336   1.339   6.817   3.378
 3146SOL    HW110337   1.379   6.909   3.377
 3146SOL    HW210338   1.323   6.789   3.473
 3147SOL     OW10339   4.366   5.254   0.025
 3147SOL    HW110340   4.465   5.253   0.013
 3147SOL    HW210341   4.324   5.181   6.997
 3148SOL     OW10342   5.150   5.478   4.688
 3148SOL    HW110343   5.072   5.535   4.716
 3148SOL    HW210344   5.129   5.434   4.601
 3149SOL     OW10345   3.398   0.273   5.343
 3149SOL    HW110346   3.429   0.257   5.249
 3149SOL    HW210347   3.315   0.329   5.342
 3150SOL     OW10348   6.301   5.546   4.255
 3150SOL    HW110349   6.300   5.544   4.355
 3150SOL    HW210350   6.234   5.613   4.222
 3151SOL     OW10351   4.063   0.718   0.062
 3151SOL    HW110352   4.072   0.817   0.070
 3151SOL    HW210353   3.997   0.685   0.129
 3152SOL     OW10354   1.188   5.053   1.898
 3152SOL    HW110355   1.098   5.086   1.926
 3152SOL    HW210356   1.187   4.953   1.891
 3153SOL     OW10357   6.834   3.959   1.608
 3153SOL    HW110358   6.772   3.899   1.557
 3153SOL    HW210359   6.889   3.904   1.671
 3154SOL     OW10360   5.968   1.714   0.398
 3154SOL    HW110361   5.876   1.678   0.383
 3154SOL    HW210362   5.965   1.790   0.463
 3155SOL     OW10363   6.962   5.663   1.375
 3155SOL    HW110364   6.920   5.724   1.308
 3155SOL    HW210365   6.926   5.684   1.466
 3156SOL     OW10366   4.032   3.387   3.690
 3156SOL    HW110367   3.941   3.347   3.678
 3156SOL    HW210368   4.023   3.479   3.727
 3157SOL     OW10369   1.988   3.301   5.000
 3157SOL    HW110370   2.055   3.238   5.040
 3157SOL    HW210371   1.920   3.325   5.068
 3158SOL     OW10372   4.840   6.938   1.191
 3158SOL    HW110373   4.865   6.842   1.189
 3158SOL    HW210374   4.922   6.994   1.181
 3159SOL     OW10375   5.644   0.463   0.155
 3159SOL    HW110376   5.649   0.559   0.127
 3159SOL    HW210377   5.594   0.411   0.086
 3160SOL     OW10378   6.533   5.557   5.829
 3160SOL    HW110379   6.472   5.518   5.761
 3160SOL    HW210380   6.532   5.501   5.912
 3161SOL     OW10381   0.999   1.451   2.486
 3161SOL    HW110382   1.015   1.456   2.387
 3161SOL    HW210383   0.973   1.542   2.519
 3162SOL     OW10384   0.509   5.490   0.104
 3162SOL    HW110385   0.546   5.581   0.123
 3162SOL    HW210386   0.409   5.494   0.107
 3163SOL     OW10387   3.297   2.389   6.707
 3163SOL    HW110388   3.296   2.465   6.643
 3163SOL    HW210389   3.381   2.391   6.761
 3164SOL     OW10390   4.571   4.127   1.183
 3164SOL    HW110391   4.507   4.202   1.200
 3164SOL    HW210392   4.652   4.138   1.241
 3165SOL     OW10393   0.657   6.572   1.738
 3165SOL    HW110394   0.755   6.575   1.752
 3165SOL    HW210395   0.624   6.663   1.712
 3166SOL     OW10396   4.681   2.482   6.538
 3166SOL    HW110397   4.650   2.566   6.494
 3166SOL    HW210398   4.762   2.447   6.490
 3167SOL     OW10399   0.302   4.917   1.913
 3167SOL    HW110400   0.315   4.860   1.994
 3167SOL    HW210401   0.289   4.858   1.833
 3168SOL     OW10402   5.049   2.915   0.485
 3168SOL    HW110403   5.056   3.014   0.469
 3168SOL    HW210404   5.046   2.897   0.583
 3169SOL     OW10405   0.433   3.015   6.012
 3169SOL    HW110406   0.481   2.997   5.926
 3169SOL    HW210407   0.480   3.087   6.062
 3170SOL     OW10408   4.022   0.207   0.056
 3170SOL    HW110409   4.051   0.120   0.096
 3170SOL    HW210410   3.980   0.263   0.127
 3171SOL     OW10411   6.787   6.590   1.191
 3171SOL    HW110412   6.736   6.569   1.108
 3171SOL    HW210413   6.885   6.596   1.171
 3172SOL     OW10414   0.826   5.842   5.514
 3172SOL    HW110415   0.811   5.921   5.454
 3172SOL    HW210416   0.738   5.806   5.545
 3173SOL     OW10417   3.160   1.832   1.195
 3173SOL    HW110418   3.079   1.806   1.141
 3173SOL    HW210419   3.242   1.822   1.139
 3174SOL     OW10420   2.536   2.937   6.693
 3174SOL    HW110421   2.624   2.977   6.718
 3174SOL    HW210422   2.463   3.000   6.717
 3175SOL     OW10423   0.034   6.306   0.174
 3175SOL    HW110424   0.044   6.369   0.097
 3175SOL    HW210425   6.974   6.255   0.164
 3176SOL     OW10426   1.974   5.545   4.795
 3176SOL    HW110427   2.019   5.458   4.777
 3176SOL    HW210428   2.025   5.596   4.865
 3177SOL     OW10429   5.442   5.460   5.553
 3177SOL    HW110430   5.377   5.384   5.544
 3177SOL    HW210431   5.517   5.447   5.488
 3178SOL     OW10432   7.017   3.199   1.218
 3178SOL    HW110433   7.021   3.158   1.126
 3178SOL    HW210434   0.081   3.192   1.261
 3179SOL     OW10435   2.099   2.668   1.636
 3179SOL    HW110436   2.070   2.601   1.567
 3179SOL    HW210437   2.092   2.760   1.598
 3180SOL     OW10438   3.786   0.663   6.405
 3180SOL    HW110439   3.716   0.594   6.420
 3180SOL    HW210440   3.847   0.634   6.332
 3181SOL     OW10441   0.458   6.932   2.887
 3181SOL    HW110442   0.498   6.851   2.844
 3181SOL    HW210443   0.524   6.973   2.950
 3182SOL     OW10444   1.076   1.033   5.744
 3182SOL    HW110445   1.091   1.050   5.647
 3182SOL    HW210446   1.152   0.981   5.781
 3183SOL     OW10447   4.748   4.022   1.531
 3183SOL    HW110448   4.840   4.015   1.568
 3183SOL    HW210449   4.745   4.093   1.460
 3184SOL     OW10450   2.743   2.194   2.243
 3184SOL    HW110451   2.726   2.099   2.220
 3184SOL    HW210452   2.811   2.232   2.180
 3185SOL     OW10453   6.088   0.505   6.541
 3185SOL    HW110454   6.097   0.509   6.640
 3185SOL    HW210455   6.170   0.543   6.498
 3186SOL     OW10456   3.101   1.214   3.205
 3186SOL    HW110457   3.053   1.126   3.198
 3186SOL    HW210458   3.072   1.274   3.131
 3187SOL     OW10459   4.120   4.565   6.826
 3187SOL    HW110460   4.029   4.548   6.788
 3187SOL    HW210461   4.187   4.569   6.753
 3188SOL     OW10462   3.621   5.867   3.392
 3188SOL    HW110463   3.564   5.928   3.448
 3188SOL    HW210464   3.692   5.919   3.346
 3189SOL     OW10465   2.488   1.464   3.170
 3189SOL    HW110466   2.408   1.452   3.112
 3189SOL    HW210467   2.468   1.530   3.242
 3190SOL     OW10468   0.874   6.686   1.477
 3190SOL    HW110469   0.942   6.701   1.404
 3190SOL    HW210470   0.921   6.680   1.565
 3191SOL     OW10471   3.392   6.867   1.227
 3191SOL    HW110472   3.325   6.860   1.153
 3191SOL    HW210473   3.372   6.948   1.282
 3192SOL     OW10474   0.646   1.770   1.145
 3192SOL    HW110475   0.687   1.688   1.184
 3192SOL    HW210476   0.605   1.825   1.217
 3193SOL     OW10477   4.083   2.509   6.393
 3193SOL    HW110478   4.053   2.416   6.410
 3193SOL    HW210479   4.161   2.530   6.453
 3194SOL     OW10480   1.537   2.411   6.816
 3194SOL    HW110481   1.611   2.478   6.819
 3194SOL    HW210482   1.570   2.323   6.850
 3195SOL     OW10483   2.193   2.446   3.128
 3195SOL    HW110484   2.117   2.485   3.076
 3195SOL    HW210485   2.237   2.517   3.182
 3196SOL     OW10486   6.688   0.580   5.091
 3196SOL    HW110487   6.712   0.545   5.182
 3196SOL    HW210488   6.758   0.644   5.060
 3197SOL     OW10489   1.343   5.757   3.241
 3197SOL    HW110490   1.382   5.849   3.241
 3197SOL    HW210491   1.368   5.710   3.157
 3198SOL     OW10492   6.517   2.265   6.872
 3198SOL    HW110493   6.436   2.207   6.870
 3198SOL    HW210494   6.511   2.333   6.799
 3199SOL     OW10495   4.330   2.531   1.793
 3199SOL    HW110496   4.409   2.592   1.796
 3199SOL    HW210497   4.333   2.477   1.708
 3200SOL     OW10498   0.331   2.376   1.324
 3200SOL    HW110499   0.395   2.302   1.347
 3200SOL    HW210500   0.255   2.339   1.271
 3201SOL     OW10501   5.159   3.759   3.799
 3201SOL    HW110502   5.242   3.816   3.798
 3201SOL    HW210503   5.181   3.669   3.836
 3202SOL     OW10504   1.833   4.787   2.145
 3202SOL    HW110505   1.816   4.855   2.217
 3202SOL    HW210506   1.771   4.709   2.158
 3203SOL     OW10507   5.527   1.021   0.963
 3203SOL    HW110508   5.478   1.091   0.912
 3203SOL    HW210509   5.466   0.945   0.983
 3204SOL     OW10510   5.859   6.037   1.547
 3204SOL    HW110511   5.797   6.115   1.540
 3204SOL    HW210512   5.942   6.056   1.495
 3205SOL     OW10513   0.319   4.277   0.168
 3205SOL    HW110514   0.361   4.186   0.179
 3205SOL    HW210515   0.359   4.340   0.234
 3206SOL     OW10516   6.924   0.081   6.206
 3206SOL    HW110517   6.972   0.168   6.194
 3206SOL    HW210518   6.990   0.008   6.225
 3207SOL     OW10519   0.319   1.434   6.038
 3207SOL    HW110520   0.230   1.474   6.062
 3207SOL    HW210521   0.305   1.341   6.005
 3208SOL     OW10522   4.541   6.200   5.075
 3208SOL    HW110523   4.501   6.146   5.149
 3208SOL    HW210524   4.499   6.174   4.988
 3209SOL     OW10525   2.904   6.420   3.559
 3209SOL    HW110526   2.919   6.485   3.484
 3209SOL    HW210527   2.933   6.329   3.531
 3210SOL     OW10528   0.224   3.576   2.224
 3210SOL    HW110529   0.280   3.503   2.263
 3210SOL    HW210530   0.222   3.568   2.124
 3211SOL     OW10531   2.235   4.966   6.936
 3211SOL    HW110532   2.272   4.920   7.017
 3211SOL    HW210533   2.294   4.948   6.857
 3212SOL     OW10534   4.626   1.845   6.784
 3212SOL    HW110535   4.578   1.757   6.773
 3212SOL    HW210536   4.575   1.902   6.848
 3213SOL     OW10537   6.107   4.976   2.663
 3213SOL    HW110538   6.151   4.888   2.645
 3213SOL    HW210539   6.098   4.990   2.762
 3214SOL     OW10540   4.569   6.158   0.146
 3214SOL    HW110541   4.506   6.221   0.102
 3214SOL    HW210542   4.592   6.191   0.238
 3215SOL     OW10543   6.155   2.986   0.892
 3215SOL    HW110544   6.233   3.048   0.904
 3215SOL    HW210545   6.070   3.039   0.895
 3216SOL     OW10546   5.553   5.524   2.703
 3216SOL    HW110547   5.515   5.443   2.659
 3216SOL    HW210548   5.595   5.499   2.790
 3217SOL     OW10549   1.297   4.217   3.350
 3217SOL    HW110550   1.371   4.274   3.313
 3217SOL    HW210551   1.269   4.150   3.281
 3218SOL     OW10552   4.358   6.642   3.360
 3218SOL    HW110553   4.360   6.549   3.398
 3218SOL    HW210554   4.361   6.709   3.435
 3219SOL     OW10555   7.006   0.250   3.421
 3219SOL    HW110556   0.031   0.215   3.501
 3219SOL    HW210557   0.010   0.344   3.402
 3220SOL     OW10558   6.677   4.717   5.860
 3220SOL    HW110559   6.651   4.813   5.874
 3220SOL    HW210560   6.651   4.689   5.768
 3221SOL     OW10561   2.805   6.249   2.447
 3221SOL    HW110562   2.881   6.186   2.460
 3221SOL    HW210563   2.779   6.251   2.351
 3222SOL     OW10564   5.133   2.119   3.668
 3222SOL    HW110565   5.087   2.178   3.602
 3222SOL    HW210566   5.221   2.089   3.630
 3223SOL     OW10567   2.621   5.330   6.629
 3223SOL    HW110568   2.539   5.288   6.591
 3223SOL    HW210569   2.690   5.259   6.645
 3224SOL     OW10570   4.917   5.137   6.142
 3224SOL    HW110571   4.922   5.154   6.044
 3224SOL    HW210572   4.837   5.080   6.162
 3225SOL     OW10573   4.571   2.572   6.086
 3225SOL    HW110574   4.651   2.523   6.053
 3225SOL    HW210575   4.509   2.507   6.131
 3226SOL     OW10576   2.272   1.212   4.211
 3226SOL    HW110577   2.341   1.283   4.226
 3226SOL    HW210578   2.200   1.247   4.152
 3227SOL     OW10579   2.971   2.035   6.526
 3227SOL    HW110580   2.894   1.971   6.537
 3227SOL    HW210581   2.954   2.116   6.582
 3228SOL     OW10582   5.375   3.225   4.565
 3228SOL    HW110583   5.353   3.139   4.520
 3228SOL    HW210584   5.426   3.284   4.502
 3229SOL     OW10585   3.118   1.766   5.648
 3229SOL    HW110586   3.039   1.763   5.587
 3229SOL    HW210587   3.199   1.795   5.596
 3230SOL     OW10588   0.307   1.792   2.926
 3230SOL    HW110589   0.373   1.841   2.870
 3230SOL    HW210590   0.341   1.699   2.942
 3231SOL     OW10591   4.612   5.899   1.926
 3231SOL    HW110592   4.622   5.977   1.863
 3231SOL    HW210593   4.663   5.821   1.889
 3232SOL     OW10594   4.318   4.823   4.742
 3232SOL    HW110595   4.229   4.833   4.698
 3232SOL    HW210596   4.369   4.909   4.733
 3233SOL     OW10597   0.784   4.198   0.616
 3233SOL    HW110598   0.789   4.140   0.697
 3233SOL    HW210599   0.875   4.202   0.572
 3234SOL     OW10600   6.960   2.534   0.456
 3234SOL    HW110601   6.925   2.617   0.498
 3234SOL    HW210602   0.008   2.496   0.513
 3235SOL     OW10603   6.008   5.881   2.710
 3235SOL    HW110604   6.066   5.802   2.689
 3235SOL    HW210605   6.061   5.965   2.700
 3236SOL     OW10606   1.646   3.483   1.791
 3236SOL    HW110607   1.595   3.487   1.705
 3236SOL    HW210608   1.638   3.570   1.839
 3237SOL     OW10609   4.911   6.976   4.023
 3237SOL    HW110610   4.935   0.046   4.006
 3237SOL    HW210611   4.820   6.972   4.065
 3238SOL     OW10612   0.456   5.918   6.663
 3238SOL    HW110613   0.496   5.834   6.628
 3238SOL    HW210614   0.406   5.899   6.747
 3239SOL     OW10615   6.088   1.308   0.371
 3239SOL    HW110616   6.045   1.327   0.283
 3239SOL    HW210617   6.074   1.387   0.432
 3240SOL     OW10618   0.413   6.967   4.869
 3240SOL    HW110619   0.502   7.013   4.874
 3240SOL    HW210620   0.345   7.023   4.917
 3241SOL     OW10621   4.893   1.550   4.451
 3241SOL    HW110622   4.832   1.545   4.530
 3241SOL    HW210623   4.948   1.466   4.446
 3242SOL     OW10624   3.400   5.131   0.682
 3242SOL    HW110625   3.443   5.219   0.662
 3242SOL    HW210626   3.350   5.137   0.768
 3243SOL     OW10627   5.457   5.028   0.189
 3243SOL    HW110628   5.481   4.999   0.281
 3243SOL    HW210629   5.538   5.066   0.144
 3244SOL     OW10630   5.529   5.915   5.935
 3244SOL    HW110631   5.627   5.898   5.928
 3244SOL    HW210632   5.486   5.901   5.846
 3245SOL     OW10633   3.742   2.888   6.237
 3245SOL    HW110634   3.809   2.947   6.193
 3245SOL    HW210635   3.766   2.792   6.220
 3246SOL     OW10636   5.329   0.390   2.941
 3246SOL    HW110637   5.356   0.464   3.002
 3246SOL    HW210638   5.235   0.362   2.962
 3247SOL     OW10639   0.121   4.403   2.760
 3247SOL    HW110640   0.104   4.346   2.841
 3247SOL    HW210641   0.157   4.492   2.789
 3248SOL     OW10642   5.931   3.659   2.034
 3248SOL    HW110643   5.921   3.685   2.129
 3248SOL    HW210644   6.004   3.714   1.991
 3249SOL     OW10645   3.849   4.847   5.277
 3249SOL    HW110646   3.807   4.757   5.286
 3249SOL    HW210647   3.947   4.836   5.260
 3250SOL     OW10648   5.623   0.079   3.010
 3250SOL    HW110649   5.562   0.005   2.982
 3250SOL    HW210650   5.714   0.063   2.970
 3251SOL     OW10651   3.627   1.395   3.121
 3251SOL    HW110652   3.666   1.393   3.029
 3251SOL    HW210653   3.667   1.471   3.172
 3252SOL     OW10654   3.469   0.922   2.704
 3252SOL    HW110655   3.402   0.968   2.761
 3252SOL    HW210656   3.561   0.951   2.731
 3253SOL     OW10657   4.694   2.492   1.660
 3253SOL    HW110658   4.692   2.523   1.755
 3253SOL    HW210659   4.676   2.569   1.599
 3254SOL     OW10660   3.832   4.887   3.988
 3254SOL    HW110661   3.739   4.924   3.981
 3254SOL    HW210662   3.856   4.844   3.901
 3255SOL     OW10663   4.600   5.236   0.644
 3255SOL    HW110664   4.697   5.217   0.653
 3255SOL    HW210665   4.584   5.298   0.567
 3256SOL     OW10666   5.502   6.877   6.334
 3256SOL    HW110667   5.528   6.915   6.423
 3256SOL    HW210668   5.505   6.778   6.338
 3257SOL     OW10669   1.316   2.307   0.722
 3257SOL    HW110670   1.362   2.268   0.643
 3257SOL    HW210671   1.223   2.270   0.729
 3258SOL     OW10672   4.873   6.744   1.623
 3258SOL    HW110673   4.895   6.755   1.720
 3258SOL    HW210674   4.943   6.790   1.568
 3259SOL     OW10675   4.337   5.742   4.123
 3259SOL    HW110676   4.370   5.693   4.204
 3259SOL    HW210677   4.253   5.792   4.145
 3260SOL     OW10678   1.946   1.868   0.424
 3260SOL    HW110679   1.919   1.797   0.489
 3260SOL    HW210680   2.045   1.882   0.429
 3261SOL     OW10681   4.113   6.308   0.457
 3261SOL    HW110682   4.081   6.332   0.549
 3261SOL    HW210683   4.134   6.210   0.454
 3262SOL     OW10684   3.787   1.606   3.266
 3262SOL    HW110685   3.816   1.582   3.359
 3262SOL    HW210686   3.840   1.684   3.234
 3263SOL     OW10687   4.850   6.902   3.122
 3263SOL    HW110688   4.786   6.854   3.062
 3263SOL    HW210689   4.869   6.993   3.084
 3264SOL     OW10690   0.229   5.078   6.969
 3264SOL    HW110691   0.152   5.104   0.001
 3264SOL    HW210692   0.298   5.150   6.971
 3265SOL     OW10693   3.745   2.162   6.599
 3265SOL    HW110694   3.689   2.245   6.597
 3265SOL    HW210695   3.766   2.138   6.694
 3266SOL     OW10696   0.148   2.364   0.134
 3266SOL    HW110697   0.106   2.454   0.145
 3266SOL    HW210698   0.187   2.356   0.042
 3267SOL     OW10699   3.396   2.690   1.319
 3267SOL    HW110700   3.474   2.671   1.379
 3267SOL    HW210701   3.369   2.786   1.328
 3268SOL     OW10702   1.139   3.994   0.053
 3268SOL    HW110703   1.180   3.950   6.998
 3268SOL    HW210704   1.043   3.968   0.061
 3269SOL     OW10705   5.082   4.992   1.720
 3269SOL    HW110706   5.014   4.955   1.657
 3269SOL    HW210707   5.041   4.998   1.812
 3270SOL     OW10708   0.524   5.327   3.834
 3270SOL    HW110709   0.503   5.425   3.831
 3270SOL    HW210710   0.463   5.278   3.771
 3271SOL     OW10711   5.553   1.896   2.776
 3271SOL    HW110712   5.552   1.817   2.714
 3271SOL    HW210713   5.594   1.974   2.729
 3272SOL     OW10714   3.452   6.678   0.226
 3272SOL    HW110715   3.507   6.596   0.213
 3272SOL    HW210716   3.374   6.658   0.286
 3273SOL     OW10717   1.020   6.412   1.966
 3273SOL    HW110718   1.103   6.360   1.979
 3273SOL    HW210719   0.995   6.458   2.051
 3274SOL     OW10720   3.485   1.935   6.629
 3274SOL    HW110721   3.393   1.916   6.596
 3274SOL    HW210722   3.550   1.928   6.553
 3275SOL     OW10723   1.995   0.413   6.958
 3275SOL    HW110724   2.068   0.419   6.890
 3275SOL    HW210725   1.932   0.489   6.946
 3276SOL     OW10726   3.522   5.360   6.633
 3276SOL    HW110727   3.540   5.305   6.715
 3276SOL    HW210728   3.425   5.351   6.608
 3277SOL     OW10729   6.485   0.009   6.502
 3277SOL    HW110730   6.429   0.089   6.526
 3277SOL    HW210731   6.541   7.009   6.581
 3278SOL     OW10732   0.123   1.407   5.274
 3278SOL    HW110733   0.185   1.343   5.319
 3278SOL    HW210734   0.175   1.481   5.233
 3279SOL     OW10735   6.851   0.144   0.911
 3279SOL    HW110736   6.775   0.135   0.847
 3279SOL    HW210737   6.815   0.150   1.004
 3280SOL     OW10738   2.395   5.167   6.569
 3280SOL    HW110739   2.413   5.083   6.620
 3280SOL    HW210740   2.327   5.148   6.498
 3281SOL     OW10741   1.756   5.619   0.946
 3281SOL    HW110742   1.743   5.714   0.972
 3281SOL    HW210743   1.842   5.610   0.895
 3282SOL     OW10744   3.375   6.223   4.347
 3282SOL    HW110745   3.323   6.176   4.418
 3282SOL    HW210746   3.394   6.161   4.271
 3283SOL     OW10747   3.017   1.624   3.246
 3283SOL    HW110748   3.026   1.694   3.317
 3283SOL    HW210749   3.082   1.644   3.172
 3284SOL     OW10750   0.119   6.765   0.161
 3284SOL    HW110751   0.114   6.683   0.104
 3284SOL    HW210752   0.061   6.753   0.242
 3285SOL     OW10753   0.333   2.833   3.531
 3285SOL    HW110754   0.302   2.780   3.610
 3285SOL    HW210755   0.398   2.903   3.561
 3286SOL     OW10756   3.944   3.627   3.871
 3286SOL    HW110757   3.916   3.704   3.814
 3286SOL    HW210758   4.022   3.654   3.927
 3287SOL     OW10759   1.320   5.558   7.003
 3287SOL    HW110760   1.364   5.513   0.055
 3287SOL    HW210761   1.381   5.553   6.923
 3288SOL     OW10762   0.358   6.474   6.713
 3288SOL    HW110763   0.379   6.482   6.810
 3288SOL    HW210764   0.259   6.465   6.701
 3289SOL     OW10765   1.131   6.227   5.348
 3289SOL    HW110766   1.228   6.251   5.360
 3289SOL    HW210767   1.111   6.218   5.251
 3290SOL     OW10768   0.769   5.876   2.056
 3290SOL    HW110769   0.714   5.952   2.091
 3290SOL    HW210770   0.863   5.886   2.087
 3291SOL     OW10771   1.618   6.449   6.387
 3291SOL    HW110772   1.589   6.397   6.307
 3291SOL    HW210773   1.555   6.430   6.463
 3292SOL     OW10774   0.514   1.044   6.933
 3292SOL    HW110775   0.534   0.964   6.988
 3292SOL    HW210776   0.427   1.083   6.961
 3293SOL     OW10777   6.894   1.602   3.485
 3293SOL    HW110778   6.887   1.507   3.456
 3293SOL    HW210779   6.924   1.659   3.408
 3294SOL     OW10780   6.611   1.050   6.766
 3294SOL    HW110781   6.568   1.022   6.680
 3294SOL    HW210782   6.707   1.072   6.750
 3295SOL     OW10783   2.660   2.082   0.476
 3295SOL    HW110784   2.719   2.035   0.541
 3295SOL    HW210785   2.565   2.056   0.491
 3296SOL     OW10786   2.363   6.933   2.133
 3296SOL    HW110787   2.357   6.842   2.092
 3296SOL    HW210788   2.449   6.941   2.183
 3297SOL     OW10789   3.124   2.135   5.346
 3297SOL    HW110790   3.147   2.170   5.255
 3297SOL    HW210791   3.093   2.211   5.403
 3298SOL     OW10792   6.325   3.003   2.986
 3298SOL    HW110793   6.277   3.064   3.049
 3298SOL    HW210794   6.414   3.043   2.962
 3299SOL     OW10795   1.535   0.407   4.059
 3299SOL    HW110796   1.575   0.332   4.112
 3299SOL    HW210797   1.604   0.447   4.000
 3300SOL     OW10798   6.581   0.462   5.718
 3300SOL    HW110799   6.559   0.408   5.637
 3300SOL    HW210800   6.563   0.407   5.800
 3301SOL     OW10801   0.903   4.043   3.622
 3301SOL    HW110802   0.836   4.109   3.659
 3301SOL    HW210803   0.944   4.081   3.539
 3302SOL     OW10804   1.265   4.903   4.489
 3302SOL    HW110805   1.322   4.885   4.409
 3302SOL    HW210806   1.294   4.989   4.531
 3303SOL     OW10807   3.320   3.038   2.728
 3303SOL    HW110808   3.410   3.037   2.686
 3303SOL    HW210809   3.329   3.029   2.828
 3304SOL     OW10810   1.062   5.027   3.457
 3304SOL    HW110811   0.971   5.020   3.499
 3304SOL    HW210812   1.132   5.003   3.525
 3305SOL     OW10813   1.680   0.982   1.901
 3305SOL    HW110814   1.584   1.006   1.918
 3305SOL    HW210815   1.734   1.003   1.983
 3306SOL     OW10816   2.137   3.893   3.322
 3306SOL    HW110817   2.040   3.873   3.308
 3306SOL    HW210818   2.172   3.945   3.244
 3307SOL     OW10819   0.090   5.961   0.288
 3307SOL    HW110820   0.174   5.906   0.282
 3307SOL    HW210821   0.013   5.906   0.256
 3308SOL     OW10822   4.437   5.974   0.420
 3308SOL    HW110823   4.423   6.049   0.355
 3308SOL    HW210824   4.516   5.994   0.478
 3309SOL     OW10825   0.947   4.894   2.662
 3309SOL    HW110826   0.859   4.895   2.613
 3309SOL    HW210827   0.943   4.829   2.737
 3310SOL     OW10828   0.464   3.678   3.050
 3310SOL    HW110829   0.538   3.614   3.026
 3310SOL    HW210830   0.475   3.762   2.997
 3311SOL     OW10831   2.960   5.742   0.655
 3311SOL    HW110832   2.908   5.688   0.721
 3311SOL    HW210833   2.973   5.835   0.691
 3312SOL     OW10834   3.187   4.510   6.242
 3312SOL    HW110835   3.118   4.581   6.225
 3312SOL    HW210836   3.204   4.458   6.159
 3313SOL     OW10837   1.180   5.277   3.857
 3313SOL    HW110838   1.143   5.345   3.921
 3313SOL    HW210839   1.105   5.240   3.802
 3314SOL     OW10840   1.428   3.040   4.832
 3314SOL    HW110841   1.444   3.138   4.841
 3314SOL    HW210842   1.349   3.014   4.888
 3315SOL     OW10843   6.649   2.965   3.871
 3315SOL    HW110844   6.589   2.955   3.950
 3315SOL    HW210845   6.743   2.981   3.903
 3316SOL     OW10846   3.975   2.234   6.435
 3316SOL    HW110847   4.038   2.169   6.477
 3316SOL    HW210848   3.895   2.246   6.495
 3317SOL     OW10849   4.541   2.721   1.792
 3317SOL    HW110850   4.509   2.799   1.844
 3317SOL    HW210851   4.618   2.679   1.839
 3318SOL     OW10852   2.422   6.329   6.267
 3318SOL    HW110853   2.375   6.248   6.303
 3318SOL    HW210854   2.520   6.314   6.268
 3319SOL     OW10855   0.137   6.336   4.358
 3319SOL    HW110856   0.119   6.238   4.357
 3319SOL    HW210857   0.152   6.367   4.452
 3320SOL     OW10858   5.579   1.522   5.369
 3320SOL    HW110859   5.567   1.615   5.403
 3320SOL    HW210860   5.618   1.525   5.277
 3321SOL     OW10861   3.537   3.367   2.448
 3321SOL    HW110862   3.570   3.436   2.383
 3321SOL    HW210863   3.437   3.369   2.450
 3322SOL     OW10864   4.673   2.009   1.013
 3322SOL    HW110865   4.676   1.980   1.109
 3322SOL    HW210866   4.586   1.981   0.973
 3323SOL     OW10867   2.145   4.332   6.486
 3323SOL    HW110868   2.165   4.289   6.574
 3323SOL    HW210869   2.057   4.380   6.491
 3324SOL     OW10870   1.357   3.970   0.526
 3324SOL    HW110871   1.333   3.887   0.475
 3324SOL    HW210872   1.351   3.952   0.624
 3325SOL     OW10873   2.302   3.537   0.293
 3325SOL    HW110874   2.312   3.607   0.221
 3325SOL    HW210875   2.334   3.449   0.259
 3326SOL     OW10876   5.804   2.246   2.084
 3326SOL    HW110877   5.829   2.239   1.988
 3326SOL    HW210878   5.872   2.200   2.141
 3327SOL     OW10879   2.283   6.650   2.115
 3327SOL    HW110880   2.202   6.698   2.081
 3327SOL    HW210881   2.334   6.610   2.039
 3328SOL     OW10882   4.466   0.980   1.954
 3328SOL    HW110883   4.414   0.992   1.869
 3328SOL    HW210884   4.461   0.885   1.983
 3329SOL     OW10885   4.385   0.934   4.962
 3329SOL    HW110886   4.323   0.974   5.030
 3329SOL    HW210887   4.464   0.993   4.950
 3330SOL     OW10888   5.925   6.817   2.132
 3330SOL    HW110889   5.885   6.906   2.150
 3330SOL    HW210890   6.000   6.826   2.067
 3331SOL     OW10891   1.851   3.616   3.008
 3331SOL    HW110892   1.817   3.637   3.100
 3331SOL    HW210893   1.897   3.697   2.971
 3332SOL     OW10894   5.352   4.750   0.233
 3332SOL    HW110895   5.391   4.812   0.301
 3332SOL    HW210896   5.341   4.659   0.273
 3333SOL     OW10897   3.267   3.892   1.259
 3333SOL    HW110898   3.228   3.810   1.216
 3333SOL    HW210899   3.360   3.906   1.223
 3334SOL     OW10900   1.508   2.964   2.339
 3334SOL    HW110901   1.570   3.021   2.286
 3334SOL    HW210902   1.519   2.868   2.312
 3335SOL     OW10903   3.524   4.535   5.859
 3335SOL    HW110904   3.600   4.525   5.794
 3335SOL    HW210905   3.551   4.596   5.933
 3336SOL     OW10906   2.597   7.008   3.816
 3336SOL    HW110907   2.628   0.028   3.732
 3336SOL    HW210908   2.648   0.019   3.894
 3337SOL     OW10909   3.708   3.493   2.615
 3337SOL    HW110910   3.636   3.449   2.561
 3337SOL    HW210911   3.779   3.426   2.637
 3338SOL     OW10912   1.193   2.243   1.615
 3338SOL    HW110913   1.162   2.152   1.642
 3338SOL    HW210914   1.139   2.276   1.538
 3339SOL     OW10915   1.724   0.014   5.591
 3339SOL    HW110916   1.779   0.098   5.586
 3339SOL    HW210917   1.760   6.981   5.663
 3340SOL     OW10918   4.646   0.933   4.217
 3340SOL    HW110919   4.634   1.021   4.172
 3340SOL    HW210920   4.740   0.926   4.251
 3341SOL     OW10921   2.242   4.630   2.395
 3341SOL    HW110922   2.180   4.563   2.356
 3341SOL    HW210923   2.240   4.714   2.341
 3342SOL     OW10924   6.154   0.178   3.321
 3342SOL    HW110925   6.137   0.160   3.418
 3342SOL    HW210926   6.250   0.201   3.308
 3343SOL     OW10927   5.141   5.515   6.664
 3343SOL    HW110928   5.199   5.522   6.583
 3343SOL    HW210929   5.173   5.440   6.722
 3344SOL     OW10930   6.607   2.837   2.229
 3344SOL    HW110931   6.518   2.815   2.270
 3344SOL    HW210932   6.614   2.794   2.139
 3345SOL     OW10933   0.776   3.776   0.594
 3345SOL    HW110934   0.840   3.702   0.612
 3345SOL    HW210935   0.759   3.783   0.496
 3346SOL     OW10936   2.578   1.029   0.261
 3346SOL    HW110937   2.494   1.065   0.303
 3346SOL    HW210938   2.556   0.988   0.172
 3347SOL     OW10939   1.072   2.976   6.309
 3347SOL    HW110940   1.014   2.898   6.287
 3347SOL    HW210941   1.159   2.943   6.348
 3348SOL     OW10942   3.767   4.141   6.451
 3348SOL    HW110943   3.822   4.224   6.458
 3348SOL    HW210944   3.673   4.161   6.481
 3349SOL     OW10945   2.325   4.256   3.739
 3349SOL    HW110946   2.340   4.292   3.647
 3349SOL    HW210947   2.414   4.239   3.783
 3350SOL     OW10948   0.670   4.081   5.639
 3350SOL    HW110949   0.677   4.180   5.631
 3350SOL    HW210950   0.599   4.047   5.577
 3351SOL     OW10951   5.254   0.503   1.215
 3351SOL    HW110952   5.303   0.441   1.154
 3351SOL    HW210953   5.171   0.536   1.170
 3352SOL     OW10954   5.578   2.795   0.783
 3352SOL    HW110955   5.537   2.874   0.829
 3352SOL    HW210956   5.671   2.782   0.816
 3353SOL     OW10957   1.970   0.397   1.477
 3353SOL    HW110958   2.007   0.486   1.450
 3353SOL    HW210959   1.876   0.409   1.510
 3354SOL     OW10960   3.937   3.543   5.843
 3354SOL    HW110961   3.967   3.632   5.809
 3354SOL    HW210962   3.852   3.553   5.894
 3355SOL     OW10963   1.977   1.339   4.850
 3355SOL    HW110964   1.909   1.269   4.872
 3355SOL    HW210965   1.991   1.397   4.930
 3356SOL     OW10966   1.105   6.767   5.836
 3356SOL    HW110967   1.114   6.714   5.752
 3356SOL    HW210968   1.163   6.727   5.907
 3357SOL     OW10969   2.930   3.441   2.203
 3357SOL    HW110970   3.010   3.380   2.202
 3357SOL    HW210971   2.862   3.407   2.138
 3358SOL     OW10972   5.479   1.364   3.404
 3358SOL    HW110973   5.483   1.271   3.440
 3358SOL    HW210974   5.411   1.368   3.331
 3359SOL     OW10975   0.424   5.230   4.169
 3359SOL    HW110976   0.369   5.301   4.211
 3359SOL    HW210977   0.451   5.163   4.238
 3360SOL     OW10978   0.863   2.392   5.965
 3360SOL    HW110979   0.820   2.402   5.876
 3360SOL    HW210980   0.824   2.458   6.029
 3361SOL     OW10981   0.797   0.194   4.612
 3361SOL    HW110982   0.819   0.285   4.647
 3361SOL    HW210983   0.790   0.197   4.512
 3362SOL     OW10984   3.956   1.692   4.180
 3362SOL    HW110985   3.872   1.638   4.189
 3362SOL    HW210986   4.030   1.633   4.148
 3363SOL     OW10987   6.854   3.078   1.393
 3363SOL    HW110988   6.915   3.004   1.421
 3363SOL    HW210989   6.891   3.123   1.312
 3364SOL     OW10990   1.481   4.236   2.710
 3364SOL    HW110991   1.386   4.254   2.686
 3364SOL    HW210992   1.541   4.279   2.642
 3365SOL     OW10993   2.206   3.217   4.712
 3365SOL    HW110994   2.132   3.281   4.694
 3365SOL    HW210995   2.215   3.202   4.810
 3366SOL     OW10996   6.969   3.466   4.342
 3366SOL    HW110997   7.008   3.442   4.253
 3366SOL    HW210998   0.018   3.480   4.408
 3367SOL     OW10999   3.803   3.525   4.528
 3367SOL    HW111000   3.759   3.610   4.556
 3367SOL    HW211001   3.900   3.541   4.510
 3368SOL     OW11002   1.440   6.406   6.600
 3368SOL    HW111003   1.351   6.407   6.644
 3368SOL    HW211004   1.475   6.313   6.596
 3369SOL     OW11005   4.434   1.565   1.376
 3369SOL    HW111006   4.447   1.664   1.389
 3369SOL    HW211007   4.338   1.542   1.392
 3370SOL     OW11008   6.560   6.136   1.366
 3370SOL    HW111009   6.619   6.069   1.411
 3370SOL    HW211010   6.609   6.222   1.357
 3371SOL     OW11011   2.140   3.406   2.443
 3371SOL    HW111012   2.238   3.412   2.424
 3371SOL    HW211013   2.089   3.436   2.363
 3372SOL     OW11014   6.880   2.643   1.417
 3372SOL    HW111015   6.886   2.545   1.434
 3372SOL    HW211016   6.814   2.684   1.481
 3373SOL     OW11017   0.276   1.346   2.053
 3373SOL    HW111018   0.284   1.381   2.146
 3373SOL    HW211019   0.361   1.362   2.004
 3374SOL     OW11020   0.368   6.754   4.171
 3374SOL    HW111021   0.467   6.749   4.183
 3374SOL    HW211022   0.335   6.843   4.203
 3375SOL     OW11023   6.987   4.762   6.778
 3375SOL    HW111024   0.045   4.763   6.834
 3375SOL    HW211025   7.007   4.728   6.687
 3376SOL     OW11026   2.349   3.368   5.594
 3376SOL    HW111027   2.399   3.454   5.611
 3376SOL    HW211028   2.371   3.334   5.503
 3377SOL     OW11029   6.643   5.096   4.480
 3377SOL    HW111030   6.551   5.074   4.449
 3377SOL    HW211031   6.688   5.013   4.512
 3378SOL     OW11032   0.711   6.694   6.935
 3378SOL    HW111033   0.649   6.714   7.011
 3378SOL    HW211034   0.680   6.744   6.854
 3379SOL     OW11035   1.132   3.361   4.294
 3379SOL    HW111036   1.209   3.413   4.260
 3379SOL    HW211037   1.108   3.393   4.386
 3380SOL     OW11038   3.734   4.597   5.676
 3380SOL    HW111039   3.702   4.548   5.595
 3380SOL    HW211040   3.716   4.694   5.666
 3381SOL     OW11041   0.836   2.962   1.827
 3381SOL    HW111042   0.765   2.985   1.761
 3381SOL    HW211043   0.897   2.893   1.788
 3382SOL     OW11044   6.837   2.327   1.137
 3382SOL    HW111045   6.782   2.244   1.125
 3382SOL    HW211046   6.840   2.351   1.234
 3383SOL     OW11047   3.477   4.959   0.206
 3383SOL    HW111048   3.408   4.901   0.163
 3383SOL    HW211049   3.504   4.918   0.294
 3384SOL     OW11050   2.852   4.829   0.571
 3384SOL    HW111051   2.909   4.907   0.545
 3384SOL    HW211052   2.858   4.815   0.670
 3385SOL     OW11053   0.299   2.232   3.453
 3385SOL    HW111054   0.231   2.266   3.388
 3385SOL    HW211055   0.373   2.298   3.461
 3386SOL     OW11056   6.705   4.492   6.868
 3386SOL    HW111057   6.730   4.418   6.805
 3386SOL    HW211058   6.637   4.458   6.933
 3387SOL     OW11059   5.440   0.957   3.262
 3387SOL    HW111060   5.446   0.989   3.357
 3387SOL    HW211061   5.358   0.900   3.251
 3388SOL     OW11062   4.772   4.262   1.364
 3388SOL    HW111063   4.851   4.250   1.425
 3388SOL    HW211064   4.797   4.323   1.289
 3389SOL     OW11065   6.153   6.287   0.324
 3389SOL    HW111066   6.178   6.193   0.302
 3389SOL    HW211067   6.230   6.331   0.371
 3390SOL     OW11068   3.978   6.667   5.608
 3390SOL    HW111069   3.990   6.570   5.589
 3390SOL    HW211070   3.891   6.681   5.656
 3391SOL     OW11071   5.847   2.955   4.174
 3391SOL    HW111072   5.842   3.001   4.263
 3391SOL    HW211073   5.786   2.875   4.173
 3392SOL     OW11074   4.040   7.007   4.673
 3392SOL    HW111075   4.031   0.051   4.601
 3392SOL    HW211076   4.083   0.023   4.753
 3393SOL     OW11077   4.960   0.093   0.639
 3393SOL    HW111078   4.865   0.067   0.623
 3393SOL    HW211079   4.998   0.133   0.555
 3394SOL     OW11080   3.494   5.047   1.256
 3394SOL    HW111081   3.538   5.136   1.247
 3394SOL    HW211082   3.399   5.053   1.225
 3395SOL     OW11083   4.138   0.712   3.190
 3395SOL    HW111084   4.146   0.802   3.147
 3395SOL    HW211085   4.042   0.684   3.191
 3396SOL     OW11086   5.767   0.817   3.816
 3396SOL    HW111087   5.713   0.737   3.839
 3396SOL    HW211088   5.765   0.882   3.893
 3397SOL     OW11089   2.456   5.805   6.110
 3397SOL    HW111090   2.501   5.785   6.197
 3397SOL    HW211091   2.471   5.901   6.087
 3398SOL     OW11092   0.635   1.648   5.650
 3398SOL    HW111093   0.666   1.722   5.709
 3398SOL    HW211094   0.594   1.575   5.706
 3399SOL     OW11095   0.258   4.606   3.293
 3399SOL    HW111096   0.284   4.658   3.375
 3399SOL    HW211097   0.216   4.520   3.320
 3400SOL     OW11098   5.614   3.311   5.917
 3400SOL    HW111099   5.618   3.229   5.860
 3400SOL    HW211100   5.590   3.285   6.011
 3401SOL     OW11101   6.488   3.836   6.252
 3401SOL    HW111102   6.455   3.825   6.346
 3401SOL    HW211103   6.586   3.853   6.253
 3402SOL     OW11104   6.708   5.192   0.887
 3402SOL    HW111105   6.666   5.114   0.840
 3402SOL    HW211106   6.637   5.256   0.915
 3403SOL     OW11107   4.556   6.392   6.053
 3403SOL    HW111108   4.480   6.452   6.079
 3403SOL    HW211109   4.633   6.448   6.021
 3404SOL     OW11110   4.934   3.251   5.975
 3404SOL    HW111111   4.869   3.266   5.900
 3404SOL    HW211112   4.990   3.332   5.987
 3405SOL     OW11113   5.642   6.305   5.998
 3405SOL    HW111114   5.699   6.340   6.072
 3405SOL    HW211115   5.573   6.243   6.036
 3406SOL     OW11116   1.836   3.705   2.215
 3406SOL    HW111117   1.877   3.795   2.202
 3406SOL    HW211118   1.812   3.692   2.311
 3407SOL     OW11119   2.303   4.250   0.598
 3407SOL    HW111120   2.386   4.255   0.543
 3407SOL    HW211121   2.323   4.277   0.692
 3408SOL     OW11122   4.406   2.385   4.024
 3408SOL    HW111123   4.328   2.363   4.082
 3408SOL    HW211124   4.458   2.302   4.005
 3409SOL     OW11125   4.078   6.668   0.063
 3409SOL    HW111126   4.079   6.765   0.088
 3409SOL    HW211127   4.002   6.622   0.108
 3410SOL     OW11128   6.083   6.592   2.915
 3410SOL    HW111129   6.102   6.672   2.857
 3410SOL    HW211130   6.038   6.622   2.999
 3411SOL     OW11131   6.913   1.724   0.956
 3411SOL    HW111132   6.870   1.783   0.888
 3411SOL    HW211133   6.958   1.648   0.910
 3412SOL     OW11134   5.248   3.639   1.726
 3412SOL    HW111135   5.342   3.665   1.704
 3412SOL    HW211136   5.249   3.566   1.794
 3413SOL     OW11137   6.533   1.504   6.338
 3413SOL    HW111138   6.598   1.430   6.358
 3413SOL    HW211139   6.494   1.537   6.424
 3414SOL     OW11140   3.925   3.062   0.037
 3414SOL    HW111141   4.016   3.077   7.025
 3414SOL    HW211142   3.858   3.112   7.009
 3415SOL     OW11143   2.572   2.371   4.407
 3415SOL    HW111144   2.605   2.422   4.486
 3415SOL    HW211145   2.644   2.366   4.338
 3416SOL     OW11146   6.258   0.259   0.093
 3416SOL    HW111147   6.264   0.172   0.141
 3416SOL    HW211148   6.232   0.331   0.157
 3417SOL     OW11149   0.384   0.394   3.597
 3417SOL    HW111150   0.478   0.417   3.623
 3417SOL    HW211151   0.326   0.475   3.606
 3418SOL     OW11152   3.981   5.433   2.934
 3418SOL    HW111153   4.009   5.346   2.893
 3418SOL    HW211154   4.061   5.483   2.965
 3419SOL     OW11155   3.897   5.845   5.587
 3419SOL    HW111156   3.945   5.908   5.648
 3419SOL    HW211157   3.963   5.801   5.526
 3420SOL     OW11158   4.724   2.831   3.926
 3420SOL    HW111159   4.697   2.738   3.899
 3420SOL    HW211160   4.742   2.833   4.025
 3421SOL     OW11161   5.424   1.685   3.738
 3421SOL    HW111162   5.480   1.686   3.656
 3421SOL    HW211163   5.410   1.779   3.770
 3422SOL     OW11164   2.264   6.939   6.951
 3422SOL    HW111165   2.323   7.019   6.937
 3422SOL    HW211166   2.317   6.856   6.933
 3423SOL     OW11167   0.729   4.448   6.053
 3423SOL    HW111168   0.827   4.429   6.059
 3423SOL    HW211169   0.698   4.493   6.136
 3424SOL     OW11170   4.304   6.618   1.384
 3424SOL    HW111171   4.320   6.618   1.285
 3424SOL    HW211172   4.298   6.712   1.417
 3425SOL     OW11173   5.118   4.396   1.780
 3425SOL    HW111174   5.036   4.369   1.729
 3425SOL    HW211175   5.162   4.472   1.732
 3426SOL     OW11176   5.098   3.458   0.676
 3426SOL    HW111177   5.183   3.406   0.684
 3426SOL    HW211178   5.021   3.397   0.693
 3427SOL     OW11179   1.416   2.444   1.110
 3427SOL    HW111180   1.515   2.435   1.102
 3427SOL    HW211181   1.372   2.363   1.070
 3428SOL     OW11182   4.727   5.283   5.591
 3428SOL    HW111183   4.782   5.241   5.519
 3428SOL    HW211184   4.630   5.279   5.566
 3429SOL     OW11185   0.442   1.037   1.106
 3429SOL    HW111186   0.364   0.977   1.092
 3429SOL    HW211187   0.520   1.004   1.052
 3430SOL     OW11188   2.195   4.805   5.601
 3430SOL    HW111189   2.122   4.868   5.572
 3430SOL    HW211190   2.199   4.802   5.700
 3431SOL     OW11191   1.989   6.447   2.631
 3431SOL    HW111192   1.905   6.472   2.678
 3431SOL    HW211193   2.041   6.383   2.687
 3432SOL     OW11194   2.107   4.718   6.546
 3432SOL    HW111195   2.106   4.625   6.509
 3432SOL    HW211196   2.050   4.720   6.629
 3433SOL     OW11197   2.604   0.758   6.441
 3433SOL    HW111198   2.620   0.855   6.422
 3433SOL    HW211199   2.681   0.721   6.493
 3434SOL     OW11200   2.829   2.109   1.884
 3434SOL    HW111201   2.863   2.186   1.938
 3434SOL    HW211202   2.882   2.103   1.799
 3435SOL     OW11203   2.290   1.100   0.224
 3435SOL    HW111204   2.263   1.161   0.299
 3435SOL    HW211205   2.222   1.028   0.214
 3436SOL     OW11206   4.413   5.251   0.321
 3436SOL    HW111207   4.397   5.254   0.223
 3436SOL    HW211208   4.328   5.271   0.370
 3437SOL     OW11209   1.408   6.576   6.234
 3437SOL    HW111210   1.366   6.486   6.244
 3437SOL    HW211211   1.493   6.579   6.287
 3438SOL     OW11212   0.823   3.670   1.457
 3438SOL    HW111213   0.915   3.639   1.478
 3438SOL    HW211214   0.757   3.612   1.504
 3439SOL     OW11215   2.282   6.028   2.849
 3439SOL    HW111216   2.300   5.932   2.829
 3439SOL    HW211217   2.289   6.081   2.765
 3440SOL     OW11218   3.638   2.837   4.876
 3440SOL    HW111219   3.672   2.744   4.859
 3440SOL    HW211220   3.708   2.903   4.849
 3441SOL     OW11221   6.475   5.682   6.211
 3441SOL    HW111222   6.407   5.649   6.145
 3441SOL    HW211223   6.557   5.711   6.162
 3442SOL     OW11224   2.870   4.052   1.576
 3442SOL    HW111225   2.859   4.110   1.657
 3442SOL    HW211226   2.851   3.957   1.602
 3443SOL     OW11227   3.105   5.921   2.718
 3443SOL    HW111228   3.121   5.999   2.780
 3443SOL    HW211229   3.105   5.836   2.771
 3444SOL     OW11230   5.528   4.699   1.345
 3444SOL    HW111231   5.547   4.601   1.350
 3444SOL    HW211232   5.602   4.745   1.295
 3445SOL     OW11233   6.425   4.925   3.915
 3445SOL    HW111234   6.442   4.829   3.896
 3445SOL    HW211235   6.341   4.934   3.969
 3446SOL     OW11236   5.587   0.138   2.031
 3446SOL    HW111237   5.541   0.058   2.069
 3446SOL    HW211238   5.527   0.217   2.039
 3447SOL     OW11239   5.264   0.670   0.051
 3447SOL    HW111240   5.175   0.672   0.096
 3447SOL    HW211241   5.294   0.575   0.040
 3448SOL     OW11242   1.573   6.550   5.386
 3448SOL    HW111243   1.653   6.493   5.402
 3448SOL    HW211244   1.602   6.643   5.366
 3449SOL     OW11245   5.897   5.245   5.111
 3449SOL    HW111246   5.967   5.315   5.123
 3449SOL    HW211247   5.940   5.158   5.088
 3450SOL     OW11248   1.203   0.253   6.485
 3450SOL    HW111249   1.131   0.292   6.542
 3450SOL    HW211250   1.290   0.257   6.533
 3451SOL     OW11251   1.750   5.837   0.656
 3451SOL    HW111252   1.811   5.802   0.585
 3451SOL    HW211253   1.804   5.881   0.727
 3452SOL     OW11254   5.462   1.011   5.405
 3452SOL    HW111255   5.443   1.106   5.430
 3452SOL    HW211256   5.391   0.979   5.342
 3453SOL     OW11257   5.704   6.602   6.066
 3453SOL    HW111258   5.714   6.696   6.033
 3453SOL    HW211259   5.685   6.542   5.989
 3454SOL     OW11260   1.719   2.887   3.089
 3454SOL    HW111261   1.630   2.859   3.052
 3454SOL    HW211262   1.705   2.963   3.153
 3455SOL     OW11263   1.653   2.782   4.666
 3455SOL    HW111264   1.741   2.823   4.689
 3455SOL    HW211265   1.663   2.725   4.584
 3456SOL     OW11266   4.535   4.538   2.015
 3456SOL    HW111267   4.587   4.578   1.939
 3456SOL    HW211268   4.517   4.441   1.995
 3457SOL     OW11269   3.899   5.242   4.933
 3457SOL    HW111270   3.803   5.215   4.930
 3457SOL    HW211271   3.954   5.176   4.882
 3458SOL     OW11272   4.608   1.693   2.538
 3458SOL    HW111273   4.688   1.721   2.484
 3458SOL    HW211274   4.553   1.629   2.484
 3459SOL     OW11275   4.196   1.298   2.872
 3459SOL    HW111276   4.129   1.255   2.934
 3459SOL    HW211277   4.149   1.333   2.791
 3460SOL     OW11278   3.766   1.647   5.804
 3460SOL    HW111279   3.733   1.734   5.766
 3460SOL    HW211280   3.817   1.665   5.888
 3461SOL     OW11281   5.366   5.175   6.622
 3461SOL    HW111282   5.404   5.084   6.604
 3461SOL    HW211283   5.316   5.206   6.541
 3462SOL     OW11284   2.301   3.543   6.526
 3462SOL    HW111285   2.302   3.506   6.619
 3462SOL    HW211286   2.389   3.524   6.483
 3463SOL     OW11287   7.010   3.903   0.939
 3463SOL    HW111288   6.971   3.992   0.917
 3463SOL    HW211289   0.074   3.915   0.983
 3464SOL     OW11290   0.225   4.440   6.528
 3464SOL    HW111291   0.230   4.537   6.503
 3464SOL    HW211292   0.263   4.427   6.620
 3465SOL     OW11293   2.199   1.438   1.241
 3465SOL    HW111294   2.239   1.513   1.294
 3465SOL    HW211295   2.146   1.476   1.165
 3466SOL     OW11296   0.242   4.935   5.854
 3466SOL    HW111297   0.193   5.003   5.908
 3466SOL    HW211298   0.221   4.843   5.889
 3467SOL     OW11299   2.035   2.316   6.290
 3467SOL    HW111300   2.083   2.256   6.226
 3467SOL    HW211301   2.051   2.411   6.265
 3468SOL     OW11302   2.761   5.843   3.644
 3468SOL    HW111303   2.678   5.897   3.654
 3468SOL    HW211304   2.780   5.828   3.546
 3469SOL     OW11305   6.748   2.379   4.037
 3469SOL    HW111306   6.816   2.308   4.055
 3469SOL    HW211307   6.676   2.342   3.978
 3470SOL     OW11308   0.566   5.088   1.590
 3470SOL    HW111309   0.508   5.121   1.664
 3470SOL    HW211310   0.577   5.160   1.522
 3471SOL     OW11311   4.434   5.679   5.125
 3471SOL    HW111312   4.454   5.705   5.219
 3471SOL    HW211313   4.338   5.652   5.117
 3472SOL     OW11314   2.348   1.097   4.576
 3472SOL    HW111315   2.287   1.038   4.629
 3472SOL    HW211316   2.309   1.114   4.486
 3473SOL     OW11317   5.676   1.672   5.883
 3473SOL    HW111318   5.749   1.638   5.823
 3473SOL    HW211319   5.587   1.642   5.847
 3474SOL     OW11320   3.512   4.974   2.077
 3474SOL    HW111321   3.500   5.052   2.016
 3474SOL    HW211322   3.555   4.899   2.026
 3475SOL     OW11323   0.978   6.752   4.138
 3475SOL    HW111324   0.894   6.764   4.191
 3475SOL    HW211325   1.048   6.711   4.196
 3476SOL     OW11326   4.548   1.180   4.583
 3476SOL    HW111327   4.621   1.248   4.582
 3476SOL    HW211328   4.581   1.095   4.626
 3477SOL     OW11329   3.855   6.042   1.010
 3477SOL    HW111330   3.771   6.040   1.065
 3477SOL    HW211331   3.832   6.045   0.913
 3478SOL     OW11332   3.049   5.982   5.868
 3478SOL    HW111333   2.964   5.942   5.835
 3478SOL    HW211334   3.029   6.062   5.924
 3479SOL     OW11335   0.596   0.773   2.452
 3479SOL    HW111336   0.604   0.713   2.531
 3479SOL    HW211337   0.686   0.810   2.428
 3480SOL     OW11338   6.658   1.444   3.705
 3480SOL    HW111339   6.750   1.449   3.742
 3480SOL    HW211340   6.642   1.352   3.669
 3481SOL     OW11341   3.265   6.415   6.456
 3481SOL    HW111342   3.278   6.487   6.388
 3481SOL    HW211343   3.251   6.328   6.410
 3482SOL     OW11344   6.422   1.835   1.818
 3482SOL    HW111345   6.515   1.802   1.805
 3482SOL    HW211346   6.385   1.797   1.903
 3483SOL     OW11347   2.322   0.758   1.923
 3483SOL    HW111348   2.223   0.745   1.935
 3483SOL    HW211349   2.338   0.836   1.862
 3484SOL     OW11350   3.378   2.961   3.374
 3484SOL    HW111351   3.359   2.918   3.462
 3484SOL    HW211352   3.294   3.004   3.340
 3485SOL     OW11353   1.991   2.022   4.992
 3485SOL    HW111354   1.932   2.097   4.962
 3485SOL    HW211355   2.063   2.008   4.924
 3486SOL     OW11356   4.176   1.356   1.648
 3486SOL    HW111357   4.134   1.383   1.734
 3486SOL    HW211358   4.167   1.431   1.582
 3487SOL     OW11359   5.931   1.462   6.655
 3487SOL    HW111360   5.984   1.531   6.704
 3487SOL    HW211361   5.852   1.506   6.611
 3488SOL     OW11362   6.067   3.489   4.262
 3488SOL    HW111363   6.125   3.558   4.218
 3488SOL    HW211364   6.120   3.405   4.275
 3489SOL     OW11365   3.341   6.822   0.779
 3489SOL    HW111366   3.281   6.854   0.852
 3489SOL    HW211367   3.425   6.877   0.778
 3490SOL     OW11368   5.451   4.318   0.134
 3490SOL    HW111369   5.400   4.304   0.218
 3490SOL    HW211370   5.445   4.235   0.077
 3491SOL     OW11371   0.192   3.106   5.478
 3491SOL    HW111372   0.133   3.174   5.433
 3491SOL    HW211373   0.232   3.147   5.561
 3492SOL     OW11374   0.551   5.688   6.611
 3492SOL    HW111375   0.558   5.650   6.519
 3492SOL    HW211376   0.555   5.614   6.678
 3493SOL     OW11377   6.212   4.876   1.302
 3493SOL    HW111378   6.281   4.945   1.284
 3493SOL    HW211379   6.169   4.894   1.390
 3494SOL     OW11380   3.885   0.230   1.451
 3494SOL    HW111381   3.853   0.323   1.435
 3494SOL    HW211382   3.944   0.229   1.532
 3495SOL     OW11383   4.159   5.530   1.913
 3495SOL    HW111384   4.130   5.619   1.949
 3495SOL    HW211385   4.105   5.507   1.832
 3496SOL     OW11386   1.931   3.003   0.961
 3496SOL    HW111387   1.896   3.039   0.875
 3496SOL    HW211388   2.023   3.039   0.977
 3497SOL     OW11389   4.270   0.893   3.416
 3497SOL    HW111390   4.234   0.816   3.365
 3497SOL    HW211391   4.214   0.910   3.497
 3498SOL     OW11392   3.044   1.385   1.234
 3498SOL    HW111393   3.063   1.289   1.212
 3498SOL    HW211394   3.130   1.435   1.246
 3499SOL     OW11395   0.303   3.201   3.887
 3499SOL    HW111396   0.346   3.270   3.946
 3499SOL    HW211397   0.370   3.130   3.866
 3500SOL     OW11398   6.111   4.070   6.442
 3500SOL    HW111399   6.093   3.978   6.477
 3500SOL    HW211400   6.101   4.071   6.343
 3501SOL     OW11401   1.116   4.709   5.423
 3501SOL    HW111402   1.020   4.715   5.451
 3501SOL    HW211403   1.154   4.622   5.454
 3502SOL     OW11404   0.839   1.546   1.733
 3502SOL    HW111405   0.916   1.589   1.687
 3502SOL    HW211406   0.862   1.528   1.829
 3503SOL     OW11407   4.404   5.536   5.598
 3503SOL    HW111408   4.425   5.445   5.563
 3503SOL    HW211409   4.474   5.563   5.664
 3504SOL     OW11410   3.010   3.501   1.270
 3504SOL    HW111411   2.991   3.448   1.352
 3504SOL    HW211412   2.934   3.565   1.253
 3505SOL     OW11413   5.553   6.174   5.074
 3505SOL    HW111414   5.637   6.135   5.037
 3505SOL    HW211415   5.556   6.273   5.069
 3506SOL     OW11416   3.998   5.476   4.131
 3506SOL    HW111417   3.925   5.482   4.063
 3506SOL    HW211418   3.970   5.523   4.214
 3507SOL     OW11419   1.366   0.518   6.316
 3507SOL    HW111420   1.449   0.518   6.261
 3507SOL    HW211421   1.295   0.465   6.270
 3508SOL     OW11422   5.429   2.498   0.497
 3508SOL    HW111423   5.344   2.507   0.548
 3508SOL    HW211424   5.502   2.469   0.559
 3509SOL     OW11425   6.003   6.144   6.891
 3509SOL    HW111426   6.021   6.180   6.799
 3509SOL    HW211427   6.089   6.111   6.931
 3510SOL     OW11428   1.887   2.266   1.161
 3510SOL    HW111429   1.788   2.265   1.147
 3510SOL    HW211430   1.927   2.343   1.112
 3511SOL     OW11431   0.893   3.070   6.555
 3511SOL    HW111432   0.977   3.048   6.506
 3511SOL    HW211433   0.815   3.062   6.493
 3512SOL     OW11434   1.819   3.422   0.329
 3512SOL    HW111435   1.910   3.448   0.296
 3512SOL    HW211436   1.765   3.386   0.253
 3513SOL     OW11437   6.460   4.139   1.006
 3513SOL    HW111438   6.540   4.199   1.000
 3513SOL    HW211439   6.378   4.192   0.986
 3514SOL     OW11440   0.346   6.828   1.386
 3514SOL    HW111441   0.440   6.807   1.413
 3514SOL    HW211442   0.283   6.777   1.444
 3515SOL     OW11443   2.867   6.219   2.870
 3515SOL    HW111444   2.835   6.310   2.845
 3515SOL    HW211445   2.832   6.195   2.961
 3516SOL     OW11446   3.322   0.758   0.514
 3516SOL    HW111447   3.234   0.805   0.524
 3516SOL    HW211448   3.305   0.662   0.493
 3517SOL     OW11449   0.859   1.343   6.840
 3517SOL    HW111450   0.870   1.318   6.936
 3517SOL    HW211451   0.943   1.320   6.790
 3518SOL     OW11452   4.539   3.656   6.656
 3518SOL    HW111453   4.615   3.640   6.718
 3518SOL    HW211454   4.571   3.706   6.576
 3519SOL     OW11455   1.062   6.708   6.838
 3519SOL    HW111456   1.044   6.644   6.763
 3519SOL    HW211457   1.147   6.682   6.883
 3520SOL     OW11458   4.085   4.591   1.161
 3520SOL    HW111459   4.063   4.638   1.247
 3520SOL    HW211460   4.040   4.502   1.160
 3521SOL     OW11461   5.494   2.734   1.703
 3521SOL    HW111462   5.451   2.644   1.707
 3521SOL    HW211463   5.496   2.774   1.795
 3522SOL     OW11464   2.811   4.799   1.634
 3522SOL    HW111465   2.847   4.711   1.604
 3522SOL    HW211466   2.774   4.791   1.726
 3523SOL     OW11467   2.934   4.863   4.940
 3523SOL    HW111468   3.020   4.861   4.888
 3523SOL    HW211469   2.898   4.770   4.948
 3524SOL     OW11470   2.361   0.582   0.785
 3524SOL    HW111471   2.287   0.563   0.722
 3524SOL    HW211472   2.448   0.578   0.737
 3525SOL     OW11473   0.549   2.862   1.752
 3525SOL    HW111474   0.522   2.957   1.768
 3525SOL    HW211475   0.551   2.844   1.654
 3526SOL     OW11476   0.606   0.712   3.069
 3526SOL    HW111477   0.570   0.634   3.019
 3526SOL    HW211478   0.597   0.795   3.013
 3527SOL     OW11479   5.502   3.004   6.377
 3527SOL    HW111480   5.427   3.043   6.325
 3527SOL    HW211481   5.494   3.030   6.473
 3528SOL     OW11482   0.786   5.633   3.307
 3528SOL    HW111483   0.709   5.589   3.261
 3528SOL    HW211484   0.777   5.732   3.300
 3529SOL     OW11485   4.793   6.835   5.511
 3529SOL    HW111486   4.798   6.896   5.590
 3529SOL    HW211487   4.885   6.804   5.487
 3530SOL     OW11488   2.672   5.717   2.465
 3530SOL    HW111489   2.636   5.664   2.388
 3530SOL    HW211490   2.628   5.807   2.467
 3531SOL     OW11491   5.580   4.563   0.486
 3531SOL    HW111492   5.491   4.581   0.445
 3531SOL    HW211493   5.571   4.552   0.585
 3532SOL     OW11494   2.835   0.921   0.042
 3532SOL    HW111495   2.843   0.909   6.968
 3532SOL    HW211496   2.922   0.954   0.079
 3533SOL     OW11497   1.186   1.764   3.342
 3533SOL    HW111498   1.205   1.814   3.426
 3533SOL    HW211499   1.214   1.818   3.263
 3534SOL     OW11500   5.630   1.779   5.274
 3534SOL    HW111501   5.579   1.790   5.189
 3534SOL    HW211502   5.728   1.775   5.255
 3535SOL     OW11503   6.332   5.328   6.486
 3535SOL    HW111504   6.372   5.239   6.466
 3535SOL    HW211505   6.396   5.400   6.462
 3536SOL     OW11506   2.037   3.121   3.129
 3536SOL    HW111507   2.109   3.089   3.068
 3536SOL    HW211508   2.050   3.218   3.147
 3537SOL     OW11509   2.399   5.468   0.503
 3537SOL    HW111510   2.440   5.379   0.483
 3537SOL    HW211511   2.471   5.537   0.506
 3538SOL     OW11512   3.222   6.468   2.541
 3538SOL    HW111513   3.296   6.519   2.496
 3538SOL    HW211514   3.159   6.432   2.472
 3539SOL     OW11515   5.551   5.031   6.003
 3539SOL    HW111516   5.557   5.107   6.067
 3539SOL    HW211517   5.641   4.988   5.995
 3540SOL     OW11518   2.317   3.082   6.768
 3540SOL    HW111519   2.284   3.116   6.680
 3540SOL    HW211520   2.238   3.057   6.825
 3541SOL     OW11521   2.958   3.101   0.846
 3541SOL    HW111522   2.887   3.171   0.851
 3541SOL    HW211523   3.002   3.103   0.756
 3542SOL     OW11524   5.369   2.716   7.024
 3542SOL    HW111525   5.362   2.806   6.980
 3542SOL    HW211526   5.402   2.728   0.093
 3543SOL     OW11527   1.891   3.126   2.722
 3543SOL    HW111528   1.839   3.051   2.763
 3543SOL    HW211529   1.895   3.203   2.786
 3544SOL     OW11530   2.991   4.324   6.323
 3544SOL    HW111531   2.926   4.354   6.393
 3544SOL    HW211532   3.068   4.388   6.320
 3545SOL     OW11533   3.601   6.473   0.897
 3545SOL    HW111534   3.669   6.449   0.966
 3545SOL    HW211535   3.526   6.522   0.940
 3546SOL     OW11536   6.396   3.737   3.173
 3546SOL    HW111537   6.432   3.661   3.119
 3546SOL    HW211538   6.431   3.824   3.137
 3547SOL     OW11539   0.279   3.406   5.314
 3547SOL    HW111540   0.198   3.355   5.344
 3547SOL    HW211541   0.319   3.454   5.392
 3548SOL     OW11542   5.132   1.864   6.211
 3548SOL    HW111543   5.125   1.919   6.128
 3548SOL    HW211544   5.227   1.863   6.242
 3549SOL     OW11545   2.452   5.760   0.046
 3549SOL    HW111546   2.407   5.846   0.071
 3549SOL    HW211547   2.470   5.707   0.129
 3550SOL     OW11548   5.153   2.057   5.418
 3550SOL    HW111549   5.054   2.067   5.411
 3550SOL    HW211550   5.195   2.082   5.330
 3551SOL     OW11551   3.730   2.167   5.720
 3551SOL    HW111552   3.745   2.189   5.623
 3551SOL    HW211553   3.729   2.251   5.773
 3552SOL     OW11554   6.940   5.787   1.879
 3552SOL    HW111555   6.895   5.869   1.843
 3552SOL    HW211556   6.990   5.741   1.806
 3553SOL     OW11557   4.305   5.954   5.834
 3553SOL    HW111558   4.245   5.959   5.913
 3553SOL    HW211559   4.338   6.045   5.810
 3554SOL     OW11560   3.926   3.991   1.337
 3554SOL    HW111561   3.852   4.020   1.277
 3554SOL    HW211562   4.009   3.976   1.283
 3555SOL     OW11563   1.842   2.286   3.819
 3555SOL    HW111564   1.754   2.321   3.786
 3555SOL    HW211565   1.828   2.201   3.870
 3556SOL     OW11566   4.211   1.061   5.174
 3556SOL    HW111567   4.228   1.156   5.200
 3556SOL    HW211568   4.277   1.001   5.220
 3557SOL     OW11569   0.343   0.644   2.445
 3557SOL    HW111570   0.323   0.640   2.543
 3557SOL    HW211571   0.425   0.697   2.429
 3558SOL     OW11572   3.159   6.447   0.604
 3558SOL    HW111573   3.187   6.408   0.692
 3558SOL    HW211574   3.062   6.473   0.608
 3559SOL     OW11575   3.900   6.322   4.722
 3559SOL    HW111576   3.886   6.414   4.687
 3559SOL    HW211577   3.830   6.261   4.685
 3560SOL     OW11578   1.769   5.496   5.039
 3560SOL    HW111579   1.815   5.453   4.961
 3560SOL    HW211580   1.770   5.596   5.028
 3561SOL     OW11581   4.796   4.535   5.207
 3561SOL    HW111582   4.698   4.555   5.206
 3561SOL    HW211583   4.813   4.452   5.261
 3562SOL     OW11584   2.512   1.661   4.818
 3562SOL    HW111585   2.571   1.701   4.889
 3562SOL    HW211586   2.417   1.665   4.848
 3563SOL     OW11587   6.022   2.191   6.080
 3563SOL    HW111588   6.023   2.243   6.165
 3563SOL    HW211589   6.034   2.094   6.100
 3564SOL     OW11590   0.029   4.241   2.958
 3564SOL    HW111591   6.997   4.159   2.952
 3564SOL    HW211592   0.090   4.233   3.037
 3565SOL     OW11593   3.580   5.218   3.045
 3565SOL    HW111594   3.540   5.130   3.071
 3565SOL    HW211595   3.676   5.206   3.023
 3566SOL     OW11596   6.528   1.421   5.292
 3566SOL    HW111597   6.516   1.409   5.390
 3566SOL    HW211598   6.626   1.420   5.270
 3567SOL     OW11599   0.588   4.058   0.042
 3567SOL    HW111600   0.506   4.029   0.091
 3567SOL    HW211601   0.567   4.065   6.969
 3568SOL     OW11602   6.739   3.564   5.828
 3568SOL    HW111603   6.797   3.523   5.898
 3568SOL    HW211604   6.784   3.644   5.789
 3569SOL     OW11605   2.802   1.785   5.612
 3569SOL    HW111606   2.842   1.877   5.611
 3569SOL    HW211607   2.809   1.746   5.704
 3570SOL     OW11608   5.625   0.825   4.122
 3570SOL    HW111609   5.625   0.901   4.187
 3570SOL    HW211610   5.566   0.848   4.045
 3571SOL     OW11611   6.521   5.963   6.689
 3571SOL    HW111612   6.451   6.030   6.715
 3571SOL    HW211613   6.544   5.974   6.593
 3572SOL     OW11614   5.509   3.569   3.782
 3572SOL    HW111615   5.555   3.481   3.779
 3572SOL    HW211616   5.423   3.560   3.833
 3573SOL     OW11617   0.865   4.326   4.069
 3573SOL    HW111618   0.954   4.352   4.032
 3573SOL    HW211619   0.876   4.297   4.164
 3574SOL     OW11620   0.450   5.002   0.350
 3574SOL    HW111621   0.376   4.985   0.285
 3574SOL    HW211622   0.439   4.942   0.430
 3575SOL     OW11623   5.803   5.347   3.147
 3575SOL    HW111624   5.739   5.275   3.172
 3575SOL    HW211625   5.756   5.436   3.146
 3576SOL     OW11626   1.295   1.364   6.213
 3576SOL    HW111627   1.278   1.293   6.145
 3576SOL    HW211628   1.248   1.448   6.186
 3577SOL     OW11629   0.881   2.499   6.731
 3577SOL    HW111630   0.802   2.495   6.669
 3577SOL    HW211631   0.852   2.473   6.823
 3578SOL     OW11632   3.440   4.078   6.827
 3578SOL    HW111633   3.400   4.163   6.863
 3578SOL    HW211634   3.401   4.059   6.737
 3579SOL     OW11635   6.586   3.602   5.103
 3579SOL    HW111636   6.643   3.681   5.125
 3579SOL    HW211637   6.544   3.567   5.187
 3580SOL     OW11638   5.367   2.099   1.897
 3580SOL    HW111639   5.333   2.175   1.952
 3580SOL    HW211640   5.315   2.095   1.811
 3581SOL     OW11641   6.935   0.108   3.144
 3581SOL    HW111642   6.891   0.174   3.205
 3581SOL    HW211643   6.888   0.020   3.151
 3582SOL     OW11644   1.372   1.773   5.684
 3582SOL    HW111645   1.370   1.705   5.757
 3582SOL    HW211646   1.391   1.729   5.596
 3583SOL     OW11647   1.047   4.529   6.931
 3583SOL    HW111648   1.041   4.607   6.994
 3583SOL    HW211649   1.030   4.444   6.982
 3584SOL     OW11650   6.003   6.409   6.355
 3584SOL    HW111651   6.023   6.370   6.265
 3584SOL    HW211652   6.058   6.491   6.369
 3585SOL     OW11653   3.527   5.268   5.085
 3585SOL    HW111654   3.571   5.274   4.996
 3585SOL    HW211655   3.440   5.219   5.076
 3586SOL     OW11656   6.083   2.716   5.438
 3586SOL    HW111657   6.046   2.671   5.519
 3586SOL    HW211658   6.027   2.695   5.358
 3587SOL     OW11659   2.702   6.795   1.225
 3587SOL    HW111660   2.621   6.844   1.258
 3587SOL    HW211661   2.773   6.798   1.295
 3588SOL     OW11662   1.568   2.285   5.443
 3588SOL    HW111663   1.562   2.219   5.518
 3588SOL    HW211664   1.588   2.376   5.480
 3589SOL     OW11665   3.629   0.898   4.421
 3589SOL    HW111666   3.548   0.931   4.372
 3589SOL    HW211667   3.685   0.975   4.450
 3590SOL     OW11668   1.086   4.793   6.544
 3590SOL    HW111669   0.996   4.757   6.570
 3590SOL    HW211670   1.150   4.717   6.533
 3591SOL     OW11671   5.780   3.140   6.339
 3591SOL    HW111672   5.713   3.067   6.332
 3591SOL    HW211673   5.823   3.137   6.429
 3592SOL     OW11674   5.269   2.909   2.911
 3592SOL    HW111675   5.303   2.935   2.821
 3592SOL    HW211676   5.245   2.991   2.963
 3593SOL     OW11677   2.690   6.441   4.508
 3593SOL    HW111678   2.704   6.362   4.566
 3593SOL    HW211679   2.774   6.495   4.504
 3594SOL     OW11680   2.955   0.971   3.214
 3594SOL    HW111681   3.028   0.905   3.233
 3594SOL    HW211682   2.895   0.977   3.294
 3595SOL     OW11683   2.515   6.546   5.461
 3595SOL    HW111684   2.565   6.472   5.506
 3595SOL    HW211685   2.578   6.620   5.439
 3596SOL     OW11686   6.523   1.072   2.679
 3596SOL    HW111687   6.561   1.068   2.586
 3596SOL    HW211688   6.435   1.120   2.677
 3597SOL     OW11689   3.844   6.239   4.328
 3597SOL    HW111690   3.818   6.299   4.252
 3597SOL    HW211691   3.830   6.144   4.302
 3598SOL     OW11692   1.008   0.728   5.426
 3598SOL    HW111693   0.932   0.757   5.368
 3598SOL    HW211694   1.082   0.794   5.420
 3599SOL     OW11695   0.765   1.792   5.873
 3599SOL    HW111696   0.755   1.883   5.915
 3599SOL    HW211697   0.861   1.766   5.873
 3600SOL     OW11698   6.664   3.022   0.837
 3600SOL    HW111699   6.717   3.072   0.768
 3600SOL    HW211700   6.724   2.956   0.883
 3601SOL     OW11701   6.937   4.238   0.623
 3601SOL    HW111702   0.006   4.208   0.636
 3601SOL    HW211703   6.888   4.170   0.569
 3602SOL     OW11704   2.142   1.162   0.472
 3602SOL    HW111705   2.198   1.113   0.539
 3602SOL    HW211706   2.052   1.118   0.466
 3603SOL     OW11707   3.972   5.786   3.864
 3603SOL    HW111708   3.950   5.688   3.868
 3603SOL    HW211709   4.055   5.804   3.916
 3604SOL     OW11710   6.919   3.113   2.628
 3604SOL    HW111711   6.893   3.104   2.532
 3604SOL    HW211712   6.843   3.083   2.686
 3605SOL     OW11713   6.455   4.679   5.999
 3605SOL    HW111714   6.537   4.674   5.941
 3605SOL    HW211715   6.483   4.684   6.095
 3606SOL     OW11716   0.121   5.090   6.022
 3606SOL    HW111717   0.139   5.098   6.120
 3606SOL    HW211718   0.098   5.180   5.985
 3607SOL     OW11719   5.242   0.378   0.500
 3607SOL    HW111720   5.250   0.353   0.596
 3607SOL    HW211721   5.330   0.364   0.454
 3608SOL     OW11722   6.781   1.396   1.797
 3608SOL    HW111723   6.858   1.461   1.797
 3608SOL    HW211724   6.784   1.341   1.714
 3609SOL     OW11725   6.119   1.048   4.222
 3609SOL    HW111726   6.190   1.041   4.292
 3609SOL    HW211727   6.147   1.000   4.140
 3610SOL     OW11728   0.562   0.132   5.270
 3610SOL    HW111729   0.468   0.153   5.295
 3610SOL    HW211730   0.601   0.207   5.217
 3611SOL     OW11731   3.674   5.180   5.305
 3611SOL    HW111732   3.606   5.214   5.240
 3611SOL    HW211733   3.758   5.157   5.255
 3612SOL     OW11734   0.763   6.425   6.002
 3612SOL    HW111735   0.814   6.511   6.010
 3612SOL    HW211736   0.824   6.349   6.025
 3613SOL     OW11737   5.342   5.246   0.905
 3613SOL    HW111738   5.435   5.209   0.910
 3613SOL    HW211739   5.327   5.307   0.983
 3614SOL     OW11740   3.469   3.413   3.302
 3614SOL    HW111741   3.474   3.360   3.387
 3614SOL    HW211742   3.561   3.429   3.268
 3615SOL     OW11743   6.054   6.075   5.783
 3615SOL    HW111744   5.954   6.068   5.779
 3615SOL    HW211745   6.091   6.068   5.691
 3616SOL     OW11746   6.211   2.415   6.784
 3616SOL    HW111747   6.239   2.365   6.702
 3616SOL    HW211748   6.179   2.350   6.853
 3617SOL     OW11749   5.386   1.843   6.305
 3617SOL    HW111750   5.474   1.805   6.331
 3617SOL    HW211751   5.392   1.942   6.299
 3618SOL     OW11752   1.454   1.946   5.378
 3618SOL    HW111753   1.500   1.987   5.299
 3618SOL    HW211754   1.482   1.995   5.461
 3619SOL     OW11755   6.000   2.318   3.834
 3619SOL    HW111756   6.088   2.309   3.881
 3619SOL    HW211757   5.926   2.297   3.897
 3620SOL     OW11758   5.782   6.387   5.714
 3620SOL    HW111759   5.795   6.380   5.615
 3620SOL    HW211760   5.685   6.390   5.736
 3621SOL     OW11761   2.659   2.385   6.072
 3621SOL    HW111762   2.640   2.415   5.979
 3621SOL    HW211763   2.595   2.313   6.098
 3622SOL     OW11764   1.247   1.717   2.913
 3622SOL    HW111765   1.202   1.643   2.862
 3622SOL    HW211766   1.342   1.724   2.884
 3623SOL     OW11767   6.271   5.250   4.250
 3623SOL    HW111768   6.193   5.212   4.200
 3623SOL    HW211769   6.276   5.348   4.233
 3624SOL     OW11770   1.998   5.885   2.618
 3624SOL    HW111771   1.943   5.965   2.645
 3624SOL    HW211772   1.940   5.804   2.615
 3625SOL     OW11773   6.258   2.916   6.479
 3625SOL    HW111774   6.210   2.828   6.473
 3625SOL    HW211775   6.205   2.979   6.536
 3626SOL     OW11776   2.369   3.619   5.872
 3626SOL    HW111777   2.301   3.617   5.798
 3626SOL    HW211778   2.452   3.573   5.841
 3627SOL     OW11779   3.876   3.722   3.386
 3627SOL    HW111780   3.845   3.708   3.292
 3627SOL    HW211781   3.948   3.656   3.408
 3628SOL     OW11782   1.791   6.954   2.106
 3628SOL    HW111783   1.704   6.949   2.058
 3628SOL    HW211784   1.787   6.898   2.189
 3629SOL     OW11785   6.779   2.074   4.951
 3629SOL    HW111786   6.774   2.172   4.970
 3629SOL    HW211787   6.698   2.047   4.900
 3630SOL     OW11788   5.677   2.710   4.140
 3630SOL    HW111789   5.746   2.644   4.169
 3630SOL    HW211790   5.693   2.736   4.044
 3631SOL     OW11791   2.250   0.248   4.367
 3631SOL    HW111792   2.240   0.289   4.458
 3631SOL    HW211793   2.301   0.310   4.308
 3632SOL     OW11794   4.975   0.877   0.752
 3632SOL    HW111795   4.909   0.946   0.783
 3632SOL    HW211796   4.948   0.843   0.662
 3633SOL     OW11797   3.092   2.434   5.949
 3633SOL    HW111798   3.022   2.439   6.019
 3633SOL    HW211799   3.061   2.484   5.868
 3634SOL     OW11800   0.560   5.513   4.690
 3634SOL    HW111801   0.572   5.414   4.683
 3634SOL    HW211802   0.649   5.557   4.703
 3635SOL     OW11803   3.988   0.472   5.322
 3635SOL    HW111804   3.934   0.392   5.295
 3635SOL    HW211805   4.004   0.530   5.242
 3636SOL     OW11806   0.650   6.162   5.766
 3636SOL    HW111807   0.734   6.141   5.817
 3636SOL    HW211808   0.669   6.235   5.701
 3637SOL     OW11809   6.558   1.779   1.360
 3637SOL    HW111810   6.540   1.862   1.412
 3637SOL    HW211811   6.611   1.716   1.416
 3638SOL     OW11812   6.405   4.529   4.340
 3638SOL    HW111813   6.320   4.488   4.374
 3638SOL    HW211814   6.386   4.619   4.302
 3639SOL     OW11815   4.097   3.709   0.996
 3639SOL    HW111816   4.150   3.765   0.933
 3639SOL    HW211817   4.130   3.615   0.993
 3640SOL     OW11818   3.591   6.456   6.559
 3640SOL    HW111819   3.518   6.402   6.600
 3640SOL    HW211820   3.567   6.477   6.464
 3641SOL     OW11821   4.302   2.222   4.988
 3641SOL    HW111822   4.402   2.217   4.995
 3641SOL    HW211823   4.268   2.295   5.046
 3642SOL     OW11824   4.792   1.756   6.043
 3642SOL    HW111825   4.845   1.804   6.112
 3642SOL    HW211826   4.852   1.728   5.968
 3643SOL     OW11827   2.794   5.790   4.701
 3643SOL    HW111828   2.813   5.696   4.729
 3643SOL    HW211829   2.766   5.843   4.780
 3644SOL     OW11830   6.832   1.162   1.620
 3644SOL    HW111831   6.827   1.155   1.720
 3644SOL    HW211832   6.762   1.105   1.579
 3645SOL     OW11833   5.492   0.950   3.890
 3645SOL    HW111834   5.535   1.039   3.899
 3645SOL    HW211835   5.404   0.949   3.938
 3646SOL     OW11836   0.394   5.062   6.186
 3646SOL    HW111837   0.480   5.044   6.233
 3646SOL    HW211838   0.373   5.160   6.189
 3647SOL     OW11839   1.702   4.082   0.585
 3647SOL    HW111840   1.757   4.026   0.523
 3647SOL    HW211841   1.667   4.025   0.658
 3648SOL     OW11842   3.342   5.865   2.571
 3648SOL    HW111843   3.362   5.811   2.653
 3648SOL    HW211844   3.257   5.915   2.585
 3649SOL     OW11845   4.266   3.282   1.540
 3649SOL    HW111846   4.266   3.218   1.463
 3649SOL    HW211847   4.330   3.251   1.610
 3650SOL     OW11848   6.819   5.534   0.726
 3650SOL    HW111849   6.756   5.595   0.775
 3650SOL    HW211850   6.886   5.497   0.791
 3651SOL     OW11851   0.627   5.957   3.067
 3651SOL    HW111852   0.631   5.873   3.013
 3651SOL    HW211853   0.533   5.991   3.068
 3652SOL     OW11854   5.197   5.993   3.363
 3652SOL    HW111855   5.143   6.070   3.329
 3652SOL    HW211856   5.271   6.028   3.420
 3653SOL     OW11857   6.371   0.383   3.353
 3653SOL    HW111858   6.325   0.465   3.385
 3653SOL    HW211859   6.427   0.405   3.273
 3654SOL     OW11860   2.079   6.787   0.045
 3654SOL    HW111861   2.146   6.846   0.000
 3654SOL    HW211862   2.026   6.738   7.001
 3655SOL     OW11863   1.118   6.941   3.947
 3655SOL    HW111864   1.077   6.874   4.008
 3655SOL    HW211865   1.108   0.007   3.987
 3656SOL     OW11866   1.743   3.041   1.213
 3656SOL    HW111867   1.824   2.996   1.176
 3656SOL    HW211868   1.751   3.046   1.313
 3657SOL     OW11869   5.088   5.854   5.739
 3657SOL    HW111870   5.121   5.878   5.831
 3657SOL    HW211871   5.120   5.763   5.715
 3658SOL     OW11872   1.469   5.238   4.042
 3658SOL    HW111873   1.484   5.307   3.971
 3658SOL    HW211874   1.557   5.214   4.083
 3659SOL     OW11875   3.116   3.715   5.604
 3659SOL    HW111876   3.080   3.794   5.653
 3659SOL    HW211877   3.176   3.662   5.664
 3660SOL     OW11878   5.178   6.376   2.088
 3660SOL    HW111879   5.192   6.470   2.118
 3660SOL    HW211880   5.246   6.317   2.130
 3661SOL     OW11881   4.410   2.359   6.532
 3661SOL    HW111882   4.488   2.420   6.512
 3661SOL    HW211883   4.398   2.295   6.456
 3662SOL     OW11884   3.124   0.834   4.162
 3662SOL    HW111885   3.029   0.809   4.144
 3662SOL    HW211886   3.172   0.758   4.205
 3663SOL     OW11887   1.662   1.377   0.278
 3663SOL    HW111888   1.636   1.425   0.362
 3663SOL    HW211889   1.626   1.284   0.281
 3664SOL     OW11890   5.021   2.069   1.615
 3664SOL    HW111891   4.966   2.014   1.678
 3664SOL    HW211892   5.004   2.040   1.521
 3665SOL     OW11893   0.642   6.249   5.509
 3665SOL    HW111894   0.545   6.228   5.504
 3665SOL    HW211895   0.661   6.336   5.465
 3666SOL     OW11896   2.025   4.178   3.535
 3666SOL    HW111897   2.013   4.095   3.590
 3666SOL    HW211898   2.034   4.257   3.595
 3667SOL     OW11899   6.403   0.084   0.545
 3667SOL    HW111900   6.335   0.144   0.586
 3667SOL    HW211901   6.475   0.139   0.503
 3668SOL     OW11902   1.334   0.431   1.212
 3668SOL    HW111903   1.323   0.346   1.161
 3668SOL    HW211904   1.318   0.414   1.309
 3669SOL     OW11905   5.891   1.277   4.720
 3669SOL    HW111906   5.908   1.296   4.817
 3669SOL    HW211907   5.835   1.194   4.712
 3670SOL     OW11908   1.915   5.088   0.683
 3670SOL    HW111909   1.981   5.150   0.725
 3670SOL    HW211910   1.897   5.012   0.745
 3671SOL     OW11911   6.027   0.605   3.433
 3671SOL    HW111912   6.010   0.524   3.377
 3671SOL    HW211913   5.944   0.659   3.441
 3672SOL     OW11914   5.586   1.615   1.172
 3672SOL    HW111915   5.675   1.634   1.130
 3672SOL    HW211916   5.571   1.517   1.176
 3673SOL     OW11917   3.145   0.578   5.989
 3673SOL    HW111918   3.060   0.584   5.937
 3673SOL    HW211919   3.169   0.481   6.001
 3674SOL     OW11920   0.649   0.698   5.581
 3674SOL    HW111921   0.744   0.690   5.612
 3674SOL    HW211922   0.602   0.767   5.636
 3675SOL     OW11923   1.597   2.977   5.042
 3675SOL    HW111924   1.616   3.056   5.101
 3675SOL    HW211925   1.539   3.005   4.966
 3676SOL     OW11926   4.339   4.890   4.400
 3676SOL    HW111927   4.300   4.856   4.315
 3676SOL    HW211928   4.270   4.885   4.472
 3677SOL     OW11929   1.140   5.834   2.835
 3677SOL    HW111930   1.065   5.768   2.830
 3677SOL    HW211931   1.215   5.804   2.775
 3678SOL     OW11932   0.957   3.199   3.997
 3678SOL    HW111933   0.945   3.298   4.004
 3678SOL    HW211934   1.028   3.168   4.060
 3679SOL     OW11935   1.079   1.117   2.881
 3679SOL    HW111936   1.171   1.117   2.921
 3679SOL    HW211937   1.012   1.095   2.952
 3680SOL     OW11938   6.655   3.124   3.639
 3680SOL    HW111939   6.666   3.067   3.720
 3680SOL    HW211940   6.730   3.189   3.634
 3681SOL     OW11941   0.235   0.494   5.595
 3681SOL    HW111942   0.289   0.522   5.674
 3681SOL    HW211943   0.285   0.423   5.544
 3682SOL     OW11944   6.507   2.490   6.162
 3682SOL    HW111945   6.449   2.439   6.226
 3682SOL    HW211946   6.565   2.426   6.111
 3683SOL     OW11947   0.061   0.328   4.663
 3683SOL    HW111948   7.023   0.360   4.592
 3683SOL    HW211949   0.086   0.233   4.645
 3684SOL     OW11950   1.550   3.642   0.496
 3684SOL    HW111951   1.644   3.676   0.492
 3684SOL    HW211952   1.531   3.609   0.589
 3685SOL     OW11953   6.490   6.196   6.219
 3685SOL    HW111954   6.404   6.203   6.168
 3685SOL    HW211955   6.567   6.206   6.156
 3686SOL     OW11956   6.174   5.230   3.415
 3686SOL    HW111957   6.075   5.241   3.409
 3686SOL    HW211958   6.215   5.316   3.447
 3687SOL     OW11959   3.066   6.021   5.437
 3687SOL    HW111960   3.033   5.952   5.502
 3687SOL    HW211961   3.141   6.072   5.479
 3688SOL     OW11962   1.356   3.641   6.696
 3688SOL    HW111963   1.409   3.643   6.612
 3688SOL    HW211964   1.271   3.589   6.681
 3689SOL     OW11965   1.294   0.902   5.880
 3689SOL    HW111966   1.384   0.935   5.853
 3689SOL    HW211967   1.287   0.905   5.980
 3690SOL     OW11968   3.952   0.167   6.201
 3690SOL    HW111969   3.957   0.105   6.122
 3690SOL    HW211970   3.996   0.124   6.280
 3691SOL     OW11971   2.265   2.957   0.344
 3691SOL    HW111972   2.249   2.926   0.438
 3691SOL    HW211973   2.205   3.034   0.324
 3692SOL     OW11974   0.956   5.950   4.995
 3692SOL    HW111975   0.916   5.871   5.042
 3692SOL    HW211976   0.929   5.949   4.899
 3693SOL     OW11977   1.841   3.400   2.576
 3693SOL    HW111978   1.909   3.347   2.526
 3693SOL    HW211979   1.855   3.498   2.560
 3694SOL     OW11980   1.140   5.263   2.421
 3694SOL    HW111981   1.044   5.254   2.395
 3694SOL    HW211982   1.195   5.281   2.339
 3695SOL     OW11983   0.207   2.673   2.635
 3695SOL    HW111984   0.194   2.656   2.732
 3695SOL    HW211985   0.153   2.752   2.607
 3696SOL     OW11986   4.183   5.559   4.872
 3696SOL    HW111987   4.176   5.540   4.970
 3696SOL    HW211988   4.151   5.479   4.821
 3697SOL     OW11989   7.008   5.303   3.753
 3697SOL    HW111990   6.912   5.282   3.771
 3697SOL    HW211991   0.029   5.321   3.840
 3698SOL     OW11992   3.506   6.415   4.680
 3698SOL    HW111993   3.477   6.445   4.589
 3698SOL    HW211994   3.572   6.341   4.671
 3699SOL     OW11995   6.493   4.014   2.767
 3699SOL    HW111996   6.454   4.101   2.796
 3699SOL    HW211997   6.428   3.965   2.710
 3700SOL     OW11998   6.230   0.489   4.008
 3700SOL    HW111999   6.245   0.525   4.100
 3700SOL    HW212000   6.214   0.564   3.944
 3701SOL     OW12001   0.781   1.086   3.304
 3701SOL    HW112002   0.693   1.114   3.266
 3701SOL    HW212003   0.806   1.147   3.380
 3702SOL     OW12004   4.237   0.346   2.370
 3702SOL    HW112005   4.270   0.412   2.437
 3702SOL    HW212006   4.139   0.358   2.357
 3703SOL     OW12007   4.382   3.246   6.384
 3703SOL    HW112008   4.289   3.252   6.348
 3703SOL    HW212009   4.387   3.175   6.455
 3704SOL     OW12010   2.939   0.497   1.469
 3704SOL    HW112011   2.993   0.415   1.446
 3704SOL    HW212012   2.967   0.531   1.558
 3705SOL     OW12013   5.065   6.325   4.250
 3705SOL    HW112014   5.004   6.286   4.319
 3705SOL    HW212015   5.090   6.418   4.277
 3706SOL     OW12016   1.087   3.098   4.431
 3706SOL    HW112017   1.010   3.053   4.387
 3706SOL    HW212018   1.104   3.186   4.386
 3707SOL     OW12019   5.353   4.020   5.291
 3707SOL    HW112020   5.406   4.105   5.294
 3707SOL    HW212021   5.409   3.947   5.253
 3708SOL     OW12022   6.121   1.012   6.477
 3708SOL    HW112023   6.107   0.919   6.443
 3708SOL    HW212024   6.127   1.075   6.399
 3709SOL     OW12025   3.859   0.577   0.206
 3709SOL    HW112026   3.768   0.559   0.167
 3709SOL    HW212027   3.848   0.629   0.290
 3710SOL     OW12028   6.571   5.685   0.274
 3710SOL    HW112029   6.590   5.588   0.289
 3710SOL    HW212030   6.641   5.739   0.320
 3711SOL     OW12031   6.869   5.976   2.152
 3711SOL    HW112032   6.899   5.944   2.062
 3711SOL    HW212033   6.949   5.997   2.209
 3712SOL     OW12034   6.810   5.965   6.700
 3712SOL    HW112035   6.720   5.949   6.659
 3712SOL    HW212036   6.802   5.962   6.800
 3713SOL     OW12037   1.590   6.353   4.580
 3713SOL    HW112038   1.509   6.343   4.637
 3713SOL    HW212039   1.614   6.265   4.540
 3714SOL     OW12040   4.619   6.216   4.569
 3714SOL    HW112041   4.668   6.182   4.649
 3714SOL    HW212042   4.532   6.257   4.598
 3715SOL     OW12043   5.814   3.697   4.659
 3715SOL    HW112044   5.844   3.681   4.565
 3715SOL    HW212045   5.891   3.685   4.722
 3716SOL     OW12046   6.321   0.112   5.037
 3716SOL    HW112047   6.260   0.177   5.082
 3716SOL    HW212048   6.412   0.154   5.027
 3717SOL     OW12049   6.292   5.466   6.765
 3717SOL    HW112050   6.276   5.387   6.705
 3717SOL    HW212051   6.324   5.434   6.854
 3718SOL     OW12052   2.467   6.687   5.722
 3718SOL    HW112053   2.486   6.658   5.628
 3718SOL    HW212054   2.369   6.680   5.740
 3719SOL     OW12055   4.893   4.691   0.677
 3719SOL    HW112056   4.817   4.686   0.612
 3719SOL    HW212057   4.913   4.787   0.696
 3720SOL     OW12058   5.532   2.100   5.909
 3720SOL    HW112059   5.474   2.019   5.911
 3720SOL    HW212060   5.475   2.182   5.915
 3721SOL     OW12061   5.198   4.928   0.629
 3721SOL    HW112062   5.135   5.005   0.630
 3721SOL    HW212063   5.192   4.879   0.717
 3722SOL     OW12064   0.143   0.052   2.385
 3722SOL    HW112065   0.224   0.100   2.417
 3722SOL    HW212066   0.109   0.096   2.302
 3723SOL     OW12067   6.522   6.348   1.777
 3723SOL    HW112068   6.431   6.373   1.809
 3723SOL    HW212069   6.576   6.316   1.855
 3724SOL     OW12070   2.357   5.338   6.954
 3724SOL    HW112071   2.388   5.430   6.932
 3724SOL    HW212072   2.298   5.304   6.880
 3725SOL     OW12073   5.010   6.317   0.080
 3725SOL    HW112074   4.998   6.234   0.025
 3725SOL    HW212075   5.041   6.291   0.171
 3726SOL     OW12076   6.441   4.900   1.497
 3726SOL    HW112077   6.389   4.859   1.572
 3726SOL    HW212078   6.452   4.833   1.424
 3727SOL     OW12079   0.148   3.005   5.951
 3727SOL    HW112080   0.223   3.017   6.016
 3727SOL    HW212081   0.063   3.040   5.991
 3728SOL     OW12082   1.499   3.851   0.063
 3728SOL    HW112083   1.507   3.881   0.158
 3728SOL    HW212084   1.582   3.875   0.013
 3729SOL     OW12085   1.097   2.148   3.655
 3729SOL    HW112086   1.103   2.171   3.753
 3729SOL    HW212087   1.157   2.208   3.603
 3730SOL     OW12088   2.712   5.824   6.767
 3730SOL    HW112089   2.748   5.741   6.810
 3730SOL    HW212090   2.780   5.862   6.704
 3731SOL     OW12091   4.427   0.143   0.666
 3731SOL    HW112092   4.403   0.105   0.576
 3731SOL    HW212093   4.523   0.172   0.665
 3732SOL     OW12094   1.530   2.849   6.942
 3732SOL    HW112095   1.455   2.800   6.900
 3732SOL    HW212096   1.613   2.836   6.888
 3733SOL     OW12097   1.607   3.817   1.466
 3733SOL    HW112098   1.676   3.808   1.395
 3733SOL    HW212099   1.540   3.744   1.456
 3734SOL     OW12100   4.136   1.551   1.850
 3734SOL    HW112101   4.225   1.596   1.845
 3734SOL    HW212102   4.092   1.574   1.937
 3735SOL     OW12103   1.745   1.937   3.362
 3735SOL    HW112104   1.824   1.876   3.362
 3735SOL    HW212105   1.670   1.896   3.311
 3736SOL     OW12106   0.173   3.255   0.418
 3736SOL    HW112107   0.075   3.266   0.436
 3736SOL    HW212108   0.210   3.183   0.477
 3737SOL     OW12109   5.137   0.251   3.100
 3737SOL    HW112110   5.150   0.225   3.196
 3737SOL    HW212111   5.053   0.209   3.066
 3738SOL     OW12112   6.845   6.507   3.575
 3738SOL    HW112113   6.797   6.474   3.493
 3738SOL    HW212114   6.779   6.521   3.649
 3739SOL     OW12115   1.697   4.553   2.154
 3739SOL    HW112116   1.602   4.567   2.181
 3739SOL    HW212117   1.700   4.502   2.067
 3740SOL     OW12118   4.531   0.226   6.945
 3740SOL    HW112119   4.630   0.220   6.961
 3740SOL    HW212120   4.506   0.168   6.868
 3741SOL     OW12121   4.622   3.530   1.477
 3741SOL    HW112122   4.697   3.500   1.418
 3741SOL    HW212123   4.539   3.543   1.423
 3742SOL     OW12124   2.891   2.033   5.531
 3742SOL    HW112125   2.988   2.052   5.543
 3742SOL    HW212126   2.841   2.120   5.527
 3743SOL     OW12127   5.626   4.575   1.013
 3743SOL    HW112128   5.674   4.497   1.051
 3743SOL    HW212129   5.659   4.659   1.056
 3744SOL     OW12130   0.931   5.442   3.155
 3744SOL    HW112131   0.980   5.392   3.227
 3744SOL    HW212132   0.864   5.503   3.197
 3745SOL     OW12133   3.252   5.375   2.101
 3745SOL    HW112134   3.170   5.354   2.154
 3745SOL    HW212135   3.240   5.463   2.054
 3746SOL     OW12136   4.276   1.341   2.284
 3746SOL    HW112137   4.277   1.276   2.208
 3746SOL    HW212138   4.198   1.402   2.274
 3747SOL     OW12139   3.408   6.870   6.022
 3747SOL    HW112140   3.416   6.956   6.071
 3747SOL    HW212141   3.347   6.882   5.944
 3748SOL     OW12142   5.467   0.383   1.623
 3748SOL    HW112143   5.439   0.444   1.549
 3748SOL    HW212144   5.418   0.409   1.707
 3749SOL     OW12145   1.523   6.498   3.917
 3749SOL    HW112146   1.615   6.522   3.947
 3749SOL    HW212147   1.525   6.471   3.821
 3750SOL     OW12148   1.824   4.123   0.209
 3750SOL    HW112149   1.850   4.027   0.191
 3750SOL    HW212150   1.907   4.178   0.216
 3751SOL     OW12151   6.862   3.657   2.618
 3751SOL    HW112152   6.943   3.686   2.568
 3751SOL    HW212153   6.806   3.737   2.639
 3752SOL     OW12154   4.814   0.746   5.292
 3752SOL    HW112155   4.848   0.777   5.203
 3752SOL    HW212156   4.716   0.766   5.299
 3753SOL     OW12157   5.985   0.431   4.810
 3753SOL    HW112158   5.987   0.331   4.810
 3753SOL    HW212159   5.984   0.464   4.716
 3754SOL     OW12160   2.340   1.203   1.946
 3754SOL    HW112161   2.250   1.232   1.913
 3754SOL    HW212162   2.388   1.154   1.873
 3755SOL     OW12163   3.275   5.699   4.661
 3755SOL    HW112164   3.244   5.732   4.572
 3755SOL    HW212165   3.293   5.601   4.656
 3756SOL     OW12166   2.975   5.511   6.482
 3756SOL    HW112167   2.877   5.521   6.496
 3756SOL    HW212168   3.003   5.570   6.406
 3757SOL     OW12169   6.935   4.902   1.836
 3757SOL    HW112170   6.941   4.813   1.792
 3757SOL    HW212171   6.840   4.923   1.857
 3758SOL     OW12172   1.954   1.636   4.796
 3758SOL    HW112173   1.937   1.538   4.806
 3758SOL    HW212174   2.039   1.660   4.843
 3759SOL     OW12175   4.338   0.669   5.094
 3759SOL    HW112176   4.337   0.722   5.179
 3759SOL    HW212177   4.350   0.731   5.016
 3760SOL     OW12178   6.990   6.898   3.524
 3760SOL    HW112179   0.022   6.970   3.562
 3760SOL    HW212180   6.910   6.885   3.582
 3761SOL     OW12181   6.362   1.040   4.381
 3761SOL    HW112182   6.396   1.104   4.449
 3761SOL    HW212183   6.434   1.021   4.314
 3762SOL     OW12184   1.360   4.151   2.187
 3762SOL    HW112185   1.366   4.068   2.243
 3762SOL    HW212186   1.419   4.222   2.226
 3763SOL     OW12187   6.130   3.871   0.364
 3763SOL    HW112188   6.199   3.846   0.432
 3763SOL    HW212189   6.144   3.816   0.281
 3764SOL     OW12190   2.019   0.628   3.032
 3764SOL    HW112191   2.017   0.702   3.099
 3764SOL    HW212192   2.109   0.585   3.031
 3765SOL     OW12193   6.082   1.768   1.559
 3765SOL    HW112194   6.113   1.675   1.540
 3765SOL    HW212195   6.157   1.821   1.599
 3766SOL     OW12196   2.152   2.437   4.094
 3766SOL    HW112197   2.221   2.431   4.166
 3766SOL    HW212198   2.196   2.435   4.005
 3767SOL     OW12199   3.745   4.185   5.957
 3767SOL    HW112200   3.815   4.232   6.011
 3767SOL    HW212201   3.656   4.196   6.001
 3768SOL     OW12202   1.013   0.551   4.470
 3768SOL    HW112203   0.973   0.642   4.466
 3768SOL    HW212204   1.112   0.558   4.464
 3769SOL     OW12205   5.591   5.388   5.322
 3769SOL    HW112206   5.644   5.472   5.310
 3769SOL    HW212207   5.518   5.384   5.254
 3770SOL     OW12208   1.300   1.454   6.865
 3770SOL    HW112209   1.282   1.548   6.836
 3770SOL    HW212210   1.389   1.450   6.911
 3771SOL     OW12211   6.059   4.960   0.214
 3771SOL    HW112212   6.029   4.955   0.309
 3771SOL    HW212213   6.128   4.889   0.197
 3772SOL     OW12214   1.340   6.647   0.179
 3772SOL    HW112215   1.314   6.734   0.220
 3772SOL    HW212216   1.357   6.660   0.081
 3773SOL     OW12217   5.233   3.998   5.790
 3773SOL    HW112218   5.195   4.055   5.717
 3773SOL    HW212219   5.293   4.054   5.848
 3774SOL     OW12220   5.889   4.916   1.716
 3774SOL    HW112221   5.813   4.911   1.651
 3774SOL    HW212222   5.867   4.861   1.797
 3775SOL     OW12223   3.869   4.872   3.699
 3775SOL    HW112224   3.858   4.891   3.602
 3775SOL    HW212225   3.965   4.883   3.725
 3776SOL     OW12226   3.514   2.976   6.092
 3776SOL    HW112227   3.599   2.959   6.142
 3776SOL    HW212228   3.455   3.036   6.145
 3777SOL     OW12229   2.555   5.803   3.213
 3777SOL    HW112230   2.518   5.896   3.223
 3777SOL    HW212231   2.480   5.739   3.195
 3778SOL     OW12232   1.922   6.321   4.275
 3778SOL    HW112233   1.839   6.376   4.278
 3778SOL    HW212234   1.969   6.326   4.363
 3779SOL     OW12235   0.317   5.077   0.797
 3779SOL    HW112236   0.401   5.129   0.815
 3779SOL    HW212237   0.241   5.140   0.784
 3780SOL     OW12238   0.277   2.766   3.027
 3780SOL    HW112239   0.297   2.824   2.947
 3780SOL    HW212240   0.363   2.730   3.063
 3781SOL     OW12241   0.662   6.517   4.735
 3781SOL    HW112242   0.570   6.529   4.698
 3781SOL    HW212243   0.670   6.570   4.820
 3782SOL     OW12244   3.743   6.465   2.346
 3782SOL    HW112245   3.728   6.563   2.359
 3782SOL    HW212246   3.663   6.414   2.376
 3783SOL     OW12247   5.592   4.921   4.953
 3783SOL    HW112248   5.542   4.887   5.033
 3783SOL    HW212249   5.528   4.952   4.883
 3784SOL     OW12250   5.447   2.628   2.047
 3784SOL    HW112251   5.506   2.559   2.089
 3784SOL    HW212252   5.357   2.627   2.092
 3785SOL     OW12253   0.859   3.261   5.133
 3785SOL    HW112254   0.808   3.345   5.151
 3785SOL    HW212255   0.917   3.274   5.053
 3786SOL     OW12256   1.975   2.860   3.033
 3786SOL    HW112257   1.878   2.865   3.007
 3786SOL    HW212258   1.993   2.927   3.105
 3787SOL     OW12259   4.787   0.249   3.231
 3787SOL    HW112260   4.825   0.281   3.318
 3787SOL    HW212261   4.688   0.238   3.241
 3788SOL     OW12262   6.318   4.487   5.108
 3788SOL    HW112263   6.261   4.551   5.158
 3788SOL    HW212264   6.363   4.424   5.172
 3789SOL     OW12265   6.961   3.366   3.049
 3789SOL    HW112266   7.024   3.333   3.118
 3789SOL    HW212267   6.896   3.294   3.026
 3790SOL     OW12268   0.877   5.718   6.715
 3790SOL    HW112269   0.845   5.626   6.689
 3790SOL    HW212270   0.833   5.786   6.657
 3791SOL     OW12271   5.268   1.948   6.710
 3791SOL    HW112272   5.276   2.047   6.722
 3791SOL    HW212273   5.171   1.922   6.706
 3792SOL     OW12274   1.203   1.238   4.347
 3792SOL    HW112275   1.121   1.218   4.293
 3792SOL    HW212276   1.200   1.333   4.378
 3793SOL     OW12277   5.361   6.347   1.264
 3793SOL    HW112278   5.404   6.259   1.242
 3793SOL    HW212279   5.430   6.420   1.260
 3794SOL     OW12280   2.263   2.915   1.510
 3794SOL    HW112281   2.257   2.938   1.607
 3794SOL    HW212282   2.314   2.830   1.499
 3795SOL     OW12283   3.365   5.580   0.925
 3795SOL    HW112284   3.334   5.537   0.840
 3795SOL    HW212285   3.462   5.558   0.940
 3796SOL     OW12286   4.285   1.943   1.166
 3796SOL    HW112287   4.305   2.038   1.141
 3796SOL    HW212288   4.328   1.882   1.100
 3797SOL     OW12289   0.971   3.734   3.177
 3797SOL    HW112290   0.964   3.660   3.111
 3797SOL    HW212291   0.977   3.697   3.269
 3798SOL     OW12292   2.699   6.512   2.405
 3798SOL    HW112293   2.704   6.428   2.458
 3798SOL    HW212294   2.614   6.560   2.426
 3799SOL     OW12295   0.067   2.614   3.660
 3799SOL    HW112296   0.034   2.603   3.566
 3799SOL    HW212297   7.016   2.610   3.724
 3800SOL     OW12298   4.955   1.785   3.542
 3800SOL    HW112299   5.028   1.844   3.506
 3800SOL    HW212300   4.876   1.789   3.482
 3801SOL     OW12301   5.254   0.079   1.786
 3801SOL    HW112302   5.175   0.103   1.843
 3801SOL    HW212303   5.312   0.014   1.835
 3802SOL     OW12304   0.398   1.813   2.510
 3802SOL    HW112305   0.350   1.734   2.546
 3802SOL    HW212306   0.488   1.820   2.552
 3803SOL     OW12307   3.738   3.788   3.988
 3803SOL    HW112308   3.782   3.698   3.987
 3803SOL    HW212309   3.658   3.786   3.929
 3804SOL     OW12310   2.882   1.752   4.155
 3804SOL    HW112311   2.811   1.745   4.225
 3804SOL    HW212312   2.917   1.846   4.153
 3805SOL     OW12313   1.851   2.595   1.696
 3805SOL    HW112314   1.935   2.623   1.648
 3805SOL    HW212315   1.860   2.499   1.724
 3806SOL     OW12316   3.882   3.639   6.569
 3806SOL    HW112317   3.971   3.684   6.571
 3806SOL    HW212318   3.872   3.581   6.650
 3807SOL     OW12319   1.412   4.758   4.743
 3807SOL    HW112320   1.386   4.821   4.670
 3807SOL    HW212321   1.512   4.749   4.746
 3808SOL     OW12322   4.922   0.348   5.955
 3808SOL    HW112323   5.006   0.296   5.967
 3808SOL    HW212324   4.890   0.381   6.044
 3809SOL     OW12325   5.970   2.073   2.215
 3809SOL    HW112326   5.938   1.979   2.224
 3809SOL    HW212327   6.059   2.074   2.171
 3810SOL     OW12328   6.995   2.401   3.197
 3810SOL    HW112329   6.979   2.303   3.183
 3810SOL    HW212330   0.068   2.417   3.207
 3811SOL     OW12331   0.433   6.072   4.316
 3811SOL    HW112332   0.480   6.005   4.258
 3811SOL    HW212333   0.389   6.024   4.392
 3812SOL     OW12334   2.984   5.330   6.161
 3812SOL    HW112335   2.902   5.386   6.172
 3812SOL    HW212336   3.052   5.381   6.107
 3813SOL     OW12337   5.646   3.987   1.051
 3813SOL    HW112338   5.623   3.994   0.954
 3813SOL    HW212339   5.743   3.966   1.062
 3814SOL     OW12340   0.097   6.903   3.938
 3814SOL    HW112341   0.168   6.906   3.868
 3814SOL    HW212342   0.019   6.850   3.905
 3815SOL     OW12343   4.717   2.509   1.061
 3815SOL    HW112344   4.778   2.587   1.074
 3815SOL    HW212345   4.661   2.523   0.979
 3816SOL     OW12346   0.927   5.292   4.782
 3816SOL    HW112347   0.939   5.206   4.733
 3816SOL    HW212348   0.830   5.305   4.804
 3817SOL     OW12349   4.919   3.550   2.100
 3817SOL    HW112350   4.842   3.509   2.148
 3817SOL    HW212351   4.984   3.478   2.073
 3818SOL     OW12352   0.195   0.871   1.106
 3818SOL    HW112353   0.096   0.863   1.121
 3818SOL    HW212354   0.241   0.793   1.150
 3819SOL     OW12355   6.311   4.252   2.564
 3819SOL    HW112356   6.346   4.274   2.655
 3819SOL    HW212357   6.226   4.200   2.573
 3820SOL     OW12358   5.663   6.260   3.526
 3820SOL    HW112359   5.577   6.288   3.568
 3820SOL    HW212360   5.739   6.299   3.578
 3821SOL     OW12361   1.158   0.793   1.053
 3821SOL    HW112362   1.184   0.890   1.053
 3821SOL    HW212363   1.139   0.764   0.959
 3822SOL     OW12364   2.718   0.340   6.322
 3822SOL    HW112365   2.657   0.262   6.310
 3822SOL    HW212366   2.788   0.340   6.251
 3823SOL     OW12367   4.667   4.239   6.441
 3823SOL    HW112368   4.720   4.301   6.384
 3823SOL    HW212369   4.582   4.284   6.471
 3824SOL     OW12370   0.805   2.497   1.022
 3824SOL    HW112371   0.739   2.559   0.979
 3824SOL    HW212372   0.892   2.500   0.972
 3825SOL     OW12373   0.828   4.057   0.859
 3825SOL    HW112374   0.843   4.073   0.957
 3825SOL    HW212375   0.738   4.014   0.846
 3826SOL     OW12376   6.921   3.580   1.805
 3826SOL    HW112377   6.939   3.486   1.779
 3826SOL    HW212378   7.007   3.627   1.826
 3827SOL     OW12379   0.529   0.472   1.218
 3827SOL    HW112380   0.508   0.407   1.291
 3827SOL    HW212381   0.622   0.508   1.231
 3828SOL     OW12382   3.484   3.895   4.731
 3828SOL    HW112383   3.392   3.868   4.758
 3828SOL    HW212384   3.511   3.977   4.783
 3829SOL     OW12385   0.275   5.154   2.102
 3829SOL    HW112386   0.189   5.119   2.138
 3829SOL    HW212387   0.292   5.116   2.012
 3830SOL     OW12388   0.269   1.253   5.479
 3830SOL    HW112389   0.191   1.214   5.527
 3830SOL    HW212390   0.313   1.321   5.538
 3831SOL     OW12391   4.188   2.296   3.004
 3831SOL    HW112392   4.244   2.231   2.952
 3831SOL    HW212393   4.223   2.389   2.989
 3832SOL     OW12394   6.722   0.546   2.922
 3832SOL    HW112395   6.681   0.469   2.972
 3832SOL    HW212396   6.656   0.581   2.855
 3833SOL     OW12397   0.953   6.758   6.254
 3833SOL    HW112398   1.017   6.752   6.330
 3833SOL    HW212399   0.929   6.853   6.238
 3834SOL     OW12400   4.100   4.307   1.007
 3834SOL    HW112401   4.046   4.247   1.065
 3834SOL    HW212402   4.039   4.352   0.941
 3835SOL     OW12403   3.972   5.907   5.248
 3835SOL    HW112404   4.024   5.830   5.212
 3835SOL    HW212405   3.875   5.881   5.256
 3836SOL     OW12406   0.470   5.042   5.729
 3836SOL    HW112407   0.379   5.015   5.760
 3836SOL    HW212408   0.477   5.141   5.730
 3837SOL     OW12409   4.200   5.332   5.141
 3837SOL    HW112410   4.297   5.316   5.163
 3837SOL    HW212411   4.157   5.246   5.117
 3838SOL     OW12412   1.817   2.466   3.210
 3838SOL    HW112413   1.806   2.389   3.273
 3838SOL    HW212414   1.778   2.549   3.250
 3839SOL     OW12415   4.441   1.357   2.661
 3839SOL    HW112416   4.389   1.282   2.702
 3839SOL    HW212417   4.489   1.408   2.733
 3840SOL     OW12418   3.250   2.008   6.534
 3840SOL    HW112419   3.152   2.019   6.549
 3840SOL    HW212420   3.278   2.060   6.454
 3841SOL     OW12421   0.932   3.848   4.670
 3841SOL    HW112422   0.952   3.906   4.591
 3841SOL    HW212423   0.968   3.890   4.753
 3842SOL     OW12424   2.545   2.553   3.981
 3842SOL    HW112425   2.458   2.549   3.933
 3842SOL    HW212426   2.542   2.627   4.049
 3843SOL     OW12427   5.318   3.135   1.458
 3843SOL    HW112428   5.261   3.119   1.378
 3843SOL    HW212429   5.296   3.225   1.497
 3844SOL     OW12430   1.494   3.650   6.425
 3844SOL    HW112431   1.573   3.686   6.375
 3844SOL    HW212432   1.462   3.566   6.380
 3845SOL     OW12433   2.870   5.733   6.103
 3845SOL    HW112434   2.941   5.683   6.053
 3845SOL    HW212435   2.911   5.784   6.178
 3846SOL     OW12436   1.177   3.890   3.979
 3846SOL    HW112437   1.262   3.938   3.957
 3846SOL    HW212438   1.193   3.825   4.052
 3847SOL     OW12439   5.158   2.783   4.556
 3847SOL    HW112440   5.114   2.787   4.646
 3847SOL    HW212441   5.097   2.823   4.488
 3848SOL     OW12442   4.932   4.028   2.385
 3848SOL    HW112443   4.935   3.997   2.290
 3848SOL    HW212444   4.965   3.955   2.445
 3849SOL     OW12445   1.068   1.018   6.087
 3849SOL    HW112446   1.035   0.966   6.008
 3849SOL    HW212447   1.063   1.116   6.067
 3850SOL     OW12448   3.052   3.392   1.817
 3850SOL    HW112449   3.028   3.480   1.775
 3850SOL    HW212450   3.152   3.383   1.820
 3851SOL     OW12451   6.782   4.622   3.317
 3851SOL    HW112452   6.852   4.592   3.253
 3851SOL    HW212453   6.753   4.715   3.293
 3852SOL     OW12454   3.373   5.764   3.798
 3852SOL    HW112455   3.436   5.832   3.836
 3852SOL    HW212456   3.288   5.809   3.770
 3853SOL     OW12457   1.188   3.338   3.278
 3853SOL    HW112458   1.243   3.254   3.274
 3853SOL    HW212459   1.229   3.401   3.344
 3854SOL     OW12460   0.935   2.543   2.622
 3854SOL    HW112461   0.997   2.620   2.637
 3854SOL    HW212462   0.926   2.491   2.707
 3855SOL     OW12463   4.520   6.229   6.695
 3855SOL    HW112464   4.573   6.218   6.611
 3855SOL    HW212465   4.425   6.251   6.673
 3856SOL     OW12466   0.493   1.262   6.135
 3856SOL    HW112467   0.581   1.291   6.172
 3856SOL    HW212468   0.428   1.337   6.140
 3857SOL     OW12469   0.828   6.426   6.970
 3857SOL    HW112470   0.819   6.521   6.939
 3857SOL    HW212471   0.764   6.368   6.920
 3858SOL     OW12472   3.510   1.369   6.040
 3858SOL    HW112473   3.508   1.454   6.091
 3858SOL    HW212474   3.599   1.325   6.052
 3859SOL     OW12475   6.261   1.120   1.764
 3859SOL    HW112476   6.276   1.048   1.696
 3859SOL    HW212477   6.337   1.122   1.829
 3860SOL     OW12478   1.851   1.105   4.155
 3860SOL    HW112479   1.765   1.156   4.147
 3860SOL    HW212480   1.840   1.034   4.225
 3861SOL     OW12481   4.706   5.379   3.619
 3861SOL    HW112482   4.703   5.425   3.530
 3861SOL    HW212483   4.770   5.427   3.679
 3862SOL     OW12484   0.167   0.755   4.407
 3862SOL    HW112485   0.198   0.781   4.499
 3862SOL    HW212486   0.143   0.659   4.405
 3863SOL     OW12487   6.146   2.007   6.995
 3863SOL    HW112488   6.141   2.059   0.054
 3863SOL    HW212489   6.083   1.930   6.999
 3864SOL     OW12490   2.320   0.500   5.298
 3864SOL    HW112491   2.222   0.488   5.314
 3864SOL    HW212492   2.340   0.486   5.201
 3865SOL     OW12493   4.183   1.067   1.155
 3865SOL    HW112494   4.085   1.048   1.156
 3865SOL    HW212495   4.210   1.104   1.244
 3866SOL     OW12496   3.943   0.315   0.288
 3866SOL    HW112497   4.007   0.303   0.364
 3866SOL    HW212498   3.928   0.413   0.272
 3867SOL     OW12499   0.813   4.638   3.562
 3867SOL    HW112500   0.719   4.646   3.528
 3867SOL    HW212501   0.840   4.723   3.607
 3868SOL     OW12502   3.530   0.206   0.317
 3868SOL    HW112503   3.615   0.206   0.370
 3868SOL    HW212504   3.547   0.166   0.227
 3869SOL     OW12505   6.513   2.954   4.135
 3869SOL    HW112506   6.576   2.966   4.212
 3869SOL    HW212507   6.504   2.857   4.114
 3870SOL     OW12508   0.010   6.438   0.976
 3870SOL    HW112509   6.964   6.483   0.921
 3870SOL    HW212510   0.039   6.500   1.048
 3871SOL     OW12511   3.529   0.823   3.280
 3871SOL    HW112512   3.538   0.909   3.331
 3871SOL    HW212513   3.597   0.820   3.207
 3872SOL     OW12514   3.281   3.232   4.659
 3872SOL    HW112515   3.358   3.172   4.684
 3872SOL    HW212516   3.196   3.191   4.690
 3873SOL     OW12517   5.643   3.808   1.398
 3873SOL    HW112518   5.723   3.856   1.361
 3873SOL    HW212519   5.570   3.874   1.416
 3874SOL     OW12520   4.500   6.868   0.210
 3874SOL    HW112521   4.501   6.844   0.113
 3874SOL    HW212522   4.581   6.829   0.255
 3875SOL     OW12523   2.083   3.389   3.403
 3875SOL    HW112524   2.117   3.389   3.309
 3875SOL    HW212525   2.098   3.479   3.443
 3876SOL     OW12526   3.825   5.251   1.086
 3876SOL    HW112527   3.915   5.295   1.077
 3876SOL    HW212528   3.774   5.296   1.159
 3877SOL     OW12529   6.129   2.397   1.511
 3877SOL    HW112530   6.102   2.306   1.544
 3877SOL    HW212531   6.100   2.466   1.578
 3878SOL     OW12532   4.357   6.310   4.601
 3878SOL    HW112533   4.259   6.315   4.622
 3878SOL    HW212534   4.400   6.398   4.624
 3879SOL     OW12535   6.271   5.419   1.064
 3879SOL    HW112536   6.291   5.494   1.127
 3879SOL    HW212537   6.202   5.359   1.104
 3880SOL     OW12538   5.253   4.257   4.664
 3880SOL    HW112539   5.316   4.308   4.607
 3880SOL    HW212540   5.161   4.297   4.657
 3881SOL     OW12541   1.070   3.616   1.562
 3881SOL    HW112542   1.039   3.710   1.581
 3881SOL    HW212543   1.083   3.567   1.648
 3882SOL     OW12544   1.015   1.468   5.812
 3882SOL    HW112545   1.008   1.559   5.853
 3882SOL    HW212546   0.938   1.411   5.842
 3883SOL     OW12547   3.992   1.195   2.233
 3883SOL    HW112548   4.003   1.294   2.230
 3883SOL    HW212549   3.895   1.172   2.239
 3884SOL     OW12550   0.938   6.165   2.276
 3884SOL    HW112551   0.877   6.096   2.237
 3884SOL    HW212552   1.007   6.121   2.332
 3885SOL     OW12553   6.394   5.477   2.785
 3885SOL    HW112554   6.397   5.507   2.880
 3885SOL    HW212555   6.483   5.490   2.743
 3886SOL     OW12556   5.017   5.772   4.943
 3886SOL    HW112557   4.946   5.793   4.876
 3886SOL    HW212558   5.093   5.726   4.898
 3887SOL     OW12559   1.491   0.381   6.878
 3887SOL    HW112560   1.531   0.308   6.934
 3887SOL    HW212561   1.403   0.409   6.916
 3888SOL     OW12562   6.806   0.447   5.505
 3888SOL    HW112563   6.830   0.387   5.581
 3888SOL    HW212564   6.715   0.485   5.520
 3889SOL     OW12565   6.823   3.955   0.257
 3889SOL    HW112566   6.761   4.031   0.238
 3889SOL    HW212567   6.776   3.868   0.237
 3890SOL     OW12568   6.528   4.684   2.940
 3890SOL    HW112569   6.450   4.727   2.894
 3890SOL    HW212570   6.526   4.705   3.037
 3891SOL     OW12571   5.424   3.861   4.111
 3891SOL    HW112572   5.354   3.876   4.181
 3891SOL    HW212573   5.511   3.900   4.142
 3892SOL     OW12574   6.901   1.687   1.434
 3892SOL    HW112575   6.951   1.716   1.515
 3892SOL    HW212576   6.965   1.678   1.357
 3893SOL     OW12577   4.297   4.286   0.078
 3893SOL    HW112578   4.395   4.277   0.061
 3893SOL    HW212579   4.282   4.302   0.175
 3894SOL     OW12580   3.957   0.909   0.567
 3894SOL    HW112581   3.986   0.885   0.475
 3894SOL    HW212582   4.020   0.976   0.606
 3895SOL     OW12583   1.721   0.535   5.861
 3895SOL    HW112584   1.650   0.592   5.903
 3895SOL    HW212585   1.688   0.497   5.776
 3896SOL     OW12586   0.015   1.037   5.080
 3896SOL    HW112587   6.983   1.065   5.004
 3896SOL    HW212588   0.045   0.943   5.067
 3897SOL     OW12589   3.705   6.110   2.813
 3897SOL    HW112590   3.687   6.122   2.910
 3897SOL    HW212591   3.742   6.195   2.775
 3898SOL     OW12592   2.562   3.163   5.978
 3898SOL    HW112593   2.655   3.137   5.952
 3898SOL    HW212594   2.565   3.214   6.064
 3899SOL     OW12595   4.580   6.525   5.386
 3899SOL    HW112596   4.583   6.623   5.369
 3899SOL    HW212597   4.673   6.491   5.402
 3900SOL     OW12598   4.745   2.833   3.641
 3900SOL    HW112599   4.730   2.742   3.678
 3900SOL    HW212600   4.755   2.899   3.716
 3901SOL     OW12601   2.683   0.344   5.417
 3901SOL    HW112602   2.600   0.344   5.473
 3901SOL    HW212603   2.722   0.436   5.416
 3902SOL     OW12604   5.894   3.025   1.632
 3902SOL    HW112605   5.867   3.102   1.689
 3902SOL    HW212606   5.833   3.018   1.553
 3903SOL     OW12607   3.844   6.045   6.172
 3903SOL    HW112608   3.766   6.025   6.231
 3903SOL    HW212609   3.929   6.024   6.222
 3904SOL     OW12610   2.909   1.469   5.281
 3904SOL    HW112611   2.821   1.489   5.238
 3904SOL    HW212612   2.932   1.373   5.266
 3905SOL     OW12613   0.453   7.019   6.870
 3905SOL    HW112614   0.442   6.954   6.946
 3905SOL    HW212615   0.534   0.050   6.885
 3906SOL     OW12616   5.723   6.116   5.588
 3906SOL    HW112617   5.638   6.155   5.554
 3906SOL    HW212618   5.729   6.128   5.687
 3907SOL     OW12619   5.572   0.845   3.615
 3907SOL    HW112620   5.545   0.749   3.608
 3907SOL    HW212621   5.649   0.854   3.678
 3908SOL     OW12622   1.399   2.204   0.462
 3908SOL    HW112623   1.455   2.189   0.381
 3908SOL    HW212624   1.355   2.294   0.457
 3909SOL     OW12625   6.897   5.928   5.449
 3909SOL    HW112626   6.808   5.885   5.465
 3909SOL    HW212627   6.970   5.866   5.476
 3910SOL     OW12628   3.563   3.084   2.587
 3910SOL    HW112629   3.637   3.138   2.545
 3910SOL    HW212630   3.546   3.002   2.532
 3911SOL     OW12631   4.603   1.682   6.248
 3911SOL    HW112632   4.671   1.715   6.182
 3911SOL    HW212633   4.640   1.603   6.297
 3912SOL     OW12634   4.313   0.390   5.133
 3912SOL    HW112635   4.332   0.364   5.228
 3912SOL    HW212636   4.318   0.490   5.125
 3913SOL     OW12637   2.021   6.880   6.430
 3913SOL    HW112638   2.020   6.979   6.422
 3913SOL    HW212639   1.961   6.852   6.505
 3914SOL     OW12640   3.284   0.960   0.842
 3914SOL    HW112641   3.200   1.007   0.869
 3914SOL    HW212642   3.359   1.026   0.836
 3915SOL     OW12643   4.088   5.253   2.020
 3915SOL    HW112644   4.083   5.330   1.956
 3915SOL    HW212645   4.171   5.261   2.076
 3916SOL     OW12646   1.532   6.738   4.116
 3916SOL    HW112647   1.565   6.788   4.197
 3916SOL    HW212648   1.508   6.645   4.142
 3917SOL     OW12649   6.485   5.677   7.022
 3917SOL    HW112650   6.460   5.580   7.019
 3917SOL    HW212651   6.512   5.701   0.090
 3918SOL     OW12652   4.713   6.559   1.726
 3918SOL    HW112653   4.770   6.633   1.689
 3918SOL    HW212654   4.668   6.512   1.651
 3919SOL     OW12655   2.246   6.514   6.418
 3919SOL    HW112656   2.262   6.611   6.436
 3919SOL    HW212657   2.329   6.474   6.378
 3920SOL     OW12658   3.459   2.677   0.870
 3920SOL    HW112659   3.376   2.684   0.925
 3920SOL    HW212660   3.531   2.631   0.923
 3921SOL     OW12661   0.515   3.240   1.233
 3921SOL    HW112662   0.551   3.215   1.322
 3921SOL    HW212663   0.572   3.200   1.161
 3922SOL     OW12664   6.080   3.788   1.815
 3922SOL    HW112665   6.020   3.812   1.739
 3922SOL    HW212666   6.160   3.849   1.815
 3923SOL     OW12667   6.392   1.764   6.715
 3923SOL    HW112668   6.467   1.711   6.675
 3923SOL    HW212669   6.389   1.854   6.673
 3924SOL     OW12670   0.283   4.784   3.504
 3924SOL    HW112671   0.344   4.862   3.493
 3924SOL    HW212672   0.290   4.749   3.597
 3925SOL     OW12673   3.221   5.051   1.213
 3925SOL    HW112674   3.143   4.997   1.182
 3925SOL    HW212675   3.201   5.089   1.304
 3926SOL     OW12676   7.006   5.830   3.303
 3926SOL    HW112677   6.960   5.747   3.273
 3926SOL    HW212678   7.023   5.889   3.223
 3927SOL     OW12679   6.745   2.755   3.634
 3927SOL    HW112680   6.788   2.676   3.678
 3927SOL    HW212681   6.813   2.804   3.580
 3928SOL     OW12682   3.405   6.192   5.474
 3928SOL    HW112683   3.500   6.221   5.486
 3928SOL    HW212684   3.356   6.260   5.420
 3929SOL     OW12685   0.044   1.097   5.589
 3929SOL    HW112686   0.083   1.007   5.602
 3929SOL    HW212687   7.000   1.093   5.517
 3930SOL     OW12688   2.433   1.655   3.401
 3930SOL    HW112689   2.390   1.584   3.457
 3930SOL    HW212690   2.510   1.695   3.450
 3931SOL     OW12691   1.832   1.350   1.865
 3931SOL    HW112692   1.745   1.344   1.913
 3931SOL    HW212693   1.819   1.335   1.768
 3932SOL     OW12694   1.236   4.269   3.028
 3932SOL    HW112695   1.140   4.243   3.033
 3932SOL    HW212696   1.247   4.347   2.966
 3933SOL     OW12697   1.878   6.367   6.992
 3933SOL    HW112698   1.965   6.318   7.002
 3933SOL    HW212699   1.837   6.344   6.904
 3934SOL     OW12700   6.663   1.324   0.665
 3934SOL    HW112701   6.664   1.315   0.764
 3934SOL    HW212702   6.747   1.370   0.635
 3935SOL     OW12703   2.907   6.790   6.578
 3935SOL    HW112704   3.007   6.793   6.567
 3935SOL    HW212705   2.885   6.747   6.666
 3936SOL     OW12706   0.181   4.931   5.311
 3936SOL    HW112707   0.230   4.859   5.262
 3936SOL    HW212708   0.192   4.918   5.410
 3937SOL     OW12709   6.674   1.093   3.224
 3937SOL    HW112710   6.748   1.089   3.291
 3937SOL    HW212711   6.692   1.028   3.151
 3938SOL     OW12712   0.330   1.329   3.942
 3938SOL    HW112713   0.369   1.238   3.955
 3938SOL    HW212714   0.331   1.378   4.029
 3939SOL     OW12715   2.271   1.813   2.481
 3939SOL    HW112716   2.242   1.829   2.386
 3939SOL    HW212717   2.216   1.869   2.542
 3940SOL     OW12718   4.665   5.421   1.533
 3940SOL    HW112719   4.689   5.424   1.630
 3940SOL    HW212720   4.712   5.495   1.485
 3941SOL     OW12721   4.449   2.775   6.532
 3941SOL    HW112722   4.527   2.755   6.472
 3941SOL    HW212723   4.384   2.699   6.528
 3942SOL     OW12724   0.180   0.244   0.088
 3942SOL    HW112725   0.226   0.251   0.000
 3942SOL    HW212726   0.095   0.297   0.086
 3943SOL     OW12727   6.800   3.677   3.009
 3943SOL    HW112728   6.856   3.759   3.014
 3943SOL    HW212729   6.858   3.597   2.991
 3944SOL     OW12730   5.083   2.926   5.162
 3944SOL    HW112731   5.049   3.016   5.135
 3944SOL    HW212732   5.142   2.935   5.242
 3945SOL     OW12733   0.284   1.671   1.407
 3945SOL    HW112734   0.379   1.662   1.440
 3945SOL    HW212735   0.228   1.601   1.449
 3946SOL     OW12736   5.765   6.088   5.853
 3946SOL    HW112737   5.797   6.041   5.935
 3946SOL    HW212738   5.706   6.164   5.880
 3947SOL     OW12739   5.995   5.656   0.813
 3947SOL    HW112740   5.939   5.639   0.732
 3947SOL    HW212741   5.935   5.667   0.893
 3948SOL     OW12742   1.368   5.987   1.760
 3948SOL    HW112743   1.426   5.917   1.719
 3948SOL    HW212744   1.274   5.954   1.765
 3949SOL     OW12745   5.107   0.150   3.351
 3949SOL    HW112746   5.033   0.198   3.398
 3949SOL    HW212747   5.182   0.133   3.415
 3950SOL     OW12748   1.681   4.124   1.510
 3950SOL    HW112749   1.674   4.084   1.601
 3950SOL    HW212750   1.606   4.091   1.453
 3951SOL     OW12751   6.012   6.457   0.648
 3951SOL    HW112752   5.932   6.453   0.709
 3951SOL    HW212753   6.017   6.373   0.594
 3952SOL     OW12754   6.226   3.364   2.781
 3952SOL    HW112755   6.228   3.463   2.768
 3952SOL    HW212756   6.313   3.324   2.753
 3953SOL     OW12757   3.994   4.608   1.607
 3953SOL    HW112758   4.029   4.515   1.592
 3953SOL    HW212759   4.004   4.661   1.523
 3954SOL     OW12760   4.647   4.834   5.043
 3954SOL    HW112761   4.692   4.780   4.971
 3954SOL    HW212762   4.598   4.773   5.105
 3955SOL     OW12763   3.124   5.641   6.243
 3955SOL    HW112764   3.193   5.577   6.275
 3955SOL    HW212765   3.165   5.708   6.182
 3956SOL     OW12766   6.867   0.581   3.755
 3956SOL    HW112767   6.843   0.509   3.820
 3956SOL    HW212768   6.841   0.551   3.662
 3957SOL     OW12769   4.568   6.363   3.711
 3957SOL    HW112770   4.582   6.270   3.676
 3957SOL    HW212771   4.656   6.402   3.738
 3958SOL     OW12772   5.788   0.635   4.974
 3958SOL    HW112773   5.776   0.601   4.880
 3958SOL    HW212774   5.849   0.574   5.024
 3959SOL     OW12775   4.289   6.120   0.816
 3959SOL    HW112776   4.208   6.138   0.871
 3959SOL    HW212777   4.279   6.164   0.727
 3960SOL     OW12778   4.716   1.489   6.685
 3960SOL    HW112779   4.639   1.525   6.737
 3960SOL    HW212780   4.713   1.389   6.686
 3961SOL     OW12781   5.216   2.008   2.645
 3961SOL    HW112782   5.267   2.067   2.583
 3961SOL    HW212783   5.181   2.062   2.722
 3962SOL     OW12784   2.381   4.279   0.314
 3962SOL    HW112785   2.461   4.330   0.346
 3962SOL    HW212786   2.313   4.342   0.278
 3963SOL     OW12787   4.503   4.860   4.025
 3963SOL    HW112788   4.554   4.824   4.103
 3963SOL    HW212789   4.405   4.843   4.038
 3964SOL     OW12790   4.391   4.862   3.509
 3964SOL    HW112791   4.435   4.801   3.443
 3964SOL    HW212792   4.416   4.956   3.488
 3965SOL     OW12793   4.745   3.050   6.034
 3965SOL    HW112794   4.669   3.075   6.093
 3965SOL    HW212795   4.816   3.120   6.038
 3966SOL     OW12796   5.169   5.727   0.215
 3966SOL    HW112797   5.119   5.728   0.129
 3966SOL    HW212798   5.183   5.632   0.244
 3967SOL     OW12799   1.667   3.697   1.953
 3967SOL    HW112800   1.732   3.656   2.017
 3967SOL    HW212801   1.630   3.781   1.993
 3968SOL     OW12802   5.016   0.625   1.401
 3968SOL    HW112803   4.951   0.553   1.376
 3968SOL    HW212804   4.968   0.698   1.449
 3969SOL     OW12805   1.670   4.300   1.970
 3969SOL    HW112806   1.698   4.220   2.025
 3969SOL    HW212807   1.644   4.270   1.879
 3970SOL     OW12808   6.641   5.908   3.497
 3970SOL    HW112809   6.706   5.957   3.440
 3970SOL    HW212810   6.595   5.972   3.558
 3971SOL     OW12811   2.652   4.634   2.440
 3971SOL    HW112812   2.749   4.654   2.451
 3971SOL    HW212813   2.629   4.631   2.343
 3972SOL     OW12814   1.310   4.566   0.760
 3972SOL    HW112815   1.330   4.663   0.776
 3972SOL    HW212816   1.271   4.555   0.669
 3973SOL     OW12817   1.818   5.147   6.739
 3973SOL    HW112818   1.898   5.145   6.800
 3973SOL    HW212819   1.844   5.106   6.651
 3974SOL     OW12820   2.256   0.964   4.332
 3974SOL    HW112821   2.185   0.894   4.344
 3974SOL    HW212822   2.216   1.045   4.289
 3975SOL     OW12823   5.659   1.168   5.177
 3975SOL    HW112824   5.685   1.259   5.144
 3975SOL    HW212825   5.694   1.156   5.270
 3976SOL     OW12826   1.617   6.664   1.736
 3976SOL    HW112827   1.666   6.586   1.695
 3976SOL    HW212828   1.583   6.723   1.663
 3977SOL     OW12829   2.664   3.812   5.557
 3977SOL    HW112830   2.622   3.857   5.637
 3977SOL    HW212831   2.732   3.746   5.588
 3978SOL     OW12832   5.410   5.028   4.776
 3978SOL    HW112833   5.315   5.051   4.757
 3978SOL    HW212834   5.471   5.082   4.718
 3979SOL     OW12835   2.910   6.415   0.940
 3979SOL    HW112836   2.890   6.410   1.038
 3979SOL    HW212837   2.889   6.507   0.906
 3980SOL     OW12838   6.341   5.752   0.429
 3980SOL    HW112839   6.288   5.697   0.365
 3980SOL    HW212840   6.434   5.763   0.394
 3981SOL     OW12841   2.658   0.711   0.060
 3981SOL    HW112842   2.725   0.784   0.055
 3981SOL    HW212843   2.599   0.714   7.004
 3982SOL     OW12844   2.349   6.962   3.648
 3982SOL    HW112845   2.366   6.927   3.556
 3982SOL    HW212846   2.436   6.975   3.695
 3983SOL     OW12847   5.338   4.900   3.805
 3983SOL    HW112848   5.380   4.841   3.873
 3983SOL    HW212849   5.395   4.980   3.789
 3984SOL     OW12850   6.501   1.421   3.281
 3984SOL    HW112851   6.520   1.374   3.194
 3984SOL    HW212852   6.548   1.374   3.355
 3985SOL     OW12853   3.240   4.531   6.519
 3985SOL    HW112854   3.242   4.548   6.420
 3985SOL    HW212855   3.301   4.454   6.540
 3986SOL     OW12856   6.058   2.721   3.126
 3986SOL    HW112857   5.968   2.709   3.170
 3986SOL    HW212858   6.096   2.632   3.103
 3987SOL     OW12859   3.461   5.436   4.010
 3987SOL    HW112860   3.430   5.436   3.916
 3987SOL    HW212861   3.524   5.360   4.024
 3988SOL     OW12862   3.706   4.210   0.158
 3988SOL    HW112863   3.660   4.174   0.239
 3988SOL    HW212864   3.791   4.159   0.142
 3989SOL     OW12865   6.649   2.665   0.076
 3989SOL    HW112866   6.637   2.666   0.175
 3989SOL    HW212867   6.713   2.738   0.050
 3990SOL     OW12868   5.033   1.861   2.540
 3990SOL    HW112869   5.057   1.837   2.446
 3990SOL    HW212870   5.109   1.909   2.582
 3991SOL     OW12871   5.892   1.003   2.666
 3991SOL    HW112872   5.944   1.027   2.583
 3991SOL    HW212873   5.798   1.034   2.656
 3992SOL     OW12874   4.009   2.376   0.377
 3992SOL    HW112875   3.999   2.475   0.365
 3992SOL    HW212876   4.076   2.341   0.312
 3993SOL     OW12877   1.599   2.056   2.653
 3993SOL    HW112878   1.529   2.030   2.721
 3993SOL    HW212879   1.598   1.990   2.578
 3994SOL     OW12880   1.412   0.749   5.602
 3994SOL    HW112881   1.472   0.700   5.540
 3994SOL    HW212882   1.341   0.688   5.636
 3995SOL     OW12883   2.156   3.664   5.700
 3995SOL    HW112884   2.150   3.695   5.605
 3995SOL    HW212885   2.072   3.618   5.726
 3996SOL     OW12886   1.343   0.085   4.542
 3996SOL    HW112887   1.376   7.016   4.551
 3996SOL    HW212888   1.405   0.137   4.483
 3997SOL     OW12889   5.258   1.471   4.407
 3997SOL    HW112890   5.293   1.473   4.314
 3997SOL    HW212891   5.322   1.421   4.466
 3998SOL     OW12892   4.224   1.339   4.401
 3998SOL    HW112893   4.312   1.328   4.355
 3998SOL    HW212894   4.181   1.249   4.412
 3999SOL     OW12895   5.859   3.399   4.113
 3999SOL    HW112896   5.932   3.429   4.174
 3999SOL    HW212897   5.898   3.342   4.040
 4000SOL     OW12898   2.926   5.979   3.262
 4000SOL    HW112899   2.867   6.027   3.197
 4000SOL    HW212900   3.015   5.964   3.220
 4001SOL     OW12901   2.679   2.051   3.456
 4001SOL    HW112902   2.583   2.061   3.430
 4001SOL    HW212903   2.722   1.980   3.398
 4002SOL     OW12904   3.104   3.569   0.481
 4002SOL    HW112905   3.151   3.556   0.394
 4002SOL    HW212906   3.102   3.482   0.531
 4003SOL     OW12907   3.137   6.682   3.696
 4003SOL    HW112908   3.042   6.708   3.681
 4003SOL    HW212909   3.197   6.761   3.684
 4004SOL     OW12910   4.968   1.695   4.758
 4004SOL    HW112911   4.870   1.715   4.746
 4004SOL    HW212912   5.004   1.654   4.675
 4005SOL     OW12913   5.168   5.211   0.409
 4005SOL    HW112914   5.097   5.175   0.470
 4005SOL    HW212915   5.133   5.215   0.315
 4006SOL     OW12916   4.381   5.064   2.403
 4006SOL    HW112917   4.357   5.134   2.470
 4006SOL    HW212918   4.475   5.078   2.371
 4007SOL     OW12919   0.413   1.783   0.707
 4007SOL    HW112920   0.482   1.837   0.756
 4007SOL    HW212921   0.406   1.693   0.749
 4008SOL     OW12922   3.140   1.962   3.911
 4008SOL    HW112923   3.166   1.866   3.902
 4008SOL    HW212924   3.117   1.998   3.820
 4009SOL     OW12925   4.369   3.542   0.978
 4009SOL    HW112926   4.448   3.481   0.972
 4009SOL    HW212927   4.375   3.611   0.906
 4010SOL     OW12928   2.807   3.322   1.397
 4010SOL    HW112929   2.714   3.314   1.360
 4010SOL    HW212930   2.873   3.298   1.326
 4011SOL     OW12931   0.604   0.770   1.943
 4011SOL    HW112932   0.674   0.829   1.982
 4011SOL    HW212933   0.645   0.684   1.913
 4012SOL     OW12934   5.294   5.137   1.624
 4012SOL    HW112935   5.327   5.180   1.708
 4012SOL    HW212936   5.240   5.056   1.648
 4013SOL     OW12937   2.599   1.291   5.149
 4013SOL    HW112938   2.682   1.284   5.094
 4013SOL    HW212939   2.610   1.238   5.233
 4014SOL     OW12940   4.801   6.674   2.347
 4014SOL    HW112941   4.848   6.590   2.376
 4014SOL    HW212942   4.722   6.650   2.291
 4015SOL     OW12943   5.334   4.837   6.029
 4015SOL    HW112944   5.276   4.905   6.073
 4015SOL    HW212945   5.422   4.879   6.005
 4016SOL     OW12946   2.455   6.117   6.490
 4016SOL    HW112947   2.447   6.213   6.515
 4016SOL    HW212948   2.463   6.061   6.574
 4017SOL     OW12949   0.316   5.800   0.305
 4017SOL    HW112950   0.383   5.868   0.335
 4017SOL    HW212951   0.356   5.709   0.310
 4018SOL     OW12952   4.525   6.366   3.065
 4018SOL    HW112953   4.531   6.463   3.088
 4018SOL    HW212954   4.493   6.355   2.971
 4019SOL     OW12955   5.735   3.332   2.774
 4019SOL    HW112956   5.827   3.359   2.745
 4019SOL    HW212957   5.713   3.378   2.860
 4020SOL     OW12958   4.727   1.710   5.579
 4020SOL    HW112959   4.786   1.632   5.601
 4020SOL    HW212960   4.780   1.795   5.587
 4021SOL     OW12961   3.923   4.726   6.102
 4021SOL    HW112962   3.934   4.704   6.198
 4021SOL    HW212963   3.832   4.699   6.071
 4022SOL     OW12964   4.663   0.783   6.818
 4022SOL    HW112965   4.579   0.778   6.870
 4022SOL    HW212966   4.644   0.766   6.721
 4023SOL     OW12967   5.930   1.668   4.471
 4023SOL    HW112968   5.887   1.757   4.483
 4023SOL    HW212969   5.876   1.613   4.408
 4024SOL     OW12970   3.698   6.516   3.615
 4024SOL    HW112971   3.622   6.543   3.557
 4024SOL    HW212972   3.689   6.419   3.639
 4025SOL     OW12973   0.888   5.810   3.909
 4025SOL    HW112974   0.929   5.828   3.820
 4025SOL    HW212975   0.865   5.713   3.916
 4026SOL     OW12976   5.640   5.541   4.371
 4026SOL    HW112977   5.740   5.544   4.363
 4026SOL    HW212978   5.599   5.569   4.284
 4027SOL     OW12979   3.749   4.467   1.668
 4027SOL    HW112980   3.675   4.512   1.719
 4027SOL    HW212981   3.837   4.497   1.704
 4028SOL     OW12982   1.680   2.485   4.136
 4028SOL    HW112983   1.728   2.401   4.162
 4028SOL    HW212984   1.710   2.560   4.194
 4029SOL     OW12985   2.790   4.026   5.778
 4029SOL    HW112986   2.707   3.970   5.777
 4029SOL    HW212987   2.781   4.100   5.712
 4030SOL     OW12988   0.973   1.986   5.698
 4030SOL    HW112989   1.023   2.017   5.617
 4030SOL    HW212990   0.896   2.048   5.715
 4031SOL     OW12991   4.854   5.501   3.817
 4031SOL    HW112992   4.854   5.596   3.787
 4031SOL    HW212993   4.948   5.469   3.830
 4032SOL     OW12994   6.448   6.632   3.859
 4032SOL    HW112995   6.450   6.710   3.921
 4032SOL    HW212996   6.541   6.605   3.836
 4033SOL     OW12997   3.437   3.211   3.495
 4033SOL    HW112998   3.347   3.194   3.535
 4033SOL    HW212999   3.459   3.137   3.431
 4034SOL     OW13000   5.833   1.537   5.180
 4034SOL    HW113001   5.865   1.513   5.272
 4034SOL    HW213002   5.841   1.635   5.166
 4035SOL     OW13003   0.156   3.485   0.577
 4035SOL    HW113004   0.146   3.571   0.527
 4035SOL    HW213005   0.166   3.410   0.511
 4036SOL     OW13006   6.002   6.493   2.428
 4036SOL    HW113007   6.032   6.421   2.491
 4036SOL    HW213008   5.925   6.543   2.468
 4037SOL     OW13009   1.772   2.802   6.788
 4037SOL    HW113010   1.779   2.705   6.812
 4037SOL    HW213011   1.847   2.853   6.830
 4038SOL     OW13012   4.941   4.969   1.970
 4038SOL    HW113013   4.850   4.966   1.927
 4038SOL    HW213014   4.953   4.887   2.027
 4039SOL     OW13015   5.203   5.488   0.350
 4039SOL    HW113016   5.150   5.403   0.357
 4039SOL    HW213017   5.206   5.532   0.440
 4040SOL     OW13018   2.939   6.689   0.554
 4040SOL    HW113019   2.928   6.686   0.454
 4040SOL    HW213020   3.010   6.756   0.577
 4041SOL     OW13021   1.392   6.040   2.359
 4041SOL    HW113022   1.299   6.071   2.341
 4041SOL    HW213023   1.455   6.083   2.294
 4042SOL     OW13024   6.223   5.485   2.380
 4042SOL    HW113025   6.300   5.527   2.332
 4042SOL    HW213026   6.247   5.474   2.477
 4043SOL     OW13027   5.362   2.090   3.539
 4043SOL    HW113028   5.403   2.105   3.449
 4043SOL    HW213029   5.434   2.093   3.609
 4044SOL     OW13030   6.115   0.021   3.811
 4044SOL    HW113031   6.112   0.117   3.838
 4044SOL    HW213032   6.027   7.004   3.830
 4045SOL     OW13033   2.808   4.022   6.078
 4045SOL    HW113034   2.896   4.053   6.113
 4045SOL    HW213035   2.807   4.032   5.978
 4046SOL     OW13036   1.018   1.986   2.300
 4046SOL    HW113037   1.091   2.024   2.357
 4046SOL    HW213038   1.008   2.042   2.218
 4047SOL     OW13039   3.283   3.881   0.864
 4047SOL    HW113040   3.213   3.830   0.915
 4047SOL    HW213041   3.261   3.878   0.766
 4048SOL     OW13042   5.422   0.548   1.429
 4048SOL    HW113043   5.488   0.620   1.406
 4048SOL    HW213044   5.358   0.536   1.352
 4049SOL     OW13045   6.548   6.352   6.435
 4049SOL    HW113046   6.529   6.288   6.361
 4049SOL    HW213047   6.467   6.362   6.493
 4050SOL     OW13048   1.737   6.487   0.158
 4050SOL    HW113049   1.797   6.451   0.087
 4050SOL    HW213050   1.791   6.530   0.230
 4051SOL     OW13051   3.030   3.909   0.679
 4051SOL    HW113052   2.963   3.983   0.670
 4051SOL    HW213053   3.032   3.878   0.774
 4052SOL     OW13054   0.959   0.485   0.997
 4052SOL    HW113055   0.924   0.502   1.090
 4052SOL    HW213056   0.905   0.539   0.932
 4053SOL     OW13057   2.815   4.768   3.790
 4053SOL    HW113058   2.902   4.782   3.838
 4053SOL    HW213059   2.759   4.703   3.840
 4054SOL     OW13060   2.733   2.688   0.524
 4054SOL    HW113061   2.817   2.730   0.559
 4054SOL    HW213062   2.729   2.593   0.555
 4055SOL     OW13063   2.387   2.972   6.151
 4055SOL    HW113064   2.475   2.975   6.104
 4055SOL    HW213065   2.346   3.063   6.152
 4056SOL     OW13066   4.055   3.370   6.872
 4056SOL    HW113067   3.958   3.385   6.891
 4056SOL    HW213068   4.085   3.429   6.798
 4057SOL     OW13069   5.351   3.124   0.504
 4057SOL    HW113070   5.395   3.036   0.522
 4057SOL    HW213071   5.360   3.146   0.407
 4058SOL     OW13072   2.486   1.538   4.402
 4058SOL    HW113073   2.510   1.473   4.330
 4058SOL    HW213074   2.473   1.489   4.488
 4059SOL     OW13075   2.094   2.223   3.709
 4059SOL    HW113076   2.000   2.231   3.743
 4059SOL    HW213077   2.153   2.186   3.780
 4060SOL     OW13078   3.814   5.578   4.308
 4060SOL    HW113079   3.851   5.506   4.367
 4060SOL    HW213080   3.722   5.602   4.339
 4061SOL     OW13081   3.406   4.583   1.597
 4061SOL    HW113082   3.348   4.505   1.618
 4061SOL    HW213083   3.464   4.604   1.677
 4062SOL     OW13084   3.795   1.386   2.484
 4062SOL    HW113085   3.854   1.402   2.564
 4062SOL    HW213086   3.845   1.412   2.401
 4063SOL     OW13087   3.615   6.732   5.689
 4063SOL    HW113088   3.571   6.643   5.671
 4063SOL    HW213089   3.660   6.728   5.778
 4064SOL     OW13090   1.532   0.884   2.597
 4064SOL    HW113091   1.511   0.850   2.688
 4064SOL    HW213092   1.466   0.954   2.571
 4065SOL     OW13093   6.948   6.920   1.166
 4065SOL    HW113094   6.939   6.934   1.265
 4065SOL    HW213095   6.999   6.996   1.126
 4066SOL     OW13096   5.536   4.388   1.442
 4066SOL    HW113097   5.614   4.325   1.443
 4066SOL    HW213098   5.547   4.455   1.516
 4067SOL     OW13099   5.270   1.628   3.339
 4067SOL    HW113100   5.249   1.542   3.292
 4067SOL    HW213101   5.356   1.665   3.303
 4068SOL     OW13102   4.821   0.448   4.841
 4068SOL    HW113103   4.727   0.479   4.851
 4068SOL    HW213104   4.875   0.479   4.919
 4069SOL     OW13105   5.075   4.624   1.117
 4069SOL    HW113106   5.006   4.615   1.189
 4069SOL    HW213107   5.151   4.681   1.149
 4070SOL     OW13108   1.896   3.666   2.537
 4070SOL    HW113109   1.978   3.676   2.592
 4070SOL    HW213110   1.848   3.754   2.532
 4071SOL     OW13111   1.308   0.801   4.939
 4071SOL    HW113112   1.372   0.795   5.015
 4071SOL    HW213113   1.228   0.743   4.958
 4072SOL     OW13114   2.060   6.494   4.113
 4072SOL    HW113115   2.001   6.438   4.171
 4072SOL    HW213116   2.135   6.532   4.168
 4073SOL     OW13117   2.246   6.021   6.287
 4073SOL    HW113118   2.160   6.060   6.320
 4073SOL    HW213119   2.318   6.039   6.355
 4074SOL     OW13120   0.663   1.809   1.685
 4074SOL    HW113121   0.674   1.727   1.741
 4074SOL    HW213122   0.599   1.872   1.729
 4075SOL     OW13123   4.378   1.978   2.453
 4075SOL    HW113124   4.461   1.955   2.504
 4075SOL    HW213125   4.388   1.948   2.358
 4076SOL     OW13126   2.114   3.824   5.103
 4076SOL    HW113127   2.176   3.757   5.144
 4076SOL    HW213128   2.166   3.903   5.070
 4077SOL     OW13129   3.080   0.080   0.746
 4077SOL    HW113130   3.087   0.007   0.679
 4077SOL    HW213131   3.163   0.136   0.743
 4078SOL     OW13132   6.481   4.353   1.821
 4078SOL    HW113133   6.576   4.343   1.852
 4078SOL    HW213134   6.479   4.355   1.721
 4079SOL     OW13135   0.864   1.326   3.426
 4079SOL    HW113136   0.795   1.380   3.475
 4079SOL    HW213137   0.882   1.368   3.337
 4080SOL     OW13138   3.267   3.900   0.539
 4080SOL    HW113139   3.299   3.819   0.490
 4080SOL    HW213140   3.172   3.885   0.569
 4081SOL     OW13141   2.425   1.391   4.626
 4081SOL    HW113142   2.443   1.397   4.724
 4081SOL    HW213143   2.404   1.296   4.602
 4082SOL     OW13144   1.120   2.324   6.013
 4082SOL    HW113145   1.132   2.276   6.100
 4082SOL    HW213146   1.023   2.341   5.996
 4083SOL     OW13147   5.817   4.479   2.998
 4083SOL    HW113148   5.894   4.465   3.059
 4083SOL    HW213149   5.733   4.444   3.041
 4084SOL     OW13150   4.775   2.330   3.009
 4084SOL    HW113151   4.749   2.338   2.913
 4084SOL    HW213152   4.770   2.420   3.053
 4085SOL     OW13153   2.762   5.530   1.586
 4085SOL    HW113154   2.771   5.623   1.624
 4085SOL    HW213155   2.835   5.473   1.622
 4086SOL     OW13156   6.805   5.480   6.709
 4086SOL    HW113157   6.871   5.555   6.708
 4086SOL    HW213158   6.714   5.516   6.689
 4087SOL     OW13159   2.663   0.304   2.525
 4087SOL    HW113160   2.653   0.320   2.427
 4087SOL    HW213161   2.582   0.337   2.572
 4088SOL     OW13162   6.728   0.903   5.365
 4088SOL    HW113163   6.820   0.940   5.358
 4088SOL    HW213164   6.665   0.959   5.311
 4089SOL     OW13165   0.094   6.062   4.366
 4089SOL    HW113166   0.160   6.002   4.411
 4089SOL    HW213167   0.004   6.052   4.409
 4090SOL     OW13168   2.507   6.464   4.833
 4090SOL    HW113169   2.547   6.511   4.754
 4090SOL    HW213170   2.410   6.484   4.839
 4091SOL     OW13171   1.010   5.128   1.069
 4091SOL    HW113172   1.089   5.066   1.066
 4091SOL    HW213173   0.932   5.081   1.112
 4092SOL     OW13174   4.801   3.089   4.866
 4092SOL    HW113175   4.882   3.111   4.812
 4092SOL    HW213176   4.719   3.118   4.816
 4093SOL     OW13177   5.965   5.505   2.292
 4093SOL    HW113178   5.921   5.419   2.264
 4093SOL    HW213179   6.064   5.492   2.294
 4094SOL     OW13180   0.177   4.798   6.932
 4094SOL    HW113181   0.195   4.891   6.963
 4094SOL    HW213182   0.252   4.767   6.873
 4095SOL     OW13183   0.369   3.983   0.192
 4095SOL    HW113184   0.398   4.004   0.285
 4095SOL    HW213185   0.285   3.929   0.194
 4096SOL     OW13186   1.822   1.700   6.638
 4096SOL    HW113187   1.911   1.662   6.615
 4096SOL    HW213188   1.750   1.634   6.615
 4097SOL     OW13189   0.116   3.899   5.027
 4097SOL    HW113190   0.098   3.835   4.953
 4097SOL    HW213191   0.087   3.991   5.000
 4098SOL     OW13192   2.162   4.253   2.249
 4098SOL    HW113193   2.090   4.314   2.214
 4098SOL    HW213194   2.240   4.308   2.280
 4099SOL     OW13195   4.688   4.662   6.727
 4099SOL    HW113196   4.597   4.621   6.718
 4099SOL    HW213197   4.698   4.702   6.818
 4100SOL     OW13198   1.197   1.355   3.763
 4100SOL    HW113199   1.248   1.437   3.735
 4100SOL    HW213200   1.251   1.274   3.742
 4101SOL     OW13201   6.467   0.781   6.579
 4101SOL    HW113202   6.414   0.735   6.508
 4101SOL    HW213203   6.461   0.880   6.567
 4102SOL     OW13204   1.893   0.742   0.252
 4102SOL    HW113205   1.829   0.726   0.327
 4102SOL    HW213206   1.864   0.689   0.172
 4103SOL     OW13207   0.512   6.569   2.165
 4103SOL    HW113208   0.530   6.599   2.259
 4103SOL    HW213209   0.594   6.585   2.109
 4104SOL     OW13210   0.371   6.079   3.081
 4104SOL    HW113211   0.408   6.156   3.028
 4104SOL    HW213212   0.330   6.113   3.165
 4105SOL     OW13213   4.643   1.047   1.581
 4105SOL    HW113214   4.571   1.105   1.619
 4105SOL    HW213215   4.730   1.067   1.627
 4106SOL     OW13216   0.233   1.687   3.814
 4106SOL    HW113217   0.295   1.630   3.761
 4106SOL    HW213218   0.202   1.764   3.758
 4107SOL     OW13219   0.850   6.000   6.168
 4107SOL    HW113220   0.785   6.074   6.185
 4107SOL    HW213221   0.941   6.028   6.199
 4108SOL     OW13222   0.413   4.696   4.219
 4108SOL    HW113223   0.332   4.636   4.218
 4108SOL    HW213224   0.421   4.743   4.131
 4109SOL     OW13225   6.393   5.827   3.124
 4109SOL    HW113226   6.478   5.797   3.167
 4109SOL    HW213227   6.399   5.811   3.025
 4110SOL     OW13228   4.555   2.864   0.225
 4110SOL    HW113229   4.471   2.913   0.250
 4110SOL    HW213230   4.620   2.928   0.184
 4111SOL     OW13231   6.593   4.953   6.157
 4111SOL    HW113232   6.577   4.858   6.185
 4111SOL    HW213233   6.602   4.957   6.058
 4112SOL     OW13234   4.704   6.505   4.984
 4112SOL    HW113235   4.772   6.534   4.916
 4112SOL    HW213236   4.746   6.442   5.049
 4113SOL     OW13237   4.458   4.585   4.760
 4113SOL    HW113238   4.440   4.524   4.838
 4113SOL    HW213239   4.420   4.675   4.780
 4114SOL     OW13240   6.063   1.638   3.414
 4114SOL    HW113241   6.073   1.693   3.331
 4114SOL    HW213242   6.153   1.612   3.448
 4115SOL     OW13243   2.672   5.323   3.007
 4115SOL    HW113244   2.690   5.227   2.987
 4115SOL    HW213245   2.756   5.376   2.993
 4116SOL     OW13246   5.420   2.833   3.595
 4116SOL    HW113247   5.323   2.813   3.580
 4116SOL    HW213248   5.434   2.932   3.600
 4117SOL     OW13249   1.492   2.243   2.452
 4117SOL    HW113250   1.418   2.307   2.473
 4117SOL    HW213251   1.512   2.187   2.532
 4118SOL     OW13252   6.316   6.373   6.566
 4118SOL    HW113253   6.271   6.293   6.527
 4118SOL    HW213254   6.305   6.371   6.666
 4119SOL     OW13255   2.582   0.822   3.239
 4119SOL    HW113256   2.552   0.846   3.146
 4119SOL    HW213257   2.575   0.723   3.251
 4120SOL     OW13258   2.979   1.574   6.279
 4120SOL    HW113259   3.074   1.590   6.249
 4120SOL    HW213260   2.962   1.624   6.364
 4121SOL     OW13261   6.969   6.873   2.947
 4121SOL    HW113262   0.034   6.843   2.977
 4121SOL    HW213263   6.976   6.921   2.860
 4122SOL     OW13264   0.201   5.844   4.464
 4122SOL    HW113265   0.177   5.806   4.374
 4122SOL    HW213266   0.126   5.829   4.528
 4123SOL     OW13267   3.830   5.182   3.418
 4123SOL    HW113268   3.912   5.206   3.366
 4123SOL    HW213269   3.855   5.163   3.513
 4124SOL     OW13270   6.683   6.217   0.956
 4124SOL    HW113271   6.650   6.131   0.995
 4124SOL    HW213272   6.670   6.216   0.857
 4125SOL     OW13273   5.233   2.430   2.666
 4125SOL    HW113274   5.179   2.490   2.607
 4125SOL    HW213275   5.171   2.371   2.718
 4126SOL     OW13276   1.268   3.062   2.061
 4126SOL    HW113277   1.321   2.979   2.078
 4126SOL    HW213278   1.288   3.129   2.133
 4127SOL     OW13279   3.842   2.191   4.180
 4127SOL    HW113280   3.899   2.143   4.247
 4127SOL    HW213281   3.779   2.252   4.227
 4128SOL     OW13282   0.886   3.193   1.615
 4128SOL    HW113283   0.979   3.156   1.618
 4128SOL    HW213284   0.890   3.293   1.610
 4129SOL     OW13285   3.536   2.563   0.629
 4129SOL    HW113286   3.517   2.468   0.654
 4129SOL    HW213287   3.514   2.623   0.705
 4130SOL     OW13288   6.257   2.630   1.402
 4130SOL    HW113289   6.202   2.546   1.398
 4130SOL    HW213290   6.353   2.606   1.413
 4131SOL     OW13291   5.609   0.764   2.485
 4131SOL    HW113292   5.574   0.734   2.573
 4131SOL    HW213293   5.695   0.716   2.465
 4132SOL     OW13294   6.488   4.085   4.657
 4132SOL    HW113295   6.478   4.183   4.677
 4132SOL    HW213296   6.467   4.068   4.561
 4133SOL     OW13297   5.266   6.388   1.542
 4133SOL    HW113298   5.281   6.414   1.447
 4133SOL    HW213299   5.168   6.376   1.559
 4134SOL     OW13300   2.773   3.633   1.284
 4134SOL    HW113301   2.685   3.606   1.324
 4134SOL    HW213302   2.771   3.731   1.264
 4135SOL     OW13303   0.330   2.466   2.469
 4135SOL    HW113304   0.421   2.480   2.431
 4135SOL    HW213305   0.312   2.533   2.541
 4136SOL     OW13306   0.296   4.025   1.024
 4136SOL    HW113307   0.380   4.072   0.996
 4136SOL    HW213308   0.318   3.954   1.091
 4137SOL     OW13309   1.910   2.833   0.464
 4137SOL    HW113310   1.827   2.876   0.428
 4137SOL    HW213311   1.946   2.768   0.397
 4138SOL     OW13312   4.407   5.879   0.752
 4138SOL    HW113313   4.361   5.958   0.790
 4138SOL    HW213314   4.435   5.898   0.658
 4139SOL     OW13315   1.867   2.085   2.666
 4139SOL    HW113316   1.905   2.150   2.730
 4139SOL    HW213317   1.767   2.092   2.667
 4140SOL     OW13318   2.754   2.376   4.186
 4140SOL    HW113319   2.693   2.442   4.143
 4140SOL    HW213320   2.798   2.321   4.116
 4141SOL     OW13321   4.066   6.874   6.407
 4141SOL    HW113322   3.992   6.816   6.373
 4141SOL    HW213323   4.108   6.922   6.330
 4142SOL     OW13324   6.407   3.950   2.078
 4142SOL    HW113325   6.342   4.006   2.129
 4142SOL    HW213326   6.440   4.001   1.999
 4143SOL     OW13327   6.031   3.590   0.928
 4143SOL    HW113328   5.935   3.592   0.955
 4143SOL    HW213329   6.037   3.577   0.829
 4144SOL     OW13330   5.402   1.814   1.153
 4144SOL    HW113331   5.342   1.789   1.229
 4144SOL    HW213332   5.473   1.745   1.143
 4145SOL     OW13333   1.120   6.485   0.860
 4145SOL    HW113334   1.088   6.444   0.945
 4145SOL    HW213335   1.073   6.442   0.783
 4146SOL     OW13336   5.744   6.654   3.668
 4146SOL    HW113337   5.815   6.720   3.644
 4146SOL    HW213338   5.657   6.681   3.625
 4147SOL     OW13339   5.302   4.497   5.846
 4147SOL    HW113340   5.379   4.465   5.901
 4147SOL    HW213341   5.311   4.595   5.829
 4148SOL     OW13342   2.996   0.089   5.427
 4148SOL    HW113343   3.002   0.133   5.337
 4148SOL    HW213344   2.907   0.110   5.468
 4149SOL     OW13345   1.816   2.618   0.913
 4149SOL    HW113346   1.902   2.567   0.916
 4149SOL    HW213347   1.796   2.643   0.818
 4150SOL     OW13348   6.390   2.957   6.242
 4150SOL    HW113349   6.353   2.961   6.335
 4150SOL    HW213350   6.360   2.872   6.198
 4151SOL     OW13351   2.694   6.883   4.687
 4151SOL    HW113352   2.713   6.940   4.767
 4151SOL    HW213353   2.691   6.940   4.606
 4152SOL     OW13354   3.461   5.496   1.748
 4152SOL    HW113355   3.461   5.441   1.664
 4152SOL    HW213356   3.371   5.537   1.760
 4153SOL     OW13357   6.830   4.855   1.283
 4153SOL    HW113358   6.830   4.908   1.198
 4153SOL    HW213359   6.898   4.781   1.276
 4154SOL     OW13360   6.974   5.491   3.564
 4154SOL    HW113361   6.967   5.588   3.586
 4154SOL    HW213362   6.977   5.438   3.649
 4155SOL     OW13363   0.061   2.220   1.425
 4155SOL    HW113364   0.086   2.123   1.419
 4155SOL    HW213365   0.143   2.275   1.411
 4156SOL     OW13366   6.929   4.718   4.850
 4156SOL    HW113367   6.961   4.809   4.875
 4156SOL    HW213368   6.829   4.717   4.847
 4157SOL     OW13369   6.803   0.023   2.492
 4157SOL    HW113370   6.782   6.951   2.491
 4157SOL    HW213371   6.787   0.062   2.402
 4158SOL     OW13372   2.147   2.108   1.594
 4158SOL    HW113373   2.123   2.119   1.690
 4158SOL    HW213374   2.075   2.148   1.537
 4159SOL     OW13375   2.890   2.197   2.873
 4159SOL    HW113376   2.893   2.206   2.773
 4159SOL    HW213377   2.838   2.273   2.912
 4160SOL     OW13378   6.797   0.070   0.016
 4160SOL    HW113379   6.790   7.010   6.989
 4160SOL    HW213380   6.789   0.148   6.980
 4161SOL     OW13381   1.683   2.156   0.847
 4161SOL    HW113382   1.644   2.125   0.934
 4161SOL    HW213383   1.766   2.104   0.827
 4162SOL     OW13384   6.717   5.768   0.513
 4162SOL    HW113385   6.729   5.686   0.570
 4162SOL    HW213386   6.645   5.825   0.552
 4163SOL     OW13387   5.011   0.624   2.061
 4163SOL    HW113388   5.063   0.617   1.976
 4163SOL    HW213389   4.960   0.540   2.076
 4164SOL     OW13390   7.019   0.039   5.459
 4164SOL    HW113391   0.037   6.977   5.480
 4164SOL    HW213392   6.951   0.060   5.529
 4165SOL     OW13393   4.201   0.093   5.727
 4165SOL    HW113394   4.295   0.128   5.719
 4165SOL    HW213395   4.158   0.090   5.637
 4166SOL     OW13396   5.960   1.326   2.070
 4166SOL    HW113397   6.024   1.400   2.048
 4166SOL    HW213398   6.012   1.247   2.105
 4167SOL     OW13399   2.403   4.819   5.897
 4167SOL    HW113400   2.474   4.837   5.965
 4167SOL    HW213401   2.394   4.720   5.883
 4168SOL     OW13402   6.865   4.520   0.192
 4168SOL    HW113403   6.951   4.543   0.147
 4168SOL    HW213404   6.811   4.603   0.207
 4169SOL     OW13405   5.915   3.964   5.372
 4169SOL    HW113406   6.014   3.981   5.368
 4169SOL    HW213407   5.868   4.025   5.308
 4170SOL     OW13408   5.022   3.126   4.704
 4170SOL    HW113409   5.025   3.210   4.648
 4170SOL    HW213410   5.099   3.125   4.767
 4171SOL     OW13411   1.061   4.544   1.469
 4171SOL    HW113412   1.015   4.501   1.391
 4171SOL    HW213413   0.998   4.607   1.514
 4172SOL     OW13414   2.933   3.212   0.380
 4172SOL    HW113415   3.016   3.212   0.435
 4172SOL    HW213416   2.856   3.242   0.435
 4173SOL     OW13417   4.244   2.669   5.717
 4173SOL    HW113418   4.186   2.611   5.774
 4173SOL    HW213419   4.339   2.659   5.746
 4174SOL     OW13420   4.158   0.371   3.647
 4174SOL    HW113421   4.066   0.331   3.648
 4174SOL    HW213422   4.173   0.420   3.734
 4175SOL     OW13423   1.653   4.723   5.887
 4175SOL    HW113424   1.660   4.657   5.961
 4175SOL    HW213425   1.629   4.813   5.924
 4176SOL     OW13426   4.861   6.183   0.779
 4176SOL    HW113427   4.923   6.184   0.700
 4176SOL    HW213428   4.793   6.256   0.769
 4177SOL     OW13429   4.980   4.928   4.433
 4177SOL    HW113430   4.953   4.840   4.472
 4177SOL    HW213431   5.075   4.947   4.455
 4178SOL     OW13432   4.467   6.386   2.804
 4178SOL    HW113433   4.548   6.444   2.795
 4178SOL    HW213434   4.391   6.426   2.754
 4179SOL     OW13435   5.033   3.935   3.636
 4179SOL    HW113436   5.089   4.017   3.624
 4179SOL    HW213437   5.084   3.868   3.691
 4180SOL     OW13438   5.185   3.253   0.925
 4180SOL    HW113439   5.180   3.353   0.932
 4180SOL    HW213440   5.262   3.228   0.866
 4181SOL     OW13441   5.618   0.421   6.210
 4181SOL    HW113442   5.624   0.392   6.114
 4181SOL    HW213443   5.622   0.341   6.269
 4182SOL     OW13444   0.363   5.227   3.615
 4182SOL    HW113445   0.302   5.290   3.567
 4182SOL    HW213446   0.315   5.142   3.634
 4183SOL     OW13447   2.275   1.021   0.660
 4183SOL    HW113448   2.274   0.961   0.740
 4183SOL    HW213449   2.354   0.999   0.603
 4184SOL     OW13450   3.891   0.071   1.958
 4184SOL    HW113451   3.883   0.148   1.895
 4184SOL    HW213452   3.959   0.092   2.028
 4185SOL     OW13453   0.551   3.967   3.002
 4185SOL    HW113454   0.532   4.058   2.965
 4185SOL    HW213455   0.650   3.954   3.009
 4186SOL     OW13456   2.475   5.962   6.740
 4186SOL    HW113457   2.566   5.921   6.734
 4186SOL    HW213458   2.407   5.891   6.759
 4187SOL     OW13459   2.738   3.665   7.006
 4187SOL    HW113460   2.763   3.570   0.001
 4187SOL    HW213461   2.664   3.666   6.939
 4188SOL     OW13462   5.339   0.333   4.990
 4188SOL    HW113463   5.268   0.382   5.042
 4188SOL    HW213464   5.346   0.372   4.898
 4189SOL     OW13465   3.575   5.113   3.426
 4189SOL    HW113466   3.534   5.193   3.471
 4189SOL    HW213467   3.674   5.126   3.420
 4190SOL     OW13468   0.451   6.499   1.007
 4190SOL    HW113469   0.428   6.543   0.921
 4190SOL    HW213470   0.414   6.553   1.083
 4191SOL     OW13471   5.310   4.296   6.069
 4191SOL    HW113472   5.347   4.380   6.109
 4191SOL    HW213473   5.263   4.243   6.141
 4192SOL     OW13474   1.042   1.460   2.221
 4192SOL    HW113475   1.010   1.516   2.144
 4192SOL    HW213476   1.141   1.468   2.228
 4193SOL     OW13477   5.489   0.403   0.391
 4193SOL    HW113478   5.527   0.412   0.299
 4193SOL    HW213479   5.547   0.343   0.446
 4194SOL     OW13480   4.682   0.137   4.535
 4194SOL    HW113481   4.583   0.133   4.548
 4194SOL    HW213482   4.711   0.233   4.530
 4195SOL     OW13483   4.347   6.302   1.341
 4195SOL    HW113484   4.410   6.379   1.341
 4195SOL    HW213485   4.396   6.219   1.315
 4196SOL     OW13486   0.245   2.422   3.260
 4196SOL    HW113487   0.335   2.381   3.242
 4196SOL    HW213488   0.255   2.521   3.272
 4197SOL     OW13489   4.270   5.826   5.393
 4197SOL    HW113490   4.216   5.799   5.473
 4197SOL    HW213491   4.242   5.770   5.315
 4198SOL     OW13492   6.796   1.061   2.540
 4198SOL    HW113493   6.797   1.155   2.506
 4198SOL    HW213494   6.883   1.040   2.584
 4199SOL     OW13495   1.121   2.699   5.809
 4199SOL    HW113496   1.181   2.685   5.888
 4199SOL    HW213497   1.043   2.755   5.836
 4200SOL     OW13498   3.120   0.311   5.669
 4200SOL    HW113499   3.124   0.235   5.733
 4200SOL    HW213500   3.112   0.276   5.575
 4201SOL     OW13501   6.214   6.790   2.581
 4201SOL    HW113502   6.149   6.796   2.657
 4201SOL    HW213503   6.164   6.797   2.494
 4202SOL     OW13504   3.441   5.782   6.394
 4202SOL    HW113505   3.442   5.702   6.333
 4202SOL    HW213506   3.435   5.751   6.489
 4203SOL     OW13507   5.068   4.491   0.556
 4203SOL    HW113508   5.127   4.433   0.612
 4203SOL    HW213509   5.029   4.563   0.613
 4204SOL     OW13510   3.843   3.362   5.431
 4204SOL    HW113511   3.891   3.450   5.437
 4204SOL    HW213512   3.822   3.330   5.523
 4205SOL     OW13513   3.637   5.226   4.851
 4205SOL    HW113514   3.673   5.292   4.785
 4205SOL    HW213515   3.609   5.143   4.804
 4206SOL     OW13516   6.664   1.806   4.920
 4206SOL    HW113517   6.672   1.822   4.822
 4206SOL    HW213518   6.628   1.713   4.936
 4207SOL     OW13519   2.402   2.693   1.487
 4207SOL    HW113520   2.488   2.664   1.530
 4207SOL    HW213521   2.403   2.669   1.391
 4208SOL     OW13522   0.987   3.611   6.206
 4208SOL    HW113523   1.005   3.514   6.194
 4208SOL    HW213524   0.959   3.651   6.119
 4209SOL     OW13525   6.918   6.074   2.838
 4209SOL    HW113526   6.876   6.160   2.868
 4209SOL    HW213527   7.009   6.092   2.800
 4210SOL     OW13528   4.116   3.418   3.025
 4210SOL    HW113529   4.185   3.486   3.001
 4210SOL    HW213530   4.069   3.388   2.942
 4211SOL     OW13531   3.635   1.624   5.440
 4211SOL    HW113532   3.594   1.543   5.482
 4211SOL    HW213533   3.624   1.619   5.341
 4212SOL     OW13534   6.139   2.012   3.760
 4212SOL    HW113535   6.237   1.996   3.774
 4212SOL    HW213536   6.124   2.103   3.722
 4213SOL     OW13537   2.609   0.132   2.984
 4213SOL    HW113538   2.517   0.094   2.981
 4213SOL    HW213539   2.645   0.140   2.891
 4214SOL     OW13540   0.437   5.799   4.910
 4214SOL    HW113541   0.397   5.709   4.889
 4214SOL    HW213542   0.364   5.861   4.939
 4215SOL     OW13543   5.543   0.214   5.317
 4215SOL    HW113544   5.535   0.129   5.369
 4215SOL    HW213545   5.532   0.195   5.220
 4216SOL     OW13546   1.285   0.825   1.958
 4216SOL    HW113547   1.225   0.902   1.939
 4216SOL    HW213548   1.318   0.785   1.872
 4217SOL     OW13549   1.102   0.603   1.669
 4217SOL    HW113550   1.153   0.687   1.649
 4217SOL    HW213551   1.144   0.557   1.747
 4218SOL     OW13552   3.266   0.513   1.354
 4218SOL    HW113553   3.219   0.428   1.381
 4218SOL    HW213554   3.305   0.502   1.263
 4219SOL     OW13555   4.735   6.609   4.321
 4219SOL    HW113556   4.655   6.565   4.363
 4219SOL    HW213557   4.733   6.707   4.340
 4220SOL     OW13558   5.717   3.265   2.237
 4220SOL    HW113559   5.783   3.202   2.278
 4220SOL    HW213560   5.688   3.332   2.305
 4221SOL     OW13561   6.210   4.650   6.137
 4221SOL    HW113562   6.290   4.660   6.079
 4221SOL    HW213563   6.151   4.577   6.102
 4222SOL     OW13564   6.593   1.227   3.510
 4222SOL    HW113565   6.498   1.249   3.532
 4222SOL    HW213566   6.632   1.171   3.583
 4223SOL     OW13567   3.917   3.569   1.162
 4223SOL    HW113568   3.903   3.483   1.112
 4223SOL    HW213569   3.977   3.629   1.110
 4224SOL     OW13570   4.928   5.013   4.777
 4224SOL    HW113571   4.925   5.061   4.865
 4224SOL    HW213572   4.949   4.917   4.793
 4225SOL     OW13573   1.737   2.185   5.248
 4225SOL    HW113574   1.724   2.246   5.171
 4225SOL    HW213575   1.673   2.209   5.321
 4226SOL     OW13576   1.267   5.335   3.568
 4226SOL    HW113577   1.332   5.275   3.521
 4226SOL    HW213578   1.260   5.306   3.664
 4227SOL     OW13579   4.909   6.328   1.705
 4227SOL    HW113580   4.833   6.392   1.721
 4227SOL    HW213581   4.994   6.369   1.739
 4228SOL     OW13582   7.013   6.500   5.517
 4228SOL    HW113583   6.963   6.414   5.501
 4228SOL    HW213584   0.049   6.518   5.441
 4229SOL     OW13585   4.641   5.459   5.142
 4229SOL    HW113586   4.719   5.492   5.193
 4229SOL    HW213587   4.577   5.534   5.127
 4230SOL     OW13588   1.030   6.248   3.344
 4230SOL    HW113589   0.990   6.239   3.253
 4230SOL    HW213590   0.980   6.189   3.408
 4231SOL     OW13591   5.221   0.283   5.623
 4231SOL    HW113592   5.193   0.211   5.560
 4231SOL    HW213593   5.310   0.320   5.594
 4232SOL     OW13594   1.709   4.680   3.868
 4232SOL    HW113595   1.740   4.617   3.939
 4232SOL    HW213596   1.728   4.641   3.778
 4233SOL     OW13597   6.981   0.955   4.614
 4233SOL    HW113598   0.046   0.912   4.612
 4233SOL    HW213599   6.910   0.885   4.612
 4234SOL     OW13600   2.137   5.440   5.128
 4234SOL    HW113601   2.071   5.391   5.185
 4234SOL    HW213602   2.207   5.376   5.096
 4235SOL     OW13603   6.997   4.760   6.219
 4235SOL    HW113604   6.987   4.660   6.219
 4235SOL    HW213605   0.068   4.783   6.233
 4236SOL     OW13606   6.771   4.348   1.854
 4236SOL    HW113607   6.814   4.287   1.788
 4236SOL    HW213608   6.826   4.352   1.937
 4237SOL     OW13609   0.220   4.133   4.173
 4237SOL    HW113610   0.138   4.189   4.158
 4237SOL    HW213611   0.294   4.190   4.209
 4238SOL     OW13612   1.195   0.419   3.168
 4238SOL    HW113613   1.245   0.500   3.199
 4238SOL    HW213614   1.236   0.385   3.084
 4239SOL     OW13615   4.258   1.574   2.605
 4239SOL    HW113616   4.300   1.635   2.672
 4239SOL    HW213617   4.311   1.490   2.599
 4240SOL     OW13618   2.486   5.219   0.463
 4240SOL    HW113619   2.585   5.223   0.477
 4240SOL    HW213620   2.467   5.206   0.365
 4241SOL     OW13621   5.323   0.667   0.523
 4241SOL    HW113622   5.406   0.615   0.499
 4241SOL    HW213623   5.243   0.608   0.510
 4242SOL     OW13624   2.998   2.040   4.151
 4242SOL    HW113625   2.969   2.134   4.132
 4242SOL    HW213626   3.042   2.001   4.070
 4243SOL     OW13627   5.290   1.550   2.943
 4243SOL    HW113628   5.287   1.534   3.042
 4243SOL    HW213629   5.263   1.644   2.923
 4244SOL     OW13630   3.759   4.610   1.386
 4244SOL    HW113631   3.795   4.541   1.323
 4244SOL    HW213632   3.746   4.569   1.477
 4245SOL     OW13633   6.324   2.362   6.518
 4245SOL    HW113634   6.294   2.280   6.469
 4245SOL    HW213635   6.423   2.364   6.521
 4246SOL     OW13636   6.383   4.010   3.615
 4246SOL    HW113637   6.376   3.933   3.551
 4246SOL    HW213638   6.403   3.976   3.706
 4247SOL     OW13639   1.711   6.660   3.508
 4247SOL    HW113640   1.802   6.626   3.481
 4247SOL    HW213641   1.670   6.710   3.432
 4248SOL     OW13642   2.676   1.996   4.437
 4248SOL    HW113643   2.711   2.057   4.366
 4248SOL    HW213644   2.738   1.996   4.515
 4249SOL     OW13645   6.452   2.786   5.225
 4249SOL    HW113646   6.447   2.847   5.146
 4249SOL    HW213647   6.500   2.702   5.199
 4250SOL     OW13648   0.071   4.427   3.415
 4250SOL    HW113649   0.123   4.411   3.499
 4250SOL    HW213650   0.026   4.342   3.387
 4251SOL     OW13651   5.800   4.780   0.755
 4251SOL    HW113652   5.738   4.822   0.820
 4251SOL    HW213653   5.828   4.847   0.686
 4252SOL     OW13654   6.220   6.593   5.786
 4252SOL    HW113655   6.166   6.526   5.836
 4252SOL    HW213656   6.274   6.648   5.850
 4253SOL     OW13657   2.540   0.199   1.727
 4253SOL    HW113658   2.546   0.215   1.629
 4253SOL    HW213659   2.482   0.270   1.769
 4254SOL     OW13660   0.818   2.680   1.992
 4254SOL    HW113661   0.896   2.623   2.020
 4254SOL    HW213662   0.838   2.775   2.014
 4255SOL     OW13663   5.932   2.928   3.630
 4255SOL    HW113664   6.023   2.905   3.665
 4255SOL    HW213665   5.894   3.004   3.682
 4256SOL     OW13666   1.420   6.657   0.889
 4256SOL    HW113667   1.379   6.613   0.969
 4256SOL    HW213668   1.441   6.588   0.820
 4257SOL     OW13669   3.655   0.299   4.786
 4257SOL    HW113670   3.590   0.355   4.838
 4257SOL    HW213671   3.606   0.230   4.734
 4258SOL     OW13672   5.855   6.363   1.554
 4258SOL    HW113673   5.768   6.368   1.505
 4258SOL    HW213674   5.924   6.419   1.506
 4259SOL     OW13675   2.949   0.229   6.569
 4259SOL    HW113676   3.034   0.188   6.603
 4259SOL    HW213677   2.888   0.157   6.536
 4260SOL     OW13678   5.312   6.588   5.372
 4260SOL    HW113679   5.336   6.666   5.314
 4260SOL    HW213680   5.299   6.619   5.466
 4261SOL     OW13681   1.877   0.793   1.911
 4261SOL    HW113682   1.808   0.861   1.884
 4261SOL    HW213683   1.945   0.837   1.970
 4262SOL     OW13684   1.043   4.699   5.808
 4262SOL    HW113685   1.121   4.639   5.825
 4262SOL    HW213686   1.075   4.786   5.770
 4263SOL     OW13687   2.905   6.135   3.479
 4263SOL    HW113688   2.836   6.154   3.549
 4263SOL    HW213689   2.887   6.046   3.437
 4264SOL     OW13690   6.791   1.945   2.819
 4264SOL    HW113691   6.887   1.970   2.813
 4264SOL    HW213692   6.782   1.850   2.849
 4265SOL     OW13693   5.490   1.329   0.401
 4265SOL    HW113694   5.527   1.412   0.443
 4265SOL    HW213695   5.406   1.352   0.351
 4266SOL     OW13696   1.985   5.654   0.762
 4266SOL    HW113697   1.995   5.699   0.674
 4266SOL    HW213698   2.033   5.566   0.761
 4267SOL     OW13699   1.888   3.532   5.263
 4267SOL    HW113700   1.889   3.632   5.271
 4267SOL    HW213701   1.823   3.505   5.191
 4268SOL     OW13702   1.282   6.860   6.587
 4268SOL    HW113703   1.378   6.890   6.592
 4268SOL    HW213704   1.231   6.900   6.663
 4269SOL     OW13705   2.372   1.629   0.457
 4269SOL    HW113706   2.336   1.536   0.452
 4269SOL    HW213707   2.300   1.694   0.437
 4270SOL     OW13708   3.577   3.132   4.079
 4270SOL    HW113709   3.482   3.100   4.083
 4270SOL    HW213710   3.606   3.162   4.170
 4271SOL     OW13711   0.483   1.275   6.478
 4271SOL    HW113712   0.528   1.361   6.457
 4271SOL    HW213713   0.414   1.255   6.408
 4272SOL     OW13714   0.730   4.386   5.132
 4272SOL    HW113715   0.716   4.456   5.201
 4272SOL    HW213716   0.655   4.387   5.066
 4273SOL     OW13717   4.957   6.156   4.751
 4273SOL    HW113718   5.001   6.073   4.718
 4273SOL    HW213719   4.928   6.212   4.673
 4274SOL     OW13720   1.358   0.362   2.952
 4274SOL    HW113721   1.383   0.282   2.896
 4274SOL    HW213722   1.437   0.392   3.005
 4275SOL     OW13723   6.937   1.696   5.047
 4275SOL    HW113724   0.000   1.744   5.052
 4275SOL    HW213725   6.867   1.760   5.015
 4276SOL     OW13726   1.139   4.302   3.959
 4276SOL    HW113727   1.144   4.394   3.919
 4276SOL    HW213728   1.214   4.247   3.922
 4277SOL     OW13729   6.159   4.438   4.417
 4277SOL    HW113730   6.069   4.454   4.377
 4277SOL    HW213731   6.194   4.350   4.387
 4278SOL     OW13732   6.969   0.899   4.247
 4278SOL    HW113733   6.941   0.986   4.288
 4278SOL    HW213734   0.006   0.851   4.308
 4279SOL     OW13735   3.341   6.620   5.399
 4279SOL    HW113736   3.362   6.718   5.394
 4279SOL    HW213737   3.289   6.592   5.318
 4280SOL     OW13738   5.114   1.205   5.499
 4280SOL    HW113739   5.082   1.289   5.456
 4280SOL    HW213740   5.084   1.126   5.446
 4281SOL     OW13741   2.505   4.833   4.593
 4281SOL    HW113742   2.548   4.752   4.633
 4281SOL    HW213743   2.468   4.891   4.666
 4282SOL     OW13744   3.088   2.442   0.553
 4282SOL    HW113745   3.036   2.361   0.525
 4282SOL    HW213746   3.082   2.452   0.653
 4283SOL     OW13747   1.844   0.994   3.714
 4283SOL    HW113748   1.930   1.040   3.734
 4283SOL    HW213749   1.783   1.000   3.792
 4284SOL     OW13750   4.970   5.983   1.925
 4284SOL    HW113751   4.928   5.921   1.991
 4284SOL    HW213752   4.944   5.956   1.832
 4285SOL     OW13753   0.580   0.580   6.203
 4285SOL    HW113754   0.661   0.583   6.144
 4285SOL    HW213755   0.570   0.488   6.240
 4286SOL     OW13756   5.130   5.863   6.601
 4286SOL    HW113757   5.226   5.834   6.610
 4286SOL    HW213758   5.070   5.786   6.620
 4287SOL     OW13759   5.867   1.193   6.336
 4287SOL    HW113760   5.811   1.111   6.349
 4287SOL    HW213761   5.961   1.166   6.316
 4288SOL     OW13762   1.185   5.406   2.983
 4288SOL    HW113763   1.138   5.434   3.066
 4288SOL    HW213764   1.153   5.316   2.953
 4289SOL     OW13765   5.944   3.172   0.873
 4289SOL    HW113766   5.860   3.226   0.865
 4289SOL    HW213767   6.013   3.208   0.810
 4290SOL     OW13768   2.682   6.498   2.137
 4290SOL    HW113769   2.774   6.469   2.108
 4290SOL    HW213770   2.678   6.501   2.237
 4291SOL     OW13771   4.645   3.873   1.738
 4291SOL    HW113772   4.659   3.938   1.664
 4291SOL    HW213773   4.548   3.867   1.760
 4292SOL     OW13774   6.551   4.691   6.249
 4292SOL    HW113775   6.508   4.601   6.258
 4292SOL    HW213776   6.605   4.710   6.331
 4293SOL     OW13777   7.000   2.910   0.307
 4293SOL    HW113778   7.002   2.940   0.402
 4293SOL    HW213779   6.993   2.991   0.248
 4294SOL     OW13780   3.986   2.875   0.266
 4294SOL    HW113781   3.968   2.953   0.206
 4294SOL    HW213782   4.067   2.826   0.234
 4295SOL     OW13783   3.722   5.899   4.745
 4295SOL    HW113784   3.813   5.897   4.702
 4295SOL    HW213785   3.728   5.859   4.837
 4296SOL     OW13786   3.383   1.473   6.934
 4296SOL    HW113787   3.309   1.422   6.977
 4296SOL    HW213788   3.443   1.410   6.885
 4297SOL     OW13789   5.362   0.838   6.108
 4297SOL    HW113790   5.370   0.917   6.169
 4297SOL    HW213791   5.266   0.810   6.104
 4298SOL     OW13792   2.502   5.201   6.215
 4298SOL    HW113793   2.600   5.216   6.227
 4298SOL    HW213794   2.451   5.277   6.256
 4299SOL     OW13795   0.569   3.019   0.169
 4299SOL    HW113796   0.490   2.959   0.178
 4299SOL    HW213797   0.556   3.081   0.092
 4300SOL     OW13798   3.953   0.974   6.631
 4300SOL    HW113799   4.047   0.968   6.595
 4300SOL    HW213800   3.942   1.060   6.681
 4301SOL     OW13801   2.789   1.385   0.502
 4301SOL    HW113802   2.824   1.389   0.409
 4301SOL    HW213803   2.754   1.293   0.520
 4302SOL     OW13804   0.691   6.546   5.437
 4302SOL    HW113805   0.699   6.550   5.536
 4302SOL    HW213806   0.595   6.542   5.411
 4303SOL     OW13807   5.632   5.055   3.633
 4303SOL    HW113808   5.597   4.961   3.638
 4303SOL    HW213809   5.569   5.115   3.682
 4304SOL     OW13810   2.898   3.616   4.079
 4304SOL    HW113811   2.937   3.672   4.006
 4304SOL    HW213812   2.896   3.670   4.164
 4305SOL     OW13813   5.968   0.808   4.209
 4305SOL    HW113814   5.917   0.817   4.123
 4305SOL    HW213815   6.039   0.878   4.213
 4306SOL     OW13816   6.394   3.793   6.541
 4306SOL    HW113817   6.403   3.892   6.531
 4306SOL    HW213818   6.297   3.768   6.541
 4307SOL     OW13819   5.306   4.247   6.477
 4307SOL    HW113820   5.246   4.217   6.403
 4307SOL    HW213821   5.395   4.201   6.467
 4308SOL     OW13822   5.718   5.460   6.178
 4308SOL    HW113823   5.708   5.515   6.260
 4308SOL    HW213824   5.794   5.396   6.189
 4309SOL     OW13825   1.291   0.310   0.318
 4309SOL    HW113826   1.265   0.407   0.324
 4309SOL    HW213827   1.377   0.302   0.268
 4310SOL     OW13828   2.064   2.095   3.024
 4310SOL    HW113829   2.057   2.166   2.954
 4310SOL    HW213830   2.157   2.095   3.062
 4311SOL     OW13831   1.374   5.625   3.006
 4311SOL    HW113832   1.365   5.529   2.980
 4311SOL    HW213833   1.365   5.683   2.925
 4312SOL     OW13834   1.633   5.322   0.930
 4312SOL    HW113835   1.676   5.293   0.844
 4312SOL    HW213836   1.596   5.414   0.918
 4313SOL     OW13837   4.956   1.316   2.092
 4313SOL    HW113838   5.004   1.307   2.005
 4313SOL    HW213839   4.870   1.265   2.087
 4314SOL     OW13840   5.646   1.992   4.122
 4314SOL    HW113841   5.639   1.921   4.191
 4314SOL    HW213842   5.686   2.074   4.163
 4315SOL     OW13843   2.338   0.843   2.329
 4315SOL    HW113844   2.300   0.888   2.249
 4315SOL    HW213845   2.320   0.899   2.410
 4316SOL     OW13846   5.193   6.790   0.995
 4316SOL    HW113847   5.178   6.699   0.956
 4316SOL    HW213848   5.106   6.829   1.024
 4317SOL     OW13849   3.724   1.164   4.440
 4317SOL    HW113850   3.714   1.223   4.521
 4317SOL    HW213851   3.813   1.181   4.397
 4318SOL     OW13852   1.505   3.220   3.477
 4318SOL    HW113853   1.484   3.302   3.529
 4318SOL    HW213854   1.592   3.232   3.429
 4319SOL     OW13855   2.471   2.755   0.481
 4319SOL    HW113856   2.564   2.721   0.496
 4319SOL    HW213857   2.471   2.855   0.488
 4320SOL     OW13858   0.680   5.841   1.769
 4320SOL    HW113859   0.581   5.830   1.761
 4320SOL    HW213860   0.709   5.810   1.860
 4321SOL     OW13861   6.999   6.997   4.377
 4321SOL    HW113862   6.973   6.903   4.353
 4321SOL    HW213863   6.936   0.007   4.447
 4322SOL     OW13864   6.158   1.836   6.498
 4322SOL    HW113865   6.164   1.784   6.582
 4322SOL    HW213866   6.228   1.908   6.498
 4323SOL     OW13867   5.005   4.196   1.531
 4323SOL    HW113868   5.097   4.232   1.513
 4323SOL    HW213869   5.012   4.104   1.568
 4324SOL     OW13870   5.627   4.630   6.841
 4324SOL    HW113871   5.647   4.724   6.816
 4324SOL    HW213872   5.631   4.620   6.940
 4325SOL     OW13873   1.636   0.533   0.140
 4325SOL    HW113874   1.684   0.456   0.100
 4325SOL    HW213875   1.616   0.601   0.069
 4326SOL     OW13876   6.135   2.880   4.630
 4326SOL    HW113877   6.055   2.822   4.647
 4326SOL    HW213878   6.125   2.926   4.542
 4327SOL     OW13879   5.969   5.214   2.233
 4327SOL    HW113880   5.988   5.136   2.293
 4327SOL    HW213881   5.887   5.196   2.179
 4328SOL     OW13882   4.456   4.046   5.895
 4328SOL    HW113883   4.457   4.096   5.808
 4328SOL    HW213884   4.510   3.962   5.885
 4329SOL     OW13885   3.705   1.726   6.272
 4329SOL    HW113886   3.703   1.795   6.344
 4329SOL    HW213887   3.795   1.726   6.229
 4330SOL     OW13888   2.851   0.553   5.151
 4330SOL    HW113889   2.760   0.587   5.128
 4330SOL    HW213890   2.894   0.613   5.218
 4331SOL     OW13891   4.604   3.268   0.709
 4331SOL    HW113892   4.520   3.311   0.677
 4331SOL    HW213893   4.587   3.173   0.733
 4332SOL     OW13894   5.488   4.801   2.210
 4332SOL    HW113895   5.470   4.704   2.231
 4332SOL    HW213896   5.410   4.856   2.241
 4333SOL     OW13897   4.484   0.628   5.393
 4333SOL    HW113898   4.580   0.609   5.413
 4333SOL    HW213899   4.426   0.571   5.451
 4334SOL     OW13900   2.078   2.474   2.284
 4334SOL    HW113901   2.031   2.408   2.343
 4334SOL    HW213902   2.100   2.556   2.337
 4335SOL     OW13903   3.210   4.044   3.328
 4335SOL    HW113904   3.131   3.994   3.362
 4335SOL    HW213905   3.272   4.064   3.404
 4336SOL     OW13906   0.955   6.489   5.408
 4336SOL    HW113907   0.862   6.526   5.403
 4336SOL    HW213908   0.967   6.419   5.338
 4337SOL     OW13909   1.206   4.752   0.368
 4337SOL    HW113910   1.163   4.686   0.430
 4337SOL    HW213911   1.302   4.729   0.356
 4338SOL     OW13912   5.130   5.889   4.183
 4338SOL    HW113913   5.171   5.831   4.253
 4338SOL    HW213914   5.091   5.830   4.111
 4339SOL     OW13915   5.765   3.736   5.552
 4339SOL    HW113916   5.789   3.822   5.506
 4339SOL    HW213917   5.671   3.743   5.586
 4340SOL     OW13918   6.134   4.315   2.265
 4340SOL    HW113919   6.053   4.260   2.284
 4340SOL    HW213920   6.163   4.360   2.349
 4341SOL     OW13921   1.173   5.777   2.050
 4341SOL    HW113922   1.113   5.700   2.072
 4341SOL    HW213923   1.240   5.790   2.123
 4342SOL     OW13924   6.710   3.571   3.902
 4342SOL    HW113925   6.656   3.541   3.823
 4342SOL    HW213926   6.799   3.604   3.870
 4343SOL     OW13927   2.350   6.509   6.076
 4343SOL    HW113928   2.288   6.464   6.011
 4343SOL    HW213929   2.384   6.441   6.141
 4344SOL     OW13930   1.825   5.018   2.923
 4344SOL    HW113931   1.855   4.961   2.999
 4344SOL    HW213932   1.882   5.101   2.920
 4345SOL     OW13933   1.845   2.694   5.817
 4345SOL    HW113934   1.929   2.738   5.853
 4345SOL    HW213935   1.862   2.662   5.724
 4346SOL     OW13936   1.874   3.061   1.489
 4346SOL    HW113937   1.907   3.061   1.583
 4346SOL    HW213938   1.854   2.967   1.461
 4347SOL     OW13939   5.974   0.461   2.669
 4347SOL    HW113940   5.920   0.531   2.716
 4347SOL    HW213941   6.061   0.448   2.716
 4348SOL     OW13942   0.395   3.348   2.281
 4348SOL    HW113943   0.430   3.267   2.234
 4348SOL    HW213944   0.381   3.328   2.377
 4349SOL     OW13945   6.437   1.746   3.117
 4349SOL    HW113946   6.467   1.796   3.199
 4349SOL    HW213947   6.350   1.701   3.135
 4350SOL     OW13948   5.041   2.479   4.619
 4350SOL    HW113949   5.067   2.467   4.714
 4350SOL    HW213950   5.072   2.569   4.587
 4351SOL     OW13951   1.935   6.415   1.119
 4351SOL    HW113952   1.840   6.398   1.090
 4351SOL    HW213953   1.969   6.497   1.073
 4352SOL     OW13954   0.956   2.401   2.120
 4352SOL    HW113955   0.913   2.356   2.198
 4352SOL    HW213956   0.903   2.381   2.037
 4353SOL     OW13957   3.263   4.401   0.364
 4353SOL    HW113958   3.254   4.336   0.440
 4353SOL    HW213959   3.351   4.448   0.371
 4354SOL     OW13960   1.776   6.378   5.446
 4354SOL    HW113961   1.844   6.424   5.389
 4354SOL    HW213962   1.814   6.290   5.477
 4355SOL     OW13963   3.256   0.367   2.412
 4355SOL    HW113964   3.356   0.364   2.407
 4355SOL    HW213965   3.228   0.372   2.508
 4356SOL     OW13966   4.313   4.493   1.778
 4356SOL    HW113967   4.359   4.406   1.795
 4356SOL    HW213968   4.303   4.543   1.864
 4357SOL     OW13969   6.171   0.289   6.858
 4357SOL    HW113970   6.184   0.270   6.955
 4357SOL    HW213971   6.160   0.204   6.807
 4358SOL     OW13972   6.787   5.976   0.328
 4358SOL    HW113973   6.786   6.066   0.372
 4358SOL    HW213974   6.784   5.905   0.398
 4359SOL     OW13975   1.565   2.010   5.625
 4359SOL    HW113976   1.654   2.022   5.669
 4359SOL    HW213977   1.503   1.961   5.686
 4360SOL     OW13978   1.219   3.337   2.920
 4360SOL    HW113979   1.240   3.240   2.927
 4360SOL    HW213980   1.301   3.391   2.939
 4361SOL     OW13981   2.866   2.767   1.660
 4361SOL    HW113982   2.930   2.829   1.707
 4361SOL    HW213983   2.810   2.719   1.728
 4362SOL     OW13984   6.098   4.149   4.153
 4362SOL    HW113985   6.007   4.162   4.115
 4362SOL    HW213986   6.145   4.077   4.103
 4363SOL     OW13987   5.428   2.520   6.794
 4363SOL    HW113988   5.404   2.575   6.875
 4363SOL    HW213989   5.468   2.579   6.724
 4364SOL     OW13990   3.165   3.754   5.250
 4364SOL    HW113991   3.073   3.759   5.211
 4364SOL    HW213992   3.219   3.832   5.219
 4365SOL     OW13993   2.242   2.445   1.770
 4365SOL    HW113994   2.170   2.507   1.740
 4365SOL    HW213995   2.300   2.421   1.693
 4366SOL     OW13996   5.436   6.764   0.412
 4366SOL    HW113997   5.491   6.782   0.493
 4366SOL    HW213998   5.381   6.682   0.426
 4367SOL     OW13999   2.092   5.025   5.139
 4367SOL    HW114000   2.145   5.109   5.132
 4367SOL    HW214001   2.090   4.995   5.235
 4368SOL     OW14002   4.117   5.610   1.220
 4368SOL    HW114003   4.208   5.592   1.258
 4368SOL    HW214004   4.070   5.523   1.202
 4369SOL     OW14005   4.456   5.461   3.375
 4369SOL    HW114006   4.451   5.560   3.382
 4369SOL    HW214007   4.404   5.430   3.295
 4370SOL     OW14008   4.596   4.492   3.000
 4370SOL    HW114009   4.549   4.495   2.912
 4370SOL    HW214010   4.657   4.412   3.003
 4371SOL     OW14011   6.501   0.740   1.417
 4371SOL    HW114012   6.533   0.654   1.459
 4371SOL    HW214013   6.478   0.723   1.321
 4372SOL     OW14014   4.395   1.084   3.213
 4372SOL    HW114015   4.473   1.043   3.167
 4372SOL    HW214016   4.384   1.043   3.303
 4373SOL     OW14017   0.116   2.406   6.600
 4373SOL    HW114018   0.077   2.419   6.691
 4373SOL    HW214019   0.202   2.455   6.593
 4374SOL     OW14020   1.041   1.824   1.813
 4374SOL    HW114021   1.016   1.908   1.764
 4374SOL    HW214022   1.051   1.845   1.911
 4375SOL     OW14023   3.429   0.625   3.957
 4375SOL    HW114024   3.347   0.596   3.907
 4375SOL    HW214025   3.505   0.635   3.893
 4376SOL     OW14026   6.735   6.933   3.240
 4376SOL    HW114027   6.744   7.020   3.289
 4376SOL    HW214028   6.677   6.871   3.293
 4377SOL     OW14029   6.194   4.044   0.700
 4377SOL    HW114030   6.209   4.140   0.676
 4377SOL    HW214031   6.251   3.986   0.642
 4378SOL     OW14032   1.975   1.437   2.730
 4378SOL    HW114033   2.066   1.471   2.708
 4378SOL    HW214034   1.975   1.337   2.726
 4379SOL     OW14035   2.328   1.207   3.377
 4379SOL    HW114036   2.428   1.215   3.371
 4379SOL    HW214037   2.294   1.274   3.443
 4380SOL     OW14038   1.331   0.084   1.300
 4380SOL    HW114039   1.241   0.116   1.331
 4380SOL    HW214040   1.347   0.114   1.206
 4381SOL     OW14041   1.017   6.213   4.543
 4381SOL    HW114042   1.021   6.144   4.471
 4381SOL    HW214043   0.922   6.226   4.571
 4382SOL     OW14044   0.118   3.877   5.838
 4382SOL    HW114045   0.186   3.823   5.887
 4382SOL    HW214046   0.159   3.962   5.805
 4383SOL     OW14047   0.126   3.754   6.212
 4383SOL    HW114048   0.061   3.793   6.146
 4383SOL    HW214049   0.210   3.727   6.164
 4384SOL     OW14050   6.090   0.293   3.839
 4384SOL    HW114051   6.138   0.344   3.910
 4384SOL    HW214052   6.124   0.321   3.749
 4385SOL     OW14053   4.574   2.539   5.185
 4385SOL    HW114054   4.671   2.553   5.169
 4385SOL    HW214055   4.522   2.615   5.148
 4386SOL     OW14056   1.287   4.053   4.895
 4386SOL    HW114057   1.289   3.999   4.811
 4386SOL    HW214058   1.323   3.999   4.970
 4387SOL     OW14059   0.052   2.272   2.121
 4387SOL    HW114060   0.042   2.357   2.173
 4387SOL    HW214061   7.025   2.279   2.035
 4388SOL     OW14062   3.699   2.297   6.234
 4388SOL    HW114063   3.648   2.213   6.215
 4388SOL    HW214064   3.792   2.273   6.262
 4389SOL     OW14065   6.796   3.852   0.730
 4389SOL    HW114066   6.878   3.817   0.776
 4389SOL    HW214067   6.823   3.913   0.655
 4390SOL     OW14068   4.584   0.145   1.390
 4390SOL    HW114069   4.645   0.106   1.458
 4390SOL    HW214070   4.593   0.094   1.304
 4391SOL     OW14071   2.940   4.663   0.137
 4391SOL    HW114072   3.040   4.668   0.140
 4391SOL    HW214073   2.912   4.568   0.125
 4392SOL     OW14074   1.045   2.284   4.739
 4392SOL    HW114075   1.105   2.362   4.718
 4392SOL    HW214076   1.065   2.250   4.831
 4393SOL     OW14077   6.267   0.690   1.734
 4393SOL    HW114078   6.361   0.692   1.768
 4393SOL    HW214079   6.258   0.618   1.665
 4394SOL     OW14080   0.438   6.056   2.573
 4394SOL    HW114081   0.471   6.103   2.490
 4394SOL    HW214082   0.342   6.079   2.588
 4395SOL     OW14083   2.103   0.461   1.757
 4395SOL    HW114084   2.043   0.474   1.678
 4395SOL    HW214085   2.064   0.507   1.836
 4396SOL     OW14086   1.861   1.316   3.822
 4396SOL    HW114087   1.866   1.355   3.730
 4396SOL    HW214088   1.799   1.238   3.822
 4397SOL     OW14089   1.911   2.887   4.737
 4397SOL    HW114090   1.925   2.927   4.828
 4397SOL    HW214091   1.980   2.816   4.721
 4398SOL     OW14092   1.637   3.367   6.171
 4398SOL    HW114093   1.570   3.356   6.244
 4398SOL    HW214094   1.595   3.412   6.093
 4399SOL     OW14095   2.927   6.487   2.004
 4399SOL    HW114096   3.025   6.499   2.019
 4399SOL    HW214097   2.907   6.492   1.907
 4400SOL     OW14098   2.171   6.622   3.548
 4400SOL    HW114099   2.220   6.566   3.481
 4400SOL    HW214100   2.183   6.583   3.639
 4401SOL     OW14101   3.873   6.422   5.128
 4401SOL    HW114102   3.880   6.386   5.221
 4401SOL    HW214103   3.873   6.347   5.062
 4402SOL     OW14104   1.022   0.219   2.932
 4402SOL    HW114105   1.100   0.169   2.895
 4402SOL    HW214106   0.937   0.176   2.899
 4403SOL     OW14107   1.330   6.483   0.468
 4403SOL    HW114108   1.313   6.581   0.465
 4403SOL    HW214109   1.261   6.435   0.412
 4404SOL     OW14110   0.438   6.547   5.362
 4404SOL    HW114111   0.367   6.565   5.430
 4404SOL    HW214112   0.395   6.522   5.275
 4405SOL     OW14113   2.114   4.818   2.215
 4405SOL    HW114114   2.042   4.779   2.156
 4405SOL    HW214115   2.075   4.891   2.271
 4406SOL     OW14116   6.827   2.712   0.621
 4406SOL    HW114117   6.744   2.749   0.579
 4406SOL    HW214118   6.893   2.786   0.636
 4407SOL     OW14119   0.005   5.142   1.742
 4407SOL    HW114120   7.011   5.052   1.780
 4407SOL    HW214121   6.956   5.170   1.681
 4408SOL     OW14122   1.926   6.602   6.834
 4408SOL    HW114123   2.009   6.583   6.782
 4408SOL    HW214124   1.909   6.528   6.899
 4409SOL     OW14125   4.506   1.196   1.344
 4409SOL    HW114126   4.407   1.184   1.357
 4409SOL    HW214127   4.553   1.175   1.430
 4410SOL     OW14128   6.860   5.513   0.015
 4410SOL    HW114129   6.879   5.549   0.106
 4410SOL    HW214130   6.778   5.456   0.018
 4411SOL     OW14131   3.257   4.657   5.430
 4411SOL    HW114132   3.201   4.708   5.365
 4411SOL    HW214133   3.198   4.600   5.487
 4412SOL     OW14134   4.739   6.474   4.077
 4412SOL    HW114135   4.807   6.509   4.013
 4412SOL    HW214136   4.745   6.524   4.163
 4413SOL     OW14137   5.677   5.875   3.611
 4413SOL    HW114138   5.604   5.844   3.671
 4413SOL    HW214139   5.755   5.905   3.666
 4414SOL     OW14140   4.169   5.847   1.080
 4414SOL    HW114141   4.128   5.761   1.110
 4414SOL    HW214142   4.125   5.877   0.995
 4415SOL     OW14143   3.992   3.255   0.574
 4415SOL    HW114144   3.967   3.203   0.656
 4415SOL    HW214145   3.933   3.228   0.499
 4416SOL     OW14146   4.162   1.762   3.745
 4416SOL    HW114147   4.192   1.768   3.650
 4416SOL    HW214148   4.083   1.822   3.760
 4417SOL     OW14149   5.443   3.281   3.891
 4417SOL    HW114150   5.404   3.266   3.800
 4417SOL    HW214151   5.542   3.295   3.883
 4418SOL     OW14152   6.353   2.015   2.428
 4418SOL    HW114153   6.440   1.966   2.433
 4418SOL    HW214154   6.355   2.080   2.352
 4419SOL     OW14155   6.559   0.395   5.987
 4419SOL    HW114156   6.617   0.318   6.012
 4419SOL    HW214157   6.463   0.368   5.992
 4420SOL     OW14158   3.596   1.411   0.840
 4420SOL    HW114159   3.663   1.428   0.912
 4420SOL    HW214160   3.510   1.455   0.864
 4421SOL     OW14161   2.118   1.792   5.440
 4421SOL    HW114162   2.079   1.860   5.378
 4421SOL    HW214163   2.200   1.829   5.483
 4422SOL     OW14164   1.111   4.282   6.688
 4422SOL    HW114165   1.080   4.360   6.634
 4422SOL    HW214166   1.090   4.296   6.784
 4423SOL     OW14167   0.011   4.548   5.818
 4423SOL    HW114168   0.084   4.606   5.855
 4423SOL    HW214169   6.960   4.545   5.883
 4424SOL     OW14170   5.305   6.315   4.959
 4424SOL    HW114171   5.322   6.218   4.979
 4424SOL    HW214172   5.241   6.352   5.027
 4425SOL     OW14173   1.461   5.176   1.147
 4425SOL    HW114174   1.491   5.201   1.055
 4425SOL    HW214175   1.541   5.160   1.205
 4426SOL     OW14176   0.445   1.488   3.763
 4426SOL    HW114177   0.527   1.526   3.807
 4426SOL    HW214178   0.394   1.433   3.830
 4427SOL     OW14179   4.363   5.916   2.735
 4427SOL    HW114180   4.395   6.009   2.718
 4427SOL    HW214181   4.441   5.857   2.757
 4428SOL     OW14182   4.159   0.710   4.245
 4428SOL    HW114183   4.241   0.755   4.281
 4428SOL    HW214184   4.086   0.714   4.313
 4429SOL     OW14185   2.763   6.462   2.751
 4429SOL    HW114186   2.740   6.559   2.741
 4429SOL    HW214187   2.849   6.444   2.704
 4430SOL     OW14188   4.982   4.766   4.793
 4430SOL    HW114189   5.061   4.705   4.802
 4430SOL    HW214190   4.898   4.712   4.785
 4431SOL     OW14191   2.744   1.084   3.105
 4431SOL    HW114192   2.682   1.026   3.052
 4431SOL    HW214193   2.819   1.028   3.142
 4432SOL     OW14194   2.471   3.719   6.851
 4432SOL    HW114195   2.425   3.649   6.905
 4432SOL    HW214196   2.403   3.771   6.798
 4433SOL     OW14197   0.082   2.634   4.558
 4433SOL    HW114198   0.174   2.650   4.595
 4433SOL    HW214199   0.044   2.551   4.598
 4434SOL     OW14200   5.493   1.761   3.197
 4434SOL    HW114201   5.569   1.807   3.244
 4434SOL    HW214202   5.445   1.827   3.140
 4435SOL     OW14203   3.840   4.273   1.418
 4435SOL    HW114204   3.917   4.208   1.422
 4435SOL    HW214205   3.824   4.311   1.508
 4436SOL     OW14206   3.926   1.332   1.241
 4436SOL    HW114207   3.903   1.259   1.176
 4436SOL    HW214208   3.864   1.327   1.319
 4437SOL     OW14209   0.638   3.345   2.665
 4437SOL    HW114210   0.608   3.434   2.631
 4437SOL    HW214211   0.589   3.324   2.750
 4438SOL     OW14212   5.280   6.911   5.918
 4438SOL    HW114213   5.264   6.820   5.956
 4438SOL    HW214214   5.360   6.952   5.962
 4439SOL     OW14215   0.497   4.943   2.466
 4439SOL    HW114216   0.546   4.911   2.547
 4439SOL    HW214217   0.453   4.865   2.422
 4440SOL     OW14218   2.376   5.053   0.711
 4440SOL    HW114219   2.372   4.954   0.696
 4440SOL    HW214220   2.417   5.097   0.632
 4441SOL     OW14221   6.767   1.031   1.024
 4441SOL    HW114222   6.807   0.971   1.094
 4441SOL    HW214223   6.680   1.067   1.057
 4442SOL     OW14224   1.495   5.473   5.070
 4442SOL    HW114225   1.470   5.538   5.141
 4442SOL    HW214226   1.595   5.460   5.071
 4443SOL     OW14227   0.885   4.136   5.871
 4443SOL    HW114228   0.879   4.230   5.838
 4443SOL    HW214229   0.980   4.110   5.883
 4444SOL     OW14230   4.516   3.626   0.181
 4444SOL    HW114231   4.611   3.635   0.151
 4444SOL    HW214232   4.474   3.716   0.188
 4445SOL     OW14233   1.422   5.985   0.267
 4445SOL    HW114234   1.363   5.931   0.208
 4445SOL    HW214235   1.445   6.072   0.222
 4446SOL     OW14236   5.435   1.689   0.328
 4446SOL    HW114237   5.345   1.654   0.305
 4446SOL    HW214238   5.428   1.755   0.403
 4447SOL     OW14239   5.716   3.945   4.663
 4447SOL    HW114240   5.741   3.848   4.665
 4447SOL    HW214241   5.712   3.976   4.568
 4448SOL     OW14242   3.117   6.676   1.379
 4448SOL    HW114243   3.098   6.581   1.351
 4448SOL    HW214244   3.216   6.692   1.375
 4449SOL     OW14245   4.828   1.085   5.998
 4449SOL    HW114246   4.857   1.170   6.043
 4449SOL    HW214247   4.847   1.007   6.058
 4450SOL     OW14248   3.197   1.297   0.003
 4450SOL    HW114249   3.201   1.200   7.005
 4450SOL    HW214250   3.122   1.341   6.978
 4451SOL     OW14251   4.576   5.281   4.557
 4451SOL    HW114252   4.558   5.204   4.496
 4451SOL    HW214253   4.674   5.303   4.554
 4452SOL     OW14254   6.451   5.215   4.653
 4452SOL    HW114255   6.391   5.136   4.640
 4452SOL    HW214256   6.533   5.205   4.597
 4453SOL     OW14257   1.292   2.670   1.769
 4453SOL    HW114258   1.359   2.610   1.726
 4453SOL    HW214259   1.255   2.734   1.702
 4454SOL     OW14260   1.429   1.701   0.111
 4454SOL    HW114261   1.412   1.607   0.080
 4454SOL    HW214262   1.447   1.759   0.031
 4455SOL     OW14263   5.389   5.725   5.470
 4455SOL    HW114264   5.297   5.762   5.454
 4455SOL    HW214265   5.382   5.635   5.513
 4456SOL     OW14266   2.130   5.649   3.407
 4456SOL    HW114267   2.042   5.613   3.377
 4456SOL    HW214268   2.166   5.592   3.481
 4457SOL     OW14269   2.211   1.726   3.907
 4457SOL    HW114270   2.241   1.731   4.002
 4457SOL    HW214271   2.187   1.632   3.885
 4458SOL     OW14272   2.756   3.828   1.714
 4458SOL    HW114273   2.663   3.860   1.701
 4458SOL    HW214274   2.755   3.740   1.761
 4459SOL     OW14275   3.308   1.491   4.097
 4459SOL    HW114276   3.238   1.424   4.122
 4459SOL    HW214277   3.324   1.553   4.174
 4460SOL     OW14278   1.310   2.679   6.509
 4460SOL    HW114279   1.223   2.713   6.546
 4460SOL    HW214280   1.344   2.743   6.441
 4461SOL     OW14281   1.828   0.871   0.727
 4461SOL    HW114282   1.845   0.780   0.691
 4461SOL    HW214283   1.896   0.892   0.798
 4462SOL     OW14284   6.148   4.517   2.054
 4462SOL    HW114285   6.114   4.450   1.989
 4462SOL    HW214286   6.167   4.473   2.141
 4463SOL     OW14287   5.135   1.189   1.545
 4463SOL    HW114288   5.106   1.126   1.617
 4463SOL    HW214289   5.137   1.282   1.581
 4464SOL     OW14290   0.506   6.119   0.055
 4464SOL    HW114291   0.502   6.059   0.136
 4464SOL    HW214292   0.415   6.127   0.015
 4465SOL     OW14293   2.611   5.134   6.897
 4465SOL    HW114294   2.537   5.198   6.920
 4465SOL    HW214295   2.664   5.115   6.979
 4466SOL     OW14296   1.204   2.085   2.509
 4466SOL    HW114297   1.275   2.069   2.577
 4466SOL    HW214298   1.133   2.144   2.548
 4467SOL     OW14299   2.558   5.177   3.616
 4467SOL    HW114300   2.608   5.153   3.533
 4467SOL    HW214301   2.617   5.163   3.696
 4468SOL     OW14302   0.961   4.509   1.209
 4468SOL    HW114303   0.922   4.577   1.147
 4468SOL    HW214304   1.018   4.445   1.157
 4469SOL     OW14305   2.883   1.023   1.578
 4469SOL    HW114306   2.793   0.981   1.572
 4469SOL    HW214307   2.952   0.951   1.590
 4470SOL     OW14308   0.905   1.553   2.008
 4470SOL    HW114309   0.826   1.601   2.045
 4470SOL    HW214310   0.889   1.454   2.013
 4471SOL     OW14311   1.769   2.565   6.837
 4471SOL    HW114312   1.863   2.544   6.810
 4471SOL    HW214313   1.763   2.567   6.937
 4472SOL     OW14314   0.506   1.620   0.468
 4472SOL    HW114315   0.444   1.686   0.512
 4472SOL    HW214316   0.486   1.617   0.370
 4473SOL     OW14317   5.023   2.656   3.991
 4473SOL    HW114318   5.101   2.627   4.046
 4473SOL    HW214319   5.043   2.744   3.948
 4474SOL     OW14320   2.898   6.695   2.358
 4474SOL    HW114321   2.869   6.763   2.290
 4474SOL    HW214322   2.830   6.622   2.362
 4475SOL     OW14323   1.255   3.685   1.376
 4475SOL    HW114324   1.188   3.654   1.443
 4475SOL    HW214325   1.328   3.617   1.367
 4476SOL     OW14326   6.180   0.717   4.494
 4476SOL    HW114327   6.274   0.724   4.524
 4476SOL    HW214328   6.134   0.805   4.509
 4477SOL     OW14329   1.755   0.319   4.999
 4477SOL    HW114330   1.834   0.266   5.027
 4477SOL    HW214331   1.676   0.259   4.988
 4478SOL     OW14332   1.234   0.478   1.864
 4478SOL    HW114333   1.331   0.457   1.877
 4478SOL    HW214334   1.183   0.447   1.944
 4479SOL     OW14335   1.538   1.760   1.045
 4479SOL    HW114336   1.491   1.673   1.063
 4479SOL    HW214337   1.501   1.830   1.106
 4480SOL     OW14338   0.686   4.587   5.318
 4480SOL    HW114339   0.707   4.643   5.238
 4480SOL    HW214340   0.730   4.627   5.399
 4481SOL     OW14341   2.353   5.274   5.092
 4481SOL    HW114342   2.389   5.329   5.016
 4481SOL    HW214343   2.429   5.243   5.149
 4482SOL     OW14344   2.318   2.672   5.792
 4482SOL    HW114345   2.368   2.737   5.735
 4482SOL    HW214346   2.268   2.608   5.734
 4483SOL     OW14347   0.316   2.638   2.177
 4483SOL    HW114348   0.272   2.713   2.227
 4483SOL    HW214349   0.415   2.652   2.178
 4484SOL     OW14350   2.556   2.789   7.011
 4484SOL    HW114351   2.602   2.861   6.958
 4484SOL    HW214352   2.511   2.830   0.065
 4485SOL     OW14353   4.716   2.843   5.241
 4485SOL    HW114354   4.709   2.859   5.143
 4485SOL    HW214355   4.714   2.931   5.289
 4486SOL     OW14356   5.867   4.982   4.941
 4486SOL    HW114357   5.768   4.971   4.936
 4486SOL    HW214358   5.898   4.959   5.033
 4487SOL     OW14359   2.629   3.015   0.414
 4487SOL    HW114360   2.707   2.963   0.379
 4487SOL    HW214361   2.661   3.080   0.483
 4488SOL     OW14362   0.699   3.662   4.747
 4488SOL    HW114363   0.782   3.716   4.760
 4488SOL    HW214364   0.722   3.578   4.697
 4489SOL     OW14365   4.772   5.366   4.911
 4489SOL    HW114366   4.721   5.405   4.987
 4489SOL    HW214367   4.806   5.439   4.852
 4490SOL     OW14368   4.852   1.896   1.812
 4490SOL    HW114369   4.899   1.884   1.899
 4490SOL    HW214370   4.781   1.966   1.821
 4491SOL     OW14371   0.697   3.204   3.461
 4491SOL    HW114372   0.721   3.274   3.529
 4491SOL    HW214373   0.776   3.185   3.403
 4492SOL     OW14374   5.933   2.883   1.871
 4492SOL    HW114375   5.845   2.854   1.908
 4492SOL    HW214376   5.918   2.940   1.790
 4493SOL     OW14377   5.593   6.722   4.843
 4493SOL    HW114378   5.533   6.642   4.843
 4493SOL    HW214379   5.640   6.728   4.931
 4494SOL     OW14380   1.297   0.626   5.848
 4494SOL    HW114381   1.252   0.715   5.839
 4494SOL    HW214382   1.396   0.640   5.855
 4495SOL     OW14383   4.270   0.413   3.058
 4495SOL    HW114384   4.294   0.337   2.998
 4495SOL    HW214385   4.229   0.487   3.004
 4496SOL     OW14386   5.576   5.935   0.639
 4496SOL    HW114387   5.613   6.011   0.693
 4496SOL    HW214388   5.512   5.970   0.571
 4497SOL     OW14389   3.940   2.631   6.632
 4497SOL    HW114390   3.963   2.726   6.651
 4497SOL    HW214391   3.961   2.610   6.537
 4498SOL     OW14392   6.669   4.733   6.502
 4498SOL    HW114393   6.596   4.682   6.548
 4498SOL    HW214394   6.687   4.818   6.552
 4499SOL     OW14395   6.176   2.271   3.613
 4499SOL    HW114396   6.200   2.319   3.528
 4499SOL    HW214397   6.160   2.338   3.685
 4500SOL     OW14398   3.816   4.447   6.311
 4500SOL    HW114399   3.793   4.544   6.315
 4500SOL    HW214400   3.876   4.424   6.388
 4501SOL     OW14401   6.208   2.789   2.911
 4501SOL    HW114402   6.132   2.776   2.975
 4501SOL    HW214403   6.258   2.872   2.937
 4502SOL     OW14404   1.255   3.827   6.904
 4502SOL    HW114405   1.290   3.797   6.816
 4502SOL    HW214406   1.327   3.819   6.973
 4503SOL     OW14407   3.004   0.126   2.231
 4503SOL    HW114408   2.981   0.105   2.136
 4503SOL    HW214409   2.931   0.095   2.291
 4504SOL     OW14410   6.173   2.337   4.387
 4504SOL    HW114411   6.130   2.250   4.409
 4504SOL    HW214412   6.102   2.407   4.375
 4505SOL     OW14413   6.390   4.520   1.529
 4505SOL    HW114414   6.438   4.432   1.520
 4505SOL    HW214415   6.457   4.594   1.531
 4506SOL     OW14416   5.234   2.373   3.459
 4506SOL    HW114417   5.308   2.362   3.525
 4506SOL    HW214418   5.261   2.441   3.390
 4507SOL     OW14419   0.425   3.295   3.585
 4507SOL    HW114420   0.467   3.250   3.665
 4507SOL    HW214421   0.387   3.225   3.524
 4508SOL     OW14422   1.403   4.819   0.047
 4508SOL    HW114423   1.500   4.838   0.033
 4508SOL    HW214424   1.348   4.883   7.019
 4509SOL     OW14425   4.789   2.051   3.098
 4509SOL    HW114426   4.750   2.053   3.190
 4509SOL    HW214427   4.777   2.140   3.054
 4510SOL     OW14428   4.525   1.250   4.305
 4510SOL    HW114429   4.523   1.192   4.386
 4510SOL    HW214430   4.619   1.260   4.273
 4511SOL     OW14431   5.961   3.446   0.122
 4511SOL    HW114432   6.045   3.395   0.103
 4511SOL    HW214433   5.896   3.386   0.170
 4512SOL     OW14434   3.327   1.874   5.842
 4512SOL    HW114435   3.323   1.823   5.928
 4512SOL    HW214436   3.421   1.903   5.824
 4513SOL     OW14437   0.896   6.301   6.394
 4513SOL    HW114438   0.825   6.334   6.457
 4513SOL    HW214439   0.910   6.203   6.409
 4514SOL     OW14440   3.527   2.750   6.564
 4514SOL    HW114441   3.556   2.659   6.532
 4514SOL    HW214442   3.604   2.813   6.559
 4515SOL     OW14443   5.603   1.841   4.710
 4515SOL    HW114444   5.671   1.873   4.775
 4515SOL    HW214445   5.595   1.742   4.716
 4516SOL     OW14446   2.437   0.412   5.531
 4516SOL    HW114447   2.408   0.443   5.440
 4516SOL    HW214448   2.455   0.492   5.589
 4517SOL     OW14449   4.442   6.692   6.485
 4517SOL    HW114450   4.493   6.636   6.550
 4517SOL    HW214451   4.350   6.710   6.522
 4518SOL     OW14452   0.621   6.827   1.452
 4518SOL    HW114453   0.586   6.857   1.541
 4518SOL    HW214454   0.684   6.751   1.466
 4519SOL     OW14455   5.038   6.558   7.003
 4519SOL    HW114456   5.015   6.466   0.009
 4519SOL    HW214457   4.979   6.625   0.023
 4520SOL     OW14458   4.529   5.736   5.430
 4520SOL    HW114459   4.445   5.790   5.428
 4520SOL    HW214460   4.514   5.652   5.482
 4521SOL     OW14461   4.836   2.311   4.962
 4521SOL    HW114462   4.834   2.402   5.004
 4521SOL    HW214463   4.922   2.300   4.912
 4522SOL     OW14464   5.800   3.998   2.574
 4522SOL    HW114465   5.751   4.081   2.601
 4522SOL    HW214466   5.735   3.927   2.548
 4523SOL     OW14467   1.691   3.805   6.925
 4523SOL    HW114468   1.651   3.714   6.935
 4523SOL    HW214469   1.667   3.843   6.836
 4524SOL     OW14470   6.473   3.528   2.401
 4524SOL    HW114471   6.501   3.433   2.383
 4524SOL    HW214472   6.375   3.537   2.383
 4525SOL     OW14473   3.128   2.050   5.726
 4525SOL    HW114474   3.118   1.952   5.705
 4525SOL    HW214475   3.210   2.064   5.781
 4526SOL     OW14476   7.013   0.874   6.961
 4526SOL    HW114477   6.974   0.784   6.945
 4526SOL    HW214478   0.052   0.870   0.013
 4527SOL     OW14479   6.511   0.073   3.162
 4527SOL    HW114480   6.546   0.156   3.119
 4527SOL    HW214481   6.579   0.001   3.155
 4528SOL     OW14482   4.554   0.830   6.301
 4528SOL    HW114483   4.546   0.739   6.262
 4528SOL    HW214484   4.562   0.823   6.401
 4529SOL     OW14485   3.093   1.234   5.727
 4529SOL    HW114486   3.162   1.273   5.787
 4529SOL    HW214487   3.007   1.222   5.777
 4530SOL     OW14488   2.382   5.172   3.872
 4530SOL    HW114489   2.423   5.236   3.808
 4530SOL    HW214490   2.283   5.189   3.878
 4531SOL     OW14491   1.444   3.801   6.095
 4531SOL    HW114492   1.452   3.757   6.006
 4531SOL    HW214493   1.354   3.781   6.134
 4532SOL     OW14494   5.189   0.484   3.287
 4532SOL    HW114495   5.245   0.540   3.226
 4532SOL    HW214496   5.227   0.391   3.290
 4533SOL     OW14497   1.584   1.440   2.938
 4533SOL    HW114498   1.586   1.485   3.027
 4533SOL    HW214499   1.657   1.372   2.933
 4534SOL     OW14500   4.374   2.202   5.302
 4534SOL    HW114501   4.434   2.186   5.224
 4534SOL    HW214502   4.378   2.122   5.363
 4535SOL     OW14503   3.392   0.950   1.365
 4535SOL    HW114504   3.451   0.918   1.291
 4535SOL    HW214505   3.448   0.994   1.435
 4536SOL     OW14506   3.282   1.601   5.100
 4536SOL    HW114507   3.287   1.700   5.113
 4536SOL    HW214508   3.245   1.558   5.183
 4537SOL     OW14509   4.128   3.645   2.348
 4537SOL    HW114510   4.175   3.703   2.414
 4537SOL    HW214511   4.124   3.691   2.260
 4538SOL     OW14512   2.312   1.554   2.332
 4538SOL    HW114513   2.409   1.540   2.310
 4538SOL    HW214514   2.300   1.647   2.368
 4539SOL     OW14515   2.167   5.192   4.335
 4539SOL    HW114516   2.199   5.113   4.387
 4539SOL    HW214517   2.244   5.234   4.287
 4540SOL     OW14518   1.723   1.372   0.762
 4540SOL    HW114519   1.769   1.353   0.849
 4540SOL    HW214520   1.791   1.400   0.694
 4541SOL     OW14521   4.621   1.271   0.017
 4541SOL    HW114522   4.682   1.209   0.067
 4541SOL    HW214523   4.526   1.251   0.040
 4542SOL     OW14524   0.055   1.938   1.419
 4542SOL    HW114525   6.990   1.952   1.377
 4542SOL    HW214526   0.099   1.858   1.378
 4543SOL     OW14527   4.483   1.973   0.823
 4543SOL    HW114528   4.565   1.962   0.767
 4543SOL    HW214529   4.457   2.069   0.826
 4544SOL     OW14530   4.188   4.661   0.903
 4544SOL    HW114531   4.130   4.737   0.874
 4544SOL    HW214532   4.150   4.620   0.986
 4545SOL     OW14533   0.368   3.538   5.567
 4545SOL    HW114534   0.362   3.635   5.593
 4545SOL    HW214535   0.351   3.481   5.647
 4546SOL     OW14536   2.806   6.897   5.175
 4546SOL    HW114537   2.738   6.935   5.238
 4546SOL    HW214538   2.881   6.963   5.163
 4547SOL     OW14539   6.357   0.710   0.132
 4547SOL    HW114540   6.357   0.806   0.161
 4547SOL    HW214541   6.308   0.700   0.046
 4548SOL     OW14542   2.443   2.135   3.337
 4548SOL    HW114543   2.483   2.227   3.327
 4548SOL    HW214544   2.366   2.139   3.401
 4549SOL     OW14545   4.968   4.154   1.935
 4549SOL    HW114546   4.885   4.175   1.884
 4549SOL    HW214547   5.007   4.067   1.903
 4550SOL     OW14548   1.261   4.258   3.621
 4550SOL    HW114549   1.264   4.245   3.522
 4550SOL    HW214550   1.166   4.268   3.650
 4551SOL     OW14551   0.486   3.677   5.336
 4551SOL    HW114552   0.525   3.764   5.307
 4551SOL    HW214553   0.411   3.693   5.400
 4552SOL     OW14554   6.036   2.114   1.582
 4552SOL    HW114555   6.026   2.087   1.486
 4552SOL    HW214556   6.119   2.073   1.620
 4553SOL     OW14557   5.107   4.440   6.539
 4553SOL    HW114558   5.030   4.444   6.475
 4553SOL    HW214559   5.182   4.390   6.496
 4554SOL     OW14560   0.244   0.333   1.397
 4554SOL    HW114561   0.227   0.236   1.417
 4554SOL    HW214562   0.179   0.389   1.449
 4555SOL     OW14563   1.514   1.305   6.611
 4555SOL    HW114564   1.428   1.277   6.569
 4555SOL    HW214565   1.508   1.291   6.710
 4556SOL     OW14566   5.864   3.129   5.435
 4556SOL    HW114567   5.809   3.052   5.469
 4556SOL    HW214568   5.814   3.175   5.362
 4557SOL     OW14569   6.145   4.913   4.539
 4557SOL    HW114570   6.107   4.848   4.605
 4557SOL    HW214571   6.073   4.937   4.473
 4558SOL     OW14572   6.741   3.332   5.304
 4558SOL    HW114573   6.757   3.234   5.297
 4558SOL    HW214574   6.806   3.381   5.247
 4559SOL     OW14575   0.396   3.549   2.734
 4559SOL    HW114576   0.299   3.571   2.730
 4559SOL    HW214577   0.439   3.567   2.646
 4560SOL     OW14578   6.300   4.503   2.385
 4560SOL    HW114579   6.323   4.598   2.407
 4560SOL    HW214580   6.337   4.444   2.457
 4561SOL     OW14581   3.719   1.656   3.671
 4561SOL    HW114582   3.668   1.680   3.588
 4561SOL    HW214583   3.790   1.725   3.688
 4562SOL     OW14584   1.591   6.744   0.376
 4562SOL    HW114585   1.571   6.664   0.319
 4562SOL    HW214586   1.689   6.761   0.376
 4563SOL     OW14587   6.266   3.264   0.900
 4563SOL    HW114588   6.216   3.315   0.970
 4563SOL    HW214589   6.338   3.211   0.943
 4564SOL     OW14590   0.086   4.801   2.220
 4564SOL    HW114591   0.179   4.765   2.223
 4564SOL    HW214592   0.025   4.732   2.182
 4565SOL     OW14593   1.761   1.252   4.489
 4565SOL    HW114594   1.715   1.254   4.578
 4565SOL    HW214595   1.763   1.344   4.451
 4566SOL     OW14596   0.376   3.198   0.779
 4566SOL    HW114597   0.325   3.270   0.732
 4566SOL    HW214598   0.461   3.237   0.816
 4567SOL     OW14599   0.118   0.528   6.963
 4567SOL    HW114600   0.126   0.552   0.035
 4567SOL    HW214601   0.024   0.542   6.933
 4568SOL     OW14602   1.262   4.378   5.116
 4568SOL    HW114603   1.325   4.346   5.046
 4568SOL    HW214604   1.258   4.478   5.114
 4569SOL     OW14605   2.846   0.609   2.813
 4569SOL    HW114606   2.912   0.558   2.867
 4569SOL    HW214607   2.824   0.557   2.730
 4570SOL     OW14608   6.507   6.703   2.292
 4570SOL    HW114609   6.458   6.623   2.325
 4570SOL    HW214610   6.591   6.715   2.346
 4571SOL     OW14611   4.020   3.242   6.539
 4571SOL    HW114612   4.088   3.307   6.574
 4571SOL    HW214613   4.033   3.153   6.584
 4572SOL     OW14614   1.819   1.817   6.389
 4572SOL    HW114615   1.794   1.796   6.483
 4572SOL    HW214616   1.738   1.810   6.330
 4573SOL     OW14617   0.808   6.904   0.380
 4573SOL    HW114618   0.864   6.909   0.297
 4573SOL    HW214619   0.745   6.827   0.373
 4574SOL     OW14620   5.957   4.449   6.925
 4574SOL    HW114621   5.977   4.499   7.009
 4574SOL    HW214622   5.941   4.514   6.850
 4575SOL     OW14623   5.872   0.722   4.469
 4575SOL    HW114624   5.899   0.757   4.379
 4575SOL    HW214625   5.847   0.625   4.461
 4576SOL     OW14626   2.547   4.638   5.524
 4576SOL    HW114627   2.614   4.623   5.452
 4576SOL    HW214628   2.539   4.556   5.581
 4577SOL     OW14629   1.435   2.609   3.210
 4577SOL    HW114630   1.521   2.630   3.258
 4577SOL    HW214631   1.358   2.635   3.267
 4578SOL     OW14632   0.790   1.267   4.433
 4578SOL    HW114633   0.886   1.282   4.459
 4578SOL    HW214634   0.759   1.344   4.378
 4579SOL     OW14635   4.719   1.189   2.182
 4579SOL    HW114636   4.653   1.196   2.257
 4579SOL    HW214637   4.735   1.093   2.161
 4580SOL     OW14638   5.510   4.118   1.247
 4580SOL    HW114639   5.542   4.080   1.160
 4580SOL    HW214640   5.415   4.147   1.237
 4581SOL     OW14641   2.536   6.083   2.172
 4581SOL    HW114642   2.453   6.137   2.184
 4581SOL    HW214643   2.598   6.130   2.109
 4582SOL     OW14644   4.551   0.920   3.434
 4582SOL    HW114645   4.576   0.964   3.521
 4582SOL    HW214646   4.458   0.886   3.440
 4583SOL     OW14647   2.802   1.379   6.357
 4583SOL    HW114648   2.837   1.286   6.348
 4583SOL    HW214649   2.878   1.444   6.356
 4584SOL     OW14650   1.944   6.209   5.678
 4584SOL    HW114651   1.982   6.296   5.649
 4584SOL    HW214652   2.012   6.137   5.666
 4585SOL     OW14653   1.534   4.060   3.493
 4585SOL    HW114654   1.443   4.094   3.472
 4585SOL    HW214655   1.603   4.119   3.449
 4586SOL     OW14656   5.490   3.952   0.495
 4586SOL    HW114657   5.497   3.901   0.580
 4586SOL    HW214658   5.493   3.889   0.418
 4587SOL     OW14659   3.746   3.232   4.270
 4587SOL    HW114660   3.775   3.306   4.209
 4587SOL    HW214661   3.824   3.171   4.287
 4588SOL     OW14662   3.384   3.280   5.830
 4588SOL    HW114663   3.407   3.290   5.734
 4588SOL    HW214664   3.315   3.208   5.841
 4589SOL     OW14665   5.475   6.548   1.966
 4589SOL    HW114666   5.572   6.564   1.985
 4589SOL    HW214667   5.420   6.590   2.038
 4590SOL     OW14668   3.697   6.032   1.865
 4590SOL    HW114669   3.787   6.003   1.833
 4590SOL    HW214670   3.704   6.123   1.905
 4591SOL     OW14671   1.682   0.809   4.564
 4591SOL    HW114672   1.601   0.837   4.617
 4591SOL    HW214673   1.751   0.774   4.627
 4592SOL     OW14674   2.939   1.927   3.665
 4592SOL    HW114675   2.934   2.024   3.685
 4592SOL    HW214676   2.896   1.875   3.739
 4593SOL     OW14677   6.217   5.879   2.505
 4593SOL    HW114678   6.231   5.913   2.598
 4593SOL    HW214679   6.278   5.801   2.489
 4594SOL     OW14680   3.231   0.522   3.118
 4594SOL    HW114681   3.144   0.497   3.075
 4594SOL    HW214682   3.218   0.530   3.216
 4595SOL     OW14683   4.479   2.631   5.837
 4595SOL    HW114684   4.502   2.618   5.934
 4595SOL    HW214685   4.561   2.654   5.785
 4596SOL     OW14686   6.637   0.564   2.441
 4596SOL    HW114687   6.673   0.654   2.465
 4596SOL    HW214688   6.641   0.504   2.521
 4597SOL     OW14689   2.700   5.522   6.466
 4597SOL    HW114690   2.635   5.595   6.490
 4597SOL    HW214691   2.676   5.439   6.516
 4598SOL     OW14692   1.993   5.538   1.288
 4598SOL    HW114693   2.010   5.636   1.279
 4598SOL    HW214694   1.904   5.515   1.248
 4599SOL     OW14695   1.797   4.097   2.141
 4599SOL    HW114696   1.877   4.048   2.107
 4599SOL    HW214697   1.807   4.114   2.239
 4600SOL     OW14698   0.377   0.252   5.482
 4600SOL    HW114699   0.375   0.179   5.550
 4600SOL    HW214700   0.463   0.303   5.491
 4601SOL     OW14701   0.951   1.702   5.518
 4601SOL    HW114702   0.900   1.770   5.570
 4601SOL    HW214703   0.887   1.649   5.461
 4602SOL     OW14704   3.028   7.015   6.393
 4602SOL    HW114705   3.057   0.086   6.392
 4602SOL    HW214706   2.941   7.007   6.441
 4603SOL     OW14707   3.241   5.816   0.687
 4603SOL    HW114708   3.160   5.761   0.667
 4603SOL    HW214709   3.232   5.906   0.643
 4604SOL     OW14710   5.121   0.173   6.045
 4604SOL    HW114711   5.159   0.177   6.137
 4604SOL    HW214712   5.155   0.091   5.998
 4605SOL     OW14713   2.351   0.370   1.872
 4605SOL    HW114714   2.301   0.298   1.921
 4605SOL    HW214715   2.289   0.417   1.808
 4606SOL     OW14716   6.380   0.078   2.601
 4606SOL    HW114717   6.317   0.087   2.678
 4606SOL    HW214718   6.340   0.016   2.533
 4607SOL     OW14719   2.147   3.650   3.477
 4607SOL    HW114720   2.231   3.701   3.461
 4607SOL    HW214721   2.081   3.673   3.405
 4608SOL     OW14722   0.478   3.707   3.329
 4608SOL    HW114723   0.468   3.695   3.230
 4608SOL    HW214724   0.499   3.619   3.371
 4609SOL     OW14725   4.872   5.177   6.833
 4609SOL    HW114726   4.898   5.244   6.902
 4609SOL    HW214727   4.885   5.215   6.742
 4610SOL     OW14728   4.956   1.868   6.863
 4610SOL    HW114729   4.932   1.963   6.842
 4610SOL    HW214730   4.940   1.812   6.782
 4611SOL     OW14731   0.739   1.065   6.121
 4611SOL    HW114732   0.688   0.990   6.163
 4611SOL    HW214733   0.780   1.033   6.035
 4612SOL     OW14734   2.628   6.966   2.223
 4612SOL    HW114735   2.686   6.890   2.194
 4612SOL    HW214736   2.667   7.009   2.304
 4613SOL     OW14737   1.318   5.736   2.681
 4613SOL    HW114738   1.263   5.664   2.638
 4613SOL    HW214739   1.396   5.758   2.621
 4614SOL     OW14740   6.229   3.428   3.752
 4614SOL    HW114741   6.244   3.526   3.755
 4614SOL    HW214742   6.289   3.388   3.682
 4615SOL     OW14743   1.192   0.872   1.441
 4615SOL    HW114744   1.238   0.807   1.381
 4615SOL    HW214745   1.242   0.879   1.527
 4616SOL     OW14746   6.140   3.058   3.978
 4616SOL    HW114747   6.123   3.005   4.061
 4616SOL    HW214748   6.153   2.996   3.900
 4617SOL     OW14749   1.844   2.294   2.021
 4617SOL    HW114750   1.786   2.354   2.077
 4617SOL    HW214751   1.903   2.240   2.081
 4618SOL     OW14752   2.477   3.132   5.703
 4618SOL    HW114753   2.439   3.224   5.690
 4618SOL    HW214754   2.549   3.136   5.773
 4619SOL     OW14755   3.749   6.702   3.808
 4619SOL    HW114756   3.694   6.653   3.876
 4619SOL    HW214757   3.754   6.649   3.724
 4620SOL     OW14758   0.501   4.912   1.381
 4620SOL    HW114759   0.550   4.953   1.458
 4620SOL    HW214760   0.522   4.963   1.297
 4621SOL     OW14761   5.260   0.854   2.503
 4621SOL    HW114762   5.328   0.912   2.546
 4621SOL    HW214763   5.299   0.812   2.421
 4622SOL     OW14764   4.222   5.100   1.271
 4622SOL    HW114765   4.214   5.022   1.209
 4622SOL    HW214766   4.252   5.068   1.361
 4623SOL     OW14767   3.468   5.384   0.664
 4623SOL    HW114768   3.506   5.389   0.572
 4623SOL    HW214769   3.534   5.422   0.730
 4624SOL     OW14770   3.313   1.343   3.295
 4624SOL    HW114771   3.346   1.285   3.369
 4624SOL    HW214772   3.225   1.309   3.263
 4625SOL     OW14773   2.172   5.589   1.876
 4625SOL    HW114774   2.182   5.491   1.896
 4625SOL    HW214775   2.155   5.638   1.961
 4626SOL     OW14776   4.587   4.560   1.167
 4626SOL    HW114777   4.511   4.499   1.190
 4626SOL    HW214778   4.637   4.523   1.089
 4627SOL     OW14779   0.705   5.792   4.993
 4627SOL    HW114780   0.615   5.828   4.970
 4627SOL    HW214781   0.695   5.705   5.042
 4628SOL     OW14782   4.921   4.309   4.256
 4628SOL    HW114783   4.948   4.405   4.248
 4628SOL    HW214784   4.999   4.251   4.235
 4629SOL     OW14785   2.487   4.943   6.284
 4629SOL    HW114786   2.508   5.040   6.277
 4629SOL    HW214787   2.394   4.931   6.321
 4630SOL     OW14788   2.233   5.144   2.402
 4630SOL    HW114789   2.286   5.228   2.416
 4630SOL    HW214790   2.245   5.084   2.482
 4631SOL     OW14791   0.783   6.944   3.811
 4631SOL    HW114792   0.752   6.875   3.876
 4631SOL    HW214793   0.862   6.909   3.761
 4632SOL     OW14794   2.259   5.108   2.969
 4632SOL    HW114795   2.306   5.184   2.923
 4632SOL    HW214796   2.218   5.141   3.054
 4633SOL     OW14797   4.926   1.105   5.103
 4633SOL    HW114798   4.879   1.024   5.068
 4633SOL    HW214799   5.018   1.109   5.066
 4634SOL     OW14800   2.912   3.783   4.827
 4634SOL    HW114801   2.857   3.815   4.904
 4634SOL    HW214802   2.969   3.706   4.856
 4635SOL     OW14803   4.297   4.248   1.386
 4635SOL    HW114804   4.211   4.251   1.436
 4635SOL    HW214805   4.370   4.214   1.446
 4636SOL     OW14806   1.793   4.930   0.887
 4636SOL    HW114807   1.810   4.835   0.862
 4636SOL    HW214808   1.697   4.952   0.871
 4637SOL     OW14809   1.099   6.558   0.266
 4637SOL    HW114810   1.188   6.595   0.242
 4637SOL    HW214811   1.029   6.627   0.252
 4638SOL     OW14812   3.813   5.384   6.626
 4638SOL    HW114813   3.718   5.384   6.657
 4638SOL    HW214814   3.859   5.466   6.662
 4639SOL     OW14815   2.573   2.488   6.340
 4639SOL    HW114816   2.478   2.459   6.338
 4639SOL    HW214817   2.614   2.477   6.250
 4640SOL     OW14818   6.394   3.171   4.025
 4640SOL    HW114819   6.443   3.101   4.077
 4640SOL    HW214820   6.313   3.130   3.983
 4641SOL     OW14821   2.005   0.040   3.467
 4641SOL    HW114822   2.000   0.052   3.368
 4641SOL    HW214823   1.934   0.094   3.511
 4642SOL     OW14824   1.702   0.382   3.335
 4642SOL    HW114825   1.768   0.324   3.383
 4642SOL    HW214826   1.609   0.357   3.362
 4643SOL     OW14827   6.587   2.706   0.918
 4643SOL    HW114828   6.679   2.740   0.938
 4643SOL    HW214829   6.594   2.619   0.869
 4644SOL     OW14830   0.143   0.850   5.668
 4644SOL    HW114831   0.119   0.802   5.752
 4644SOL    HW214832   0.101   0.802   5.590
 4645SOL     OW14833   1.265   0.537   4.364
 4645SOL    HW114834   1.294   0.633   4.370
 4645SOL    HW214835   1.264   0.509   4.268
 4646SOL     OW14836   3.037   4.850   4.345
 4646SOL    HW114837   3.003   4.789   4.416
 4646SOL    HW214838   2.974   4.848   4.267
 4647SOL     OW14839   1.052   0.587   3.580
 4647SOL    HW114840   1.000   0.591   3.495
 4647SOL    HW214841   1.093   0.677   3.599
 4648SOL     OW14842   2.548   0.768   4.584
 4648SOL    HW114843   2.467   0.723   4.547
 4648SOL    HW214844   2.601   0.702   4.637
 4649SOL     OW14845   5.587   0.688   1.083
 4649SOL    HW114846   5.645   0.702   1.002
 4649SOL    HW214847   5.492   0.712   1.061
 4650SOL     OW14848   4.315   5.832   1.877
 4650SOL    HW114849   4.407   5.866   1.896
 4650SOL    HW214850   4.261   5.832   1.962
 4651SOL     OW14851   6.144   3.541   6.849
 4651SOL    HW114852   6.055   3.557   6.807
 4651SOL    HW214853   6.145   3.580   6.941
 4652SOL     OW14854   6.077   6.520   5.048
 4652SOL    HW114855   6.038   6.578   5.119
 4652SOL    HW214856   6.004   6.472   4.999
 4653SOL     OW14857   4.937   5.644   0.319
 4653SOL    HW114858   4.945   5.614   0.225
 4653SOL    HW214859   5.006   5.599   0.376
 4654SOL     OW14860   0.255   6.471   6.004
 4654SOL    HW114861   0.264   6.437   5.911
 4654SOL    HW214862   0.208   6.403   6.060
 4655SOL     OW14863   4.859   3.905   2.143
 4655SOL    HW114864   4.766   3.868   2.134
 4655SOL    HW214865   4.916   3.870   2.068
 4656SOL     OW14866   0.749   0.534   1.842
 4656SOL    HW114867   0.790   0.565   1.756
 4656SOL    HW214868   0.692   0.454   1.826
 4657SOL     OW14869   5.357   5.986   2.077
 4657SOL    HW114870   5.443   6.027   2.107
 4657SOL    HW214871   5.311   5.945   2.156
 4658SOL     OW14872   2.754   2.608   5.568
 4658SOL    HW114873   2.660   2.589   5.540
 4658SOL    HW214874   2.780   2.700   5.536
 4659SOL     OW14875   3.254   4.585   0.799
 4659SOL    HW114876   3.168   4.594   0.850
 4659SOL    HW214877   3.253   4.648   0.721
 4660SOL     OW14878   1.260   6.465   3.966
 4660SOL    HW114879   1.341   6.482   3.909
 4660SOL    HW214880   1.179   6.496   3.917
 4661SOL     OW14881   2.373   4.538   5.925
 4661SOL    HW114882   2.465   4.500   5.921
 4661SOL    HW214883   2.314   4.479   5.981
 4662SOL     OW14884   2.945   0.362   5.344
 4662SOL    HW114885   2.912   0.415   5.265
 4662SOL    HW214886   2.867   0.339   5.403
 4663SOL     OW14887   0.292   0.055   0.600
 4663SOL    HW114888   0.388   0.029   0.590
 4663SOL    HW214889   0.283   0.122   0.674
 4664SOL     OW14890   0.207   0.475   0.483
 4664SOL    HW114891   0.261   0.486   0.399
 4664SOL    HW214892   0.125   0.421   0.462
 4665SOL     OW14893   2.432   0.249   5.978
 4665SOL    HW114894   2.476   0.277   5.893
 4665SOL    HW214895   2.469   0.160   6.006
 4666SOL     OW14896   2.052   2.737   6.472
 4666SOL    HW114897   2.138   2.761   6.518
 4666SOL    HW214898   1.988   2.814   6.479
 4667SOL     OW14899   0.114   4.202   1.878
 4667SOL    HW114900   0.199   4.152   1.864
 4667SOL    HW214901   0.047   4.174   1.810
 4668SOL     OW14902   4.527   1.536   5.055
 4668SOL    HW114903   4.473   1.599   5.112
 4668SOL    HW214904   4.619   1.574   5.043
 4669SOL     OW14905   5.688   0.316   6.703
 4669SOL    HW114906   5.755   0.312   6.777
 4669SOL    HW214907   5.601   0.278   6.734
 4670SOL     OW14908   1.253   3.047   7.020
 4670SOL    HW114909   1.310   3.101   6.959
 4670SOL    HW214910   1.211   2.971   6.970
 4671SOL     OW14911   1.095   3.441   0.341
 4671SOL    HW114912   1.002   3.479   0.343
 4671SOL    HW214913   1.160   3.510   0.370
 4672SOL     OW14914   3.965   4.503   5.776
 4672SOL    HW114915   3.881   4.549   5.747
 4672SOL    HW214916   3.951   4.404   5.772
 4673SOL     OW14917   4.922   0.033   6.958
 4673SOL    HW114918   4.980   0.057   6.880
 4673SOL    HW214919   4.871   0.113   6.988
 4674SOL     OW14920   5.496   1.930   0.478
 4674SOL    HW114921   5.563   1.923   0.404
 4674SOL    HW214922   5.540   1.910   0.566
 4675SOL     OW14923   3.830   6.972   6.901
 4675SOL    HW114924   3.855   0.032   6.948
 4675SOL    HW214925   3.905   6.906   6.911
 4676SOL     OW14926   0.229   6.393   4.605
 4676SOL    HW114927   0.318   6.437   4.598
 4676SOL    HW214928   0.159   6.461   4.625
 4677SOL     OW14929   3.078   0.356   6.825
 4677SOL    HW114930   3.002   0.420   6.826
 4677SOL    HW214931   3.078   0.302   6.909
 4678SOL     OW14932   2.226   5.336   1.984
 4678SOL    HW114933   2.163   5.267   2.021
 4678SOL    HW214934   2.320   5.305   1.995
 4679SOL     OW14935   3.859   1.276   6.393
 4679SOL    HW114936   3.897   1.183   6.396
 4679SOL    HW214937   3.762   1.272   6.372
 4680SOL     OW14938   2.466   6.605   1.675
 4680SOL    HW114939   2.400   6.669   1.635
 4680SOL    HW214940   2.444   6.592   1.772
 4681SOL     OW14941   6.417   6.032   4.550
 4681SOL    HW114942   6.392   6.018   4.646
 4681SOL    HW214943   6.494   5.974   4.526
 4682SOL     OW14944   4.502   5.515   6.880
 4682SOL    HW114945   4.573   5.497   6.813
 4682SOL    HW214946   4.521   5.463   6.963
 4683SOL     OW14947   5.043   4.362   2.094
 4683SOL    HW114948   5.027   4.285   2.033
 4683SOL    HW214949   5.015   4.338   2.187
 4684SOL     OW14950   0.339   2.651   4.647
 4684SOL    HW114951   0.318   2.625   4.741
 4684SOL    HW214952   0.394   2.580   4.604
 4685SOL     OW14953   6.705   5.226   4.249
 4685SOL    HW114954   6.672   5.161   4.318
 4685SOL    HW214955   6.656   5.212   4.163
 4686SOL     OW14956   5.157   5.947   0.382
 4686SOL    HW114957   5.248   5.982   0.405
 4686SOL    HW214958   5.167   5.861   0.332
 4687SOL     OW14959   6.500   4.232   5.210
 4687SOL    HW114960   6.465   4.223   5.303
 4687SOL    HW214961   6.596   4.262   5.214
 4688SOL     OW14962   0.051   2.553   6.363
 4688SOL    HW114963   0.066   2.488   6.438
 4688SOL    HW214964   0.127   2.617   6.359
 4689SOL     OW14965   5.494   0.656   6.287
 4689SOL    HW114966   5.446   0.710   6.218
 4689SOL    HW214967   5.540   0.579   6.243
 4690SOL     OW14968   1.188   0.861   6.788
 4690SOL    HW114969   1.194   0.900   6.879
 4690SOL    HW214970   1.125   0.915   6.732
 4691SOL     OW14971   3.036   4.050   1.883
 4691SOL    HW114972   2.995   3.995   1.955
 4691SOL    HW214973   2.972   4.122   1.856
 4692SOL     OW14974   6.631   4.926   2.726
 4692SOL    HW114975   6.660   4.831   2.719
 4692SOL    HW214976   6.616   4.950   2.822
 4693SOL     OW14977   0.840   0.967   4.343
 4693SOL    HW114978   0.842   0.906   4.263
 4693SOL    HW214979   0.860   1.060   4.313
 4694SOL     OW14980   3.056   0.655   0.070
 4694SOL    HW114981   3.046   0.689   0.163
 4694SOL    HW214982   3.145   0.681   0.034
 4695SOL     OW14983   3.307   3.313   1.821
 4695SOL    HW114984   3.256   3.232   1.851
 4695SOL    HW214985   3.404   3.299   1.838
 4696SOL     OW14986   1.008   5.239   6.095
 4696SOL    HW114987   1.015   5.160   6.035
 4696SOL    HW214988   1.060   5.221   6.179
 4697SOL     OW14989   1.668   3.667   0.769
 4697SOL    HW114990   1.580   3.624   0.788
 4697SOL    HW214991   1.728   3.601   0.723
 4698SOL     OW14992   4.650   4.796   2.381
 4698SOL    HW114993   4.602   4.720   2.338
 4698SOL    HW214994   4.749   4.783   2.374
 4699SOL     OW14995   0.729   6.983   2.509
 4699SOL    HW114996   0.634   6.959   2.530
 4699SOL    HW214997   0.770   6.911   2.453
 4700SOL     OW14998   5.534   1.667   1.909
 4700SOL    HW114999   5.624   1.624   1.902
 4700SOL    HW215000   5.537   1.757   1.864
 4701SOL     OW15001   1.312   1.924   0.257
 4701SOL    HW115002   1.232   1.881   0.300
 4701SOL    HW215003   1.370   1.853   0.217
 4702SOL     OW15004   4.749   4.669   6.454
 4702SOL    HW115005   4.797   4.756   6.437
 4702SOL    HW215006   4.720   4.665   6.549
 4703SOL     OW15007   0.580   2.480   2.375
 4703SOL    HW115008   0.596   2.417   2.299
 4703SOL    HW215009   0.655   2.546   2.379
 4704SOL     OW15010   6.917   6.262   1.141
 4704SOL    HW115011   6.829   6.244   1.096
 4704SOL    HW215012   6.980   6.303   1.075
 4705SOL     OW15013   2.952   3.255   3.190
 4705SOL    HW115014   2.943   3.303   3.102
 4705SOL    HW215015   3.000   3.169   3.177
 4706SOL     OW15016   4.003   6.254   6.506
 4706SOL    HW115017   3.955   6.279   6.422
 4706SOL    HW215018   3.937   6.234   6.578
 4707SOL     OW15019   2.166   6.048   0.937
 4707SOL    HW115020   2.186   5.950   0.942
 4707SOL    HW215021   2.234   6.093   0.880
 4708SOL     OW15022   2.175   2.879   0.596
 4708SOL    HW115023   2.125   2.963   0.579
 4708SOL    HW215024   2.111   2.805   0.618
 4709SOL     OW15025   4.108   5.655   5.198
 4709SOL    HW115026   4.037   5.613   5.142
 4709SOL    HW215027   4.109   5.613   5.288
 4710SOL     OW15028   4.333   1.215   6.132
 4710SOL    HW115029   4.253   1.268   6.103
 4710SOL    HW215030   4.408   1.231   6.069
 4711SOL     OW15031   4.666   0.679   2.732
 4711SOL    HW115032   4.645   0.595   2.681
 4711SOL    HW215033   4.747   0.663   2.788
 4712SOL     OW15034   2.377   4.725   0.407
 4712SOL    HW115035   2.462   4.776   0.389
 4712SOL    HW215036   2.332   4.764   0.487
 4713SOL     OW15037   2.849   4.193   0.834
 4713SOL    HW115038   2.850   4.120   0.903
 4713SOL    HW215039   2.841   4.281   0.879
 4714SOL     OW15040   2.627   2.143   6.851
 4714SOL    HW115041   2.602   2.113   6.943
 4714SOL    HW215042   2.571   2.093   6.784
 4715SOL     OW15043   6.314   3.705   2.098
 4715SOL    HW115044   6.268   3.679   2.183
 4715SOL    HW215045   6.353   3.797   2.108
 4716SOL     OW15046   3.586   5.233   6.243
 4716SOL    HW115047   3.617   5.306   6.304
 4716SOL    HW215048   3.491   5.251   6.215
 4717SOL     OW15049   1.391   6.005   2.912
 4717SOL    HW115050   1.376   6.097   2.876
 4717SOL    HW215051   1.313   5.947   2.889
 4718SOL     OW15052   5.540   1.571   6.804
 4718SOL    HW115053   5.549   1.635   6.880
 4718SOL    HW215054   5.481   1.611   6.734
 4719SOL     OW15055   4.914   3.036   2.644
 4719SOL    HW115056   4.855   3.004   2.718
 4719SOL    HW215057   4.889   3.130   2.619
 4720SOL     OW15058   2.778   6.403   5.577
 4720SOL    HW115059   2.861   6.429   5.626
 4720SOL    HW215060   2.801   6.389   5.480
 4721SOL     OW15061   6.973   2.307   1.844
 4721SOL    HW115062   0.044   2.285   1.829
 4721SOL    HW215063   6.915   2.242   1.795
 4722SOL     OW15064   1.491   5.616   6.774
 4722SOL    HW115065   1.567   5.664   6.818
 4722SOL    HW215066   1.462   5.667   6.693
 4723SOL     OW15067   1.732   5.567   5.661
 4723SOL    HW115068   1.720   5.593   5.757
 4723SOL    HW215069   1.659   5.607   5.606
 4724SOL     OW15070   4.420   6.147   2.647
 4724SOL    HW115071   4.424   6.209   2.725
 4724SOL    HW215072   4.469   6.187   2.570
 4725SOL     OW15073   5.340   6.313   2.880
 4725SOL    HW115074   5.357   6.383   2.949
 4725SOL    HW215075   5.422   6.302   2.823
 4726SOL     OW15076   1.327   3.207   6.815
 4726SOL    HW115077   1.280   3.268   6.877
 4726SOL    HW215078   1.420   3.190   6.848
 4727SOL     OW15079   6.953   6.207   6.731
 4727SOL    HW115080   6.917   6.140   6.667
 4727SOL    HW215081   6.878   6.257   6.774
 4728SOL     OW15082   4.676   1.655   1.206
 4728SOL    HW115083   4.586   1.649   1.163
 4728SOL    HW215084   4.737   1.709   1.148
 4729SOL     OW15085   2.485   1.105   2.700
 4729SOL    HW115086   2.582   1.084   2.712
 4729SOL    HW215087   2.467   1.197   2.734
 4730SOL     OW15088   2.399   6.106   5.532
 4730SOL    HW115089   2.303   6.087   5.550
 4730SOL    HW215090   2.434   6.168   5.602
 4731SOL     OW15091   5.566   0.338   5.949
 4731SOL    HW115092   5.585   0.318   5.853
 4731SOL    HW215093   5.469   0.355   5.962
 4732SOL     OW15094   6.788   2.929   6.455
 4732SOL    HW115095   6.804   2.871   6.374
 4732SOL    HW215096   6.690   2.927   6.478
 4733SOL     OW15097   1.099   4.008   3.248
 4733SOL    HW115098   1.044   4.090   3.232
 4733SOL    HW215099   1.047   3.927   3.220
 4734SOL     OW15100   5.203   3.192   6.935
 4734SOL    HW115101   5.114   3.214   6.976
 4734SOL    HW215102   5.217   3.248   6.854
 4735SOL     OW15103   0.877   4.926   3.722
 4735SOL    HW115104   0.906   5.019   3.742
 4735SOL    HW215105   0.779   4.925   3.704
 4736SOL     OW15106   0.305   1.884   6.533
 4736SOL    HW115107   0.358   1.799   6.541
 4736SOL    HW215108   0.354   1.948   6.473
 4737SOL     OW15109   1.982   4.910   2.569
 4737SOL    HW115110   1.941   4.825   2.603
 4737SOL    HW215111   1.955   4.923   2.473
 4738SOL     OW15112   0.655   6.126   2.735
 4738SOL    HW115113   0.580   6.094   2.678
 4738SOL    HW215114   0.725   6.054   2.741
 4739SOL     OW15115   4.091   0.126   2.152
 4739SOL    HW115116   4.165   0.120   2.086
 4739SOL    HW215117   4.103   0.055   2.222
 4740SOL     OW15118   0.317   1.405   2.309
 4740SOL    HW115119   0.298   1.502   2.325
 4740SOL    HW215120   0.411   1.384   2.338
 4741SOL     OW15121   3.547   2.353   1.591
 4741SOL    HW115122   3.611   2.326   1.664
 4741SOL    HW215123   3.514   2.271   1.544
 4742SOL     OW15124   1.906   6.820   6.681
 4742SOL    HW115125   1.920   6.733   6.729
 4742SOL    HW215126   1.940   6.895   6.737
 4743SOL     OW15127   2.141   3.397   3.147
 4743SOL    HW115128   2.109   3.474   3.092
 4743SOL    HW215129   2.216   3.351   3.099
 4744SOL     OW15130   1.740   5.279   0.616
 4744SOL    HW115131   1.812   5.210   0.620
 4744SOL    HW215132   1.774   5.362   0.571
 4745SOL     OW15133   2.883   4.306   6.912
 4745SOL    HW115134   2.802   4.247   6.907
 4745SOL    HW215135   2.961   4.260   6.871
 4746SOL     OW15136   4.023   6.080   3.694
 4746SOL    HW115137   4.085   6.002   3.701
 4746SOL    HW215138   3.956   6.076   3.769
 4747SOL     OW15139   1.102   3.624   0.682
 4747SOL    HW115140   1.114   3.546   0.744
 4747SOL    HW215141   1.094   3.708   0.735
 4748SOL     OW15142   1.550   7.003   1.743
 4748SOL    HW115143   1.487   0.003   1.670
 4748SOL    HW215144   1.635   6.968   1.703
 4749SOL     OW15145   2.284   6.769   6.457
 4749SOL    HW115146   2.301   6.820   6.373
 4749SOL    HW215147   2.187   6.776   6.480
 4750SOL     OW15148   6.439   3.945   5.388
 4750SOL    HW115149   6.494   3.898   5.319
 4750SOL    HW215150   6.498   3.976   5.462
 4751SOL     OW15151   5.034   1.994   2.965
 4751SOL    HW115152   4.943   2.002   3.008
 4751SOL    HW215153   5.105   2.011   3.033
 4752SOL     OW15154   4.449   0.965   0.615
 4752SOL    HW115155   4.369   0.909   0.592
 4752SOL    HW215156   4.498   0.921   0.690
 4753SOL     OW15157   1.175   6.724   4.764
 4753SOL    HW115158   1.129   6.787   4.826
 4753SOL    HW215159   1.265   6.701   4.802
 4754SOL     OW15160   4.588   3.787   5.855
 4754SOL    HW115161   4.528   3.709   5.871
 4754SOL    HW215162   4.667   3.781   5.916
 4755SOL     OW15163   2.039   0.950   0.903
 4755SOL    HW115164   2.074   1.041   0.878
 4755SOL    HW215165   2.115   0.885   0.906
 4756SOL     OW15166   0.033   4.110   6.229
 4756SOL    HW115167   0.081   4.194   6.206
 4756SOL    HW215168   0.034   4.098   6.329
 4757SOL     OW15169   1.772   2.809   1.426
 4757SOL    HW115170   1.685   2.790   1.382
 4757SOL    HW215171   1.847   2.794   1.361
 4758SOL     OW15172   1.198   6.970   3.667
 4758SOL    HW115173   1.166   6.950   3.760
 4758SOL    HW215174   1.200   0.044   3.654
 4759SOL     OW15175   0.356   5.810   6.918
 4759SOL    HW115176   0.288   5.846   6.982
 4759SOL    HW215177   0.448   5.834   6.949
 4760SOL     OW15178   1.246   6.915   0.531
 4760SOL    HW115179   1.229   6.834   0.586
 4760SOL    HW215180   1.338   6.950   0.551
 4761SOL     OW15181   0.450   0.441   0.642
 4761SOL    HW115182   0.470   0.384   0.563
 4761SOL    HW215183   0.365   0.411   0.685
 4762SOL     OW15184   1.766   5.796   2.074
 4762SOL    HW115185   1.846   5.834   2.027
 4762SOL    HW215186   1.684   5.845   2.045
 4763SOL     OW15187   4.728   6.397   2.530
 4763SOL    HW115188   4.806   6.340   2.506
 4763SOL    HW215189   4.644   6.355   2.496
 4764SOL     OW15190   4.771   3.349   5.284
 4764SOL    HW115191   4.739   3.433   5.240
 4764SOL    HW215192   4.793   3.368   5.380
 4765SOL     OW15193   3.565   0.648   5.753
 4765SOL    HW115194   3.543   0.639   5.656
 4765SOL    HW215195   3.649   0.702   5.764
 4766SOL     OW15196   6.227   6.488   4.398
 4766SOL    HW115197   6.154   6.520   4.337
 4766SOL    HW215198   6.314   6.531   4.372
 4767SOL     OW15199   2.347   5.553   5.272
 4767SOL    HW115200   2.350   5.653   5.277
 4767SOL    HW215201   2.266   5.525   5.220
 4768SOL     OW15202   4.652   3.253   6.644
 4768SOL    HW115203   4.633   3.246   6.546
 4768SOL    HW215204   4.577   3.302   6.688
 4769SOL     OW15205   2.724   5.993   0.921
 4769SOL    HW115206   2.664   5.923   0.960
 4769SOL    HW215207   2.735   6.068   0.986
 4770SOL     OW15208   0.035   2.237   5.199
 4770SOL    HW115209   0.066   2.296   5.273
 4770SOL    HW215210   0.076   2.268   5.113
 4771SOL     OW15211   2.375   6.836   5.039
 4771SOL    HW115212   2.351   6.933   5.034
 4771SOL    HW215213   2.433   6.820   5.119
 4772SOL     OW15214   3.265   5.193   0.315
 4772SOL    HW115215   3.352   5.230   0.283
 4772SOL    HW215216   3.281   5.139   0.398
 4773SOL     OW15217   1.082   5.944   4.385
 4773SOL    HW115218   1.102   5.871   4.320
 4773SOL    HW215219   1.139   5.933   4.467
 4774SOL     OW15220   1.615   4.319   0.541
 4774SOL    HW115221   1.645   4.224   0.544
 4774SOL    HW215222   1.676   4.375   0.598
 4775SOL     OW15223   5.120   6.720   4.812
 4775SOL    HW115224   5.193   6.671   4.860
 4775SOL    HW215225   5.031   6.682   4.837
 4776SOL     OW15226   1.554   0.745   5.143
 4776SOL    HW115227   1.559   0.845   5.144
 4776SOL    HW215228   1.645   0.708   5.124
 4777SOL     OW15229   1.486   5.847   0.696
 4777SOL    HW115230   1.462   5.757   0.660
 4777SOL    HW215231   1.585   5.852   0.708
 4778SOL     OW15232   0.928   2.808   4.510
 4778SOL    HW115233   0.997   2.745   4.543
 4778SOL    HW215234   0.917   2.883   4.576
 4779SOL     OW15235   6.123   6.820   4.092
 4779SOL    HW115236   6.213   6.851   4.060
 4779SOL    HW215237   6.121   6.820   4.192
 4780SOL     OW15238   5.835   2.752   5.650
 4780SOL    HW115239   5.855   2.654   5.653
 4780SOL    HW215240   5.914   2.804   5.680
 4781SOL     OW15241   2.485   5.889   2.373
 4781SOL    HW115242   2.518   5.975   2.335
 4781SOL    HW215243   2.390   5.899   2.401
 4782SOL     OW15244   6.355   5.408   5.672
 4782SOL    HW115245   6.348   5.332   5.607
 4782SOL    HW215246   6.263   5.438   5.698
 4783SOL     OW15247   6.102   3.699   0.139
 4783SOL    HW115248   6.045   3.617   0.148
 4783SOL    HW215249   6.192   3.673   0.103
 4784SOL     OW15250   6.237   1.852   5.927
 4784SOL    HW115251   6.297   1.776   5.903
 4784SOL    HW215252   6.200   1.893   5.844
 4785SOL     OW15253   0.283   6.622   2.850
 4785SOL    HW115254   0.346   6.627   2.927
 4785SOL    HW215255   0.325   6.661   2.769
 4786SOL     OW15256   2.839   0.242   0.680
 4786SOL    HW115257   2.765   0.271   0.742
 4786SOL    HW215258   2.901   0.181   0.728
 4787SOL     OW15259   4.420   1.985   4.414
 4787SOL    HW115260   4.457   2.046   4.344
 4787SOL    HW215261   4.383   2.039   4.490
 4788SOL     OW15262   6.002   5.524   0.413
 4788SOL    HW115263   5.973   5.497   0.321
 4788SOL    HW215264   5.949   5.474   0.481
 4789SOL     OW15265   5.053   1.664   2.092
 4789SOL    HW115266   5.101   1.576   2.098
 4789SOL    HW215267   4.956   1.648   2.074
 4790SOL     OW15268   5.347   1.553   5.653
 4790SOL    HW115269   5.420   1.506   5.702
 4790SOL    HW215270   5.387   1.620   5.590
 4791SOL     OW15271   0.358   2.776   1.024
 4791SOL    HW115272   0.411   2.757   0.942
 4791SOL    HW215273   0.267   2.737   1.015
 4792SOL     OW15274   1.724   5.021   4.635
 4792SOL    HW115275   1.810   5.019   4.585
 4792SOL    HW215276   1.653   5.064   4.579
 4793SOL     OW15277   0.963   3.826   5.930
 4793SOL    HW115278   0.936   3.852   5.837
 4793SOL    HW215279   1.011   3.903   5.973
 4794SOL     OW15280   4.566   0.310   4.172
 4794SOL    HW115281   4.502   0.387   4.164
 4794SOL    HW215282   4.595   0.282   4.080
 4795SOL     OW15283   6.825   1.718   4.438
 4795SOL    HW115284   6.917   1.690   4.465
 4795SOL    HW215285   6.800   1.670   4.354
 4796SOL     OW15286   3.796   0.811   5.804
 4796SOL    HW115287   3.888   0.784   5.777
 4796SOL    HW215288   3.796   0.840   5.900
 4797SOL     OW15289   0.221   5.418   4.267
 4797SOL    HW115290   0.208   5.496   4.204
 4797SOL    HW215291   0.267   5.450   4.349
 4798SOL     OW15292   5.874   4.969   6.036
 4798SOL    HW115293   5.910   5.040   5.975
 4798SOL    HW215294   5.940   4.952   6.110
 4799SOL     OW15295   3.477   1.765   6.964
 4799SOL    HW115296   3.419   1.734   0.013
 4799SOL    HW215297   3.440   1.734   6.877
 4800SOL     OW15298   1.924   4.246   6.805
 4800SOL    HW115299   1.848   4.224   6.865
 4800SOL    HW215300   2.011   4.229   6.852
 4801SOL     OW15301   4.184   2.825   0.616
 4801SOL    HW115302   4.147   2.918   0.618
 4801SOL    HW215303   4.116   2.763   0.578
 4802SOL     OW15304   6.841   6.494   1.838
 4802SOL    HW115305   6.795   6.582   1.824
 4802SOL    HW215306   6.915   6.505   1.905
 4803SOL     OW15307   5.569   4.881   0.852
 4803SOL    HW115308   5.525   4.793   0.864
 4803SOL    HW215309   5.534   4.925   0.769
 4804SOL     OW15310   5.320   1.546   0.631
 4804SOL    HW115311   5.321   1.584   0.724
 4804SOL    HW215312   5.412   1.515   0.607
 4805SOL     OW15313   6.509   1.238   2.315
 4805SOL    HW115314   6.575   1.169   2.288
 4805SOL    HW215315   6.556   1.314   2.361
 4806SOL     OW15316   1.553   3.903   3.185
 4806SOL    HW115317   1.464   3.947   3.172
 4806SOL    HW215318   1.544   3.805   3.168
 4807SOL     OW15319   1.768   3.337   6.470
 4807SOL    HW115320   1.833   3.265   6.494
 4807SOL    HW215321   1.791   3.421   6.519
 4808SOL     OW15322   3.667   6.085   0.792
 4808SOL    HW115323   3.647   5.987   0.788
 4808SOL    HW215324   3.587   6.137   0.763
 4809SOL     OW15325   3.574   4.843   1.487
 4809SOL    HW115326   3.556   4.917   1.423
 4809SOL    HW215327   3.645   4.783   1.450
 4810SOL     OW15328   1.027   3.983   4.440
 4810SOL    HW115329   1.059   4.072   4.471
 4810SOL    HW215330   0.967   3.995   4.361
 4811SOL     OW15331   3.847   4.011   4.544
 4811SOL    HW115332   3.855   3.989   4.641
 4811SOL    HW215333   3.761   4.058   4.527
 4812SOL     OW15334   0.760   0.012   1.784
 4812SOL    HW115335   0.813   0.008   1.699
 4812SOL    HW215336   0.820   0.038   1.860
 4813SOL     OW15337   5.661   1.852   6.696
 4813SOL    HW115338   5.616   1.820   6.779
 4813SOL    HW215339   5.755   1.878   6.717
 4814SOL     OW15340   0.062   3.819   2.695
 4814SOL    HW115341   0.128   3.870   2.750
 4814SOL    HW215342   0.014   3.754   2.752
 4815SOL     OW15343   5.122   5.136   2.702
 4815SOL    HW115344   5.211   5.096   2.682
 4815SOL    HW215345   5.103   5.209   2.637
 4816SOL     OW15346   2.000   0.138   1.392
 4816SOL    HW115347   1.985   0.230   1.427
 4816SOL    HW215348   1.951   0.126   1.306
 4817SOL     OW15349   3.831   1.161   1.710
 4817SOL    HW115350   3.904   1.180   1.775
 4817SOL    HW215351   3.823   1.063   1.696
 4818SOL     OW15352   1.959   0.291   3.858
 4818SOL    HW115353   2.030   0.223   3.840
 4818SOL    HW215354   1.884   0.248   3.909
 4819SOL     OW15355   3.214   2.207   1.392
 4819SOL    HW115356   3.283   2.204   1.320
 4819SOL    HW215357   3.139   2.144   1.370
 4820SOL     OW15358   6.441   3.070   0.976
 4820SOL    HW115359   6.489   3.086   1.062
 4820SOL    HW215360   6.507   3.044   0.905
 4821SOL     OW15361   6.548   5.498   1.461
 4821SOL    HW115362   6.450   5.517   1.470
 4821SOL    HW215363   6.562   5.400   1.455
 4822SOL     OW15364   1.812   3.231   3.617
 4822SOL    HW115365   1.869   3.162   3.572
 4822SOL    HW215366   1.794   3.306   3.553
 4823SOL     OW15367   0.181   0.089   3.606
 4823SOL    HW115368   0.158   0.178   3.645
 4823SOL    HW215369   0.279   0.072   3.617
 4824SOL     OW15370   5.577   2.372   3.833
 4824SOL    HW115371   5.561   2.276   3.852
 4824SOL    HW215372   5.569   2.389   3.735
 4825SOL     OW15373   1.899   2.956   4.285
 4825SOL    HW115374   1.907   3.028   4.354
 4825SOL    HW215375   1.939   2.988   4.199
 4826SOL     OW15376   0.013   6.672   1.152
 4826SOL    HW115377   7.017   6.770   1.160
 4826SOL    HW215378   0.112   6.660   1.149
 4827SOL     OW15379   5.160   1.029   1.933
 4827SOL    HW115380   5.099   1.018   2.011
 4827SOL    HW215381   5.151   0.949   1.872
 4828SOL     OW15382   5.695   4.058   1.652
 4828SOL    HW115383   5.616   4.020   1.604
 4828SOL    HW215384   5.710   4.153   1.622
 4829SOL     OW15385   3.833   6.884   6.151
 4829SOL    HW115386   3.761   6.879   6.220
 4829SOL    HW215387   3.800   6.936   6.072
 4830SOL     OW15388   5.122   5.427   3.827
 4830SOL    HW115389   5.201   5.472   3.868
 4830SOL    HW215390   5.132   5.328   3.834
 4831SOL     OW15391   6.840   4.984   5.660
 4831SOL    HW115392   6.828   4.906   5.721
 4831SOL    HW215393   6.835   4.953   5.565
 4832SOL     OW15394   2.889   2.469   6.190
 4832SOL    HW115395   2.898   2.421   6.278
 4832SOL    HW215396   2.814   2.428   6.138
 4833SOL     OW15397   4.559   1.719   3.119
 4833SOL    HW115398   4.579   1.773   3.038
 4833SOL    HW215399   4.620   1.640   3.122
 4834SOL     OW15400   3.874   0.048   0.704
 4834SOL    HW115401   3.931   0.103   0.765
 4834SOL    HW215402   3.870   6.979   0.736
 4835SOL     OW15403   1.554   6.868   6.563
 4835SOL    HW115404   1.566   6.954   6.514
 4835SOL    HW215405   1.640   6.817   6.564
 4836SOL     OW15406   4.374   2.415   3.724
 4836SOL    HW115407   4.290   2.366   3.701
 4836SOL    HW215408   4.371   2.444   3.819
 4837SOL     OW15409   3.534   2.780   1.836
 4837SOL    HW115410   3.588   2.698   1.816
 4837SOL    HW215411   3.444   2.773   1.793
 4838SOL     OW15412   2.660   4.905   2.480
 4838SOL    HW115413   2.631   4.959   2.402
 4838SOL    HW215414   2.643   4.808   2.461
 4839SOL     OW15415   0.853   3.889   5.667
 4839SOL    HW115416   0.789   3.839   5.609
 4839SOL    HW215417   0.812   3.976   5.694
 4840SOL     OW15418   6.675   0.293   6.589
 4840SOL    HW115419   6.613   0.371   6.580
 4840SOL    HW215420   6.765   0.318   6.553
 4841SOL     OW15421   3.231   5.598   1.937
 4841SOL    HW115422   3.202   5.685   1.976
 4841SOL    HW215423   3.210   5.597   1.839
 4842SOL     OW15424   3.363   4.942   1.760
 4842SOL    HW115425   3.314   5.030   1.763
 4842SOL    HW215426   3.310   4.877   1.705
 4843SOL     OW15427   5.841   4.017   0.700
 4843SOL    HW115428   5.749   4.002   0.737
 4843SOL    HW215429   5.883   4.094   0.746
 4844SOL     OW15430   7.022   3.608   6.579
 4844SOL    HW115431   6.996   3.610   6.675
 4844SOL    HW215432   6.973   3.679   6.529
 4845SOL     OW15433   6.940   5.342   4.375
 4845SOL    HW115434   6.854   5.313   4.331
 4845SOL    HW215435   6.989   5.404   4.314
 4846SOL     OW15436   0.035   3.645   1.164
 4846SOL    HW115437   7.003   3.564   1.173
 4846SOL    HW215438   0.076   3.647   1.073
 4847SOL     OW15439   3.442   1.555   5.706
 4847SOL    HW115440   3.513   1.515   5.763
 4847SOL    HW215441   3.397   1.630   5.755
 4848SOL     OW15442   1.792   0.985   4.385
 4848SOL    HW115443   1.746   0.921   4.446
 4848SOL    HW215444   1.776   1.079   4.417
 4849SOL     OW15445   1.867   0.054   0.364
 4849SOL    HW115446   1.861   6.991   0.317
 4849SOL    HW215447   1.895   0.125   0.298
 4850SOL     OW15448   3.947   0.904   1.876
 4850SOL    HW115449   4.016   0.836   1.899
 4850SOL    HW215450   3.896   0.929   1.958
 4851SOL     OW15451   3.717   5.851   5.213
 4851SOL    HW115452   3.698   5.949   5.201
 4851SOL    HW215453   3.702   5.804   5.126
 4852SOL     OW15454   1.297   0.043   6.295
 4852SOL    HW115455   1.267   0.117   6.355
 4852SOL    HW215456   1.397   0.041   6.293
 4853SOL     OW15457   3.389   1.574   2.455
 4853SOL    HW115458   3.464   1.636   2.478
 4853SOL    HW215459   3.302   1.623   2.461
 4854SOL     OW15460   4.824   6.144   2.712
 4854SOL    HW115461   4.758   6.126   2.640
 4854SOL    HW215462   4.794   6.101   2.797
 4855SOL     OW15463   5.884   2.680   2.342
 4855SOL    HW115464   5.900   2.645   2.250
 4855SOL    HW215465   5.972   2.694   2.388
 4856SOL     OW15466   1.649   4.103   2.892
 4856SOL    HW115467   1.651   4.022   2.834
 4856SOL    HW215468   1.585   4.170   2.853
 4857SOL     OW15469   1.738   2.078   5.808
 4857SOL    HW115470   1.793   2.161   5.806
 4857SOL    HW215471   1.787   2.007   5.858
 4858SOL     OW15472   1.995   0.813   3.978
 4858SOL    HW115473   2.004   0.855   3.888
 4858SOL    HW215474   1.986   0.714   3.967
 4859SOL     OW15475   0.650   6.538   4.354
 4859SOL    HW115476   0.633   6.444   4.327
 4859SOL    HW215477   0.739   6.545   4.400
 4860SOL     OW15478   3.499   4.972   2.525
 4860SOL    HW115479   3.454   5.053   2.565
 4860SOL    HW215480   3.502   4.899   2.594
 4861SOL     OW15481   4.893   5.413   0.486
 4861SOL    HW115482   4.873   5.436   0.581
 4861SOL    HW215483   4.828   5.460   0.426
 4862SOL     OW15484   2.151   4.577   3.940
 4862SOL    HW115485   2.110   4.637   3.870
 4862SOL    HW215486   2.230   4.530   3.901
 4863SOL     OW15487   5.439   5.074   0.677
 4863SOL    HW115488   5.357   5.020   0.659
 4863SOL    HW215489   5.421   5.170   0.655
 4864SOL     OW15490   3.114   1.339   4.220
 4864SOL    HW115491   3.069   1.398   4.287
 4864SOL    HW215492   3.096   1.243   4.243
 4865SOL     OW15493   1.649   0.333   5.430
 4865SOL    HW115494   1.639   0.432   5.418
 4865SOL    HW215495   1.570   0.286   5.391
 4866SOL     OW15496   6.350   3.863   1.378
 4866SOL    HW115497   6.301   3.785   1.338
 4866SOL    HW215498   6.395   3.915   1.305
 4867SOL     OW15499   4.440   5.735   2.329
 4867SOL    HW115500   4.428   5.672   2.253
 4867SOL    HW215501   4.395   5.822   2.308
 4868SOL     OW15502   6.476   4.779   2.198
 4868SOL    HW115503   6.537   4.827   2.135
 4868SOL    HW215504   6.458   4.687   2.163
 4869SOL     OW15505   1.860   1.650   0.568
 4869SOL    HW115506   1.765   1.661   0.539
 4869SOL    HW215507   1.894   1.561   0.537
 4870SOL     OW15508   0.305   6.016   1.432
 4870SOL    HW115509   0.271   6.032   1.525
 4870SOL    HW215510   0.284   6.095   1.375
 4871SOL     OW15511   1.045   0.133   4.063
 4871SOL    HW115512   1.040   0.151   4.161
 4871SOL    HW215513   1.015   0.214   4.013
 4872SOL     OW15514   6.250   0.026   3.087
 4872SOL    HW115515   6.195   0.053   3.166
 4872SOL    HW215516   6.342   0.064   3.096
 4873SOL     OW15517   6.648   5.881   4.561
 4873SOL    HW115518   6.619   5.806   4.620
 4873SOL    HW215519   6.736   5.917   4.593
 4874SOL     OW15520   4.855   3.296   2.640
 4874SOL    HW115521   4.950   3.313   2.614
 4874SOL    HW215522   4.841   3.324   2.736
 4875SOL     OW15523   5.797   0.523   0.476
 4875SOL    HW115524   5.889   0.564   0.473
 4875SOL    HW215525   5.775   0.484   0.387
 4876SOL     OW15526   6.700   1.070   3.709
 4876SOL    HW115527   6.691   0.977   3.743
 4876SOL    HW215528   6.736   1.129   3.782
 4877SOL     OW15529   0.272   2.280   5.606
 4877SOL    HW115530   0.358   2.230   5.593
 4877SOL    HW215531   0.216   2.235   5.675
 4878SOL     OW15532   6.665   1.707   1.811
 4878SOL    HW115533   6.668   1.657   1.725
 4878SOL    HW215534   6.757   1.713   1.850
 4879SOL     OW15535   4.230   2.123   1.683
 4879SOL    HW115536   4.150   2.097   1.737
 4879SOL    HW215537   4.292   2.044   1.677
 4880SOL     OW15538   6.347   3.643   0.065
 4880SOL    HW115539   6.395   3.664   7.005
 4880SOL    HW215540   6.331   3.545   0.072
 4881SOL     OW15541   1.803   1.201   6.976
 4881SOL    HW115542   1.832   1.277   6.918
 4881SOL    HW215543   1.838   1.215   0.043
 4882SOL     OW15544   4.079   1.847   5.632
 4882SOL    HW115545   4.001   1.806   5.584
 4882SOL    HW215546   4.158   1.850   5.571
 4883SOL     OW15547   5.252   4.141   0.853
 4883SOL    HW115548   5.170   4.097   0.815
 4883SOL    HW215549   5.299   4.076   0.913
 4884SOL     OW15550   3.430   5.367   1.238
 4884SOL    HW115551   3.358   5.435   1.226
 4884SOL    HW215552   3.519   5.411   1.229
 4885SOL     OW15553   2.294   4.725   1.203
 4885SOL    HW115554   2.309   4.801   1.265
 4885SOL    HW215555   2.258   4.646   1.254
 4886SOL     OW15556   2.870   6.779   1.439
 4886SOL    HW115557   2.839   6.782   1.534
 4886SOL    HW215558   2.963   6.743   1.435
 4887SOL     OW15559   0.453   6.229   1.725
 4887SOL    HW115560   0.494   6.208   1.636
 4887SOL    HW215561   0.432   6.326   1.729
 4888SOL     OW15562   2.854   6.779   3.081
 4888SOL    HW115563   2.778   6.715   3.082
 4888SOL    HW215564   2.922   6.750   3.014
 4889SOL     OW15565   6.831   1.982   5.200
 4889SOL    HW115566   6.796   2.057   5.257
 4889SOL    HW215567   6.815   2.004   5.103
 4890SOL     OW15568   0.254   1.776   5.361
 4890SOL    HW115569   0.279   1.694   5.311
 4890SOL    HW215570   0.154   1.787   5.359
 4891SOL     OW15571   2.856   5.357   0.248
 4891SOL    HW115572   2.949   5.382   0.220
 4891SOL    HW215573   2.790   5.410   0.195
 4892SOL     OW15574   5.397   5.950   2.411
 4892SOL    HW115575   5.474   5.970   2.351
 4892SOL    HW215576   5.384   5.851   2.417
 4893SOL     OW15577   6.517   3.295   1.869
 4893SOL    HW115578   6.494   3.392   1.871
 4893SOL    HW215579   6.542   3.265   1.962
 4894SOL     OW15580   3.610   0.456   2.694
 4894SOL    HW115581   3.531   0.497   2.739
 4894SOL    HW215582   3.645   0.518   2.624
 4895SOL     OW15583   0.596   4.908   3.744
 4895SOL    HW115584   0.566   4.813   3.749
 4895SOL    HW215585   0.518   4.968   3.766
 4896SOL     OW15586   2.434   4.592   2.586
 4896SOL    HW115587   2.373   4.618   2.511
 4896SOL    HW215588   2.529   4.610   2.559
 4897SOL     OW15589   2.171   5.933   5.069
 4897SOL    HW115590   2.172   6.013   5.009
 4897SOL    HW215591   2.146   5.960   5.162
 4898SOL     OW15592   3.730   1.124   5.048
 4898SOL    HW115593   3.683   1.211   5.058
 4898SOL    HW215594   3.822   1.131   5.087
 4899SOL     OW15595   6.216   5.114   2.943
 4899SOL    HW115596   6.177   5.206   2.935
 4899SOL    HW215597   6.293   5.105   2.880
 4900SOL     OW15598   4.016   6.010   5.764
 4900SOL    HW115599   3.933   6.056   5.796
 4900SOL    HW215600   4.086   6.079   5.744
 4901SOL     OW15601   1.971   1.275   5.382
 4901SOL    HW115602   1.899   1.205   5.385
 4901SOL    HW215603   2.058   1.232   5.357
 4902SOL     OW15604   0.821   1.521   5.320
 4902SOL    HW115605   0.894   1.454   5.325
 4902SOL    HW215606   0.791   1.530   5.225
 4903SOL     OW15607   4.686   5.543   0.629
 4903SOL    HW115608   4.720   5.637   0.627
 4903SOL    HW215609   4.649   5.520   0.540
 4904SOL     OW15610   1.854   0.240   5.572
 4904SOL    HW115611   1.786   0.294   5.522
 4904SOL    HW215612   1.872   0.281   5.661
 4905SOL     OW15613   2.309   0.888   3.399
 4905SOL    HW115614   2.284   0.984   3.415
 4905SOL    HW215615   2.405   0.882   3.374
 4906SOL     OW15616   4.612   2.682   6.354
 4906SOL    HW115617   4.563   2.646   6.275
 4906SOL    HW215618   4.708   2.695   6.332
 4907SOL     OW15619   4.848   0.434   1.327
 4907SOL    HW115620   4.766   0.423   1.384
 4907SOL    HW215621   4.916   0.365   1.353
 4908SOL     OW15622   4.993   6.783   0.252
 4908SOL    HW115623   5.027   6.877   0.254
 4908SOL    HW215624   5.067   6.720   0.229
 4909SOL     OW15625   6.894   5.354   3.322
 4909SOL    HW115626   6.945   5.387   3.402
 4909SOL    HW215627   6.959   5.321   3.253
 4910SOL     OW15628   5.704   0.580   4.222
 4910SOL    HW115629   5.611   0.544   4.215
 4910SOL    HW215630   5.702   0.678   4.202
 4911SOL     OW15631   1.896   3.740   3.357
 4911SOL    HW115632   1.809   3.696   3.334
 4911SOL    HW215633   1.880   3.837   3.376
 4912SOL     OW15634   5.404   1.845   5.980
 4912SOL    HW115635   5.397   1.748   5.958
 4912SOL    HW215636   5.395   1.857   6.079
 4913SOL     OW15637   4.638   3.713   5.549
 4913SOL    HW115638   4.577   3.740   5.624
 4913SOL    HW215639   4.584   3.689   5.469
 4914SOL     OW15640   4.493   6.771   5.224
 4914SOL    HW115641   4.470   6.738   5.133
 4914SOL    HW215642   4.410   6.804   5.270
 4915SOL     OW15643   2.889   6.627   5.155
 4915SOL    HW115644   2.877   6.723   5.178
 4915SOL    HW215645   2.910   6.618   5.057
 4916SOL     OW15646   0.607   0.948   4.076
 4916SOL    HW115647   0.623   1.043   4.050
 4916SOL    HW215648   0.511   0.936   4.100
 4917SOL     OW15649   3.713   5.777   0.727
 4917SOL    HW115650   3.625   5.752   0.770
 4917SOL    HW215651   3.736   5.709   0.658
 4918SOL     OW15652   5.902   6.060   1.963
 4918SOL    HW115653   5.883   6.085   1.868
 4918SOL    HW215654   5.994   6.021   1.969
 4919SOL     OW15655   3.194   3.057   2.462
 4919SOL    HW115656   3.223   3.032   2.555
 4919SOL    HW215657   3.149   2.978   2.420
 4920SOL     OW15658   5.467   0.364   4.740
 4920SOL    HW115659   5.521   0.300   4.795
 4920SOL    HW215660   5.506   0.368   4.647
 4921SOL     OW15661   1.592   5.071   0.177
 4921SOL    HW115662   1.659   5.082   0.250
 4921SOL    HW215663   1.551   5.160   0.155
 4922SOL     OW15664   3.205   2.210   4.585
 4922SOL    HW115665   3.266   2.284   4.614
 4922SOL    HW215666   3.249   2.157   4.513
 4923SOL     OW15667   2.701   1.304   2.173
 4923SOL    HW115668   2.605   1.331   2.164
 4923SOL    HW215669   2.756   1.384   2.198
 4924SOL     OW15670   2.839   1.936   4.682
 4924SOL    HW115671   2.820   1.838   4.694
 4924SOL    HW215672   2.781   1.989   4.745
 4925SOL     OW15673   5.068   0.470   2.630
 4925SOL    HW115674   5.097   0.552   2.678
 4925SOL    HW215675   4.975   0.481   2.595
 4926SOL     OW15676   5.577   1.952   1.851
 4926SOL    HW115677   5.628   1.989   1.773
 4926SOL    HW215678   5.507   2.017   1.879
 4927SOL     OW15679   2.783   2.898   5.478
 4927SOL    HW115680   2.870   2.934   5.512
 4927SOL    HW215681   2.718   2.973   5.465
 4928SOL     OW15682   1.188   0.637   6.485
 4928SOL    HW115683   1.178   0.609   6.580
 4928SOL    HW215684   1.257   0.581   6.440
 4929SOL     OW15685   6.762   6.891   3.717
 4929SOL    HW115686   6.732   6.825   3.785
 4929SOL    HW215687   6.770   6.982   3.759
 4930SOL     OW15688   5.904   0.133   2.893
 4930SOL    HW115689   5.903   0.143   2.793
 4930SOL    HW215690   5.966   0.058   2.918
 4931SOL     OW15691   6.646   6.393   1.334
 4931SOL    HW115692   6.720   6.449   1.296
 4931SOL    HW215693   6.558   6.434   1.311
 4932SOL     OW15694   3.746   3.430   3.201
 4932SOL    HW115695   3.785   3.350   3.157
 4932SOL    HW215696   3.801   3.511   3.178
 4933SOL     OW15697   2.315   6.568   2.653
 4933SOL    HW115698   2.377   6.499   2.691
 4933SOL    HW215699   2.351   6.659   2.670
 4934SOL     OW15700   3.661   6.372   2.810
 4934SOL    HW115701   3.655   6.461   2.766
 4934SOL    HW215702   3.586   6.362   2.876
 4935SOL     OW15703   1.496   1.899   6.257
 4935SOL    HW115704   1.544   1.986   6.258
 4935SOL    HW215705   1.445   1.887   6.342
 4936SOL     OW15706   2.616   5.061   0.863
 4936SOL    HW115707   2.517   5.062   0.849
 4936SOL    HW215708   2.642   5.136   0.923
 4937SOL     OW15709   4.966   2.929   5.624
 4937SOL    HW115710   4.889   2.958   5.682
 4937SOL    HW215711   4.983   2.831   5.638
 4938SOL     OW15712   2.779   5.557   5.754
 4938SOL    HW115713   2.726   5.555   5.839
 4938SOL    HW215714   2.732   5.615   5.687
 4939SOL     OW15715   5.579   2.252   4.751
 4939SOL    HW115716   5.594   2.315   4.827
 4939SOL    HW215717   5.528   2.298   4.678
 4940SOL     OW15718   1.398   0.688   4.688
 4940SOL    HW115719   1.337   0.717   4.761
 4940SOL    HW215720   1.373   0.736   4.603
 4941SOL     OW15721   3.714   1.930   6.462
 4941SOL    HW115722   3.799   1.879   6.465
 4941SOL    HW215723   3.730   2.024   6.494
 4942SOL     OW15724   4.807   3.488   5.601
 4942SOL    HW115725   4.745   3.554   5.558
 4942SOL    HW215726   4.894   3.534   5.622
 4943SOL     OW15727   3.787   2.833   0.790
 4943SOL    HW115728   3.699   2.791   0.810
 4943SOL    HW215729   3.839   2.775   0.728
 4944SOL     OW15730   2.007   3.828   2.872
 4944SOL    HW115731   2.039   3.784   2.788
 4944SOL    HW215732   1.973   3.920   2.851
 4945SOL     OW15733   1.316   1.048   4.032
 4945SOL    HW115734   1.267   1.133   4.049
 4945SOL    HW215735   1.381   1.062   3.957
 4946SOL     OW15736   0.794   3.099   1.374
 4946SOL    HW115737   0.817   3.138   1.463
 4946SOL    HW215738   0.795   2.999   1.381
 4947SOL     OW15739   1.513   6.924   0.984
 4947SOL    HW115740   1.571   6.969   0.917
 4947SOL    HW215741   1.483   6.835   0.948
 4948SOL     OW15742   2.396   0.384   2.493
 4948SOL    HW115743   2.319   0.446   2.476
 4948SOL    HW215744   2.450   0.374   2.409
 4949SOL     OW15745   4.526   0.307   5.649
 4949SOL    HW115746   4.570   0.257   5.574
 4949SOL    HW215747   4.596   0.339   5.713
 4950SOL     OW15748   3.159   5.395   3.655
 4950SOL    HW115749   3.189   5.366   3.565
 4950SOL    HW215750   3.099   5.475   3.646
 4951SOL     OW15751   4.915   1.421   4.852
 4951SOL    HW115752   4.907   1.516   4.823
 4951SOL    HW215753   4.947   1.417   4.947
 4952SOL     OW15754   0.384   0.329   5.133
 4952SOL    HW115755   0.401   0.369   5.043
 4952SOL    HW215756   0.437   0.378   5.202
 4953SOL     OW15757   2.558   5.713   1.864
 4953SOL    HW115758   2.626   5.772   1.908
 4953SOL    HW215759   2.471   5.762   1.856
 4954SOL     OW15760   4.470   4.516   6.657
 4954SOL    HW115761   4.438   4.428   6.693
 4954SOL    HW215762   4.431   4.530   6.566
 4955SOL     OW15763   1.686   5.814   6.889
 4955SOL    HW115764   1.723   5.797   6.980
 4955SOL    HW215765   1.760   5.815   6.822
 4956SOL     OW15766   3.810   0.127   4.902
 4956SOL    HW115767   3.897   0.172   4.923
 4956SOL    HW215768   3.750   0.191   4.856
 4957SOL     OW15769   6.951   1.121   3.557
 4957SOL    HW115770   7.018   1.146   3.627
 4957SOL    HW215771   6.870   1.083   3.601
 4958SOL     OW15772   0.560   6.553   6.110
 4958SOL    HW115773   0.630   6.492   6.075
 4958SOL    HW215774   0.494   6.574   6.038
 4959SOL     OW15775   0.316   1.063   0.125
 4959SOL    HW115776   0.233   1.114   0.145
 4959SOL    HW215777   0.294   0.967   0.109
 4960SOL     OW15778   3.086   6.236   4.036
 4960SOL    HW115779   3.146   6.175   4.088
 4960SOL    HW215780   3.044   6.186   3.961
 4961SOL     OW15781   5.403   1.301   5.417
 4961SOL    HW115782   5.472   1.372   5.414
 4961SOL    HW215783   5.335   1.322   5.487
 4962SOL     OW15784   5.541   3.124   1.764
 4962SOL    HW115785   5.526   3.061   1.840
 4962SOL    HW215786   5.552   3.072   1.679
 4963SOL     OW15787   6.272   5.894   1.643
 4963SOL    HW115788   6.272   5.993   1.629
 4963SOL    HW215789   6.328   5.871   1.722
 4964SOL     OW15790   3.519   6.545   3.060
 4964SOL    HW115791   3.565   6.505   3.139
 4964SOL    HW215792   3.510   6.644   3.073
 4965SOL     OW15793   0.580   6.919   5.117
 4965SOL    HW115794   0.629   6.952   5.036
 4965SOL    HW215795   0.569   6.994   5.182
 4966SOL     OW15796   2.297   6.237   4.287
 4966SOL    HW115797   2.361   6.239   4.364
 4966SOL    HW215798   2.335   6.289   4.211
 4967SOL     OW15799   3.746   3.302   6.532
 4967SOL    HW115800   3.845   3.289   6.542
 4967SOL    HW215801   3.699   3.255   6.607
 4968SOL     OW15802   5.306   2.945   3.290
 4968SOL    HW115803   5.303   2.997   3.204
 4968SOL    HW215804   5.400   2.937   3.321
 4969SOL     OW15805   1.940   1.159   2.710
 4969SOL    HW115806   1.920   1.114   2.797
 4969SOL    HW215807   1.877   1.125   2.640
 4970SOL     OW15808   1.279   2.451   4.710
 4970SOL    HW115809   1.332   2.446   4.794
 4970SOL    HW215810   1.312   2.382   4.645
 4971SOL     OW15811   6.332   5.440   3.665
 4971SOL    HW115812   6.338   5.534   3.632
 4971SOL    HW215813   6.423   5.405   3.685
 4972SOL     OW15814   2.529   3.093   0.718
 4972SOL    HW115815   2.504   3.022   0.653
 4972SOL    HW215816   2.447   3.128   0.763
 4973SOL     OW15817   6.823   6.954   1.991
 4973SOL    HW115818   6.833   6.854   1.993
 4973SOL    HW215819   6.910   6.995   1.964
 4974SOL     OW15820   6.479   4.726   0.974
 4974SOL    HW115821   6.513   4.664   1.045
 4974SOL    HW215822   6.557   4.772   0.931
 4975SOL     OW15823   6.105   5.848   0.989
 4975SOL    HW115824   6.066   5.777   0.930
 4975SOL    HW215825   6.089   5.824   1.085
 4976SOL     OW15826   3.071   0.522   4.129
 4976SOL    HW115827   3.165   0.535   4.160
 4976SOL    HW215828   3.008   0.529   4.207
 4977SOL     OW15829   4.920   3.662   0.788
 4977SOL    HW115830   4.979   3.619   0.719
 4977SOL    HW215831   4.938   3.621   0.877
 4978SOL     OW15832   6.748   3.379   5.560
 4978SOL    HW115833   6.745   3.377   5.460
 4978SOL    HW215834   6.815   3.447   5.590
 4979SOL     OW15835   6.819   2.299   5.119
 4979SOL    HW115836   6.894   2.250   5.163
 4979SOL    HW215837   6.851   2.387   5.084
 4980SOL     OW15838   4.014   6.784   3.429
 4980SOL    HW115839   4.050   6.778   3.336
 4980SOL    HW215840   4.013   6.693   3.471
 4981SOL     OW15841   4.884   6.081   5.818
 4981SOL    HW115842   4.935   6.067   5.733
 4981SOL    HW215843   4.924   6.159   5.867
 4982SOL     OW15844   2.356   1.437   6.541
 4982SOL    HW115845   2.430   1.483   6.590
 4982SOL    HW215846   2.366   1.455   6.443
 4983SOL     OW15847   5.031   3.352   4.559
 4983SOL    HW115848   5.104   3.419   4.574
 4983SOL    HW215849   4.984   3.372   4.474
 4984SOL     OW15850   5.373   3.401   4.761
 4984SOL    HW115851   5.287   3.450   4.777
 4984SOL    HW215852   5.360   3.334   4.688
 4985SOL     OW15853   6.409   5.888   4.096
 4985SOL    HW115854   6.490   5.941   4.074
 4985SOL    HW215855   6.340   5.902   4.025
 4986SOL     OW15856   5.859   4.568   2.710
 4986SOL    HW115857   5.836   4.474   2.733
 4986SOL    HW215858   5.930   4.602   2.771
 4987SOL     OW15859   0.775   2.082   1.192
 4987SOL    HW115860   0.760   2.102   1.095
 4987SOL    HW215861   0.693   2.106   1.244
 4988SOL     OW15862   0.039   1.313   3.964
 4988SOL    HW115863   0.124   1.351   3.926
 4988SOL    HW215864   0.045   1.214   3.967
 4989SOL     OW15865   5.144   1.291   1.899
 4989SOL    HW115866   5.223   1.352   1.908
 4989SOL    HW215867   5.175   1.196   1.900
 4990SOL     OW15868   1.011   2.031   6.537
 4990SOL    HW115869   1.096   1.983   6.518
 4990SOL    HW215870   1.030   2.127   6.557
 4991SOL     OW15871   0.733   3.290   4.221
 4991SOL    HW115872   0.829   3.264   4.228
 4991SOL    HW215873   0.722   3.385   4.248
 4992SOL     OW15874   3.967   0.721   4.444
 4992SOL    HW115875   3.908   0.644   4.420
 4992SOL    HW215876   3.946   0.799   4.385
 4993SOL     OW15877   2.593   4.655   3.912
 4993SOL    HW115878   2.533   4.729   3.885
 4993SOL    HW215879   2.591   4.583   3.842
 4994SOL     OW15880   1.074   0.143   2.538
 4994SOL    HW115881   1.094   0.078   2.465
 4994SOL    HW215882   1.135   0.126   2.615
 4995SOL     OW15883   6.913   3.022   6.090
 4995SOL    HW115884   6.898   3.107   6.142
 4995SOL    HW215885   6.908   2.944   6.152
 4996SOL     OW15886   0.704   0.276   2.154
 4996SOL    HW115887   0.725   0.229   2.240
 4996SOL    HW215888   0.761   0.358   2.147
 4997SOL     OW15889   6.912   2.511   2.962
 4997SOL    HW115890   6.931   2.459   3.046
 4997SOL    HW215891   6.983   2.493   2.895
 4998SOL     OW15892   1.945   4.507   5.094
 4998SOL    HW115893   1.886   4.484   5.171
 4998SOL    HW215894   1.966   4.604   5.095
 4999SOL     OW15895   4.953   5.842   1.682
 4999SOL    HW115896   4.925   5.751   1.710
 4999SOL    HW215897   4.959   5.846   1.582
 5000SOL     OW15898   0.840   0.750   4.075
 5000SOL    HW115899   0.813   0.834   4.030
 5000SOL    HW215900   0.897   0.695   4.013
 5001SOL     OW15901   1.930   3.991   6.257
 5001SOL    HW115902   1.937   4.090   6.243
 5001SOL    HW215903   1.997   3.945   6.199
 5002SOL     OW15904   1.009   2.620   3.088
 5002SOL    HW115905   1.022   2.532   3.133
 5002SOL    HW215906   0.911   2.643   3.088
 5003SOL     OW15907   0.670   6.867   3.331
 5003SOL    HW115908   0.668   6.911   3.421
 5003SOL    HW215909   0.633   6.774   3.338
 5004SOL     OW15910   2.647   5.763   5.662
 5004SOL    HW115911   2.638   5.804   5.572
 5004SOL    HW215912   2.686   5.829   5.726
 5005SOL     OW15913   3.881   1.949   0.350
 5005SOL    HW115914   3.911   1.865   0.395
 5005SOL    HW215915   3.783   1.943   0.331
 5006SOL     OW15916   5.777   7.007   6.257
 5006SOL    HW115917   5.751   6.937   6.324
 5006SOL    HW215918   5.876   7.017   6.256
 5007SOL     OW15919   2.611   0.313   5.777
 5007SOL    HW115920   2.701   0.290   5.740
 5007SOL    HW215921   2.592   0.410   5.762
 5008SOL     OW15922   6.174   0.655   3.654
 5008SOL    HW115923   6.118   0.660   3.571
 5008SOL    HW215924   6.211   0.563   3.664
 5009SOL     OW15925   1.726   6.245   1.715
 5009SOL    HW115926   1.742   6.335   1.675
 5009SOL    HW215927   1.743   6.248   1.813
 5010SOL     OW15928   3.392   3.671   3.855
 5010SOL    HW115929   3.321   3.604   3.835
 5010SOL    HW215930   3.372   3.716   3.943
 5011SOL     OW15931   2.116   3.255   1.910
 5011SOL    HW115932   2.177   3.193   1.959
 5011SOL    HW215933   2.146   3.350   1.924
 5012SOL     OW15934   6.240   2.811   5.921
 5012SOL    HW115935   6.164   2.832   5.983
 5012SOL    HW215936   6.307   2.754   5.968
 5013SOL     OW15937   4.840   0.640   6.578
 5013SOL    HW115938   4.820   0.735   6.601
 5013SOL    HW215939   4.808   0.621   6.485
 5014SOL     OW15940   6.436   5.519   0.670
 5014SOL    HW115941   6.443   5.449   0.600
 5014SOL    HW215942   6.343   5.519   0.708
 5015SOL     OW15943   4.187   1.553   4.208
 5015SOL    HW115944   4.154   1.487   4.276
 5015SOL    HW215945   4.240   1.624   4.254
 5016SOL     OW15946   2.329   1.235   2.353
 5016SOL    HW115947   2.407   1.172   2.349
 5016SOL    HW215948   2.330   1.286   2.439
 5017SOL     OW15949   2.401   2.521   0.661
 5017SOL    HW115950   2.340   2.476   0.596
 5017SOL    HW215951   2.413   2.617   0.636
 5018SOL     OW15952   0.442   4.099   2.028
 5018SOL    HW115953   0.424   4.053   1.941
 5018SOL    HW215954   0.528   4.066   2.066
 5019SOL     OW15955   2.002   4.340   0.205
 5019SOL    HW115956   1.914   4.387   0.191
 5019SOL    HW215957   2.074   4.408   0.219
 5020SOL     OW15958   6.323   6.077   5.510
 5020SOL    HW115959   6.237   6.026   5.513
 5020SOL    HW215960   6.322   6.149   5.579
 5021SOL     OW15961   0.910   4.440   6.555
 5021SOL    HW115962   0.827   4.492   6.574
 5021SOL    HW215963   0.889   4.365   6.492
 5022SOL     OW15964   1.657   0.263   0.535
 5022SOL    HW115965   1.615   0.326   0.469
 5022SOL    HW215966   1.745   0.232   0.500
 5023SOL     OW15967   6.270   2.730   0.881
 5023SOL    HW115968   6.222   2.818   0.889
 5023SOL    HW215969   6.358   2.737   0.928
 5024SOL     OW15970   6.879   4.091   2.812
 5024SOL    HW115971   6.838   4.036   2.740
 5024SOL    HW215972   6.887   4.186   2.782
 5025SOL     OW15973   4.759   1.782   2.302
 5025SOL    HW115974   4.764   1.879   2.326
 5025SOL    HW215975   4.749   1.773   2.203
 5026SOL     OW15976   6.192   5.849   5.918
 5026SOL    HW115977   6.136   5.896   5.849
 5026SOL    HW215978   6.154   5.866   6.009
 5027SOL     OW15979   1.062   0.193   3.281
 5027SOL    HW115980   1.097   0.100   3.283
 5027SOL    HW215981   1.119   0.249   3.220
 5028SOL     OW15982   0.360   5.641   1.968
 5028SOL    HW115983   0.322   5.720   2.017
 5028SOL    HW215984   0.401   5.671   1.882
 5029SOL     OW15985   0.075   2.907   2.711
 5029SOL    HW115986   7.023   2.957   2.673
 5029SOL    HW215987   0.048   2.867   2.799
 5030SOL     OW15988   0.399   0.470   0.286
 5030SOL    HW115989   0.475   0.407   0.297
 5030SOL    HW215990   0.397   0.504   0.192
 5031SOL     OW15991   6.147   1.185   4.641
 5031SOL    HW115992   6.080   1.260   4.641
 5031SOL    HW215993   6.099   1.099   4.626
 5032SOL     OW15994   1.012   4.804   0.822
 5032SOL    HW115995   1.025   4.756   0.735
 5032SOL    HW215996   1.003   4.902   0.804
 5033SOL     OW15997   2.772   5.139   5.561
 5033SOL    HW115998   2.792   5.041   5.572
 5033SOL    HW215999   2.676   5.150   5.535
 5034SOL     OW16000   6.556   3.154   1.644
 5034SOL    HW116001   6.520   3.219   1.711
 5034SOL    HW216002   6.540   3.189   1.552
 5035SOL     OW16003   5.607   5.074   1.029
 5035SOL    HW116004   5.596   4.995   0.969
 5035SOL    HW216005   5.592   5.046   1.124
 5036SOL     OW16006   1.105   6.073   6.252
 5036SOL    HW116007   1.163   6.118   6.321
 5036SOL    HW216008   1.138   6.097   6.161
 5037SOL     OW16009   4.226   1.968   3.316
 5037SOL    HW116010   4.282   2.027   3.375
 5037SOL    HW216011   4.274   1.881   3.303
 5038SOL     OW16012   1.817   5.928   5.515
 5038SOL    HW116013   1.845   5.852   5.574
 5038SOL    HW216014   1.724   5.957   5.540
 5039SOL     OW16015   2.160   3.108   5.126
 5039SOL    HW116016   2.148   3.100   5.225
 5039SOL    HW216017   2.251   3.075   5.101
 5040SOL     OW16018   2.940   3.619   6.527
 5040SOL    HW116019   2.973   3.532   6.492
 5040SOL    HW216020   2.853   3.605   6.574
 5041SOL     OW16021   0.669   3.548   1.038
 5041SOL    HW116022   0.729   3.628   1.044
 5041SOL    HW216023   0.623   3.534   1.125
 5042SOL     OW16024   6.435   2.667   6.764
 5042SOL    HW116025   6.396   2.755   6.793
 5042SOL    HW216026   6.365   2.596   6.770
 5043SOL     OW16027   3.797   1.348   5.350
 5043SOL    HW116028   3.831   1.383   5.263
 5043SOL    HW216029   3.697   1.345   5.348
 5044SOL     OW16030   6.461   6.135   3.550
 5044SOL    HW116031   6.386   6.071   3.534
 5044SOL    HW216032   6.452   6.213   3.489
 5045SOL     OW16033   5.111   3.646   0.449
 5045SOL    HW116034   5.153   3.595   0.374
 5045SOL    HW216035   5.081   3.582   0.520
 5046SOL     OW16036   3.399   2.813   4.978
 5046SOL    HW116037   3.493   2.790   4.955
 5046SOL    HW216038   3.379   2.782   5.072
 5047SOL     OW16039   6.018   1.347   2.680
 5047SOL    HW116040   5.978   1.342   2.771
 5047SOL    HW216041   5.946   1.346   2.611
 5048SOL     OW16042   6.733   2.485   2.185
 5048SOL    HW116043   6.814   2.427   2.179
 5048SOL    HW216044   6.686   2.466   2.271
 5049SOL     OW16045   6.683   1.412   3.044
 5049SOL    HW116046   6.634   1.333   3.007
 5049SOL    HW216047   6.770   1.382   3.082
 5050SOL     OW16048   0.062   1.518   2.043
 5050SOL    HW116049   0.123   1.440   2.036
 5050SOL    HW216050   7.002   1.490   2.088
 5051SOL     OW16051   3.008   4.038   1.336
 5051SOL    HW116052   2.970   4.049   1.428
 5051SOL    HW216053   3.093   3.985   1.342
 5052SOL     OW16054   3.519   4.540   0.396
 5052SOL    HW116055   3.580   4.541   0.317
 5052SOL    HW216056   3.557   4.482   0.468
 5053SOL     OW16057   2.039   4.105   2.432
 5053SOL    HW116058   2.106   4.118   2.360
 5053SOL    HW216059   1.947   4.109   2.393
 5054SOL     OW16060   3.687   5.737   5.441
 5054SOL    HW116061   3.748   5.784   5.504
 5054SOL    HW216062   3.684   5.786   5.354
 5055SOL     OW16063   0.538   1.775   4.898
 5055SOL    HW116064   0.623   1.821   4.871
 5055SOL    HW216065   0.464   1.842   4.899
 5056SOL     OW16066   0.105   4.088   6.484
 5056SOL    HW116067   0.062   4.168   6.526
 5056SOL    HW216068   0.202   4.106   6.469
 5057SOL     OW16069   0.557   5.492   3.191
 5057SOL    HW116070   0.511   5.478   3.104
 5057SOL    HW216071   0.499   5.547   3.251
 5058SOL     OW16072   3.750   4.098   6.745
 5058SOL    HW116073   3.651   4.113   6.748
 5058SOL    HW216074   3.783   4.109   6.651
 5059SOL     OW16075   4.607   2.641   4.742
 5059SOL    HW116076   4.677   2.571   4.729
 5059SOL    HW216077   4.527   2.600   4.786
 5060SOL     OW16078   6.682   2.985   5.243
 5060SOL    HW116079   6.679   2.936   5.330
 5060SOL    HW216080   6.617   2.944   5.179
 5061SOL     OW16081   3.044   3.398   4.202
 5061SOL    HW116082   3.003   3.487   4.182
 5061SOL    HW216083   3.108   3.374   4.129
 5062SOL     OW16084   4.947   1.531   2.914
 5062SOL    HW116085   4.935   1.612   2.856
 5062SOL    HW216086   5.041   1.498   2.906
 5063SOL     OW16087   1.113   6.771   1.641
 5063SOL    HW116088   1.130   6.869   1.630
 5063SOL    HW216089   1.180   6.719   1.589
 5064SOL     OW16090   4.594   5.047   1.027
 5064SOL    HW116091   4.675   5.071   0.974
 5064SOL    HW216092   4.617   4.974   1.091
 5065SOL     OW16093   1.419   0.413   3.426
 5065SOL    HW116094   1.420   0.485   3.357
 5065SOL    HW216095   1.421   0.453   3.517
 5066SOL     OW16096   2.252   4.002   1.822
 5066SOL    HW116097   2.181   4.028   1.757
 5066SOL    HW216098   2.250   3.903   1.837
 5067SOL     OW16099   4.016   2.066   1.822
 5067SOL    HW116100   3.920   2.038   1.819
 5067SOL    HW216101   4.039   2.099   1.913
 5068SOL     OW16102   3.437   5.691   0.326
 5068SOL    HW116103   3.463   5.769   0.382
 5068SOL    HW216104   3.361   5.716   0.266
 5069SOL     OW16105   2.144   3.313   5.771
 5069SOL    HW116106   2.193   3.271   5.847
 5069SOL    HW216107   2.206   3.327   5.695
 5070SOL     OW16108   5.957   3.737   3.974
 5070SOL    HW116109   5.958   3.794   4.056
 5070SOL    HW216110   5.862   3.716   3.949
 5071SOL     OW16111   3.873   1.879   3.727
 5071SOL    HW116112   3.883   1.895   3.826
 5071SOL    HW216113   3.850   1.965   3.682
 5072SOL     OW16114   1.691   1.067   0.966
 5072SOL    HW116115   1.668   1.111   0.878
 5072SOL    HW216116   1.644   0.979   0.971
 5073SOL     OW16117   2.116   6.805   1.985
 5073SOL    HW116118   2.094   6.778   1.891
 5073SOL    HW216119   2.041   6.781   2.046
 5074SOL     OW16120   3.843   1.572   1.486
 5074SOL    HW116121   3.821   1.476   1.474
 5074SOL    HW216122   3.760   1.627   1.478
 5075SOL     OW16123   1.301   2.923   0.400
 5075SOL    HW116124   1.208   2.931   0.363
 5075SOL    HW216125   1.363   2.977   0.344
 5076SOL     OW16126   5.284   0.396   0.016
 5076SOL    HW116127   5.265   0.377   6.944
 5076SOL    HW216128   5.375   0.362   0.039
 5077SOL     OW16129   1.526   3.768   5.535
 5077SOL    HW116130   1.480   3.848   5.574
 5077SOL    HW216131   1.553   3.787   5.441
 5078SOL     OW16132   0.588   1.378   4.723
 5078SOL    HW116133   0.528   1.304   4.693
 5078SOL    HW216134   0.536   1.463   4.728
 5079SOL     OW16135   2.072   1.716   5.732
 5079SOL    HW116136   2.076   1.668   5.820
 5079SOL    HW216137   2.045   1.651   5.660
 5080SOL     OW16138   6.459   5.559   5.479
 5080SOL    HW116139   6.385   5.603   5.427
 5080SOL    HW216140   6.420   5.500   5.550
 5081SOL     OW16141   2.565   5.154   5.209
 5081SOL    HW116142   2.549   5.191   5.301
 5081SOL    HW216143   2.645   5.094   5.210
 5082SOL     OW16144   4.747   6.494   0.122
 5082SOL    HW116145   4.819   6.427   0.140
 5082SOL    HW216146   4.701   6.472   0.036
 5083SOL     OW16147   3.006   0.600   1.723
 5083SOL    HW116148   3.059   0.587   1.808
 5083SOL    HW216149   2.909   0.585   1.742
 5084SOL     OW16150   0.883   4.710   5.141
 5084SOL    HW116151   0.904   4.702   5.044
 5084SOL    HW216152   0.954   4.664   5.194
 5085SOL     OW16153   1.060   2.167   6.229
 5085SOL    HW116154   1.087   2.089   6.172
 5085SOL    HW216155   1.118   2.169   6.311
 5086SOL     OW16156   0.632   4.435   2.086
 5086SOL    HW116157   0.631   4.337   2.102
 5086SOL    HW216158   0.687   4.480   2.156
 5087SOL     OW16159   6.970   5.282   2.481
 5087SOL    HW116160   6.915   5.209   2.520
 5087SOL    HW216161   6.911   5.358   2.454
 5088SOL     OW16162   4.258   5.587   2.950
 5088SOL    HW116163   4.329   5.561   2.885
 5088SOL    HW216164   4.207   5.665   2.914
 5089SOL     OW16165   5.674   4.393   4.222
 5089SOL    HW116166   5.745   4.391   4.292
 5089SOL    HW216167   5.700   4.332   4.147
 5090SOL     OW16168   2.351   0.356   3.396
 5090SOL    HW116169   2.407   0.414   3.456
 5090SOL    HW216170   2.254   0.374   3.413
 5091SOL     OW16171   6.843   0.463   0.763
 5091SOL    HW116172   6.926   0.410   0.741
 5091SOL    HW216173   6.869   0.546   0.812
 5092SOL     OW16174   4.152   3.549   4.198
 5092SOL    HW116175   4.237   3.522   4.244
 5092SOL    HW216176   4.134   3.487   4.122
 5093SOL     OW16177   2.322   1.592   1.615
 5093SOL    HW116178   2.356   1.565   1.705
 5093SOL    HW216179   2.314   1.691   1.611
 5094SOL     OW16180   1.928   6.146   6.615
 5094SOL    HW116181   1.944   6.228   6.560
 5094SOL    HW216182   2.015   6.101   6.634
 5095SOL     OW16183   0.119   1.552   3.322
 5095SOL    HW116184   0.118   1.568   3.421
 5095SOL    HW216185   0.122   1.454   3.304
 5096SOL     OW16186   5.947   4.853   6.479
 5096SOL    HW116187   5.888   4.773   6.483
 5096SOL    HW216188   5.969   4.874   6.384
 5097SOL     OW16189   6.622   0.148   0.371
 5097SOL    HW116190   6.591   0.183   0.283
 5097SOL    HW216191   6.638   0.225   0.434
 5098SOL     OW16192   3.863   2.307   1.370
 5098SOL    HW116193   3.915   2.369   1.428
 5098SOL    HW216194   3.861   2.216   1.411
 5099SOL     OW16195   0.194   6.385   1.490
 5099SOL    HW116196   0.199   6.306   1.552
 5099SOL    HW216197   0.235   6.464   1.535
 5100SOL     OW16198   4.060   5.168   2.808
 5100SOL    HW116199   4.067   5.173   2.708
 5100SOL    HW216200   4.152   5.174   2.847
 5101SOL     OW16201   4.016   0.653   4.690
 5101SOL    HW116202   3.986   0.677   4.597
 5101SOL    HW216203   3.983   0.722   4.754
 5102SOL     OW16204   5.137   5.730   4.446
 5102SOL    HW116205   5.196   5.693   4.518
 5102SOL    HW216206   5.042   5.703   4.463
 5103SOL     OW16207   0.545   1.105   4.424
 5103SOL    HW116208   0.559   1.027   4.363
 5103SOL    HW216209   0.628   1.161   4.425
 5104SOL     OW16210   3.303   5.898   1.942
 5104SOL    HW116211   3.358   5.956   2.002
 5104SOL    HW216212   3.218   5.872   1.988
 5105SOL     OW16213   3.279   3.197   6.800
 5105SOL    HW116214   3.326   3.196   6.711
 5105SOL    HW216215   3.278   3.105   6.838
 5106SOL     OW16216   3.635   1.574   1.101
 5106SOL    HW116217   3.714   1.536   1.053
 5106SOL    HW216218   3.650   1.672   1.116
 5107SOL     OW16219   5.121   2.533   1.310
 5107SOL    HW116220   5.156   2.596   1.379
 5107SOL    HW216221   5.106   2.443   1.352
 5108SOL     OW16222   4.357   3.784   5.656
 5108SOL    HW116223   4.348   3.733   5.741
 5108SOL    HW216224   4.379   3.879   5.676
 5109SOL     OW16225   1.065   2.510   0.866
 5109SOL    HW116226   1.096   2.421   0.832
 5109SOL    HW216227   1.144   2.567   0.886
 5110SOL     OW16228   0.330   0.456   6.329
 5110SOL    HW116229   0.372   0.544   6.349
 5110SOL    HW216230   0.258   0.468   6.260
 5111SOL     OW16231   1.212   6.714   4.473
 5111SOL    HW116232   1.231   6.621   4.443
 5111SOL    HW216233   1.209   6.717   4.573
 5112SOL     OW16234   0.307   0.575   2.704
 5112SOL    HW116235   0.296   0.477   2.689
 5112SOL    HW216236   0.241   0.606   2.773
 5113SOL     OW16237   1.486   5.798   1.315
 5113SOL    HW116238   1.493   5.699   1.320
 5113SOL    HW216239   1.577   5.838   1.307
 5114SOL     OW16240   3.937   6.749   0.470
 5114SOL    HW116241   3.890   6.812   0.408
 5114SOL    HW216242   3.942   6.658   0.428
 5115SOL     OW16243   1.922   3.815   1.854
 5115SOL    HW116244   1.985   3.757   1.803
 5115SOL    HW216245   1.842   3.761   1.880
 5116SOL     OW16246   2.138   6.266   6.986
 5116SOL    HW116247   2.201   6.334   7.024
 5116SOL    HW216248   2.184   6.216   6.913
 5117SOL     OW16249   0.961   3.473   4.044
 5117SOL    HW116250   1.050   3.491   4.002
 5117SOL    HW216251   0.899   3.548   4.024
 5118SOL     OW16252   6.198   6.772   0.265
 5118SOL    HW116253   6.176   6.772   0.363
 5118SOL    HW216254   6.123   6.731   0.214
 5119SOL     OW16255   4.648   1.445   0.919
 5119SOL    HW116256   4.734   1.406   0.951
 5119SOL    HW216257   4.577   1.431   0.987
 5120SOL     OW16258   4.851   6.767   5.129
 5120SOL    HW116259   4.764   6.810   5.153
 5120SOL    HW216260   4.926   6.832   5.142
 5121SOL     OW16261   3.428   3.712   0.136
 5121SOL    HW116262   3.468   3.755   0.056
 5121SOL    HW216263   3.489   3.642   0.171
 5122SOL     OW16264   3.841   6.009   3.312
 5122SOL    HW116265   3.933   5.988   3.277
 5122SOL    HW216266   3.839   6.103   3.346
 5123SOL     OW16267   5.547   2.616   3.380
 5123SOL    HW116268   5.604   2.685   3.426
 5123SOL    HW216269   5.451   2.647   3.382
 5124SOL     OW16270   2.115   6.555   3.234
 5124SOL    HW116271   2.137   6.536   3.138
 5124SOL    HW216272   2.179   6.505   3.293
 5125SOL     OW16273   0.416   2.215   2.687
 5125SOL    HW116274   0.490   2.281   2.701
 5125SOL    HW216275   0.400   2.203   2.589
 5126SOL     OW16276   1.108   6.333   6.984
 5126SOL    HW116277   1.042   6.398   7.021
 5126SOL    HW216278   1.183   6.321   0.024
 5127SOL     OW16279   1.057   5.495   6.987
 5127SOL    HW116280   1.050   5.451   6.897
 5127SOL    HW216281   1.147   5.538   6.996
 5128SOL     OW16282   6.709   6.493   0.943
 5128SOL    HW116283   6.699   6.394   0.934
 5128SOL    HW216284   6.749   6.530   0.859
 5129SOL     OW16285   5.262   6.665   2.146
 5129SOL    HW116286   5.224   6.690   2.057
 5129SOL    HW216287   5.238   6.735   2.213
 5130SOL     OW16288   7.013   4.559   3.185
 5130SOL    HW116289   0.035   4.506   3.256
 5130SOL    HW216290   0.011   4.655   3.194
 5131SOL     OW16291   1.749   3.396   4.300
 5131SOL    HW116292   1.777   3.388   4.204
 5131SOL    HW216293   1.818   3.353   4.358
 5132SOL     OW16294   4.174   2.951   6.440
 5132SOL    HW116295   4.259   2.980   6.484
 5132SOL    HW216296   4.193   2.924   6.345
 5133SOL     OW16297   3.463   4.834   0.451
 5133SOL    HW116298   3.482   4.736   0.452
 5133SOL    HW216299   3.406   4.858   0.529
 5134SOL     OW16300   0.555   2.828   1.489
 5134SOL    HW116301   0.646   2.831   1.449
 5134SOL    HW216302   0.510   2.742   1.464
 5135SOL     OW16303   6.293   2.482   5.212
 5135SOL    HW116304   6.352   2.526   5.279
 5135SOL    HW216305   6.236   2.413   5.258
 5136SOL     OW16306   5.489   0.237   5.698
 5136SOL    HW116307   5.514   0.153   5.651
 5136SOL    HW216308   5.483   0.312   5.632
 5137SOL     OW16309   5.737   3.302   6.732
 5137SOL    HW116310   5.748   3.366   6.808
 5137SOL    HW216311   5.795   3.331   6.656
 5138SOL     OW16312   3.498   2.833   5.598
 5138SOL    HW116313   3.421   2.852   5.538
 5138SOL    HW216314   3.567   2.780   5.549
 5139SOL     OW16315   0.953   6.662   3.590
 5139SOL    HW116316   1.011   6.638   3.668
 5139SOL    HW216317   0.940   6.761   3.586
 5140SOL     OW16318   2.906   1.575   0.110
 5140SOL    HW116319   2.968   1.599   0.036
 5140SOL    HW216320   2.815   1.556   0.072
 5141SOL     OW16321   6.308   3.535   0.665
 5141SOL    HW116322   6.356   3.595   0.730
 5141SOL    HW216323   6.209   3.546   0.677
 5142SOL     OW16324   6.052   1.814   3.914
 5142SOL    HW116325   6.084   1.894   3.863
 5142SOL    HW216326   5.953   1.807   3.906
 5143SOL     OW16327   0.408   4.100   3.619
 5143SOL    HW116328   0.459   4.133   3.699
 5143SOL    HW216329   0.418   4.001   3.611
 5144SOL     OW16330   1.175   6.681   6.429
 5144SOL    HW116331   1.233   6.658   6.350
 5144SOL    HW216332   1.218   6.755   6.481
 5145SOL     OW16333   2.740   5.468   6.203
 5145SOL    HW116334   2.781   5.545   6.154
 5145SOL    HW216335   2.724   5.493   6.298
 5146SOL     OW16336   4.450   3.496   6.420
 5146SOL    HW116337   4.422   3.401   6.403
 5146SOL    HW216338   4.458   3.511   6.519
 5147SOL     OW16339   0.238   3.931   1.845
 5147SOL    HW116340   0.229   3.879   1.930
 5147SOL    HW216341   0.312   3.893   1.790
 5148SOL     OW16342   0.329   6.266   1.285
 5148SOL    HW116343   0.358   6.321   1.207
 5148SOL    HW216344   0.280   6.324   1.350
 5149SOL     OW16345   5.729   6.597   4.175
 5149SOL    HW116346   5.741   6.590   4.076
 5149SOL    HW216347   5.651   6.541   4.202
 5150SOL     OW16348   2.349   4.996   3.564
 5150SOL    HW116349   2.418   5.060   3.599
 5150SOL    HW216350   2.388   4.944   3.488
 5151SOL     OW16351   5.097   1.062   0.551
 5151SOL    HW116352   5.145   1.007   0.483
 5151SOL    HW216353   5.123   1.031   0.643
 5152SOL     OW16354   1.746   4.813   6.296
 5152SOL    HW116355   1.737   4.745   6.368
 5152SOL    HW216356   1.657   4.827   6.252
 5153SOL     OW16357   2.440   1.182   6.498
 5153SOL    HW116358   2.431   1.275   6.535
 5153SOL    HW216359   2.357   1.157   6.450
 5154SOL     OW16360   1.687   3.071   6.198
 5154SOL    HW116361   1.686   3.016   6.115
 5154SOL    HW216362   1.691   3.168   6.173
 5155SOL     OW16363   4.150   6.554   2.241
 5155SOL    HW116364   4.133   6.509   2.153
 5155SOL    HW216365   4.162   6.653   2.225
 5156SOL     OW16366   7.018   2.815   5.833
 5156SOL    HW116367   6.975   2.775   5.914
 5156SOL    HW216368   0.054   2.889   5.860
 5157SOL     OW16369   4.749   2.384   3.762
 5157SOL    HW116370   4.742   2.290   3.728
 5157SOL    HW216371   4.827   2.429   3.719
 5158SOL     OW16372   3.601   1.720   1.422
 5158SOL    HW116373   3.524   1.741   1.482
 5158SOL    HW216374   3.599   1.782   1.343
 5159SOL     OW16375   0.556   3.078   4.976
 5159SOL    HW116376   0.613   2.996   4.985
 5159SOL    HW216377   0.487   3.079   5.049
 5160SOL     OW16378   0.817   3.761   4.302
 5160SOL    HW116379   0.813   3.761   4.202
 5160SOL    HW216380   0.911   3.773   4.331
 5161SOL     OW16381   1.002   4.005   4.877
 5161SOL    HW116382   1.078   4.030   4.937
 5161SOL    HW216383   0.971   4.085   4.825
 5162SOL     OW16384   0.639   5.074   4.041
 5162SOL    HW116385   0.577   5.146   4.072
 5162SOL    HW216386   0.680   5.030   4.121
 5163SOL     OW16387   3.954   5.049   1.433
 5163SOL    HW116388   3.995   5.076   1.520
 5163SOL    HW216389   3.996   5.101   1.359
 5164SOL     OW16390   6.144   2.423   5.982
 5164SOL    HW116391   6.095   2.448   5.898
 5164SOL    HW216392   6.106   2.339   6.019
 5165SOL     OW16393   5.534   4.318   4.906
 5165SOL    HW116394   5.494   4.237   4.950
 5165SOL    HW216395   5.510   4.318   4.809
 5166SOL     OW16396   1.447   5.250   1.567
 5166SOL    HW116397   1.457   5.199   1.482
 5166SOL    HW216398   1.350   5.274   1.581
 5167SOL     OW16399   6.302   0.273   5.695
 5167SOL    HW116400   6.226   0.301   5.754
 5167SOL    HW216401   6.350   0.196   5.738
 5168SOL     OW16402   4.961   2.300   3.393
 5168SOL    HW116403   5.026   2.342   3.456
 5168SOL    HW216404   5.006   2.284   3.305
 5169SOL     OW16405   3.164   2.985   5.842
 5169SOL    HW116406   3.123   3.015   5.756
 5169SOL    HW216407   3.227   2.909   5.824
 5170SOL     OW16408   6.968   3.864   6.057
 5170SOL    HW116409   7.009   3.871   5.967
 5170SOL    HW216410   6.990   3.946   6.110
 5171SOL     OW16411   2.283   4.985   4.720
 5171SOL    HW116412   2.355   5.016   4.782
 5171SOL    HW216413   2.198   4.973   4.771
 5172SOL     OW16414   1.084   3.117   1.866
 5172SOL    HW116415   0.989   3.112   1.898
 5172SOL    HW216416   1.146   3.098   1.941
 5173SOL     OW16417   5.799   4.554   6.306
 5173SOL    HW116418   5.850   4.515   6.383
 5173SOL    HW216419   5.715   4.597   6.341
 5174SOL     OW16420   1.947   4.918   4.518
 5174SOL    HW116421   2.015   4.972   4.470
 5174SOL    HW216422   1.986   4.830   4.544
 5175SOL     OW16423   2.352   4.341   6.308
 5175SOL    HW116424   2.272   4.331   6.367
 5175SOL    HW216425   2.435   4.343   6.363
 5176SOL     OW16426   3.910   2.914   1.027
 5176SOL    HW116427   3.888   2.886   0.933
 5176SOL    HW216428   3.908   2.834   1.087
 5177SOL     OW16429   5.239   0.338   5.874
 5177SOL    HW116430   5.201   0.264   5.929
 5177SOL    HW216431   5.257   0.305   5.781
 5178SOL     OW16432   2.673   2.553   0.759
 5178SOL    HW116433   2.740   2.499   0.810
 5178SOL    HW216434   2.583   2.544   0.803
 5179SOL     OW16435   4.836   5.685   5.164
 5179SOL    HW116436   4.914   5.719   5.111
 5179SOL    HW216437   4.772   5.760   5.181
 5180SOL     OW16438   3.037   2.666   6.403
 5180SOL    HW116439   2.993   2.755   6.411
 5180SOL    HW216440   2.987   2.610   6.337
 5181SOL     OW16441   4.152   0.985   3.103
 5181SOL    HW116442   4.232   1.033   3.137
 5181SOL    HW216443   4.087   1.051   3.065
 5182SOL     OW16444   5.245   5.052   1.363
 5182SOL    HW116445   5.200   5.090   1.281
 5182SOL    HW216446   5.233   5.115   1.439
 5183SOL     OW16447   4.515   6.614   2.253
 5183SOL    HW116448   4.464   6.673   2.191
 5183SOL    HW216449   4.491   6.637   2.348
 5184SOL     OW16450   0.633   1.607   3.944
 5184SOL    HW116451   0.578   1.621   4.026
 5184SOL    HW216452   0.724   1.574   3.970
 5185SOL     OW16453   4.505   0.203   3.242
 5185SOL    HW116454   4.504   0.164   3.150
 5185SOL    HW216455   4.413   0.197   3.281
 5186SOL     OW16456   6.103   3.903   0.928
 5186SOL    HW116457   6.132   3.967   0.857
 5186SOL    HW216458   6.172   3.832   0.938
 5187SOL     OW16459   6.446   1.048   3.928
 5187SOL    HW116460   6.480   1.133   3.970
 5187SOL    HW216461   6.496   1.031   3.843
 5188SOL     OW16462   0.465   5.257   0.978
 5188SOL    HW116463   0.500   5.173   1.020
 5188SOL    HW216464   0.542   5.316   0.954
 5189SOL     OW16465   4.458   5.027   0.517
 5189SOL    HW116466   4.504   5.081   0.587
 5189SOL    HW216467   4.462   5.075   0.429
 5190SOL     OW16468   1.183   1.968   4.503
 5190SOL    HW116469   1.093   1.926   4.514
 5190SOL    HW216470   1.172   2.061   4.468
 5191SOL     OW16471   3.755   0.866   1.689
 5191SOL    HW116472   3.690   0.798   1.722
 5191SOL    HW216473   3.832   0.872   1.753
 5192SOL     OW16474   4.749   5.753   2.508
 5192SOL    HW116475   4.790   5.665   2.532
 5192SOL    HW216476   4.671   5.771   2.568
 5193SOL     OW16477   4.547   4.442   3.725
 5193SOL    HW116478   4.585   4.356   3.760
 5193SOL    HW216479   4.603   4.474   3.648
 5194SOL     OW16480   5.097   0.299   6.381
 5194SOL    HW116481   5.188   0.331   6.409
 5194SOL    HW216482   5.104   0.203   6.353
 5195SOL     OW16483   6.307   6.442   4.678
 5195SOL    HW116484   6.281   6.463   4.583
 5195SOL    HW216485   6.404   6.417   4.681
 5196SOL     OW16486   0.823   3.787   1.082
 5196SOL    HW116487   0.903   3.847   1.074
 5196SOL    HW216488   0.758   3.826   1.147
 5197SOL     OW16489   2.017   6.050   4.018
 5197SOL    HW116490   1.979   6.047   4.110
 5197SOL    HW216491   2.117   6.040   4.022
 5198SOL     OW16492   2.929   0.055   4.544
 5198SOL    HW116493   2.951   6.990   4.580
 5198SOL    HW216494   2.834   0.058   4.513
 5199SOL     OW16495   2.514   5.588   1.163
 5199SOL    HW116496   2.466   5.634   1.238
 5199SOL    HW216497   2.448   5.550   1.099
 5200SOL     OW16498   1.041   2.212   5.006
 5200SOL    HW116499   1.062   2.130   5.059
 5200SOL    HW216500   1.054   2.293   5.064
 5201SOL     OW16501   5.469   5.670   4.585
 5201SOL    HW116502   5.491   5.719   4.501
 5201SOL    HW216503   5.494   5.574   4.576
 5202SOL     OW16504   5.266   3.347   6.704
 5202SOL    HW116505   5.237   3.332   6.609
 5202SOL    HW216506   5.264   3.446   6.723
 5203SOL     OW16507   1.586   0.353   6.033
 5203SOL    HW116508   1.656   0.297   6.078
 5203SOL    HW216509   1.563   0.313   5.944
 5204SOL     OW16510   2.921   6.628   6.879
 5204SOL    HW116511   2.998   6.671   6.925
 5204SOL    HW216512   2.947   6.536   6.850
 5205SOL     OW16513   0.069   5.467   6.918
 5205SOL    HW116514   0.099   5.541   6.857
 5205SOL    HW216515   6.997   5.480   6.940
 5206SOL     OW16516   0.672   4.905   5.585
 5206SOL    HW116517   0.591   4.939   5.634
 5206SOL    HW216518   0.721   4.982   5.545
 5207SOL     OW16519   0.087   0.059   4.135
 5207SOL    HW116520   0.087   7.022   4.057
 5207SOL    HW216521   0.062   0.009   4.218
 5208SOL     OW16522   4.570   2.629   6.908
 5208SOL    HW116523   4.663   2.621   6.872
 5208SOL    HW216524   4.572   2.623   7.008
 5209SOL     OW16525   5.085   6.993   2.846
 5209SOL    HW116526   5.034   7.004   2.931
 5209SOL    HW216527   5.125   0.055   2.819
 5210SOL     OW16528   5.227   4.142   1.227
 5210SOL    HW116529   5.154   4.191   1.179
 5210SOL    HW216530   5.202   4.046   1.237
 5211SOL     OW16531   5.282   2.253   4.533
 5211SOL    HW116532   5.316   2.162   4.513
 5211SOL    HW216533   5.238   2.254   4.623
 5212SOL     OW16534   1.073   2.204   0.761
 5212SOL    HW116535   1.049   2.126   0.818
 5212SOL    HW216536   1.011   2.207   0.682
 5213SOL     OW16537   4.156   3.692   2.075
 5213SOL    HW116538   4.252   3.667   2.070
 5213SOL    HW216539   4.133   3.754   2.000
 5214SOL     OW16540   5.075   4.493   6.214
 5214SOL    HW116541   5.067   4.486   6.115
 5214SOL    HW216542   5.170   4.513   6.239
 5215SOL     OW16543   6.690   3.335   4.148
 5215SOL    HW116544   6.786   3.324   4.123
 5215SOL    HW216545   6.637   3.368   4.070
 5216SOL     OW16546   5.291   5.425   1.115
 5216SOL    HW116547   5.272   5.521   1.100
 5216SOL    HW216548   5.228   5.388   1.183
 5217SOL     OW16549   3.721   5.377   3.740
 5217SOL    HW116550   3.813   5.365   3.703
 5217SOL    HW216551   3.655   5.367   3.666
 5218SOL     OW16552   0.460   1.501   0.830
 5218SOL    HW116553   0.415   1.531   0.914
 5218SOL    HW216554   0.397   1.444   0.776
 5219SOL     OW16555   3.481   1.405   4.805
 5219SOL    HW116556   3.386   1.415   4.835
 5219SOL    HW216557   3.512   1.491   4.766
 5220SOL     OW16558   1.541   5.081   2.886
 5220SOL    HW116559   1.638   5.077   2.909
 5220SOL    HW216560   1.527   5.045   2.794
 5221SOL     OW16561   0.135   0.480   1.610
 5221SOL    HW116562   0.047   0.467   1.654
 5221SOL    HW216563   0.207   0.443   1.669
 5222SOL     OW16564   3.720   5.425   1.857
 5222SOL    HW116565   3.633   5.421   1.807
 5222SOL    HW216566   3.742   5.334   1.892
 5223SOL     OW16567   0.129   2.331   1.120
 5223SOL    HW116568   0.114   2.272   1.042
 5223SOL    HW216569   0.046   2.334   1.177
 5224SOL     OW16570   0.915   1.888   4.496
 5224SOL    HW116571   0.892   1.793   4.516
 5224SOL    HW216572   0.911   1.904   4.398
 5225SOL     OW16573   6.394   1.597   4.417
 5225SOL    HW116574   6.401   1.666   4.346
 5225SOL    HW216575   6.325   1.529   4.391
 5226SOL     OW16576   0.210   5.431   3.479
 5226SOL    HW116577   0.123   5.466   3.512
 5226SOL    HW216578   0.250   5.496   3.415
 5227SOL     OW16579   0.495   3.938   5.907
 5227SOL    HW116580   0.446   4.015   5.867
 5227SOL    HW216581   0.580   3.970   5.948
 5228SOL     OW16582   1.046   2.368   0.033
 5228SOL    HW116583   1.094   2.306   6.997
 5228SOL    HW216584   0.967   2.407   7.011
 5229SOL     OW16585   3.578   6.016   6.285
 5229SOL    HW116586   3.541   6.025   6.193
 5229SOL    HW216587   3.557   5.925   6.321
 5230SOL     OW16588   0.032   0.557   2.555
 5230SOL    HW116589   0.111   0.496   2.567
 5230SOL    HW216590   6.984   0.508   2.508
 5231SOL     OW16591   5.110   1.537   3.543
 5231SOL    HW116592   5.161   1.573   3.465
 5231SOL    HW216593   5.060   1.611   3.587
 5232SOL     OW16594   1.674   4.040   5.960
 5232SOL    HW116595   1.650   4.052   6.057
 5232SOL    HW216596   1.761   4.086   5.942
 5233SOL     OW16597   3.250   0.679   2.333
 5233SOL    HW116598   3.161   0.648   2.365
 5233SOL    HW216599   3.279   0.759   2.385
 5234SOL     OW16600   2.769   3.360   6.992
 5234SOL    HW116601   2.738   3.335   0.058
 5234SOL    HW216602   2.861   3.324   6.977
 5235SOL     OW16603   2.233   2.349   0.519
 5235SOL    HW116604   2.143   2.382   0.492
 5235SOL    HW216605   2.266   2.283   0.452
 5236SOL     OW16606   2.788   4.984   2.131
 5236SOL    HW116607   2.870   5.036   2.157
 5236SOL    HW216608   2.706   5.032   2.161
 5237SOL     OW16609   2.196   1.624   4.393
 5237SOL    HW116610   2.129   1.553   4.413
 5237SOL    HW216611   2.283   1.583   4.365
 5238SOL     OW16612   0.989   4.534   1.967
 5238SOL    HW116613   0.909   4.562   1.913
 5238SOL    HW216614   1.026   4.613   2.015
 5239SOL     OW16615   3.510   3.955   1.165
 5239SOL    HW116616   3.554   3.866   1.178
 5239SOL    HW216617   3.555   4.022   1.225
 5240SOL     OW16618   2.709   2.313   5.213
 5240SOL    HW116619   2.712   2.215   5.192
 5240SOL    HW216620   2.799   2.342   5.246
 5241SOL     OW16621   1.423   6.257   2.159
 5241SOL    HW116622   1.369   6.240   2.076
 5241SOL    HW216623   1.491   6.328   2.141
 5242SOL     OW16624   4.962   0.381   1.656
 5242SOL    HW116625   4.905   0.456   1.692
 5242SOL    HW216626   4.910   0.331   1.587
 5243SOL     OW16627   2.111   6.124   1.728
 5243SOL    HW116628   2.131   6.097   1.634
 5243SOL    HW216629   2.012   6.121   1.743
 5244SOL     OW16630   4.680   3.111   0.222
 5244SOL    HW116631   4.695   3.066   0.310
 5244SOL    HW216632   4.676   3.210   0.234
 5245SOL     OW16633   3.970   4.088   0.276
 5245SOL    HW116634   3.984   4.146   0.356
 5245SOL    HW216635   3.983   3.992   0.302
 5246SOL     OW16636   6.152   2.386   2.486
 5246SOL    HW116637   6.207   2.329   2.425
 5246SOL    HW216638   6.063   2.344   2.500
 5247SOL     OW16639   3.928   1.162   5.508
 5247SOL    HW116640   3.858   1.096   5.534
 5247SOL    HW216641   3.886   1.238   5.458
 5248SOL     OW16642   0.076   2.156   2.864
 5248SOL    HW116643   0.067   2.060   2.837
 5248SOL    HW216644   0.153   2.165   2.927
 5249SOL     OW16645   1.473   5.482   6.364
 5249SOL    HW116646   1.380   5.503   6.394
 5249SOL    HW216647   1.536   5.490   6.441
 5250SOL     OW16648   1.637   5.794   0.321
 5250SOL    HW116649   1.556   5.840   0.285
 5250SOL    HW216650   1.688   5.857   0.379
 5251SOL     OW16651   0.865   4.714   1.024
 5251SOL    HW116652   0.768   4.730   1.006
 5251SOL    HW216653   0.920   4.764   0.957
 5252SOL     OW16654   2.804   0.066   2.412
 5252SOL    HW116655   2.750   0.136   2.458
 5252SOL    HW216656   2.808   7.009   2.468
 5253SOL     OW16657   5.694   4.666   4.853
 5253SOL    HW116658   5.739   4.618   4.928
 5253SOL    HW216659   5.665   4.757   4.883
 5254SOL     OW16660   5.754   0.717   3.377
 5254SOL    HW116661   5.674   0.693   3.432
 5254SOL    HW216662   5.741   0.685   3.283
 5255SOL     OW16663   5.584   2.242   4.445
 5255SOL    HW116664   5.544   2.179   4.512
 5255SOL    HW216665   5.517   2.314   4.424
 5256SOL     OW16666   5.034   1.359   3.357
 5256SOL    HW116667   5.034   1.419   3.437
 5256SOL    HW216668   4.949   1.306   3.355
 5257SOL     OW16669   4.701   7.013   0.524
 5257SOL    HW116670   4.709   0.087   0.531
 5257SOL    HW216671   4.605   6.987   0.538
 5258SOL     OW16672   5.399   1.953   3.018
 5258SOL    HW116673   5.446   2.038   2.995
 5258SOL    HW216674   5.411   1.886   2.945
 5259SOL     OW16675   5.005   5.292   2.537
 5259SOL    HW116676   5.039   5.386   2.542
 5259SOL    HW216677   4.913   5.292   2.499
 5260SOL     OW16678   3.691   5.342   0.015
 5260SOL    HW116679   3.779   5.321   6.998
 5260SOL    HW216680   3.701   5.423   0.073
 5261SOL     OW16681   0.194   4.452   0.458
 5261SOL    HW116682   0.150   4.542   0.451
 5261SOL    HW216683   0.134   4.382   0.421
 5262SOL     OW16684   2.756   1.000   3.415
 5262SOL    HW116685   2.706   0.997   3.502
 5262SOL    HW216686   2.703   0.952   3.345
 5263SOL     OW16687   1.954   1.448   3.023
 5263SOL    HW116688   1.945   1.468   2.926
 5263SOL    HW216689   1.894   1.372   3.048
 5264SOL     OW16690   6.660   2.110   2.539
 5264SOL    HW116691   6.759   2.119   2.555
 5264SOL    HW216692   6.639   2.016   2.514
 5265SOL     OW16693   6.093   3.261   4.540
 5265SOL    HW116694   6.054   3.221   4.623
 5265SOL    HW216695   6.063   3.356   4.530
 5266SOL     OW16696   2.241   6.905   1.340
 5266SOL    HW116697   2.248   6.840   1.264
 5266SOL    HW216698   2.265   6.997   1.308
 5267SOL     OW16699   4.772   2.410   4.700
 5267SOL    HW116700   4.761   2.348   4.779
 5267SOL    HW216701   4.868   2.417   4.676
 5268SOL     OW16702   5.054   0.568   6.758
 5268SOL    HW116703   4.979   0.597   6.699
 5268SOL    HW216704   5.129   0.635   6.753
 5269SOL     OW16705   0.822   6.270   2.572
 5269SOL    HW116706   0.755   6.226   2.631
 5269SOL    HW216707   0.851   6.207   2.500
 5270SOL     OW16708   5.258   1.699   1.385
 5270SOL    HW116709   5.195   1.753   1.441
 5270SOL    HW216710   5.352   1.716   1.415
 5271SOL     OW16711   6.364   4.590   5.469
 5271SOL    HW116712   6.267   4.602   5.448
 5271SOL    HW216713   6.388   4.493   5.466
 5272SOL     OW16714   3.466   5.816   0.853
 5272SOL    HW116715   3.398   5.816   0.779
 5272SOL    HW216716   3.458   5.731   0.905
 5273SOL     OW16717   1.028   3.740   2.546
 5273SOL    HW116718   1.062   3.754   2.639
 5273SOL    HW216719   0.951   3.801   2.529
 5274SOL     OW16720   5.237   6.547   2.654
 5274SOL    HW116721   5.203   6.635   2.687
 5274SOL    HW216722   5.336   6.543   2.665
 5275SOL     OW16723   3.235   1.304   0.907
 5275SOL    HW116724   3.151   1.250   0.901
 5275SOL    HW216725   3.269   1.303   1.001
 5276SOL     OW16726   2.490   0.560   1.998
 5276SOL    HW116727   2.420   0.625   1.967
 5276SOL    HW216728   2.456   0.467   1.990
 5277SOL     OW16729   2.908   1.003   2.500
 5277SOL    HW116730   2.932   1.057   2.581
 5277SOL    HW216731   2.856   0.922   2.528
 5278SOL     OW16732   4.946   4.765   3.605
 5278SOL    HW116733   4.992   4.686   3.564
 5278SOL    HW216734   4.875   4.798   3.543
 5279SOL     OW16735   2.318   5.527   0.975
 5279SOL    HW116736   2.242   5.471   1.008
 5279SOL    HW216737   2.373   5.474   0.910
 5280SOL     OW16738   2.990   6.090   4.692
 5280SOL    HW116739   2.957   6.000   4.722
 5280SOL    HW216740   2.934   6.122   4.616
 5281SOL     OW16741   6.563   1.855   2.445
 5281SOL    HW116742   6.639   1.792   2.429
 5281SOL    HW216743   6.501   1.815   2.514
 5282SOL     OW16744   2.583   1.286   3.354
 5282SOL    HW116745   2.679   1.278   3.328
 5282SOL    HW216746   2.537   1.349   3.292
 5283SOL     OW16747   4.983   6.458   1.468
 5283SOL    HW116748   5.028   6.548   1.468
 5283SOL    HW216749   4.953   6.436   1.560
 5284SOL     OW16750   5.373   4.406   2.632
 5284SOL    HW116751   5.305   4.395   2.705
 5284SOL    HW216752   5.327   4.411   2.544
 5285SOL     OW16753   3.070   4.893   3.914
 5285SOL    HW116754   3.155   4.881   3.965
 5285SOL    HW216755   3.070   4.982   3.869
 5286SOL     OW16756   2.419   4.064   1.147
 5286SOL    HW116757   2.325   4.093   1.164
 5286SOL    HW216758   2.480   4.105   1.215
 5287SOL     OW16759   2.452   1.534   0.698
 5287SOL    HW116760   2.427   1.568   0.608
 5287SOL    HW216761   2.461   1.434   0.695
 5288SOL     OW16762   4.132   0.329   1.302
 5288SOL    HW116763   4.124   0.358   1.207
 5288SOL    HW216764   4.065   0.379   1.357
 5289SOL     OW16765   0.946   5.386   0.231
 5289SOL    HW116766   1.038   5.405   0.265
 5289SOL    HW216767   0.945   5.397   0.131
 5290SOL     OW16768   3.171   5.988   6.824
 5290SOL    HW116769   3.114   5.925   6.771
 5290SOL    HW216770   3.253   5.941   6.856
 5291SOL     OW16771   2.606   5.576   5.974
 5291SOL    HW116772   2.628   5.540   6.064
 5291SOL    HW216773   2.560   5.664   5.984
 5292SOL     OW16774   5.782   3.545   6.928
 5292SOL    HW116775   5.684   3.551   6.942
 5292SOL    HW216776   5.829   3.539   7.016
 5293SOL     OW16777   0.969   0.762   4.777
 5293SOL    HW116778   0.960   0.752   4.678
 5293SOL    HW216779   0.945   0.855   4.803
 5294SOL     OW16780   5.461   3.150   6.642
 5294SOL    HW116781   5.380   3.208   6.650
 5294SOL    HW216782   5.543   3.203   6.665
 5295SOL     OW16783   5.143   1.073   2.970
 5295SOL    HW116784   5.235   1.103   2.997
 5295SOL    HW216785   5.082   1.152   2.969
 5296SOL     OW16786   1.817   4.675   0.204
 5296SOL    HW116787   1.859   4.656   0.293
 5296SOL    HW216788   1.752   4.602   0.182
 5297SOL     OW16789   2.474   2.248   0.780
 5297SOL    HW116790   2.430   2.336   0.765
 5297SOL    HW216791   2.486   2.233   0.879
 5298SOL     OW16792   6.702   5.234   2.036
 5298SOL    HW116793   6.782   5.284   2.068
 5298SOL    HW216794   6.635   5.226   2.110
 5299SOL     OW16795   3.066   0.831   1.607
 5299SOL    HW116796   3.040   0.743   1.646
 5299SOL    HW216797   3.109   0.817   1.517
 5300SOL     OW16798   0.136   5.657   3.062
 5300SOL    HW116799   0.122   5.589   2.990
 5300SOL    HW216800   0.047   5.687   3.098
 5301SOL     OW16801   4.233   1.783   6.990
 5301SOL    HW116802   4.268   1.852   0.028
 5301SOL    HW216803   4.304   1.715   6.971
 5302SOL     OW16804   6.721   4.271   2.671
 5302SOL    HW116805   6.666   4.332   2.728
 5302SOL    HW216806   6.666   4.239   2.594
 5303SOL     OW16807   6.402   4.665   3.829
 5303SOL    HW116808   6.363   4.691   3.740
 5303SOL    HW216809   6.482   4.607   3.814
 5304SOL     OW16810   4.999   2.231   6.134
 5304SOL    HW116811   5.070   2.291   6.098
 5304SOL    HW216812   5.036   2.177   6.210
 5305SOL     OW16813   2.009   0.552   3.882
 5305SOL    HW116814   2.010   0.576   3.785
 5305SOL    HW216815   1.998   0.453   3.891
 5306SOL     OW16816   2.396   6.322   5.729
 5306SOL    HW116817   2.478   6.359   5.772
 5306SOL    HW216818   2.326   6.308   5.799
 5307SOL     OW16819   4.562   6.856   6.300
 5307SOL    HW116820   4.506   6.818   6.373
 5307SOL    HW216821   4.571   6.955   6.311
 5308SOL     OW16822   7.021   0.260   3.999
 5308SOL    HW116823   6.961   0.318   4.054
 5308SOL    HW216824   0.028   0.183   4.054
 5309SOL     OW16825   3.652   3.529   3.594
 5309SOL    HW116826   3.672   3.436   3.565
 5309SOL    HW216827   3.687   3.593   3.525
 5310SOL     OW16828   4.994   2.372   1.518
 5310SOL    HW116829   4.950   2.314   1.449
 5310SOL    HW216830   4.997   2.323   1.605
 5311SOL     OW16831   2.101   5.510   0.128
 5311SOL    HW116832   2.093   5.566   0.045
 5311SOL    HW216833   2.134   5.566   0.203
 5312SOL     OW16834   1.202   4.722   2.505
 5312SOL    HW116835   1.298   4.712   2.478
 5312SOL    HW216836   1.182   4.818   2.524
 5313SOL     OW16837   1.076   6.028   6.635
 5313SOL    HW116838   1.043   6.082   6.712
 5313SOL    HW216839   1.000   5.978   6.594
 5314SOL     OW16840   4.633   5.306   0.027
 5314SOL    HW116841   4.665   5.378   0.089
 5314SOL    HW216842   4.705   5.239   0.014
 5315SOL     OW16843   5.370   3.914   1.820
 5315SOL    HW116844   5.387   4.012   1.813
 5315SOL    HW216845   5.457   3.864   1.814
 5316SOL     OW16846   6.900   5.041   4.805
 5316SOL    HW116847   6.805   5.032   4.775
 5316SOL    HW216848   6.954   5.082   4.732
 5317SOL     OW16849   5.644   0.791   2.962
 5317SOL    HW116850   5.677   0.846   3.038
 5317SOL    HW216851   5.544   0.794   2.959
 5318SOL     OW16852   6.911   2.884   4.570
 5318SOL    HW116853   6.962   2.821   4.511
 5318SOL    HW216854   6.839   2.928   4.517
 5319SOL     OW16855   5.511   0.256   0.063
 5319SOL    HW116856   5.528   0.185   7.020
 5319SOL    HW216857   5.531   0.221   0.154
 5320SOL     OW16858   5.676   3.817   6.937
 5320SOL    HW116859   5.748   3.834   7.003
 5320SOL    HW216860   5.658   3.900   6.885
 5321SOL     OW16861   1.964   5.516   5.520
 5321SOL    HW116862   1.942   5.447   5.452
 5321SOL    HW216863   1.881   5.544   5.567
 5322SOL     OW16864   4.249   6.151   6.109
 5322SOL    HW116865   4.325   6.092   6.080
 5322SOL    HW216866   4.285   6.225   6.167
 5323SOL     OW16867   4.064   2.120   0.198
 5323SOL    HW116868   4.015   2.143   0.113
 5323SOL    HW216869   4.012   2.050   0.247
 5324SOL     OW16870   3.828   3.043   1.573
 5324SOL    HW116871   3.903   3.104   1.548
 5324SOL    HW216872   3.778   3.082   1.651
 5325SOL     OW16873   4.903   6.218   2.401
 5325SOL    HW116874   4.913   6.225   2.302
 5325SOL    HW216875   4.842   6.141   2.423
 5326SOL     OW16876   0.031   5.633   1.647
 5326SOL    HW116877   6.975   5.575   1.656
 5326SOL    HW216878   0.112   5.581   1.674
 5327SOL     OW16879   6.540   6.967   4.624
 5327SOL    HW116880   6.483   0.012   4.668
 5327SOL    HW216881   6.490   6.880   4.624
 5328SOL     OW16882   4.191   3.691   6.594
 5328SOL    HW116883   4.264   3.680   6.661
 5328SOL    HW216884   4.205   3.774   6.542
 5329SOL     OW16885   0.717   4.733   0.597
 5329SOL    HW116886   0.672   4.818   0.623
 5329SOL    HW216887   0.797   4.753   0.540
 5330SOL     OW16888   3.605   3.573   0.884
 5330SOL    HW116889   3.628   3.664   0.918
 5330SOL    HW216890   3.540   3.580   0.808
 5331SOL     OW16891   4.384   1.877   0.378
 5331SOL    HW116892   4.350   1.836   0.463
 5331SOL    HW216893   4.443   1.812   0.331
 5332SOL     OW16894   6.313   5.207   0.741
 5332SOL    HW116895   6.221   5.211   0.780
 5332SOL    HW216896   6.374   5.267   0.793
 5333SOL     OW16897   2.070   1.129   3.309
 5333SOL    HW116898   2.075   1.156   3.213
 5333SOL    HW216899   2.153   1.158   3.357
 5334SOL     OW16900   4.434   4.571   3.502
 5334SOL    HW116901   4.450   4.478   3.536
 5334SOL    HW216902   4.451   4.574   3.403
 5335SOL     OW16903   0.267   4.786   1.680
 5335SOL    HW116904   0.218   4.705   1.713
 5335SOL    HW216905   0.279   4.779   1.581
 5336SOL     OW16906   1.958   1.781   4.022
 5336SOL    HW116907   1.921   1.688   4.020
 5336SOL    HW216908   2.042   1.785   3.967
 5337SOL     OW16909   6.572   4.204   1.246
 5337SOL    HW116910   6.524   4.143   1.184
 5337SOL    HW216911   6.671   4.194   1.232
 5338SOL     OW16912   6.309   2.884   0.122
 5338SOL    HW116913   6.288   2.797   0.168
 5338SOL    HW216914   6.407   2.888   0.102
 5339SOL     OW16915   6.201   2.342   2.764
 5339SOL    HW116916   6.206   2.404   2.686
 5339SOL    HW216917   6.106   2.315   2.779
 5340SOL     OW16918   5.698   2.869   2.301
 5340SOL    HW116919   5.749   2.783   2.298
 5340SOL    HW216920   5.649   2.876   2.388
 5341SOL     OW16921   4.754   4.544   3.522
 5341SOL    HW116922   4.755   4.558   3.423
 5341SOL    HW216923   4.758   4.633   3.567
 5342SOL     OW16924   6.075   6.906   5.385
 5342SOL    HW116925   6.024   6.991   5.385
 5342SOL    HW216926   6.040   6.846   5.458
 5343SOL     OW16927   3.989   3.650   5.452
 5343SOL    HW116928   3.911   3.709   5.475
 5343SOL    HW216929   4.022   3.673   5.361
 5344SOL     OW16930   0.574   1.426   7.018
 5344SOL    HW116931   0.551   1.363   0.067
 5344SOL    HW216932   0.637   1.381   6.954
 5345SOL     OW16933   5.301   1.301   6.682
 5345SOL    HW116934   5.304   1.226   6.616
 5345SOL    HW216935   5.264   1.383   6.639
 5346SOL     OW16936   2.779   4.725   3.427
 5346SOL    HW116937   2.756   4.781   3.506
 5346SOL    HW216938   2.793   4.630   3.455
 5347SOL     OW16939   6.422   2.444   4.047
 5347SOL    HW116940   6.370   2.359   4.051
 5347SOL    HW216941   6.369   2.517   4.089
 5348SOL     OW16942   5.196   1.963   4.155
 5348SOL    HW116943   5.157   2.052   4.176
 5348SOL    HW216944   5.181   1.942   4.058
 5349SOL     OW16945   1.019   2.765   1.775
 5349SOL    HW116946   1.096   2.816   1.735
 5349SOL    HW216947   1.052   2.708   1.850
 5350SOL     OW16948   1.713   6.514   5.912
 5350SOL    HW116949   1.684   6.421   5.890
 5350SOL    HW216950   1.660   6.580   5.857
 5351SOL     OW16951   0.550   5.442   1.783
 5351SOL    HW116952   0.596   5.496   1.853
 5351SOL    HW216953   0.503   5.364   1.825
 5352SOL     OW16954   1.675   3.928   3.694
 5352SOL    HW116955   1.654   3.954   3.600
 5352SOL    HW216956   1.771   3.903   3.701
 5353SOL     OW16957   4.610   5.127   3.540
 5353SOL    HW116958   4.523   5.141   3.493
 5353SOL    HW216959   4.637   5.211   3.586
 5354SOL     OW16960   3.803   5.548   0.593
 5354SOL    HW116961   3.862   5.468   0.586
 5354SOL    HW216962   3.716   5.530   0.547
 5355SOL     OW16963   5.214   5.224   5.334
 5355SOL    HW116964   5.115   5.235   5.349
 5355SOL    HW216965   5.230   5.144   5.276
 5356SOL     OW16966   0.292   4.383   1.582
 5356SOL    HW116967   0.206   4.342   1.550
 5356SOL    HW216968   0.280   4.417   1.675
 5357SOL     OW16969   4.036   5.078   1.690
 5357SOL    HW116970   4.009   5.046   1.781
 5357SOL    HW216971   4.021   5.177   1.684
 5358SOL     OW16972   4.376   1.231   0.135
 5358SOL    HW116973   4.400   1.245   0.232
 5358SOL    HW216974   4.300   1.167   0.128
 5359SOL     OW16975   1.762   2.030   0.326
 5359SOL    HW116976   1.680   2.008   0.378
 5359SOL    HW216977   1.836   1.968   0.354
 5360SOL     OW16978   5.604   4.945   3.987
 5360SOL    HW116979   5.618   5.044   3.984
 5360SOL    HW216980   5.635   4.904   3.902
 5361SOL     OW16981   3.288   6.204   2.627
 5361SOL    HW116982   3.387   6.211   2.645
 5361SOL    HW216983   3.255   6.292   2.593
 5362SOL     OW16984   4.957   0.164   2.314
 5362SOL    HW116985   4.944   0.065   2.314
 5362SOL    HW216986   4.898   0.206   2.383
 5363SOL     OW16987   6.026   5.788   4.645
 5363SOL    HW116988   6.013   5.887   4.647
 5363SOL    HW216989   6.100   5.762   4.707
 5364SOL     OW16990   4.791   0.531   2.938
 5364SOL    HW116991   4.715   0.555   2.998
 5364SOL    HW216992   4.871   0.509   2.994
 5365SOL     OW16993   3.255   3.347   4.057
 5365SOL    HW116994   3.308   3.271   4.094
 5365SOL    HW216995   3.279   3.360   3.960
 5366SOL     OW16996   6.480   0.200   1.636
 5366SOL    HW116997   6.436   0.196   1.546
 5366SOL    HW216998   6.497   0.108   1.669
 5367SOL     OW16999   6.856   6.623   0.747
 5367SOL    HW117000   6.906   6.618   0.661
 5367SOL    HW217001   6.777   6.683   0.736
 5368SOL     OW17002   6.448   5.513   3.325
 5368SOL    HW117003   6.526   5.572   3.311
 5368SOL    HW217004   6.479   5.421   3.350
 5369SOL     OW17005   2.601   5.390   2.014
 5369SOL    HW117006   2.546   5.430   1.942
 5369SOL    HW217007   2.696   5.379   1.983
 5370SOL     OW17008   3.263   4.133   0.984
 5370SOL    HW117009   3.302   4.145   1.075
 5370SOL    HW217010   3.258   4.036   0.962
 5371SOL     OW17011   6.827   5.530   5.210
 5371SOL    HW117012   6.803   5.502   5.303
 5371SOL    HW217013   6.871   5.454   5.163
 5372SOL     OW17014   1.127   0.430   2.730
 5372SOL    HW117015   1.063   0.386   2.667
 5372SOL    HW217016   1.167   0.362   2.791
 5373SOL     OW17017   4.228   6.779   5.613
 5373SOL    HW117018   4.133   6.750   5.596
 5373SOL    HW217019   4.274   6.711   5.669
 5374SOL     OW17020   2.767   5.202   1.075
 5374SOL    HW117021   2.810   5.257   1.004
 5374SOL    HW217022   2.800   5.107   1.068
 5375SOL     OW17023   1.076   5.624   4.829
 5375SOL    HW117024   1.119   5.696   4.776
 5375SOL    HW217025   1.137   5.544   4.833
 5376SOL     OW17026   1.374   1.552   0.565
 5376SOL    HW117027   1.438   1.555   0.642
 5376SOL    HW217028   1.309   1.627   0.573
 5377SOL     OW17029   2.266   0.761   2.883
 5377SOL    HW117030   2.209   0.798   2.810
 5377SOL    HW217031   2.248   0.813   2.967
 5378SOL     OW17032   5.546   0.769   1.343
 5378SOL    HW117033   5.588   0.759   1.253
 5378SOL    HW217034   5.519   0.864   1.357
 5379SOL     OW17035   0.883   2.829   5.888
 5379SOL    HW117036   0.853   2.903   5.827
 5379SOL    HW217037   0.908   2.867   5.976
 5380SOL     OW17038   4.551   6.887   1.619
 5380SOL    HW117039   4.640   6.919   1.652
 5380SOL    HW217040   4.525   6.805   1.668
 5381SOL     OW17041   5.131   6.539   3.041
 5381SOL    HW117042   5.230   6.523   3.049
 5381SOL    HW217043   5.091   6.473   2.978
 5382SOL     OW17044   3.854   1.695   2.901
 5382SOL    HW117045   3.900   1.762   2.844
 5382SOL    HW217046   3.759   1.723   2.917
 5383SOL     OW17047   1.609   3.152   4.117
 5383SOL    HW117048   1.600   3.141   4.018
 5383SOL    HW217049   1.674   3.226   4.137
 5384SOL     OW17050   4.868   5.709   5.483
 5384SOL    HW117051   4.885   5.657   5.567
 5384SOL    HW217052   4.771   5.706   5.461
 5385SOL     OW17053   6.127   2.476   5.710
 5385SOL    HW117054   6.031   2.481   5.682
 5385SOL    HW217055   6.163   2.385   5.690
 5386SOL     OW17056   6.217   3.942   4.018
 5386SOL    HW117057   6.301   3.893   4.045
 5386SOL    HW217058   6.223   3.968   3.922
 5387SOL     OW17059   2.307   1.021   2.130
 5387SOL    HW117060   2.293   1.088   2.203
 5387SOL    HW217061   2.340   1.067   2.047
 5388SOL     OW17062   0.833   6.644   2.701
 5388SOL    HW117063   0.868   6.568   2.755
 5388SOL    HW217064   0.872   6.639   2.609
 5389SOL     OW17065   4.686   1.860   4.397
 5389SOL    HW117066   4.704   1.785   4.461
 5389SOL    HW217067   4.600   1.905   4.422
 5390SOL     OW17068   6.537   3.513   3.697
 5390SOL    HW117069   6.553   3.468   3.609
 5390SOL    HW217070   6.449   3.561   3.694
 5391SOL     OW17071   2.153   2.129   6.991
 5391SOL    HW117072   2.182   2.224   6.985
 5391SOL    HW217073   2.192   2.088   0.048
 5392SOL     OW17074   4.863   1.826   3.820
 5392SOL    HW117075   4.796   1.761   3.857
 5392SOL    HW217076   4.870   1.814   3.722
 5393SOL     OW17077   4.112   0.976   5.517
 5393SOL    HW117078   4.031   1.034   5.506
 5393SOL    HW217079   4.193   1.034   5.519
 5394SOL     OW17080   2.203   0.711   0.505
 5394SOL    HW117081   2.262   0.791   0.519
 5394SOL    HW217082   2.214   0.679   0.411
 5395SOL     OW17083   4.687   1.988   1.280
 5395SOL    HW117084   4.704   2.086   1.271
 5395SOL    HW217085   4.600   1.974   1.327
 5396SOL     OW17086   5.943   5.590   2.566
 5396SOL    HW117087   5.844   5.606   2.573
 5396SOL    HW217088   5.964   5.559   2.473
 5397SOL     OW17089   6.200   1.313   3.011
 5397SOL    HW117090   6.212   1.412   3.005
 5397SOL    HW217091   6.290   1.269   3.021
 5398SOL     OW17092   4.746   2.064   3.377
 5398SOL    HW117093   4.683   2.070   3.454
 5398SOL    HW217094   4.803   2.146   3.374
 5399SOL     OW17095   1.884   6.928   5.396
 5399SOL    HW117096   1.810   6.964   5.453
 5399SOL    HW217097   1.956   6.996   5.388
 5400SOL     OW17098   3.663   3.377   1.400
 5400SOL    HW117099   3.587   3.442   1.386
 5400SOL    HW217100   3.750   3.424   1.385
 5401SOL     OW17101   5.770   4.361   2.374
 5401SOL    HW117102   5.837   4.434   2.386
 5401SOL    HW217103   5.715   4.379   2.292
 5402SOL     OW17104   2.157   0.365   0.917
 5402SOL    HW117105   2.150   0.436   0.847
 5402SOL    HW217106   2.128   0.402   1.005
 5403SOL     OW17107   4.756   3.366   7.003
 5403SOL    HW117108   4.828   3.410   6.949
 5403SOL    HW217109   4.788   3.353   0.071
 5404SOL     OW17110   6.557   0.837   0.920
 5404SOL    HW117111   6.542   0.918   0.976
 5404SOL    HW217112   6.501   0.843   0.837
 5405SOL     OW17113   5.347   5.615   6.909
 5405SOL    HW117114   5.354   5.556   6.990
 5405SOL    HW217115   5.333   5.559   6.828
 5406SOL     OW17116   2.648   0.344   4.399
 5406SOL    HW117117   2.727   0.363   4.342
 5406SOL    HW217118   2.565   0.371   4.351
 5407SOL     OW17119   2.488   0.747   1.441
 5407SOL    HW117120   2.392   0.763   1.416
 5407SOL    HW217121   2.544   0.745   1.359
 5408SOL     OW17122   2.565   2.519   4.640
 5408SOL    HW117123   2.562   2.551   4.735
 5408SOL    HW217124   2.487   2.556   4.590
 5409SOL     OW17125   0.683   2.563   1.260
 5409SOL    HW117126   0.744   2.534   1.186
 5409SOL    HW217127   0.588   2.558   1.230
 5410SOL     OW17128   0.800   2.085   0.894
 5410SOL    HW117129   0.840   2.166   0.851
 5410SOL    HW217130   0.867   2.011   0.893
 5411SOL     OW17131   4.224   5.448   6.935
 5411SOL    HW117132   4.254   5.458   6.841
 5411SOL    HW217133   4.281   5.380   6.982
 5412SOL     OW17134   0.372   2.194   6.229
 5412SOL    HW117135   0.351   2.168   6.135
 5412SOL    HW217136   0.288   2.194   6.283
 5413SOL     OW17137   6.744   7.007   4.984
 5413SOL    HW117138   6.695   0.068   4.985
 5413SOL    HW217139   6.681   6.933   5.008
 5414SOL     OW17140   6.701   3.978   5.960
 5414SOL    HW117141   6.626   3.967   6.026
 5414SOL    HW217142   6.786   3.944   6.000
 5415SOL     OW17143   3.297   0.234   0.720
 5415SOL    HW117144   3.394   0.222   0.743
 5415SOL    HW217145   3.284   0.220   0.622
 5416SOL     OW17146   3.319   4.979   5.686
 5416SOL    HW117147   3.392   5.036   5.722
 5416SOL    HW217148   3.352   4.928   5.606
 5417SOL     OW17149   4.917   6.123   3.606
 5417SOL    HW117150   4.938   6.028   3.584
 5417SOL    HW217151   4.887   6.171   3.524
 5418SOL     OW17152   5.893   4.446   4.378
 5418SOL    HW117153   5.898   4.412   4.472
 5418SOL    HW217154   5.855   4.538   4.377
 5419SOL     OW17155   3.618   0.075   6.478
 5419SOL    HW117156   3.678   0.075   6.557
 5419SOL    HW217157   3.655   0.135   6.407
 5420SOL     OW17158   1.433   1.498   1.031
 5420SOL    HW117159   1.387   1.515   0.944
 5420SOL    HW217160   1.504   1.428   1.018
 5421SOL     OW17161   3.636   5.018   2.308
 5421SOL    HW117162   3.605   4.984   2.397
 5421SOL    HW217163   3.557   5.028   2.247
 5422SOL     OW17164   1.968   5.745   3.987
 5422SOL    HW117165   1.902   5.705   3.923
 5422SOL    HW217166   1.959   5.845   3.984
 5423SOL     OW17167   6.566   6.384   2.598
 5423SOL    HW117168   6.505   6.318   2.643
 5423SOL    HW217169   6.513   6.463   2.567
 5424SOL     OW17170   4.607   4.294   5.174
 5424SOL    HW117171   4.641   4.200   5.177
 5424SOL    HW217172   4.612   4.329   5.081
 5425SOL     OW17173   0.326   3.821   6.416
 5425SOL    HW117174   0.351   3.917   6.432
 5425SOL    HW217175   0.243   3.817   6.362
 5426SOL     OW17176   5.782   5.213   2.020
 5426SOL    HW117177   5.735   5.277   1.959
 5426SOL    HW217178   5.718   5.141   2.048
 5427SOL     OW17179   4.964   2.434   6.919
 5427SOL    HW117180   4.946   2.448   7.017
 5427SOL    HW217181   5.062   2.434   6.903
 5428SOL     OW17182   6.816   4.877   3.212
 5428SOL    HW117183   6.782   4.931   3.135
 5428SOL    HW217184   6.916   4.885   3.218
 5429SOL     OW17185   2.502   0.442   3.958
 5429SOL    HW117186   2.597   0.410   3.961
 5429SOL    HW217187   2.453   0.394   3.885
 5430SOL     OW17188   2.979   3.833   6.363
 5430SOL    HW117189   2.932   3.909   6.408
 5430SOL    HW217190   2.982   3.754   6.424
 5431SOL     OW17191   3.101   5.077   6.189
 5431SOL    HW117192   3.074   5.041   6.279
 5431SOL    HW217193   3.062   5.168   6.177
 5432SOL     OW17194   5.676   5.767   1.593
 5432SOL    HW117195   5.582   5.797   1.609
 5432SOL    HW217196   5.736   5.846   1.586
 5433SOL     OW17197   1.586   0.416   0.747
 5433SOL    HW117198   1.627   0.358   0.676
 5433SOL    HW217199   1.490   0.433   0.724
 5434SOL     OW17200   4.836   1.184   5.720
 5434SOL    HW117201   4.847   1.110   5.654
 5434SOL    HW217202   4.858   1.152   5.812
 5435SOL     OW17203   5.889   3.862   1.093
 5435SOL    HW117204   5.820   3.794   1.068
 5435SOL    HW217205   5.963   3.861   1.027
 5436SOL     OW17206   1.617   5.175   2.472
 5436SOL    HW117207   1.527   5.181   2.514
 5436SOL    HW217208   1.607   5.162   2.373
 5437SOL     OW17209   3.762   5.525   0.180
 5437SOL    HW117210   3.738   5.496   0.273
 5437SOL    HW217211   3.827   5.601   0.185
 5438SOL     OW17212   4.534   4.523   2.722
 5438SOL    HW117213   4.498   4.611   2.691
 5438SOL    HW217214   4.526   4.456   2.648
 5439SOL     OW17215   0.866   4.410   0.915
 5439SOL    HW117216   0.966   4.412   0.902
 5439SOL    HW217217   0.834   4.502   0.935
 5440SOL     OW17218   5.647   6.029   3.394
 5440SOL    HW117219   5.662   5.982   3.481
 5440SOL    HW217220   5.588   6.109   3.409
 5441SOL     OW17221   4.599   2.561   3.915
 5441SOL    HW117222   4.513   2.510   3.925
 5441SOL    HW217223   4.671   2.499   3.883
 5442SOL     OW17224   5.162   6.837   4.578
 5442SOL    HW117225   5.080   6.819   4.524
 5442SOL    HW217226   5.152   6.797   4.669
 5443SOL     OW17227   4.881   6.596   4.765
 5443SOL    HW117228   4.835   6.681   4.741
 5443SOL    HW217229   4.948   6.573   4.695
 5444SOL     OW17230   0.192   0.782   3.980
 5444SOL    HW117231   0.135   0.721   4.036
 5444SOL    HW217232   0.288   0.770   4.004
 5445SOL     OW17233   5.742   5.823   5.687
 5445SOL    HW117234   5.742   5.830   5.587
 5445SOL    HW217235   5.658   5.863   5.723
 5446SOL     OW17236   0.529   4.336   5.898
 5446SOL    HW117237   0.620   4.345   5.938
 5446SOL    HW217238   0.531   4.368   5.803
 5447SOL     OW17239   1.631   1.635   0.440
 5447SOL    HW117240   1.541   1.619   0.481
 5447SOL    HW217241   1.634   1.727   0.400
 5448SOL     OW17242   4.208   5.880   3.631
 5448SOL    HW117243   4.121   5.843   3.598
 5448SOL    HW217244   4.231   5.837   3.718
 5449SOL     OW17245   3.176   1.693   1.897
 5449SOL    HW117246   3.261   1.649   1.925
 5449SOL    HW217247   3.193   1.789   1.873
 5450SOL     OW17248   4.057   5.762   2.023
 5450SOL    HW117249   3.963   5.727   2.031
 5450SOL    HW217250   4.054   5.861   2.007
 5451SOL     OW17251   1.264   0.854   3.341
 5451SOL    HW117252   1.328   0.919   3.382
 5451SOL    HW217253   1.183   0.845   3.399
 5452SOL     OW17254   1.954   4.488   2.244
 5452SOL    HW117255   2.011   4.484   2.162
 5452SOL    HW217256   1.858   4.495   2.217
 5453SOL     OW17257   5.646   4.320   3.179
 5453SOL    HW117258   5.696   4.246   3.134
 5453SOL    HW217259   5.548   4.308   3.164
 5454SOL     OW17260   5.923   5.305   3.441
 5454SOL    HW117261   5.855   5.346   3.501
 5454SOL    HW217262   5.887   5.300   3.348
 5455SOL     OW17263   0.204   1.994   2.438
 5455SOL    HW117264   0.278   1.941   2.479
 5455SOL    HW217265   0.236   2.087   2.420
 5456SOL     OW17266   5.127   0.898   6.600
 5456SOL    HW117267   5.190   0.949   6.542
 5456SOL    HW217268   5.175   0.864   6.681
 5457SOL     OW17269   6.108   2.096   0.898
 5457SOL    HW117270   6.096   2.026   0.828
 5457SOL    HW217271   6.066   2.182   0.867
 5458SOL     OW17272   5.940   4.621   1.256
 5458SOL    HW117273   5.954   4.644   1.352
 5458SOL    HW217274   6.029   4.605   1.213
 5459SOL     OW17275   2.095   4.686   5.914
 5459SOL    HW117276   2.159   4.691   5.991
 5459SOL    HW217277   2.017   4.745   5.931
 5460SOL     OW17278   1.695   0.726   0.453
 5460SOL    HW117279   1.633   0.650   0.431
 5460SOL    HW217280   1.658   0.778   0.530
 5461SOL     OW17281   0.002   1.416   6.443
 5461SOL    HW117282   0.040   1.366   6.521
 5461SOL    HW217283   0.058   1.399   6.362
 5462SOL     OW17284   5.019   6.089   6.706
 5462SOL    HW117285   5.100   6.122   6.756
 5462SOL    HW217286   5.049   6.030   6.631
 5463SOL     OW17287   0.029   2.488   6.836
 5463SOL    HW117288   0.004   2.477   6.932
 5463SOL    HW217289   0.070   2.578   6.822
 5464SOL     OW17290   6.237   6.310   5.645
 5464SOL    HW117291   6.320   6.320   5.699
 5464SOL    HW217292   6.158   6.342   5.698
 5465SOL     OW17293   0.232   6.270   3.591
 5465SOL    HW117294   0.261   6.351   3.540
 5465SOL    HW217295   0.138   6.283   3.624
 5466SOL     OW17296   5.914   2.618   5.244
 5466SOL    HW117297   5.961   2.599   5.158
 5466SOL    HW217298   5.823   2.655   5.225
 5467SOL     OW17299   5.611   3.895   3.553
 5467SOL    HW117300   5.531   3.847   3.588
 5467SOL    HW217301   5.587   3.944   3.469
 5468SOL     OW17302   6.477   1.938   2.728
 5468SOL    HW117303   6.573   1.951   2.753
 5468SOL    HW217304   6.423   2.016   2.758
 5469SOL     OW17305   2.219   1.210   5.687
 5469SOL    HW117306   2.187   1.267   5.762
 5469SOL    HW217307   2.188   1.116   5.700
 5470SOL     OW17308   4.163   5.468   4.441
 5470SOL    HW117309   4.145   5.447   4.537
 5470SOL    HW217310   4.139   5.389   4.385
 5471SOL     OW17311   4.928   6.911   2.286
 5471SOL    HW117312   4.872   6.828   2.292
 5471SOL    HW217313   5.020   6.892   2.321
 5472SOL     OW17314   3.482   1.595   6.193
 5472SOL    HW117315   3.425   1.654   6.135
 5472SOL    HW217316   3.570   1.639   6.209
 5473SOL     OW17317   1.981   4.684   1.391
 5473SOL    HW117318   1.933   4.677   1.303
 5473SOL    HW217319   2.058   4.620   1.392
 5474SOL     OW17320   0.840   5.474   3.553
 5474SOL    HW117321   0.802   5.541   3.617
 5474SOL    HW217322   0.851   5.516   3.463
 5475SOL     OW17323   0.799   2.015   6.954
 5475SOL    HW117324   0.862   2.033   0.005
 5475SOL    HW217325   0.716   2.069   6.966
 5476SOL     OW17326   2.667   6.348   5.813
 5476SOL    HW117327   2.710   6.364   5.725
 5476SOL    HW217328   2.719   6.394   5.885
 5477SOL     OW17329   2.081   5.004   4.147
 5477SOL    HW117330   2.082   4.974   4.242
 5477SOL    HW217331   2.050   5.099   4.142
 5478SOL     OW17332   6.060   4.872   6.214
 5478SOL    HW117333   6.110   4.790   6.187
 5478SOL    HW217334   6.119   4.952   6.203
 5479SOL     OW17335   4.287   1.736   5.113
 5479SOL    HW117336   4.259   1.829   5.135
 5479SOL    HW217337   4.278   1.721   5.015
 5480SOL     OW17338   6.239   4.347   5.358
 5480SOL    HW117339   6.190   4.306   5.282
 5480SOL    HW217340   6.220   4.296   5.442
 5481SOL     OW17341   4.140   1.043   6.263
 5481SOL    HW117342   4.191   0.959   6.281
 5481SOL    HW217343   4.196   1.105   6.207
 5482SOL     OW17344   3.653   3.868   1.933
 5482SOL    HW117345   3.738   3.915   1.910
 5482SOL    HW217346   3.670   3.769   1.935
 5483SOL     OW17347   6.051   3.146   6.018
 5483SOL    HW117348   6.116   3.183   6.084
 5483SOL    HW217349   5.999   3.222   5.977
 5484SOL     OW17350   7.006   6.366   4.151
 5484SOL    HW117351   7.015   6.300   4.077
 5484SOL    HW217352   0.047   6.345   4.223
 5485SOL     OW17353   3.553   0.265   4.455
 5485SOL    HW117354   3.561   0.203   4.534
 5485SOL    HW217355   3.638   0.316   4.444
 5486SOL     OW17356   1.479   0.538   3.664
 5486SOL    HW117357   1.472   0.456   3.722
 5486SOL    HW217358   1.487   0.619   3.723
 5487SOL     OW17359   6.304   4.312   0.671
 5487SOL    HW117360   6.267   4.328   0.762
 5487SOL    HW217361   6.375   4.380   0.651
 5488SOL     OW17362   4.755   2.095   0.160
 5488SOL    HW117363   4.833   2.086   0.098
 5488SOL    HW217364   4.670   2.081   0.109
 5489SOL     OW17365   1.335   4.450   2.409
 5489SOL    HW117366   1.286   4.450   2.322
 5489SOL    HW217367   1.304   4.373   2.465
 5490SOL     OW17368   3.573   6.983   0.766
 5490SOL    HW117369   3.587   0.045   0.813
 5490SOL    HW217370   3.641   6.916   0.798
 5491SOL     OW17371   1.659   4.509   0.072
 5491SOL    HW117372   1.627   4.416   0.093
 5491SOL    HW217373   1.633   4.532   7.003
 5492SOL     OW17374   1.162   1.614   6.192
 5492SOL    HW117375   1.208   1.651   6.272
 5492SOL    HW217376   1.063   1.624   6.203
 5493SOL     OW17377   3.794   2.876   5.565
 5493SOL    HW117378   3.725   2.936   5.525
 5493SOL    HW217379   3.872   2.930   5.596
 5494SOL     OW17380   6.874   3.197   0.734
 5494SOL    HW117381   6.824   3.269   0.781
 5494SOL    HW217382   6.889   3.224   0.638
 5495SOL     OW17383   3.505   3.736   1.558
 5495SOL    HW117384   3.603   3.749   1.544
 5495SOL    HW217385   3.457   3.822   1.538
 5496SOL     OW17386   3.436   6.193   1.848
 5496SOL    HW117387   3.474   6.105   1.877
 5496SOL    HW217388   3.385   6.181   1.762
 5497SOL     OW17389   0.460   1.975   2.827
 5497SOL    HW117390   0.431   2.061   2.784
 5497SOL    HW217391   0.536   1.936   2.776
 5498SOL     OW17392   4.616   1.198   6.237
 5498SOL    HW117393   4.700   1.146   6.224
 5498SOL    HW217394   4.590   1.242   6.151
 5499SOL     OW17395   0.167   0.634   3.394
 5499SOL    HW117396   0.078   0.614   3.352
 5499SOL    HW217397   0.240   0.618   3.328
 5500SOL     OW17398   2.199   5.289   6.731
 5500SOL    HW117399   2.143   5.209   6.752
 5500SOL    HW217400   2.274   5.262   6.670
 5501SOL     OW17401   2.581   0.357   2.271
 5501SOL    HW117402   2.594   0.308   2.185
 5501SOL    HW217403   2.604   0.453   2.259
 5502SOL     OW17404   5.982   4.099   5.625
 5502SOL    HW117405   5.956   4.069   5.533
 5502SOL    HW217406   5.933   4.183   5.647
 5503SOL     OW17407   1.018   4.766   3.240
 5503SOL    HW117408   0.955   4.842   3.223
 5503SOL    HW217409   1.050   4.769   3.335
 5504SOL     OW17410   3.077   0.670   4.784
 5504SOL    HW117411   3.072   0.724   4.868
 5504SOL    HW217412   3.161   0.693   4.734
 5505SOL     OW17413   2.112   6.200   4.915
 5505SOL    HW117414   2.075   6.290   4.939
 5505SOL    HW217415   2.037   6.136   4.902
 5506SOL     OW17416   6.849   0.685   4.372
 5506SOL    HW117417   6.870   0.747   4.296
 5506SOL    HW217418   6.800   0.735   4.443
 5507SOL     OW17419   2.514   6.374   3.110
 5507SOL    HW117420   2.596   6.383   3.167
 5507SOL    HW217421   2.506   6.279   3.078
 5508SOL     OW17422   2.488   0.712   6.683
 5508SOL    HW117423   2.498   0.696   6.585
 5508SOL    HW217424   2.498   0.810   6.702
 5509SOL     OW17425   6.194   6.015   0.308
 5509SOL    HW117426   6.285   6.009   0.350
 5509SOL    HW217427   6.137   5.941   0.340
 5510SOL     OW17428   4.215   6.750   6.624
 5510SOL    HW117429   4.238   6.814   6.698
 5510SOL    HW217430   4.162   6.798   6.554
 5511SOL     OW17431   1.078   0.741   2.621
 5511SOL    HW117432   1.143   0.714   2.692
 5511SOL    HW217433   0.993   0.773   2.663
 5512SOL     OW17434   6.577   2.052   0.538
 5512SOL    HW117435   6.626   2.131   0.501
 5512SOL    HW217436   6.574   1.980   0.469
 5513SOL     OW17437   4.967   4.253   4.888
 5513SOL    HW117438   4.989   4.315   4.963
 5513SOL    HW217439   5.012   4.285   4.804
 5514SOL     OW17440   5.666   4.751   2.702
 5514SOL    HW117441   5.698   4.657   2.713
 5514SOL    HW217442   5.724   4.798   2.635
 5515SOL     OW17443   6.680   2.742   1.571
 5515SOL    HW117444   6.603   2.728   1.633
 5515SOL    HW217445   6.653   2.806   1.499
 5516SOL     OW17446   1.885   3.082   0.097
 5516SOL    HW117447   1.893   2.985   0.072
 5516SOL    HW217448   1.833   3.130   0.027
 5517SOL     OW17449   3.396   2.241   1.808
 5517SOL    HW117450   3.480   2.292   1.827
 5517SOL    HW217451   3.391   2.221   1.710
 5518SOL     OW17452   5.948   5.330   6.201
 5518SOL    HW117453   5.969   5.235   6.180
 5518SOL    HW217454   5.996   5.357   6.284
 5519SOL     OW17455   5.412   3.702   2.948
 5519SOL    HW117456   5.405   3.741   2.856
 5519SOL    HW217457   5.321   3.675   2.979
 5520SOL     OW17458   1.314   4.017   3.088
 5520SOL    HW117459   1.248   4.012   3.163
 5520SOL    HW217460   1.292   4.095   3.029
 5521SOL     OW17461   4.952   6.209   2.120
 5521SOL    HW117462   5.035   6.264   2.119
 5521SOL    HW217463   4.943   6.160   2.033
 5522SOL     OW17464   2.322   3.809   1.243
 5522SOL    HW117465   2.333   3.900   1.203
 5522SOL    HW217466   2.226   3.783   1.239
 5523SOL     OW17467   3.364   6.969   3.039
 5523SOL    HW117468   3.425   6.921   3.102
 5523SOL    HW217469   3.323   6.903   2.976
 5524SOL     OW17470   0.244   5.900   5.107
 5524SOL    HW117471   0.195   5.824   5.149
 5524SOL    HW217472   0.183   5.950   5.046
 5525SOL     OW17473   0.003   4.628   0.025
 5525SOL    HW117474   0.062   4.704   7.022
 5525SOL    HW217475   0.053   4.542   0.016
 5526SOL     OW17476   5.965   3.806   4.265
 5526SOL    HW117477   6.037   3.808   4.335
 5526SOL    HW217478   5.886   3.757   4.301
 5527SOL     OW17479   0.471   3.122   2.166
 5527SOL    HW117480   0.394   3.082   2.116
 5527SOL    HW217481   0.555   3.105   2.115
 5528SOL     OW17482   0.263   2.108   5.952
 5528SOL    HW117483   0.339   2.043   5.955
 5528SOL    HW217484   0.297   2.199   5.930
 5529SOL     OW17485   2.147   0.079   4.780
 5529SOL    HW117486   2.057   0.034   4.778
 5529SOL    HW217487   2.136   0.177   4.762
 5530SOL     OW17488   0.217   2.201   1.798
 5530SOL    HW117489   0.270   2.192   1.714
 5530SOL    HW217490   0.279   2.197   1.877
 5531SOL     OW17491   4.051   3.174   4.625
 5531SOL    HW117492   3.979   3.229   4.667
 5531SOL    HW217493   4.120   3.151   4.694
 5532SOL     OW17494   1.579   0.910   0.647
 5532SOL    HW117495   1.669   0.901   0.689
 5532SOL    HW217496   1.550   1.005   0.650
 5533SOL     OW17497   2.667   1.237   2.520
 5533SOL    HW117498   2.683   1.180   2.600
 5533SOL    HW217499   2.626   1.183   2.447
 5534SOL     OW17500   0.826   3.058   6.854
 5534SOL    HW117501   0.846   3.124   6.781
 5534SOL    HW217502   0.747   3.003   6.828
 5535SOL     OW17503   0.115   3.512   2.677
 5535SOL    HW117504   0.044   3.530   2.745
 5535SOL    HW217505   0.075   3.518   2.586
 5536SOL     OW17506   2.549   0.941   4.349
 5536SOL    HW117507   2.550   0.901   4.441
 5536SOL    HW217508   2.455   0.953   4.319
 5537SOL     OW17509   3.595   0.763   4.762
 5537SOL    HW117510   3.627   0.723   4.676
 5537SOL    HW217511   3.652   0.841   4.786
 5538SOL     OW17512   4.206   7.009   4.924
 5538SOL    HW117513   4.278   6.954   4.881
 5538SOL    HW217514   4.129   6.949   4.949
 5539SOL     OW17515   0.496   2.141   1.379
 5539SOL    HW117516   0.555   2.129   1.459
 5539SOL    HW217517   0.459   2.052   1.352
 5540SOL     OW17518   5.235   2.727   1.529
 5540SOL    HW117519   5.200   2.792   1.596
 5540SOL    HW217520   5.275   2.649   1.577
 5541SOL     OW17521   5.131   3.087   6.045
 5541SOL    HW117522   5.061   3.142   6.000
 5541SOL    HW217523   5.193   3.050   5.976
 5542SOL     OW17524   6.074   5.674   5.542
 5542SOL    HW117525   6.118   5.639   5.625
 5542SOL    HW217526   5.977   5.648   5.542
 5543SOL     OW17527   2.507   5.577   6.871
 5543SOL    HW117528   2.602   5.550   6.856
 5543SOL    HW217529   2.500   5.632   6.955
 5544SOL     OW17530   5.798   5.503   5.582
 5544SOL    HW117531   5.773   5.549   5.497
 5544SOL    HW217532   5.740   5.535   5.656
 5545SOL     OW17533   4.601   0.854   2.517
 5545SOL    HW117534   4.640   0.803   2.594
 5545SOL    HW217535   4.621   0.951   2.528
 5546SOL     OW17536   0.835   6.275   4.122
 5546SOL    HW117537   0.810   6.187   4.082
 5546SOL    HW217538   0.781   6.291   4.204
 5547SOL     OW17539   3.985   0.874   5.180
 5547SOL    HW117540   4.057   0.942   5.192
 5547SOL    HW217541   3.929   0.870   5.263
 5548SOL     OW17542   6.367   3.998   5.773
 5548SOL    HW117543   6.347   4.048   5.857
 5548SOL    HW217544   6.382   4.063   5.698
 5549SOL     OW17545   4.129   3.926   1.168
 5549SOL    HW117546   4.088   3.905   1.080
 5549SOL    HW217547   4.227   3.909   1.165
 5550SOL     OW17548   2.144   4.248   2.927
 5550SOL    HW117549   2.234   4.280   2.956
 5550SOL    HW217550   2.140   4.245   2.827
 5551SOL     OW17551   1.437   6.460   2.627
 5551SOL    HW117552   1.424   6.393   2.700
 5551SOL    HW217553   1.452   6.412   2.540
 5552SOL     OW17554   5.904   0.972   6.632
 5552SOL    HW117555   5.985   0.993   6.576
 5552SOL    HW217556   5.856   1.057   6.655
 5553SOL     OW17557   4.003   6.767   5.974
 5553SOL    HW117558   3.955   6.809   6.051
 5553SOL    HW217559   4.087   6.817   5.956
 5554SOL     OW17560   4.818   3.169   1.344
 5554SOL    HW117561   4.758   3.158   1.423
 5554SOL    HW217562   4.889   3.099   1.347
 5555SOL     OW17563   1.072   3.675   2.151
 5555SOL    HW117564   0.995   3.612   2.162
 5555SOL    HW217565   1.150   3.627   2.111
 5556SOL     OW17566   6.229   0.890   4.047
 5556SOL    HW117567   6.185   0.822   3.988
 5556SOL    HW217568   6.299   0.939   3.995
 5557SOL     OW17569   3.508   5.639   2.042
 5557SOL    HW117570   3.467   5.709   2.101
 5557SOL    HW217571   3.444   5.616   1.968
 5558SOL     OW17572   3.156   2.919   6.262
 5558SOL    HW117573   3.226   2.981   6.227
 5558SOL    HW217574   3.149   2.839   6.202
 5559SOL     OW17575   1.204   0.653   2.180
 5559SOL    HW117576   1.156   0.572   2.145
 5559SOL    HW217577   1.238   0.707   2.103
 5560SOL     OW17578   0.189   5.270   1.322
 5560SOL    HW117579   0.270   5.328   1.321
 5560SOL    HW217580   0.200   5.200   1.393
 5561SOL     OW17581   2.274   0.722   4.509
 5561SOL    HW117582   2.273   0.655   4.583
 5561SOL    HW217583   2.231   0.807   4.539
 5562SOL     OW17584   4.439   3.221   0.100
 5562SOL    HW117585   4.377   3.158   0.146
 5562SOL    HW217586   4.534   3.196   0.122
 5563SOL     OW17587   3.010   5.204   2.864
 5563SOL    HW117588   3.107   5.188   2.843
 5563SOL    HW217589   3.001   5.226   2.961
 5564SOL     OW17590   4.484   0.064   6.683
 5564SOL    HW117591   4.433   0.076   6.598
 5564SOL    HW217592   4.552   7.017   6.671
 5565SOL     OW17593   3.706   2.580   6.198
 5565SOL    HW117594   3.678   2.493   6.240
 5565SOL    HW217595   3.627   2.622   6.153
 5566SOL     OW17596   2.193   4.536   0.025
 5566SOL    HW117597   2.273   4.522   6.993
 5566SOL    HW217598   2.147   4.620   7.024
 5567SOL     OW17599   0.092   3.973   1.524
 5567SOL    HW117600   0.131   3.882   1.518
 5567SOL    HW217601   0.001   3.973   1.482
 5568SOL     OW17602   5.311   1.441   3.707
 5568SOL    HW117603   5.356   1.531   3.717
 5568SOL    HW217604   5.224   1.453   3.660
 5569SOL     OW17605   1.672   2.090   1.922
 5569SOL    HW117606   1.756   2.136   1.948
 5569SOL    HW217607   1.629   2.049   2.003
 5570SOL     OW17608   5.698   3.747   3.897
 5570SOL    HW117609   5.660   3.739   3.804
 5570SOL    HW217610   5.685   3.840   3.931
 5571SOL     OW17611   6.628   5.771   1.851
 5571SOL    HW117612   6.600   5.676   1.865
 5571SOL    HW217613   6.706   5.792   1.910
 5572SOL     OW17614   1.341   4.488   4.737
 5572SOL    HW117615   1.368   4.424   4.665
 5572SOL    HW217616   1.356   4.582   4.705
 5573SOL     OW17617   1.727   5.646   4.720
 5573SOL    HW117618   1.640   5.602   4.696
 5573SOL    HW217619   1.790   5.577   4.757
 5574SOL     OW17620   0.399   2.604   1.441
 5574SOL    HW117621   0.362   2.523   1.395
 5574SOL    HW217622   0.348   2.622   1.525
 5575SOL     OW17623   6.371   1.146   0.831
 5575SOL    HW117624   6.336   1.085   0.759
 5575SOL    HW217625   6.305   1.149   0.906
 5576SOL     OW17626   1.500   4.662   2.295
 5576SOL    HW117627   1.450   4.580   2.323
 5576SOL    HW217628   1.504   4.726   2.371
 5577SOL     OW17629   2.308   2.716   6.533
 5577SOL    HW117630   2.384   2.664   6.573
 5577SOL    HW217631   2.345   2.791   6.478
 5578SOL     OW17632   3.801   4.056   2.171
 5578SOL    HW117633   3.819   4.122   2.244
 5578SOL    HW217634   3.838   3.967   2.197
 5579SOL     OW17635   0.280   3.688   0.129
 5579SOL    HW117636   0.191   3.683   0.083
 5579SOL    HW217637   0.348   3.723   0.064
 5580SOL     OW17638   4.865   1.967   5.586
 5580SOL    HW117639   4.867   1.989   5.489
 5580SOL    HW217640   4.899   2.045   5.639
 5581SOL     OW17641   1.528   0.415   1.887
 5581SOL    HW117642   1.592   0.356   1.838
 5581SOL    HW217643   1.528   0.391   1.984
 5582SOL     OW17644   3.488   4.038   6.295
 5582SOL    HW117645   3.561   3.970   6.302
 5582SOL    HW217646   3.522   4.128   6.324
 5583SOL     OW17647   4.558   0.960   3.011
 5583SOL    HW117648   4.648   0.921   3.029
 5583SOL    HW217649   4.495   0.888   2.984
 5584SOL     OW17650   6.845   4.015   4.326
 5584SOL    HW117651   6.870   3.920   4.344
 5584SOL    HW217652   6.764   4.039   4.380
 5585SOL     OW17653   5.712   5.629   3.243
 5585SOL    HW117654   5.742   5.657   3.335
 5585SOL    HW217655   5.622   5.668   3.224
 5586SOL     OW17656   0.560   3.686   6.227
 5586SOL    HW117657   0.527   3.633   6.148
 5586SOL    HW217658   0.486   3.745   6.260
 5587SOL     OW17659   4.301   6.528   0.305
 5587SOL    HW117660   4.256   6.531   0.216
 5587SOL    HW217661   4.243   6.479   0.371
 5588SOL     OW17662   2.296   5.401   3.040
 5588SOL    HW117663   2.369   5.429   3.103
 5588SOL    HW217664   2.274   5.477   2.979
 5589SOL     OW17665   6.322   3.764   5.888
 5589SOL    HW117666   6.335   3.688   5.824
 5589SOL    HW217667   6.337   3.851   5.840
 5590SOL     OW17668   0.181   6.000   3.633
 5590SOL    HW117669   0.244   5.953   3.696
 5590SOL    HW217670   0.215   6.093   3.616
 5591SOL     OW17671   6.349   2.085   1.890
 5591SOL    HW117672   6.383   1.999   1.851
 5591SOL    HW217673   6.340   2.153   1.817
 5592SOL     OW17674   2.211   5.905   3.425
 5592SOL    HW117675   2.122   5.950   3.429
 5592SOL    HW217676   2.199   5.806   3.438
 5593SOL     OW17677   0.821   3.080   0.135
 5593SOL    HW117678   0.814   3.074   0.035
 5593SOL    HW217679   0.735   3.049   0.176
 5594SOL     OW17680   5.110   0.740   5.742
 5594SOL    HW117681   5.076   0.650   5.716
 5594SOL    HW217682   5.188   0.764   5.685
 5595SOL     OW17683   0.397   1.577   4.776
 5595SOL    HW117684   0.438   1.652   4.829
 5595SOL    HW217685   0.298   1.580   4.786
 5596SOL     OW17686   4.796   0.288   2.824
 5596SOL    HW117687   4.726   0.251   2.763
 5596SOL    HW217688   4.777   0.384   2.842
 5597SOL     OW17689   4.994   2.847   4.755
 5597SOL    HW117690   5.048   2.930   4.746
 5597SOL    HW217691   4.904   2.861   4.713
 5598SOL     OW17692   4.879   3.929   4.206
 5598SOL    HW117693   4.841   3.837   4.198
 5598SOL    HW217694   4.897   3.950   4.302
 5599SOL     OW17695   1.338   1.949   3.852
 5599SOL    HW117696   1.411   1.993   3.799
 5599SOL    HW217697   1.339   1.985   3.945
 5600SOL     OW17698   1.435   1.089   1.906
 5600SOL    HW117699   1.340   1.069   1.881
 5600SOL    HW217700   1.478   1.144   1.834
 5601SOL     OW17701   2.417   0.889   5.643
 5601SOL    HW117702   2.335   0.934   5.607
 5601SOL    HW217703   2.488   0.957   5.660
 5602SOL     OW17704   6.130   1.496   1.322
 5602SOL    HW117705   6.194   1.555   1.371
 5602SOL    HW217706   6.038   1.508   1.358
 5603SOL     OW17707   5.691   2.279   6.354
 5603SOL    HW117708   5.776   2.332   6.355
 5603SOL    HW217709   5.691   2.216   6.432
 5604SOL     OW17710   6.163   1.966   4.810
 5604SOL    HW117711   6.155   1.881   4.862
 5604SOL    HW217712   6.074   2.013   4.809
 5605SOL     OW17713   6.842   1.466   5.156
 5605SOL    HW117714   6.883   1.557   5.152
 5605SOL    HW217715   6.904   1.404   5.203
 5606SOL     OW17716   4.896   6.528   0.367
 5606SOL    HW117717   4.933   6.620   0.378
 5606SOL    HW217718   4.841   6.523   0.283
 5607SOL     OW17719   5.671   1.201   2.934
 5607SOL    HW117720   5.661   1.154   2.846
 5607SOL    HW217721   5.738   1.274   2.926
 5608SOL     OW17722   4.938   0.135   4.309
 5608SOL    HW117723   4.886   0.054   4.337
 5608SOL    HW217724   5.034   0.111   4.297
 5609SOL     OW17725   3.055   6.385   1.328
 5609SOL    HW117726   3.058   6.387   1.428
 5609SOL    HW217727   3.148   6.382   1.292
 5610SOL     OW17728   3.996   6.344   0.701
 5610SOL    HW117729   4.000   6.281   0.778
 5610SOL    HW217730   3.902   6.355   0.671
 5611SOL     OW17731   1.181   5.535   2.563
 5611SOL    HW117732   1.199   5.447   2.606
 5611SOL    HW217733   1.243   5.548   2.486
 5612SOL     OW17734   3.606   2.500   6.851
 5612SOL    HW117735   3.700   2.533   6.854
 5612SOL    HW217736   3.600   2.411   6.896
 5613SOL     OW17737   5.574   4.140   3.729
 5613SOL    HW117738   5.658   4.190   3.712
 5613SOL    HW217739   5.554   4.080   3.651
 5614SOL     OW17740   4.562   2.139   4.239
 5614SOL    HW117741   4.611   2.203   4.299
 5614SOL    HW217742   4.591   2.154   4.144
 5615SOL     OW17743   0.059   1.580   4.481
 5615SOL    HW117744   0.087   1.495   4.525
 5615SOL    HW217745   0.139   1.629   4.447
 5616SOL     OW17746   2.436   1.935   4.949
 5616SOL    HW117747   2.434   1.991   4.866
 5616SOL    HW217748   2.527   1.898   4.963
 5617SOL     OW17749   3.199   0.319   5.983
 5617SOL    HW117750   3.147   0.245   5.942
 5617SOL    HW217751   3.290   0.286   6.009
 5618SOL     OW17752   6.924   4.422   4.042
 5618SOL    HW117753   6.874   4.363   3.979
 5618SOL    HW217754   6.935   4.376   4.130
 5619SOL     OW17755   2.657   3.550   5.858
 5619SOL    HW117756   2.727   3.618   5.834
 5619SOL    HW217757   2.655   3.538   5.957
 5620SOL     OW17758   4.009   3.411   0.939
 5620SOL    HW117759   4.076   3.337   0.945
 5620SOL    HW217760   3.995   3.435   0.843
 5621SOL     OW17761   1.865   1.980   6.690
 5621SOL    HW117762   1.883   2.033   6.607
 5621SOL    HW217763   1.816   1.896   6.666
 5622SOL     OW17764   4.989   0.482   6.202
 5622SOL    HW117765   5.030   0.418   6.267
 5622SOL    HW217766   5.061   0.521   6.143
 5623SOL     OW17767   2.660   5.976   4.845
 5623SOL    HW117768   2.560   5.971   4.853
 5623SOL    HW217769   2.702   5.936   4.926
 5624SOL     OW17770   0.815   4.380   3.489
 5624SOL    HW117771   0.817   4.474   3.521
 5624SOL    HW217772   0.740   4.369   3.423
 5625SOL     OW17773   6.388   1.473   4.713
 5625SOL    HW117774   6.385   1.561   4.666
 5625SOL    HW217775   6.334   1.479   4.797
 5626SOL     OW17776   2.601   6.154   4.001
 5626SOL    HW117777   2.523   6.209   3.972
 5626SOL    HW217778   2.589   6.126   4.096
 5627SOL     OW17779   0.572   5.592   6.354
 5627SOL    HW117780   0.528   5.607   6.265
 5627SOL    HW217781   0.610   5.500   6.357
 5628SOL     OW17782   1.035   2.478   0.264
 5628SOL    HW117783   0.961   2.445   0.323
 5628SOL    HW217784   1.019   2.449   0.170
 5629SOL     OW17785   3.762   4.102   2.489
 5629SOL    HW117786   3.806   4.041   2.555
 5629SOL    HW217787   3.680   4.141   2.530
 5630SOL     OW17788   1.961   4.623   0.445
 5630SOL    HW117789   2.023   4.552   0.477
 5630SOL    HW217790   2.008   4.711   0.446
 5631SOL     OW17791   4.590   1.751   0.254
 5631SOL    HW117792   4.623   1.771   0.162
 5631SOL    HW217793   4.617   1.658   0.279
 5632SOL     OW17794   3.388   2.480   5.741
 5632SOL    HW117795   3.388   2.419   5.820
 5632SOL    HW217796   3.358   2.571   5.769
 5633SOL     OW17797   6.662   3.680   4.144
 5633SOL    HW117798   6.686   3.630   4.061
 5633SOL    HW217799   6.616   3.765   4.120
 5634SOL     OW17800   2.584   5.081   4.504
 5634SOL    HW117801   2.583   4.982   4.517
 5634SOL    HW217802   2.495   5.119   4.529
 5635SOL     OW17803   2.143   4.014   5.644
 5635SOL    HW117804   2.102   4.104   5.628
 5635SOL    HW217805   2.072   3.944   5.637
 5636SOL     OW17806   4.219   6.754   4.025
 5636SOL    HW117807   4.312   6.720   4.018
 5636SOL    HW217808   4.172   6.742   3.937
 5637SOL     OW17809   5.052   6.661   3.540
 5637SOL    HW117810   4.956   6.684   3.560
 5637SOL    HW217811   5.062   6.644   3.442
 5638SOL     OW17812   6.089   3.658   1.470
 5638SOL    HW117813   6.052   3.734   1.523
 5638SOL    HW217814   6.062   3.572   1.512
 5639SOL     OW17815   0.986   0.808   0.786
 5639SOL    HW117816   0.964   0.893   0.740
 5639SOL    HW217817   0.905   0.750   0.790
 5640SOL     OW17818   3.147   0.552   3.857
 5640SOL    HW117819   3.058   0.520   3.825
 5640SOL    HW217820   3.141   0.579   3.953
 5641SOL     OW17821   0.700   5.558   5.122
 5641SOL    HW117822   0.778   5.496   5.126
 5641SOL    HW217823   0.617   5.506   5.098
 5642SOL     OW17824   2.008   6.773   5.801
 5642SOL    HW117825   2.046   6.861   5.772
 5642SOL    HW217826   1.909   6.779   5.806
 5643SOL     OW17827   4.955   1.698   5.176
 5643SOL    HW117828   4.921   1.607   5.154
 5643SOL    HW217829   4.878   1.760   5.193
 5644SOL     OW17830   3.152   0.210   4.964
 5644SOL    HW117831   3.110   0.300   4.974
 5644SOL    HW217832   3.168   0.191   4.867
 5645SOL     OW17833   6.279   4.251   3.576
 5645SOL    HW117834   6.311   4.157   3.577
 5645SOL    HW217835   6.341   4.309   3.629
 5646SOL     OW17836   1.497   5.306   3.035
 5646SOL    HW117837   1.593   5.329   3.052
 5646SOL    HW217838   1.491   5.239   2.961
 5647SOL     OW17839   5.130   6.493   1.159
 5647SOL    HW117840   5.200   6.490   1.231
 5647SOL    HW217841   5.173   6.476   1.071
 5648SOL     OW17842   2.159   5.385   2.715
 5648SOL    HW117843   2.243   5.413   2.668
 5648SOL    HW217844   2.085   5.376   2.649
 5649SOL     OW17845   0.718   6.703   3.935
 5649SOL    HW117846   0.702   6.605   3.925
 5649SOL    HW217847   0.706   6.730   4.030
 5650SOL     OW17848   1.105   4.418   1.737
 5650SOL    HW117849   1.113   4.463   1.648
 5650SOL    HW217850   1.083   4.486   1.807
 5651SOL     OW17851   2.157   1.353   0.234
 5651SOL    HW117852   2.210   1.353   0.319
 5651SOL    HW217853   2.218   1.369   0.157
 5652SOL     OW17854   6.329   6.097   1.231
 5652SOL    HW117855   6.407   6.105   1.293
 5652SOL    HW217856   6.343   6.020   1.169
 5653SOL     OW17857   6.724   6.314   6.816
 5653SOL    HW117858   6.697   6.376   6.742
 5653SOL    HW217859   6.643   6.275   6.859
 5654SOL     OW17860   0.762   5.672   4.486
 5654SOL    HW117861   0.672   5.632   4.470
 5654SOL    HW217862   0.772   5.693   4.583
 5655SOL     OW17863   0.023   2.994   3.696
 5655SOL    HW117864   0.055   3.081   3.657
 5655SOL    HW217865   7.013   2.936   3.623
 5656SOL     OW17866   6.929   3.873   6.482
 5656SOL    HW117867   7.005   3.937   6.473
 5656SOL    HW217868   6.873   3.899   6.561
 5657SOL     OW17869   5.105   3.656   5.392
 5657SOL    HW117870   5.117   3.558   5.377
 5657SOL    HW217871   5.085   3.673   5.489
 5658SOL     OW17872   2.707   3.259   6.205
 5658SOL    HW117873   2.725   3.354   6.177
 5658SOL    HW217874   2.778   3.199   6.168
 5659SOL     OW17875   3.871   3.565   6.281
 5659SOL    HW117876   3.866   3.587   6.378
 5659SOL    HW217877   3.928   3.633   6.234
 5660SOL     OW17878   4.359   6.575   5.753
 5660SOL    HW117879   4.375   6.522   5.669
 5660SOL    HW217880   4.447   6.610   5.786
 5661SOL     OW17881   1.705   5.940   4.130
 5661SOL    HW117882   1.758   6.020   4.101
 5661SOL    HW217883   1.764   5.878   4.182
 5662SOL     OW17884   2.689   0.124   2.743
 5662SOL    HW117885   2.614   0.089   2.687
 5662SOL    HW217886   2.730   0.204   2.698
 5663SOL     OW17887   2.852   1.930   0.681
 5663SOL    HW117888   2.859   1.838   0.719
 5663SOL    HW217889   2.823   1.994   0.753
 5664SOL     OW17890   6.477   3.437   3.967
 5664SOL    HW117891   6.439   3.345   3.975
 5664SOL    HW217892   6.505   3.454   3.872
 5665SOL     OW17893   1.187   6.665   0.648
 5665SOL    HW117894   1.087   6.656   0.638
 5665SOL    HW217895   1.217   6.612   0.727
 5666SOL     OW17896   6.596   0.194   3.839
 5666SOL    HW117897   6.676   0.148   3.877
 5666SOL    HW217898   6.524   0.200   3.908
 5667SOL     OW17899   1.290   5.291   4.667
 5667SOL    HW117900   1.294   5.373   4.725
 5667SOL    HW217901   1.345   5.306   4.585
 5668SOL     OW17902   6.420   3.056   3.521
 5668SOL    HW117903   6.395   2.959   3.523
 5668SOL    HW217904   6.495   3.073   3.585
 5669SOL     OW17905   6.666   4.826   0.802
 5669SOL    HW117906   6.764   4.841   0.793
 5669SOL    HW217907   6.617   4.904   0.763
 5670SOL     OW17908   1.639   3.162   3.810
 5670SOL    HW117909   1.564   3.101   3.783
 5670SOL    HW217910   1.704   3.169   3.735
 5671SOL     OW17911   6.447   5.812   5.839
 5671SOL    HW117912   6.349   5.820   5.855
 5671SOL    HW217913   6.476   5.717   5.854
 5672SOL     OW17914   5.217   4.306   5.689
 5672SOL    HW117915   5.166   4.257   5.760
 5672SOL    HW217916   5.249   4.394   5.725
 5673SOL     OW17917   1.214   6.544   1.200
 5673SOL    HW117918   1.193   6.516   1.293
 5673SOL    HW217919   1.128   6.564   1.151
 5674SOL     OW17920   2.124   4.637   4.905
 5674SOL    HW117921   2.096   4.541   4.906
 5674SOL    HW217922   2.222   4.643   4.923
 5675SOL     OW17923   4.619   2.609   0.150
 5675SOL    HW117924   4.674   2.569   0.224
 5675SOL    HW217925   4.579   2.695   0.181
 5676SOL     OW17926   2.711   1.873   2.402
 5676SOL    HW117927   2.762   1.889   2.318
 5676SOL    HW217928   2.775   1.864   2.479
 5677SOL     OW17929   0.798   0.625   0.792
 5677SOL    HW117930   0.793   0.572   0.708
 5677SOL    HW217931   0.706   0.635   0.830
 5678SOL     OW17932   4.309   0.910   2.629
 5678SOL    HW117933   4.361   0.965   2.694
 5678SOL    HW217934   4.370   0.842   2.587
 5679SOL     OW17935   5.393   1.243   4.863
 5679SOL    HW117936   5.354   1.261   4.954
 5679SOL    HW217937   5.475   1.187   4.872
 5680SOL     OW17938   2.028   5.531   6.793
 5680SOL    HW117939   2.059   5.587   6.870
 5680SOL    HW217940   2.091   5.456   6.779
 5681SOL     OW17941   0.285   3.843   2.114
 5681SOL    HW117942   0.276   3.929   2.165
 5681SOL    HW217943   0.230   3.772   2.158
 5682SOL     OW17944   2.381   5.625   4.206
 5682SOL    HW117945   2.453   5.685   4.171
 5682SOL    HW217946   2.422   5.544   4.246
 5683SOL     OW17947   3.457   2.439   6.002
 5683SOL    HW117948   3.461   2.385   6.086
 5683SOL    HW217949   3.448   2.536   6.026
 5684SOL     OW17950   2.105   3.801   6.165
 5684SOL    HW117951   2.150   3.766   6.246
 5684SOL    HW217952   2.051   3.729   6.123
 5685SOL     OW17953   2.350   2.114   3.081
 5685SOL    HW117954   2.393   2.090   3.168
 5685SOL    HW217955   2.418   2.108   3.008
 5686SOL     OW17956   2.964   1.538   4.864
 5686SOL    HW117957   2.970   1.588   4.950
 5686SOL    HW217958   2.914   1.592   4.797
 5687SOL     OW17959   0.916   6.137   5.848
 5687SOL    HW117960   0.976   6.153   5.770
 5687SOL    HW217961   0.947   6.192   5.925
 5688SOL     OW17962   1.435   2.845   3.006
 5688SOL    HW117963   1.374   2.924   3.009
 5688SOL    HW217964   1.383   2.762   3.025
 5689SOL     OW17965   2.630   0.957   1.539
 5689SOL    HW117966   2.581   0.873   1.514
 5689SOL    HW217967   2.630   1.020   1.461
 5690SOL     OW17968   1.841   5.609   6.613
 5690SOL    HW117969   1.835   5.708   6.614
 5690SOL    HW217970   1.909   5.579   6.681
 5691SOL     OW17971   3.681   0.549   1.889
 5691SOL    HW117972   3.642   0.486   1.822
 5691SOL    HW217973   3.623   0.630   1.897
 5692SOL     OW17974   5.126   5.075   1.094
 5692SOL    HW117975   5.076   5.044   1.014
 5692SOL    HW217976   5.215   5.111   1.066
 5693SOL     OW17977   4.414   0.340   1.455
 5693SOL    HW117978   4.412   0.403   1.377
 5693SOL    HW217979   4.483   0.270   1.439
 5694SOL     OW17980   0.390   0.233   2.411
 5694SOL    HW117981   0.450   0.274   2.481
 5694SOL    HW217982   0.361   0.304   2.348
 5695SOL     OW17983   1.176   1.277   2.678
 5695SOL    HW117984   1.143   1.187   2.706
 5695SOL    HW217985   1.103   1.327   2.631
 5696SOL     OW17986   1.486   6.465   4.187
 5696SOL    HW117987   1.448   6.474   4.095
 5696SOL    HW217988   1.418   6.424   4.248
 5697SOL     OW17989   5.947   2.219   2.476
 5697SOL    HW117990   5.944   2.181   2.383
 5697SOL    HW217991   5.859   2.261   2.498
 5698SOL     OW17992   1.727   4.609   4.502
 5698SOL    HW117993   1.718   4.655   4.590
 5698SOL    HW217994   1.688   4.667   4.430
 5699SOL     OW17995   1.738   2.552   2.667
 5699SOL    HW117996   1.774   2.487   2.600
 5699SOL    HW217997   1.640   2.538   2.678
 5700SOL     OW17998   6.596   6.824   3.500
 5700SOL    HW117999   6.539   6.747   3.530
 5700SOL    HW218000   6.669   6.839   3.566
 5701SOL     OW18001   6.781   0.502   1.462
 5701SOL    HW118002   6.721   0.475   1.386
 5701SOL    HW218003   6.851   0.433   1.475
 5702SOL     OW18004   1.773   6.560   3.969
 5702SOL    HW118005   1.736   6.652   3.988
 5702SOL    HW218006   1.859   6.548   4.019
 5703SOL     OW18007   6.768   4.200   6.270
 5703SOL    HW118008   6.854   4.182   6.222
 5703SOL    HW218009   6.694   4.147   6.227
 5704SOL     OW18010   4.994   4.006   2.718
 5704SOL    HW118011   5.060   4.015   2.644
 5704SOL    HW218012   4.923   4.076   2.708
 5705SOL     OW18013   5.151   5.793   6.958
 5705SOL    HW118014   5.180   5.881   6.921
 5705SOL    HW218015   5.215   5.722   6.929
 5706SOL     OW18016   5.229   2.416   1.911
 5706SOL    HW118017   5.291   2.398   1.987
 5706SOL    HW218018   5.208   2.514   1.908
 5707SOL     OW18019   6.388   0.669   0.706
 5707SOL    HW118020   6.305   0.724   0.690
 5707SOL    HW218021   6.380   0.623   0.794
 5708SOL     OW18022   5.250   6.278   2.574
 5708SOL    HW118023   5.327   6.241   2.628
 5708SOL    HW218024   5.245   6.377   2.587
 5709SOL     OW18025   0.550   1.084   2.964
 5709SOL    HW118026   0.500   1.098   2.879
 5709SOL    HW218027   0.635   1.034   2.946
 5710SOL     OW18028   2.909   2.182   0.115
 5710SOL    HW118029   3.006   2.164   0.104
 5710SOL    HW218030   2.875   2.235   0.037
 5711SOL     OW18031   5.122   0.807   1.755
 5711SOL    HW118032   5.163   0.806   1.664
 5711SOL    HW218033   5.139   0.719   1.800
 5712SOL     OW18034   6.436   6.351   0.127
 5712SOL    HW118035   6.514   6.409   0.107
 5712SOL    HW218036   6.369   6.402   0.182
 5713SOL     OW18037   3.053   4.788   1.366
 5713SOL    HW118038   3.072   4.698   1.328
 5713SOL    HW218039   3.112   4.804   1.445
 5714SOL     OW18040   6.985   6.031   0.887
 5714SOL    HW118041   7.010   6.014   0.792
 5714SOL    HW218042   7.019   6.121   0.915
 5715SOL     OW18043   0.247   0.023   2.755
 5715SOL    HW118044   0.211   0.093   2.818
 5715SOL    HW218045   0.339   7.023   2.784
 5716SOL     OW18046   0.908   5.846   5.954
 5716SOL    HW118047   0.957   5.919   5.907
 5716SOL    HW218048   0.873   5.880   6.042
 5717SOL     OW18049   2.171   5.289   1.632
 5717SOL    HW118050   2.162   5.245   1.722
 5717SOL    HW218051   2.082   5.293   1.588
 5718SOL     OW18052   1.366   3.421   0.012
 5718SOL    HW118053   1.297   3.360   0.050
 5718SOL    HW218054   1.411   3.471   0.085
 5719SOL     OW18055   2.583   3.566   0.362
 5719SOL    HW118056   2.541   3.523   0.282
 5719SOL    HW218057   2.513   3.586   0.430
 5720SOL     OW18058   1.873   7.003   4.823
 5720SOL    HW118059   1.892   6.918   4.871
 5720SOL    HW218060   1.775   7.010   4.804
 5721SOL     OW18061   5.820   4.324   0.924
 5721SOL    HW118062   5.746   4.340   0.860
 5721SOL    HW218063   5.801   4.373   1.010
 5722SOL     OW18064   6.965   2.551   5.143
 5722SOL    HW118065   6.953   2.550   5.044
 5722SOL    HW218066   0.037   2.557   5.165
 5723SOL     OW18067   4.482   3.953   0.066
 5723SOL    HW118068   4.440   3.916   0.149
 5723SOL    HW218069   4.413   3.960   7.019
 5724SOL     OW18070   5.945   3.045   4.455
 5724SOL    HW118071   5.883   3.039   4.533
 5724SOL    HW218072   6.004   3.125   4.466
 5725SOL     OW18073   6.617   4.825   4.564
 5725SOL    HW118074   6.642   4.773   4.645
 5725SOL    HW218075   6.524   4.861   4.575
 5726SOL     OW18076   6.375   5.035   4.437
 5726SOL    HW118077   6.347   5.088   4.357
 5726SOL    HW218078   6.293   5.006   4.487
 5727SOL     OW18079   6.723   2.574   4.577
 5727SOL    HW118080   6.694   2.622   4.495
 5727SOL    HW218081   6.757   2.483   4.552
 5728SOL     OW18082   5.287   6.215   5.336
 5728SOL    HW118083   5.274   6.297   5.281
 5728SOL    HW218084   5.211   6.152   5.319
 5729SOL     OW18085   1.851   2.140   6.441
 5729SOL    HW118086   1.903   2.213   6.396
 5729SOL    HW218087   1.760   2.174   6.464
 5730SOL     OW18088   6.119   4.358   6.481
 5730SOL    HW118089   6.038   4.392   6.528
 5730SOL    HW218090   6.157   4.280   6.530
 5731SOL     OW18091   6.896   0.362   2.414
 5731SOL    HW118092   6.808   0.347   2.460
 5731SOL    HW218093   6.909   0.293   2.343
 5732SOL     OW18094   0.721   6.436   3.871
 5732SOL    HW118095   0.666   6.415   3.791
 5732SOL    HW218096   0.777   6.356   3.895
 5733SOL     OW18097   4.164   6.382   5.211
 5733SOL    HW118098   4.261   6.383   5.189
 5733SOL    HW218099   4.140   6.295   5.254
 5734SOL     OW18100   0.880   0.274   5.445
 5734SOL    HW118101   0.859   0.305   5.353
 5734SOL    HW218102   0.812   0.311   5.509
 5735SOL     OW18103   3.366   1.538   0.862
 5735SOL    HW118104   3.329   1.620   0.817
 5735SOL    HW218105   3.294   1.470   0.871
 5736SOL     OW18106   0.102   4.089   6.994
 5736SOL    HW118107   0.177   4.063   6.934
 5736SOL    HW218108   0.021   4.108   6.939
 5737SOL     OW18109   5.427   6.083   0.466
 5737SOL    HW118110   5.457   6.153   0.402
 5737SOL    HW218111   5.381   6.126   0.544
 5738SOL     OW18112   1.899   3.662   6.592
 5738SOL    HW118113   1.856   3.726   6.528
 5738SOL    HW218114   1.928   3.712   6.674
 5739SOL     OW18115   1.821   1.482   6.326
 5739SOL    HW118116   1.898   1.541   6.347
 5739SOL    HW218117   1.816   1.467   6.228
 5740SOL     OW18118   4.460   5.670   0.332
 5740SOL    HW118119   4.402   5.645   0.255
 5740SOL    HW218120   4.431   5.758   0.369
 5741SOL     OW18121   0.159   5.676   4.219
 5741SOL    HW118122   0.185   5.759   4.169
 5741SOL    HW218123   0.061   5.662   4.212
 5742SOL     OW18124   4.999   6.528   2.474
 5742SOL    HW118125   5.080   6.535   2.532
 5742SOL    HW218126   4.972   6.432   2.466
 5743SOL     OW18127   3.016   6.834   4.591
 5743SOL    HW118128   3.101   6.782   4.579
 5743SOL    HW218129   2.946   6.798   4.529
 5744SOL     OW18130   4.716   0.248   0.542
 5744SOL    HW118131   4.676   0.294   0.621
 5744SOL    HW218132   4.735   0.315   0.470
 5745SOL     OW18133   3.066   1.482   4.467
 5745SOL    HW118134   3.119   1.433   4.536
 5745SOL    HW218135   3.077   1.580   4.479
 5746SOL     OW18136   4.993   0.799   0.448
 5746SOL    HW118137   5.030   0.810   0.356
 5746SOL    HW218138   5.035   0.720   0.492
 5747SOL     OW18139   0.167   5.662   2.552
 5747SOL    HW118140   0.165   5.608   2.636
 5747SOL    HW218141   0.210   5.609   2.479
 5748SOL     OW18142   2.049   4.979   1.460
 5748SOL    HW118143   2.069   5.007   1.366
 5748SOL    HW218144   1.984   4.902   1.458
 5749SOL     OW18145   2.454   1.156   4.022
 5749SOL    HW118146   2.394   1.114   4.091
 5749SOL    HW218147   2.504   1.084   3.974
 5750SOL     OW18148   5.866   5.199   4.777
 5750SOL    HW118149   5.881   5.130   4.847
 5750SOL    HW218150   5.867   5.290   4.818
 5751SOL     OW18151   2.304   2.376   4.883
 5751SOL    HW118152   2.223   2.414   4.927
 5751SOL    HW218153   2.362   2.331   4.951
 5752SOL     OW18154   6.262   1.017   6.092
 5752SOL    HW118155   6.343   1.067   6.061
 5752SOL    HW218156   6.205   0.994   6.013
 5753SOL     OW18157   3.322   3.194   6.184
 5753SOL    HW118158   3.236   3.182   6.135
 5753SOL    HW218159   3.320   3.280   6.234
 5754SOL     OW18160   5.841   5.610   1.738
 5754SOL    HW118161   5.772   5.636   1.671
 5754SOL    HW218162   5.914   5.680   1.740
 5755SOL     OW18163   3.072   3.607   6.218
 5755SOL    HW118164   3.067   3.702   6.250
 5755SOL    HW218165   3.161   3.592   6.174
 5756SOL     OW18166   6.367   4.644   3.378
 5756SOL    HW118167   6.335   4.685   3.463
 5756SOL    HW218168   6.443   4.582   3.397
 5757SOL     OW18169   6.375   6.195   1.579
 5757SOL    HW118170   6.440   6.235   1.643
 5757SOL    HW218171   6.406   6.213   1.485
 5758SOL     OW18172   2.771   2.344   4.633
 5758SOL    HW118173   2.703   2.416   4.620
 5758SOL    HW218174   2.741   2.281   4.705
 5759SOL     OW18175   4.906   2.162   6.813
 5759SOL    HW118176   4.910   2.239   6.877
 5759SOL    HW218177   4.977   2.172   6.744
 5760SOL     OW18178   1.647   6.107   2.244
 5760SOL    HW118179   1.661   6.206   2.233
 5760SOL    HW218180   1.617   6.067   2.157
 5761SOL     OW18181   6.029   0.164   5.283
 5761SOL    HW118182   5.956   0.221   5.319
 5761SOL    HW218183   6.107   0.221   5.257
 5762SOL     OW18184   5.608   0.212   0.510
 5762SOL    HW118185   5.614   0.166   0.421
 5762SOL    HW218186   5.679   0.177   0.571
 5763SOL     OW18187   0.681   6.592   0.685
 5763SOL    HW118188   0.718   6.650   0.758
 5763SOL    HW218189   0.591   6.558   0.713
 5764SOL     OW18190   5.946   4.660   5.616
 5764SOL    HW118191   5.887   4.605   5.675
 5764SOL    HW218192   6.019   4.701   5.670
 5765SOL     OW18193   6.187   4.346   6.802
 5765SOL    HW118194   6.104   4.378   6.847
 5765SOL    HW218195   6.208   4.253   6.832
 5766SOL     OW18196   3.234   1.362   1.999
 5766SOL    HW118197   3.202   1.304   1.924
 5766SOL    HW218198   3.287   1.438   1.961
 5767SOL     OW18199   1.372   6.184   0.966
 5767SOL    HW118200   1.404   6.095   1.000
 5767SOL    HW218201   1.280   6.173   0.927
 5768SOL     OW18202   7.000   0.552   3.234
 5768SOL    HW118203   6.913   0.587   3.268
 5768SOL    HW218204   6.985   0.508   3.145
 5769SOL     OW18205   2.915   6.593   3.317
 5769SOL    HW118206   2.843   6.661   3.329
 5769SOL    HW218207   2.997   6.637   3.280
 5770SOL     OW18208   6.568   6.788   1.245
 5770SOL    HW118209   6.622   6.709   1.275
 5770SOL    HW218210   6.629   6.855   1.202
 5771SOL     OW18211   1.114   0.276   1.075
 5771SOL    HW118212   1.099   0.215   0.997
 5771SOL    HW218213   1.082   0.368   1.053
 5772SOL     OW18214   5.980   2.301   0.776
 5772SOL    HW118215   5.932   2.376   0.821
 5772SOL    HW218216   6.004   2.328   0.683
 5773SOL     OW18217   5.608   6.243   4.153
 5773SOL    HW118218   5.669   6.215   4.227
 5773SOL    HW218219   5.572   6.334   4.172
 5774SOL     OW18220   2.373   4.291   3.071
 5774SOL    HW118221   2.472   4.278   3.070
 5774SOL    HW218222   2.338   4.275   3.163
 5775SOL     OW18223   0.603   0.302   0.451
 5775SOL    HW118224   0.698   0.311   0.481
 5775SOL    HW218225   0.594   0.223   0.391
 5776SOL     OW18226   5.917   0.897   6.261
 5776SOL    HW118227   5.999   0.882   6.205
 5776SOL    HW218228   5.890   0.811   6.304
 5777SOL     OW18229   5.667   0.577   3.896
 5777SOL    HW118230   5.683   0.558   3.993
 5777SOL    HW218231   5.724   0.516   3.840
 5778SOL     OW18232   2.213   0.567   2.452
 5778SOL    HW118233   2.137   0.592   2.511
 5778SOL    HW218234   2.177   0.524   2.369
 5779SOL     OW18235   3.522   0.845   1.136
 5779SOL    HW118236   3.448   0.820   1.073
 5779SOL    HW218237   3.589   0.901   1.087
 5780SOL     OW18238   6.518   4.714   1.784
 5780SOL    HW118239   6.483   4.664   1.863
 5780SOL    HW218240   6.448   4.778   1.752
 5781SOL     OW18241   1.826   4.100   5.012
 5781SOL    HW118242   1.771   4.161   5.070
 5781SOL    HW218243   1.776   4.015   4.997
 5782SOL     OW18244   1.713   0.710   1.459
 5782SOL    HW118245   1.807   0.713   1.427
 5782SOL    HW218246   1.675   0.618   1.443
 5783SOL     OW18247   1.631   1.078   0.371
 5783SOL    HW118248   1.663   1.034   0.286
 5783SOL    HW218249   1.558   1.023   0.411
 5784SOL     OW18250   0.657   6.344   0.164
 5784SOL    HW118251   0.714   6.394   0.099
 5784SOL    HW218252   0.600   6.278   0.115
 5785SOL     OW18253   1.372   0.939   0.859
 5785SOL    HW118254   1.308   0.991   0.916
 5785SOL    HW218255   1.431   0.884   0.918
 5786SOL     OW18256   1.454   3.543   1.611
 5786SOL    HW118257   1.368   3.587   1.636
 5786SOL    HW218258   1.453   3.518   1.514
 5787SOL     OW18259   6.113   2.930   4.233
 5787SOL    HW118260   6.016   2.948   4.217
 5787SOL    HW218261   6.142   2.976   4.317
 5788SOL     OW18262   3.130   0.501   1.938
 5788SOL    HW118263   3.105   0.438   2.012
 5788SOL    HW218264   3.206   0.559   1.967
 5789SOL     OW18265   3.568   3.368   0.437
 5789SOL    HW118266   3.587   3.416   0.351
 5789SOL    HW218267   3.537   3.434   0.505
 5790SOL     OW18268   5.864   5.461   4.897
 5790SOL    HW118269   5.871   5.556   4.866
 5790SOL    HW218270   5.780   5.448   4.950
 5791SOL     OW18271   3.107   1.698   2.658
 5791SOL    HW118272   3.187   1.758   2.658
 5791SOL    HW218273   3.079   1.679   2.563
 5792SOL     OW18274   5.049   3.268   2.943
 5792SOL    HW118275   5.014   3.342   2.885
 5792SOL    HW218276   4.991   3.187   2.932
 5793SOL     OW18277   6.158   2.568   4.961
 5793SOL    HW118278   6.193   2.564   4.868
 5793SOL    HW218279   6.221   2.521   5.023
 5794SOL     OW18280   2.959   6.780   6.008
 5794SOL    HW118281   2.883   6.834   6.044
 5794SOL    HW218282   3.043   6.805   6.055
 5795SOL     OW18283   1.021   5.265   1.710
 5795SOL    HW118284   1.027   5.252   1.611
 5795SOL    HW218285   1.098   5.322   1.740
 5796SOL     OW18286   4.391   1.776   6.405
 5796SOL    HW118287   4.468   1.745   6.348
 5796SOL    HW218288   4.351   1.858   6.366
 5797SOL     OW18289   5.324   1.838   0.022
 5797SOL    HW118290   5.325   1.935   0.046
 5797SOL    HW218291   5.319   1.828   6.948
 5798SOL     OW18292   0.953   3.634   5.047
 5798SOL    HW118293   0.898   3.581   5.112
 5798SOL    HW218294   0.901   3.714   5.017
 5799SOL     OW18295   1.517   6.493   3.654
 5799SOL    HW118296   1.597   6.526   3.604
 5799SOL    HW218297   1.434   6.531   3.612
 5800SOL     OW18298   0.075   0.083   0.989
 5800SOL    HW118299   7.013   0.114   0.951
 5800SOL    HW218300   0.135   0.161   1.004
 5801SOL     OW18301   2.156   3.010   2.080
 5801SOL    HW118302   2.102   2.939   2.034
 5801SOL    HW218303   2.231   2.969   2.130
 5802SOL     OW18304   6.578   2.020   3.214
 5802SOL    HW118305   6.643   1.997   3.287
 5802SOL    HW218306   6.610   2.101   3.165
 5803SOL     OW18307   1.592   5.333   4.649
 5803SOL    HW118308   1.686   5.310   4.621
 5803SOL    HW218309   1.553   5.398   4.583
 5804SOL     OW18310   6.080   6.108   3.684
 5804SOL    HW118311   6.025   6.131   3.764
 5804SOL    HW218312   6.089   6.188   3.625
 5805SOL     OW18313   2.115   3.434   1.428
 5805SOL    HW118314   2.134   3.348   1.475
 5805SOL    HW218315   2.198   3.466   1.382
 5806SOL     OW18316   0.515   3.039   3.584
 5806SOL    HW118317   0.588   3.085   3.534
 5806SOL    HW218318   0.542   3.026   3.679
 5807SOL     OW18319   1.448   6.060   0.544
 5807SOL    HW118320   1.452   6.031   0.449
 5807SOL    HW218321   1.455   5.981   0.604
 5808SOL     OW18322   6.216   0.053   4.314
 5808SOL    HW118323   6.134   0.013   4.357
 5808SOL    HW218324   6.227   0.147   4.345
 5809SOL     OW18325   0.269   2.676   5.867
 5809SOL    HW118326   0.180   2.721   5.875
 5809SOL    HW218327   0.336   2.741   5.831
 5810SOL     OW18328   4.182   6.656   4.733
 5810SOL    HW118329   4.118   6.704   4.794
 5810SOL    HW218330   4.258   6.619   4.786
 5811SOL     OW18331   2.794   3.070   5.830
 5811SOL    HW118332   2.851   3.002   5.784
 5811SOL    HW218333   2.799   3.157   5.780
 5812SOL     OW18334   6.009   2.671   0.782
 5812SOL    HW118335   6.017   2.693   0.685
 5812SOL    HW218336   6.099   2.654   0.821
 5813SOL     OW18337   4.515   6.106   0.986
 5813SOL    HW118338   4.429   6.091   0.936
 5813SOL    HW218339   4.533   6.204   0.993
 5814SOL     OW18340   6.110   1.963   2.515
 5814SOL    HW118341   6.201   1.968   2.473
 5814SOL    HW218342   6.079   2.055   2.539
 5815SOL     OW18343   6.489   0.697   4.133
 5815SOL    HW118344   6.392   0.719   4.138
 5815SOL    HW218345   6.542   0.780   4.119
 5816SOL     OW18346   0.597   4.592   2.696
 5816SOL    HW118347   0.547   4.551   2.773
 5816SOL    HW218348   0.593   4.530   2.617
 5817SOL     OW18349   5.424   4.304   4.347
 5817SOL    HW118350   5.510   4.291   4.297
 5817SOL    HW218351   5.359   4.232   4.322
 5818SOL     OW18352   1.404   6.966   4.882
 5818SOL    HW118353   1.495   6.993   4.850
 5818SOL    HW218354   1.334   7.018   4.833
 5819SOL     OW18355   3.951   4.977   6.769
 5819SOL    HW118356   4.047   4.990   6.792
 5819SOL    HW218357   3.901   4.943   6.849
 5820SOL     OW18358   5.649   4.998   2.105
 5820SOL    HW118359   5.591   4.962   2.178
 5820SOL    HW218360   5.649   4.934   2.028
 5821SOL     OW18361   6.462   0.996   1.129
 5821SOL    HW118362   6.370   0.979   1.162
 5821SOL    HW218363   6.523   1.013   1.206
 5822SOL     OW18364   1.264   2.377   2.542
 5822SOL    HW118365   1.179   2.326   2.533
 5822SOL    HW218366   1.269   2.445   2.469
 5823SOL     OW18367   2.314   6.439   3.404
 5823SOL    HW118368   2.408   6.438   3.369
 5823SOL    HW218369   2.264   6.360   3.369
 5824SOL     OW18370   0.851   6.780   2.362
 5824SOL    HW118371   0.801   6.810   2.281
 5824SOL    HW218372   0.832   6.684   2.379
 5825SOL     OW18373   6.236   0.355   4.340
 5825SOL    HW118374   6.327   0.383   4.311
 5825SOL    HW218375   6.169   0.423   4.310
 5826SOL     OW18376   7.001   0.501   5.338
 5826SOL    HW118377   0.039   0.428   5.363
 5826SOL    HW218378   6.926   0.505   5.404
 5827SOL     OW18379   1.428   4.291   5.528
 5827SOL    HW118380   1.335   4.274   5.560
 5827SOL    HW218381   1.487   4.312   5.606
 5828SOL     OW18382   4.947   6.595   3.916
 5828SOL    HW118383   5.012   6.668   3.935
 5828SOL    HW218384   4.993   6.507   3.921
 5829SOL     OW18385   2.335   0.619   3.807
 5829SOL    HW118386   2.341   0.519   3.796
 5829SOL    HW218387   2.271   0.640   3.881
 5830SOL     OW18388   3.432   5.027   5.393
 5830SOL    HW118389   3.406   4.989   5.304
 5830SOL    HW218390   3.515   5.081   5.383
 5831SOL     OW18391   1.555   1.004   5.196
 5831SOL    HW118392   1.568   1.038   5.103
 5831SOL    HW218393   1.472   1.045   5.235
 5832SOL     OW18394   3.591   4.819   1.146
 5832SOL    HW118395   3.554   4.897   1.195
 5832SOL    HW218396   3.688   4.807   1.169
 5833SOL     OW18397   4.174   3.570   5.640
 5833SOL    HW118398   4.213   3.661   5.652
 5833SOL    HW218399   4.106   3.572   5.567
 5834SOL     OW18400   6.761   4.270   6.719
 5834SOL    HW118401   6.817   4.260   6.637
 5834SOL    HW218402   6.795   4.209   6.791
 5835SOL     OW18403   5.761   0.565   2.824
 5835SOL    HW118404   5.719   0.517   2.747
 5835SOL    HW218405   5.712   0.651   2.840
 5836SOL     OW18406   4.681   6.539   1.999
 5836SOL    HW118407   4.745   6.597   2.049
 5836SOL    HW218408   4.697   6.549   1.900
 5837SOL     OW18409   3.743   3.796   0.325
 5837SOL    HW118410   3.704   3.888   0.330
 5837SOL    HW218411   3.736   3.762   0.231
 5838SOL     OW18412   2.998   2.021   1.359
 5838SOL    HW118413   2.912   2.031   1.308
 5838SOL    HW218414   3.055   1.951   1.317
 5839SOL     OW18415   1.388   2.791   2.072
 5839SOL    HW118416   1.471   2.760   2.117
 5839SOL    HW218417   1.334   2.711   2.044
 5840SOL     OW18418   0.686   3.667   2.327
 5840SOL    HW118419   0.636   3.731   2.269
 5840SOL    HW218420   0.739   3.717   2.395
 5841SOL     OW18421   4.520   0.840   0.855
 5841SOL    HW118422   4.614   0.823   0.886
 5841SOL    HW218423   4.478   0.910   0.913
 5842SOL     OW18424   3.068   1.527   0.405
 5842SOL    HW118425   3.142   1.593   0.392
 5842SOL    HW218426   3.074   1.457   0.334
 5843SOL     OW18427   1.783   3.319   1.069
 5843SOL    HW118428   1.801   3.288   1.163
 5843SOL    HW218429   1.760   3.240   1.012
 5844SOL     OW18430   0.839   0.342   5.168
 5844SOL    HW118431   0.786   0.426   5.168
 5844SOL    HW218432   0.853   0.312   5.073
 5845SOL     OW18433   0.402   6.484   1.739
 5845SOL    HW118434   0.344   6.548   1.789
 5845SOL    HW218435   0.497   6.516   1.740
 5846SOL     OW18436   6.571   3.605   5.575
 5846SOL    HW118437   6.519   3.604   5.661
 5846SOL    HW218438   6.636   3.529   5.574
 5847SOL     OW18439   2.747   3.265   0.868
 5847SOL    HW118440   2.791   3.355   0.865
 5847SOL    HW218441   2.653   3.274   0.900
 5848SOL     OW18442   2.348   6.247   3.943
 5848SOL    HW118443   2.286   6.302   4.000
 5848SOL    HW218444   2.318   6.252   3.848
 5849SOL     OW18445   2.209   6.270   5.325
 5849SOL    HW118446   2.174   6.177   5.335
 5849SOL    HW218447   2.290   6.268   5.266
 5850SOL     OW18448   1.189   2.575   2.043
 5850SOL    HW118449   1.112   2.512   2.054
 5850SOL    HW218450   1.244   2.547   1.964
 5851SOL     OW18451   5.669   3.454   4.738
 5851SOL    HW118452   5.570   3.462   4.750
 5851SOL    HW218453   5.709   3.545   4.734
 5852SOL     OW18454   5.124   5.157   3.784
 5852SOL    HW118455   5.080   5.102   3.712
 5852SOL    HW218456   5.105   5.115   3.873
 5853SOL     OW18457   3.537   5.178   5.790
 5853SOL    HW118458   3.583   5.227   5.864
 5853SOL    HW218459   3.572   5.210   5.702
 5854SOL     OW18460   2.914   4.406   6.067
 5854SOL    HW118461   2.948   4.404   6.161
 5854SOL    HW218462   2.862   4.490   6.052
 5855SOL     OW18463   2.302   2.538   3.844
 5855SOL    HW118464   2.204   2.552   3.830
 5855SOL    HW218465   2.342   2.503   3.760
 5856SOL     OW18466   1.498   6.866   3.004
 5856SOL    HW118467   1.497   6.819   2.916
 5856SOL    HW218468   1.411   6.913   3.018
 5857SOL     OW18469   0.721   3.411   6.154
 5857SOL    HW118470   0.648   3.446   6.095
 5857SOL    HW218471   0.789   3.363   6.098
 5858SOL     OW18472   2.240   1.553   3.035
 5858SOL    HW118473   2.146   1.529   3.056
 5858SOL    HW218474   2.247   1.653   3.025
 5859SOL     OW18475   5.943   0.136   2.619
 5859SOL    HW118476   5.992   0.067   2.567
 5859SOL    HW218477   5.956   0.226   2.577
 5860SOL     OW18478   0.146   3.271   3.273
 5860SOL    HW118479   0.108   3.182   3.298
 5860SOL    HW218480   0.244   3.262   3.258
 5861SOL     OW18481   6.133   0.917   4.927
 5861SOL    HW118482   6.176   0.833   4.957
 5861SOL    HW218483   6.204   0.986   4.908
 5862SOL     OW18484   6.761   5.280   2.854
 5862SOL    HW118485   6.732   5.254   2.946
 5862SOL    HW218486   6.833   5.217   2.823
 5863SOL     OW18487   3.344   0.706   4.649
 5863SOL    HW118488   3.313   0.794   4.614
 5863SOL    HW218489   3.429   0.718   4.701
 5864SOL     OW18490   3.616   3.908   3.179
 5864SOL    HW118491   3.555   3.848   3.231
 5864SOL    HW218492   3.689   3.941   3.239
 5865SOL     OW18493   5.971   1.274   5.621
 5865SOL    HW118494   6.068   1.268   5.599
 5865SOL    HW218495   5.957   1.253   5.717
 5866SOL     OW18496   4.012   3.716   1.634
 5866SOL    HW118497   4.101   3.672   1.622
 5866SOL    HW218498   4.014   3.773   1.716
 5867SOL     OW18499   2.720   2.189   1.402
 5867SOL    HW118500   2.752   2.258   1.336
 5867SOL    HW218501   2.687   2.236   1.484
 5868SOL     OW18502   0.470   1.686   5.954
 5868SOL    HW118503   0.543   1.638   6.003
 5868SOL    HW218504   0.390   1.627   5.946
 5869SOL     OW18505   0.794   4.623   4.343
 5869SOL    HW118506   0.872   4.609   4.283
 5869SOL    HW218507   0.718   4.564   4.315
 5870SOL     OW18508   4.142   4.697   5.247
 5870SOL    HW118509   4.115   4.601   5.256
 5870SOL    HW218510   4.186   4.712   5.159
 5871SOL     OW18511   3.190   2.959   3.589
 5871SOL    HW118512   3.120   2.893   3.618
 5871SOL    HW218513   3.146   3.034   3.541
 5872SOL     OW18514   4.172   6.076   2.481
 5872SOL    HW118515   4.253   6.045   2.531
 5872SOL    HW218516   4.094   6.019   2.507
 5873SOL     OW18517   3.447   4.859   2.781
 5873SOL    HW118518   3.439   4.800   2.861
 5873SOL    HW218519   3.356   4.888   2.752
 5874SOL     OW18520   2.305   4.289   5.438
 5874SOL    HW118521   2.243   4.239   5.377
 5874SOL    HW218522   2.255   4.363   5.484
 5875SOL     OW18523   3.357   2.273   0.159
 5875SOL    HW118524   3.275   2.218   0.146
 5875SOL    HW218525   3.403   2.245   0.243
 5876SOL     OW18526   3.976   3.441   2.120
 5876SOL    HW118527   4.023   3.353   2.126
 5876SOL    HW218528   4.043   3.514   2.103
 5877SOL     OW18529   5.987   6.106   0.999
 5877SOL    HW118530   6.041   6.045   1.058
 5877SOL    HW218531   6.036   6.123   0.914
 5878SOL     OW18532   1.330   5.357   2.737
 5878SOL    HW118533   1.425   5.385   2.726
 5878SOL    HW218534   1.304   5.362   2.833
 5879SOL     OW18535   6.382   3.916   6.908
 5879SOL    HW118536   6.362   3.979   6.833
 5879SOL    HW218537   6.407   3.826   6.871
 5880SOL     OW18538   2.740   6.203   1.120
 5880SOL    HW118539   2.779   6.124   1.166
 5880SOL    HW218540   2.750   6.284   1.178
 5881SOL     OW18541   0.431   4.343   3.481
 5881SOL    HW118542   0.410   4.253   3.519
 5881SOL    HW218543   0.481   4.332   3.395
 5882SOL     OW18544   5.232   0.495   0.932
 5882SOL    HW118545   5.236   0.567   0.863
 5882SOL    HW218546   5.140   0.491   0.972
 5883SOL     OW18547   0.346   2.510   6.155
 5883SOL    HW118548   0.317   2.456   6.076
 5883SOL    HW218549   0.280   2.500   6.229
 5884SOL     OW18550   1.408   1.269   3.182
 5884SOL    HW118551   1.356   1.352   3.201
 5884SOL    HW218552   1.487   1.290   3.125
 5885SOL     OW18553   6.326   6.857   1.146
 5885SOL    HW118554   6.418   6.836   1.178
 5885SOL    HW218555   6.266   6.873   1.225
 5886SOL     OW18556   0.711   2.553   5.498
 5886SOL    HW118557   0.619   2.538   5.536
 5886SOL    HW218558   0.703   2.582   5.402
 5887SOL     OW18559   3.700   0.798   4.136
 5887SOL    HW118560   3.627   0.758   4.192
 5887SOL    HW218561   3.688   0.771   4.041
 5888SOL     OW18562   2.322   6.145   2.564
 5888SOL    HW118563   2.393   6.207   2.597
 5888SOL    HW218564   2.250   6.198   2.518
 5889SOL     OW18565   2.256   0.562   1.352
 5889SOL    HW118566   2.292   0.606   1.269
 5889SOL    HW218567   2.305   0.475   1.367
 5890SOL     OW18568   1.056   6.913   5.354
 5890SOL    HW118569   0.982   6.862   5.398
 5890SOL    HW218570   1.133   6.921   5.417
 5891SOL     OW18571   3.793   3.521   6.833
 5891SOL    HW118572   3.727   3.451   6.860
 5891SOL    HW218573   3.813   3.580   6.911
 5892SOL     OW18574   1.066   6.115   1.090
 5892SOL    HW118575   1.058   6.214   1.083
 5892SOL    HW218576   1.003   6.072   1.024
 5893SOL     OW18577   1.349   3.114   3.286
 5893SOL    HW118578   1.404   3.107   3.203
 5893SOL    HW218579   1.408   3.143   3.362
 5894SOL     OW18580   1.458   4.463   3.296
 5894SOL    HW118581   1.469   4.521   3.377
 5894SOL    HW218582   1.448   4.520   3.215
 5895SOL     OW18583   5.268   2.324   4.979
 5895SOL    HW118584   5.259   2.225   4.989
 5895SOL    HW218585   5.355   2.345   4.935
 5896SOL     OW18586   3.769   2.115   6.890
 5896SOL    HW118587   3.779   2.016   6.879
 5896SOL    HW218588   3.682   2.136   6.933
 5897SOL     OW18589   4.246   0.084   1.356
 5897SOL    HW118590   4.197   0.171   1.349
 5897SOL    HW218591   4.227   0.042   1.445
 5898SOL     OW18592   0.901   7.011   1.518
 5898SOL    HW118593   0.806   7.007   1.487
 5898SOL    HW218594   0.958   6.957   1.456
 5899SOL     OW18595   6.295   6.943   5.233
 5899SOL    HW118596   6.270   7.010   5.163
 5899SOL    HW218597   6.218   6.930   5.295
 5900SOL     OW18598   4.479   5.024   2.835
 5900SOL    HW118599   4.565   5.067   2.808
 5900SOL    HW218600   4.490   4.978   2.922
 5901SOL     OW18601   1.958   0.023   6.797
 5901SOL    HW118602   1.993   0.095   6.738
 5901SOL    HW218603   2.002   0.028   6.886
 5902SOL     OW18604   7.014   1.934   1.075
 5902SOL    HW118605   6.960   1.941   1.159
 5902SOL    HW218606   6.986   1.854   1.023
 5903SOL     OW18607   5.673   4.505   0.756
 5903SOL    HW118608   5.624   4.543   0.834
 5903SOL    HW218609   5.731   4.576   0.715
 5904SOL     OW18610   0.493   3.597   2.486
 5904SOL    HW118611   0.552   3.596   2.405
 5904SOL    HW218612   0.409   3.647   2.465
 5905SOL     OW18613   6.708   6.673   3.122
 5905SOL    HW118614   6.710   6.640   3.028
 5905SOL    HW218615   6.724   6.772   3.123
 5906SOL     OW18616   5.590   0.537   3.599
 5906SOL    HW118617   5.629   0.554   3.689
 5906SOL    HW218618   5.643   0.467   3.552
 5907SOL     OW18619   1.130   6.409   1.424
 5907SOL    HW118620   1.149   6.323   1.377
 5907SOL    HW218621   1.056   6.396   1.489
 5908SOL     OW18622   0.489   2.094   5.642
 5908SOL    HW118623   0.482   2.009   5.591
 5908SOL    HW218624   0.488   2.074   5.740
 5909SOL     OW18625   1.051   5.968   0.183
 5909SOL    HW118626   0.992   5.947   0.261
 5909SOL    HW218627   0.997   5.968   0.099
 5910SOL     OW18628   1.194   2.699   3.342
 5910SOL    HW118629   1.221   2.737   3.431
 5910SOL    HW218630   1.135   2.620   3.357
 5911SOL     OW18631   7.012   5.962   6.526
 5911SOL    HW118632   6.943   5.949   6.598
 5911SOL    HW218633   7.007   6.056   6.493
 5912SOL     OW18634   6.184   1.610   5.569
 5912SOL    HW118635   6.281   1.609   5.595
 5912SOL    HW218636   6.160   1.700   5.533
 5913SOL     OW18637   5.395   2.714   0.313
 5913SOL    HW118638   5.307   2.758   0.297
 5913SOL    HW218639   5.382   2.629   0.365
 5914SOL     OW18640   0.890   6.917   6.696
 5914SOL    HW118641   0.805   6.926   6.748
 5914SOL    HW218642   0.937   6.833   6.722
 5915SOL     OW18643   3.017   6.377   6.810
 5915SOL    HW118644   3.111   6.379   6.777
 5915SOL    HW218645   2.968   6.301   6.768
 5916SOL     OW18646   0.223   6.726   1.830
 5916SOL    HW118647   0.241   6.714   1.928
 5916SOL    HW218648   0.218   6.823   1.809
 5917SOL     OW18649   3.156   3.886   6.122
 5917SOL    HW118650   3.219   3.843   6.057
 5917SOL    HW218651   3.118   3.969   6.081
 5918SOL     OW18652   2.368   5.972   5.835
 5918SOL    HW118653   2.394   5.878   5.813
 5918SOL    HW218654   2.451   6.026   5.854
 5919SOL     OW18655   3.048   3.636   3.485
 5919SOL    HW118656   3.141   3.606   3.464
 5919SOL    HW218657   3.002   3.567   3.541
 5920SOL     OW18658   5.406   1.563   5.920
 5920SOL    HW118659   5.335   1.494   5.905
 5920SOL    HW218660   5.443   1.554   6.012
 5921SOL     OW18661   3.970   4.768   6.590
 5921SOL    HW118662   3.954   4.856   6.634
 5921SOL    HW218663   4.050   4.775   6.530
 5922SOL     OW18664   6.116   3.871   3.750
 5922SOL    HW118665   6.068   3.937   3.692
 5922SOL    HW218666   6.050   3.813   3.797
 5923SOL     OW18667   6.638   0.977   1.546
 5923SOL    HW118668   6.581   1.010   1.620
 5923SOL    HW218669   6.609   0.886   1.518
 5924SOL     OW18670   5.909   6.587   3.122
 5924SOL    HW118671   5.903   6.491   3.149
 5924SOL    HW218672   5.843   6.641   3.175
 5925SOL     OW18673   3.958   6.030   1.782
 5925SOL    HW118674   4.006   5.951   1.744
 5925SOL    HW218675   3.998   6.114   1.744
 5926SOL     OW18676   4.188   4.707   3.189
 5926SOL    HW118677   4.129   4.734   3.112
 5926SOL    HW218678   4.132   4.664   3.260
 5927SOL     OW18679   1.405   4.083   1.910
 5927SOL    HW118680   1.380   4.163   1.855
 5927SOL    HW218681   1.365   4.091   2.001
 5928SOL     OW18682   4.259   6.922   1.117
 5928SOL    HW118683   4.249   6.995   1.184
 5928SOL    HW218684   4.340   6.938   1.061
 5929SOL     OW18685   6.662   0.707   5.542
 5929SOL    HW118686   6.681   0.772   5.470
 5929SOL    HW218687   6.697   0.742   5.629
 5930SOL     OW18688   1.240   2.951   1.686
 5930SOL    HW118689   1.311   3.010   1.647
 5930SOL    HW218690   1.180   3.005   1.745
 5931SOL     OW18691   6.333   6.246   2.628
 5931SOL    HW118692   6.281   6.179   2.682
 5931SOL    HW218693   6.273   6.286   2.559
 5932SOL     OW18694   3.339   0.073   6.458
 5932SOL    HW118695   3.435   0.047   6.470
 5932SOL    HW218696   3.286   0.040   6.536
 5933SOL     OW18697   0.083   5.351   4.005
 5933SOL    HW118698   0.104   5.322   4.099
 5933SOL    HW218699   0.137   5.432   3.983
 5934SOL     OW18700   3.629   3.547   5.630
 5934SOL    HW118701   3.652   3.519   5.723
 5934SOL    HW218702   3.688   3.622   5.602
 5935SOL     OW18703   0.395   6.119   5.169
 5935SOL    HW118704   0.326   6.047   5.160
 5935SOL    HW218705   0.485   6.081   5.148
 5936SOL     OW18706   2.954   3.224   2.452
 5936SOL    HW118707   2.925   3.277   2.372
 5936SOL    HW218708   3.048   3.193   2.439
 5937SOL     OW18709   6.906   2.818   1.759
 5937SOL    HW118710   6.927   2.725   1.789
 5937SOL    HW218711   6.831   2.815   1.692
 5938SOL     OW18712   5.912   5.741   4.898
 5938SOL    HW118713   5.822   5.776   4.926
 5938SOL    HW218714   5.935   5.777   4.808
 5939SOL     OW18715   3.242   6.037   4.120
 5939SOL    HW118716   3.293   6.008   4.201
 5939SOL    HW218717   3.300   6.028   4.039
 5940SOL     OW18718   4.283   4.970   3.160
 5940SOL    HW118719   4.236   4.882   3.161
 5940SOL    HW218720   4.381   4.955   3.150
 5941SOL     OW18721   5.842   2.669   2.909
 5941SOL    HW118722   5.831   2.724   2.992
 5941SOL    HW218723   5.873   2.577   2.934
 5942SOL     OW18724   5.963   2.887   6.024
 5942SOL    HW118725   5.878   2.869   5.975
 5942SOL    HW218726   5.982   2.985   6.021
 5943SOL     OW18727   4.310   3.820   0.272
 5943SOL    HW118728   4.255   3.737   0.262
 5943SOL    HW218729   4.281   3.870   0.353
 5944SOL     OW18730   0.540   2.653   0.275
 5944SOL    HW118731   0.632   2.668   0.239
 5944SOL    HW218732   0.489   2.738   0.270
 5945SOL     OW18733   0.237   6.339   5.164
 5945SOL    HW118734   0.260   6.389   5.080
 5945SOL    HW218735   0.289   6.254   5.167
 5946SOL     OW18736   3.229   4.917   6.853
 5946SOL    HW118737   3.237   4.860   6.934
 5946SOL    HW218738   3.267   4.870   6.773
 5947SOL     OW18739   2.955   3.220   4.466
 5947SOL    HW118740   2.893   3.298   4.459
 5947SOL    HW218741   3.005   3.209   4.380
 5948SOL     OW18742   4.776   4.551   2.197
 5948SOL    HW118743   4.794   4.578   2.102
 5948SOL    HW218744   4.702   4.484   2.199
 5949SOL     OW18745   6.018   5.552   1.335
 5949SOL    HW118746   6.012   5.464   1.288
 5949SOL    HW218747   6.085   5.545   1.409
 5950SOL     OW18748   4.968   2.366   5.463
 5950SOL    HW118749   4.946   2.460   5.488
 5950SOL    HW218750   5.011   2.364   5.373
 5951SOL     OW18751   1.025   5.557   5.108
 5951SOL    HW118752   1.075   5.630   5.155
 5951SOL    HW218753   1.028   5.574   5.010
 5952SOL     OW18754   4.307   5.367   3.176
 5952SOL    HW118755   4.297   5.458   3.135
 5952SOL    HW218756   4.217   5.323   3.183
 5953SOL     OW18757   6.482   3.299   4.473
 5953SOL    HW118758   6.430   3.309   4.388
 5953SOL    HW218759   6.575   3.332   4.459
 5954SOL     OW18760   0.444   5.335   5.733
 5954SOL    HW118761   0.420   5.364   5.826
 5954SOL    HW218762   0.362   5.304   5.685
 5955SOL     OW18763   4.290   5.429   1.502
 5955SOL    HW118764   4.312   5.479   1.418
 5955SOL    HW218765   4.349   5.461   1.576
 5956SOL     OW18766   5.413   2.107   4.068
 5956SOL    HW118767   5.502   2.061   4.065
 5956SOL    HW218768   5.346   2.046   4.111
 5957SOL     OW18769   1.595   1.327   3.459
 5957SOL    HW118770   1.685   1.307   3.420
 5957SOL    HW218771   1.547   1.392   3.400
 5958SOL     OW18772   3.898   0.588   3.187
 5958SOL    HW118773   3.878   0.495   3.155
 5958SOL    HW218774   3.853   0.604   3.274
 5959SOL     OW18775   4.401   2.807   5.521
 5959SOL    HW118776   4.312   2.819   5.564
 5959SOL    HW218777   4.416   2.879   5.453
 5960SOL     OW18778   2.956   6.519   4.584
 5960SOL    HW118779   2.985   6.614   4.598
 5960SOL    HW218780   3.005   6.480   4.506
 5961SOL     OW18781   3.612   1.713   2.501
 5961SOL    HW118782   3.666   1.712   2.585
 5961SOL    HW218783   3.671   1.736   2.424
 5962SOL     OW18784   4.886   6.079   6.136
 5962SOL    HW118785   4.907   6.070   6.233
 5962SOL    HW218786   4.811   6.017   6.112
 5963SOL     OW18787   3.585   4.375   6.993
 5963SOL    HW118788   3.488   4.356   6.979
 5963SOL    HW218789   3.628   4.297   0.014
 5964SOL     OW18790   2.454   6.941   3.119
 5964SOL    HW118791   2.523   6.874   3.091
 5964SOL    HW218792   2.383   6.896   3.173
 5965SOL     OW18793   1.914   0.371   6.273
 5965SOL    HW118794   2.008   0.397   6.254
 5965SOL    HW218795   1.864   0.450   6.310
 5966SOL     OW18796   1.466   0.044   5.566
 5966SOL    HW118797   1.448   0.111   5.495
 5966SOL    HW218798   1.565   0.033   5.578
 5967SOL     OW18799   2.634   1.544   5.155
 5967SOL    HW118800   2.578   1.584   5.227
 5967SOL    HW218801   2.608   1.448   5.141
 5968SOL     OW18802   5.675   2.502   0.657
 5968SOL    HW118803   5.715   2.450   0.732
 5968SOL    HW218804   5.643   2.590   0.690
 5969SOL     OW18805   4.870   0.996   6.545
 5969SOL    HW118806   4.966   0.968   6.551
 5969SOL    HW218807   4.847   1.053   6.624
 5970SOL     OW18808   0.346   4.319   0.648
 5970SOL    HW118809   0.283   4.374   0.593
 5970SOL    HW218810   0.414   4.277   0.588
 5971SOL     OW18811   5.993   0.186   2.026
 5971SOL    HW118812   6.085   0.176   2.065
 5971SOL    HW218813   5.927   0.135   2.082
 5972SOL     OW18814   5.312   5.535   6.428
 5972SOL    HW118815   5.347   5.614   6.377
 5972SOL    HW218816   5.311   5.455   6.367
 5973SOL     OW18817   2.136   3.569   2.653
 5973SOL    HW118818   2.135   3.508   2.574
 5973SOL    HW218819   2.186   3.653   2.630
 5974SOL     OW18820   5.010   0.433   7.001
 5974SOL    HW118821   5.024   0.492   6.921
 5974SOL    HW218822   5.097   0.417   0.022
 5975SOL     OW18823   5.017   5.685   1.440
 5975SOL    HW118824   4.933   5.636   1.418
 5975SOL    HW218825   5.014   5.777   1.402
 5976SOL     OW18826   3.316   3.625   5.730
 5976SOL    HW118827   3.395   3.631   5.668
 5976SOL    HW218828   3.341   3.571   5.810
 5977SOL     OW18829   0.635   5.728   0.229
 5977SOL    HW118830   0.649   5.720   0.328
 5977SOL    HW218831   0.719   5.705   0.181
 5978SOL     OW18832   3.674   5.271   0.846
 5978SOL    HW118833   3.746   5.256   0.914
 5978SOL    HW218834   3.634   5.183   0.820
 5979SOL     OW18835   6.089   0.580   1.933
 5979SOL    HW118836   6.028   0.515   1.888
 5979SOL    HW218837   6.162   0.607   1.871
 5980SOL     OW18838   3.396   2.881   2.083
 5980SOL    HW118839   3.372   2.792   2.122
 5980SOL    HW218840   3.468   2.869   2.015
 5981SOL     OW18841   4.912   1.721   0.257
 5981SOL    HW118842   4.883   1.625   0.264
 5981SOL    HW218843   4.864   1.765   0.181
 5982SOL     OW18844   5.701   2.084   2.667
 5982SOL    HW118845   5.760   2.013   2.627
 5982SOL    HW218846   5.686   2.156   2.600
 5983SOL     OW18847   1.429   0.698   3.911
 5983SOL    HW118848   1.483   0.756   3.973
 5983SOL    HW218849   1.335   0.690   3.946
 5984SOL     OW18850   5.941   6.154   3.917
 5984SOL    HW118851   5.850   6.194   3.909
 5984SOL    HW218852   5.937   6.072   3.973
 5985SOL     OW18853   6.230   2.553   3.697
 5985SOL    HW118854   6.323   2.574   3.730
 5985SOL    HW218855   6.208   2.612   3.620
 5986SOL     OW18856   4.028   3.800   5.798
 5986SOL    HW118857   4.019   3.874   5.731
 5986SOL    HW218858   4.077   3.833   5.878
 5987SOL     OW18859   6.205   0.659   4.222
 5987SOL    HW118860   6.180   0.655   4.318
 5987SOL    HW218861   6.146   0.724   4.174
 5988SOL     OW18862   3.625   1.051   6.417
 5988SOL    HW118863   3.540   1.012   6.382
 5988SOL    HW218864   3.700   0.986   6.400
 5989SOL     OW18865   1.820   5.659   6.140
 5989SOL    HW118866   1.796   5.581   6.083
 5989SOL    HW218867   1.890   5.714   6.094
 5990SOL     OW18868   3.670   3.708   1.216
 5990SOL    HW118869   3.737   3.646   1.177
 5990SOL    HW218870   3.699   3.736   1.307
 5991SOL     OW18871   4.293   5.670   0.098
 5991SOL    HW118872   4.206   5.717   0.084
 5991SOL    HW218873   4.303   5.599   0.030
 5992SOL     OW18874   3.184   0.044   2.685
 5992SOL    HW118875   3.181   0.117   2.753
 5992SOL    HW218876   3.198   0.085   2.594
 5993SOL     OW18877   5.792   4.193   6.282
 5993SOL    HW118878   5.883   4.200   6.324
 5993SOL    HW218879   5.801   4.198   6.182
 5994SOL     OW18880   0.120   2.657   1.032
 5994SOL    HW118881   0.139   2.560   1.047
 5994SOL    HW218882   0.021   2.674   1.041
 5995SOL     OW18883   4.368   3.137   1.711
 5995SOL    HW118884   4.453   3.144   1.762
 5995SOL    HW218885   4.348   3.041   1.691
 5996SOL     OW18886   1.757   5.887   1.315
 5996SOL    HW118887   1.777   5.921   1.407
 5996SOL    HW218888   1.835   5.834   1.281
 5997SOL     OW18889   0.451   6.704   3.566
 5997SOL    HW118890   0.408   6.700   3.656
 5997SOL    HW218891   0.511   6.784   3.561
 5998SOL     OW18892   5.543   0.884   1.601
 5998SOL    HW118893   5.615   0.852   1.540
 5998SOL    HW218894   5.486   0.952   1.554
 5999SOL     OW18895   3.444   3.501   1.102
 5999SOL    HW118896   3.465   3.516   1.198
 5999SOL    HW218897   3.523   3.527   1.046
 6000SOL     OW18898   0.238   6.063   0.021
 6000SOL    HW118899   0.168   6.013   6.996
 6000SOL    HW218900   0.198   6.104   0.103
 6001SOL     OW18901   5.524   5.812   6.834
 6001SOL    HW118902   5.469   5.732   6.856
 6001SOL    HW218903   5.614   5.804   6.877
 6002SOL     OW18904   6.889   0.072   5.711
 6002SOL    HW118905   6.835   7.020   5.746
 6002SOL    HW218906   6.849   0.158   5.743
 6003SOL     OW18907   6.310   2.786   4.423
 6003SOL    HW118908   6.310   2.859   4.354
 6003SOL    HW218909   6.280   2.824   4.510
 6004SOL     OW18910   6.094   2.935   3.329
 6004SOL    HW118911   6.093   2.892   3.239
 6004SOL    HW218912   6.090   2.865   3.400
 6005SOL     OW18913   5.451   4.825   5.174
 6005SOL    HW118914   5.424   4.745   5.121
 6005SOL    HW218915   5.374   4.856   5.230
 6006SOL     OW18916   3.471   6.961   5.167
 6006SOL    HW118917   3.473   0.032   5.140
 6006SOL    HW218918   3.418   6.909   5.099
 6007SOL     OW18919   6.850   2.989   6.948
 6007SOL    HW118920   6.851   2.911   6.886
 6007SOL    HW218921   6.859   3.073   6.896
 6008SOL     OW18922   2.158   4.548   5.522
 6008SOL    HW118923   2.192   4.639   5.545
 6008SOL    HW218924   2.058   4.549   5.523
 6009SOL     OW18925   4.847   5.772   3.754
 6009SOL    HW118926   4.834   5.852   3.812
 6009SOL    HW218927   4.765   5.756   3.700
 6010SOL     OW18928   0.625   3.977   4.002
 6010SOL    HW118929   0.646   3.987   4.099
 6010SOL    HW218930   0.535   3.935   3.992
 6011SOL     OW18931   4.671   2.659   2.649
 6011SOL    HW118932   4.686   2.729   2.720
 6011SOL    HW218933   4.592   2.604   2.673
 6012SOL     OW18934   6.022   0.745   0.256
 6012SOL    HW118935   6.019   0.843   0.277
 6012SOL    HW218936   6.004   0.693   0.339
 6013SOL     OW18937   4.695   1.195   2.912
 6013SOL    HW118938   4.643   1.120   2.952
 6013SOL    HW218939   4.634   1.255   2.861
 6014SOL     OW18940   3.357   3.755   4.126
 6014SOL    HW118941   3.328   3.849   4.143
 6014SOL    HW218942   3.368   3.707   4.214
 6015SOL     OW18943   6.073   3.548   4.543
 6015SOL    HW118944   6.071   3.645   4.568
 6015SOL    HW218945   6.082   3.539   4.444
 6016SOL     OW18946   5.130   1.948   5.930
 6016SOL    HW118947   5.223   1.926   5.902
 6016SOL    HW218948   5.067   1.878   5.895
 6017SOL     OW18949   0.376   4.049   5.008
 6017SOL    HW118950   0.455   4.072   4.951
 6017SOL    HW218951   0.319   3.981   4.960
 6018SOL     OW18952   3.249   0.994   4.622
 6018SOL    HW118953   3.317   1.016   4.692
 6018SOL    HW218954   3.190   1.074   4.607
 6019SOL     OW18955   1.005   3.568   5.920
 6019SOL    HW118956   1.100   3.565   5.950
 6019SOL    HW218957   0.975   3.663   5.915
 6020SOL     OW18958   0.955   5.065   0.767
 6020SOL    HW118959   1.006   5.091   0.849
 6020SOL    HW218960   0.964   5.137   0.698
 6021SOL     OW18961   4.888   0.127   3.017
 6021SOL    HW118962   4.865   0.188   2.942
 6021SOL    HW218963   4.860   0.168   3.104
 6022SOL     OW18964   6.468   1.808   3.419
 6022SOL    HW118965   6.553   1.845   3.455
 6022SOL    HW218966   6.404   1.884   3.402
 6023SOL     OW18967   5.299   0.052   1.311
 6023SOL    HW118968   5.306   0.128   1.375
 6023SOL    HW218969   5.391   0.026   1.280
 6024SOL     OW18970   0.369   4.703   0.492
 6024SOL    HW118971   0.324   4.652   0.419
 6024SOL    HW218972   0.455   4.657   0.517
 6025SOL     OW18973   3.173   1.066   3.860
 6025SOL    HW118974   3.180   1.055   3.761
 6025SOL    HW218975   3.094   1.014   3.894
 6026SOL     OW18976   6.369   4.804   4.685
 6026SOL    HW118977   6.353   4.729   4.749
 6026SOL    HW218978   6.336   4.777   4.594
 6027SOL     OW18979   6.321   3.658   6.135
 6027SOL    HW118980   6.384   3.733   6.156
 6027SOL    HW218981   6.296   3.661   6.038
 6028SOL     OW18982   5.517   5.121   1.325
 6028SOL    HW118983   5.531   5.216   1.297
 6028SOL    HW218984   5.420   5.107   1.346
 6029SOL     OW18985   1.954   6.759   3.340
 6029SOL    HW118986   1.920   6.809   3.261
 6029SOL    HW218987   1.997   6.674   3.309
 6030SOL     OW18988   4.917   3.622   4.739
 6030SOL    HW118989   4.839   3.619   4.800
 6030SOL    HW218990   4.990   3.562   4.774
 6031SOL     OW18991   1.785   5.614   3.806
 6031SOL    HW118992   1.789   5.526   3.853
 6031SOL    HW218993   1.694   5.654   3.819
 6032SOL     OW18994   2.834   5.053   3.184
 6032SOL    HW118995   2.907   4.985   3.178
 6032SOL    HW218996   2.777   5.048   3.102
 6033SOL     OW18997   2.292   2.690   2.371
 6033SOL    HW118998   2.365   2.642   2.323
 6033SOL    HW218999   2.299   2.673   2.469
 6034SOL     OW19000   0.781   0.381   6.448
 6034SOL    HW119001   0.784   0.480   6.438
 6034SOL    HW219002   0.720   0.341   6.380
 6035SOL     OW19003   0.844   0.487   2.817
 6035SOL    HW119004   0.844   0.492   2.916
 6035SOL    HW219005   0.933   0.517   2.782
 6036SOL     OW19006   5.988   4.658   1.569
 6036SOL    HW119007   6.047   4.600   1.625
 6036SOL    HW219008   5.946   4.728   1.626
 6037SOL     OW19009   4.065   0.426   1.057
 6037SOL    HW119010   4.152   0.464   1.024
 6037SOL    HW219011   3.990   0.483   1.025
 6038SOL     OW19012   0.508   2.377   6.408
 6038SOL    HW119013   0.488   2.349   6.314
 6038SOL    HW219014   0.488   2.302   6.470
 6039SOL     OW19015   3.757   3.878   4.258
 6039SOL    HW119016   3.847   3.864   4.299
 6039SOL    HW219017   3.762   3.861   4.159
 6040SOL     OW19018   1.533   1.208   6.886
 6040SOL    HW119019   1.627   1.173   6.892
 6040SOL    HW219020   1.522   1.284   6.949
 6041SOL     OW19021   3.120   2.851   5.172
 6041SOL    HW119022   3.167   2.939   5.178
 6041SOL    HW219023   3.186   2.777   5.186
 6042SOL     OW19024   4.116   6.458   2.997
 6042SOL    HW119025   4.106   6.411   2.910
 6042SOL    HW219026   4.164   6.399   3.062
 6043SOL     OW19027   1.053   0.347   4.262
 6043SOL    HW119028   1.055   0.406   4.343
 6043SOL    HW219029   1.114   0.385   4.192
 6044SOL     OW19030   2.190   2.344   2.072
 6044SOL    HW119031   2.170   2.389   1.984
 6044SOL    HW219032   2.143   2.393   2.145
 6045SOL     OW19033   4.845   3.087   3.792
 6045SOL    HW119034   4.922   3.028   3.768
 6045SOL    HW219035   4.800   3.050   3.873
 6046SOL     OW19036   3.254   2.919   0.928
 6046SOL    HW119037   3.329   2.919   0.861
 6046SOL    HW219038   3.292   2.927   1.020
 6047SOL     OW19039   5.393   2.291   1.473
 6047SOL    HW119040   5.325   2.272   1.402
 6047SOL    HW219041   5.485   2.279   1.435
 6048SOL     OW19042   5.147   5.618   5.149
 6048SOL    HW119043   5.153   5.684   5.224
 6048SOL    HW219044   5.126   5.666   5.064
 6049SOL     OW19045   5.605   4.659   5.912
 6049SOL    HW119046   5.628   4.715   5.991
 6049SOL    HW219047   5.590   4.718   5.832
 6050SOL     OW19048   2.951   5.127   0.791
 6050SOL    HW119049   2.861   5.089   0.767
 6050SOL    HW219050   3.008   5.055   0.830
 6051SOL     OW19051   1.573   0.620   2.966
 6051SOL    HW119052   1.504   0.610   2.895
 6051SOL    HW219053   1.598   0.529   3.001
 6052SOL     OW19054   5.229   0.764   1.518
 6052SOL    HW119055   5.173   0.727   1.443
 6052SOL    HW219056   5.312   0.710   1.527
 6053SOL     OW19057   4.113   0.353   6.387
 6053SOL    HW119058   4.058   0.331   6.467
 6053SOL    HW219059   4.081   0.439   6.346
 6054SOL     OW19060   3.621   4.954   0.879
 6054SOL    HW119061   3.695   4.970   0.944
 6054SOL    HW219062   3.547   4.904   0.924
 6055SOL     OW19063   3.414   5.533   6.257
 6055SOL    HW119064   3.503   5.496   6.283
 6055SOL    HW219065   3.376   5.478   6.183
 6056SOL     OW19066   5.701   2.766   4.905
 6056SOL    HW119067   5.662   2.728   4.822
 6056SOL    HW219068   5.753   2.696   4.953
 6057SOL     OW19069   5.839   0.931   2.266
 6057SOL    HW119070   5.805   1.003   2.205
 6057SOL    HW219071   5.876   0.973   2.349
 6058SOL     OW19072   5.442   3.442   0.315
 6058SOL    HW119073   5.480   3.466   0.404
 6058SOL    HW219074   5.420   3.344   0.313
 6059SOL     OW19075   4.938   4.065   5.451
 6059SOL    HW119076   5.035   4.090   5.458
 6059SOL    HW219077   4.927   3.969   5.480
 6060SOL     OW19078   3.057   3.244   0.116
 6060SOL    HW119079   3.083   3.152   0.087
 6060SOL    HW219080   2.987   3.239   0.186
 6061SOL     OW19081   4.493   4.640   0.681
 6061SOL    HW119082   4.403   4.675   0.657
 6061SOL    HW219083   4.525   4.577   0.610
 6062SOL     OW19084   2.385   1.979   6.364
 6062SOL    HW119085   2.441   2.062   6.363
 6062SOL    HW219086   2.381   1.940   6.272
 6063SOL     OW19087   3.433   4.281   5.778
 6063SOL    HW119088   3.503   4.213   5.755
 6063SOL    HW219089   3.475   4.359   5.824
 6064SOL     OW19090   0.841   0.507   1.247
 6064SOL    HW119091   0.907   0.441   1.283
 6064SOL    HW219092   0.844   0.590   1.302
 6065SOL     OW19093   0.523   5.808   1.357
 6065SOL    HW119094   0.538   5.736   1.425
 6065SOL    HW219095   0.442   5.861   1.382
 6066SOL     OW19096   5.283   0.877   4.135
 6066SOL    HW119097   5.189   0.906   4.148
 6066SOL    HW219098   5.345   0.944   4.176
 6067SOL     OW19099   4.839   1.470   5.704
 6067SOL    HW119100   4.937   1.491   5.705
 6067SOL    HW219101   4.827   1.372   5.690
 6068SOL     OW19102   5.054   2.469   4.893
 6068SOL    HW119103   5.041   2.550   4.950
 6068SOL    HW219104   5.127   2.413   4.930
 6069SOL     OW19105   6.721   3.265   6.153
 6069SOL    HW119106   6.642   3.319   6.123
 6069SOL    HW219107   6.709   3.239   6.249
 6070SOL     OW19108   3.588   2.648   1.488
 6070SOL    HW119109   3.608   2.596   1.571
 6070SOL    HW219110   3.673   2.686   1.451
 6071SOL     OW19111   0.445   5.700   4.452
 6071SOL    HW119112   0.397   5.787   4.449
 6071SOL    HW219113   0.438   5.661   4.543
 6072SOL     OW19114   6.658   1.594   1.532
 6072SOL    HW119115   6.749   1.624   1.502
 6072SOL    HW219116   6.662   1.496   1.555
 6073SOL     OW19117   5.071   2.836   0.738
 6073SOL    HW119118   5.015   2.753   0.747
 6073SOL    HW219119   5.046   2.902   0.808
 6074SOL     OW19120   1.932   0.067   1.911
 6074SOL    HW119121   1.894   0.021   1.992
 6074SOL    HW219122   1.912   0.013   1.830
 6075SOL     OW19123   4.648   0.150   5.457
 6075SOL    HW119124   4.736   0.195   5.470
 6075SOL    HW219125   4.661   0.070   5.397
 6076SOL     OW19126   2.646   5.120   3.358
 6076SOL    HW119127   2.551   5.102   3.331
 6076SOL    HW219128   2.707   5.090   3.284
 6077SOL     OW19129   5.379   6.223   0.911
 6077SOL    HW119130   5.469   6.221   0.956
 6077SOL    HW219131   5.324   6.147   0.943
 6078SOL     OW19132   4.484   4.720   0.920
 6078SOL    HW119133   4.386   4.726   0.938
 6078SOL    HW219134   4.499   4.689   0.827
 6079SOL     OW19135   5.047   4.837   6.083
 6079SOL    HW119136   5.130   4.787   6.109
 6079SOL    HW219137   4.985   4.775   6.035
 6080SOL     OW19138   0.379   5.148   1.815
 6080SOL    HW119139   0.354   5.054   1.838
 6080SOL    HW219140   0.299   5.197   1.783
 6081SOL     OW19141   6.762   3.100   5.848
 6081SOL    HW119142   6.804   3.051   5.772
 6081SOL    HW219143   6.819   3.088   5.930
 6082SOL     OW19144   3.307   6.369   2.214
 6082SOL    HW119145   3.217   6.330   2.232
 6082SOL    HW219146   3.297   6.450   2.156
 6083SOL     OW19147   5.650   5.691   0.748
 6083SOL    HW119148   5.616   5.786   0.746
 6083SOL    HW219149   5.642   5.656   0.841
 6084SOL     OW19150   0.779   6.634   2.075
 6084SOL    HW119151   0.836   6.649   1.994
 6084SOL    HW219152   0.825   6.569   2.136
 6085SOL     OW19153   6.224   6.183   6.076
 6085SOL    HW119154   6.234   6.160   5.980
 6085SOL    HW219155   6.182   6.274   6.085
 6086SOL     OW19156   2.985   2.583   5.729
 6086SOL    HW119157   3.056   2.590   5.659
 6086SOL    HW219158   2.895   2.588   5.686
 6087SOL     OW19159   4.415   5.812   1.155
 6087SOL    HW119160   4.479   5.774   1.088
 6087SOL    HW219161   4.323   5.812   1.118
 6088SOL     OW19162   6.248   6.316   5.344
 6088SOL    HW119163   6.240   6.312   5.443
 6088SOL    HW219164   6.188   6.246   5.303
 6089SOL     OW19165   6.406   2.631   2.796
 6089SOL    HW119166   6.352   2.694   2.853
 6089SOL    HW219167   6.499   2.625   2.831
 6090SOL     OW19168   3.040   5.132   4.703
 6090SOL    HW119169   2.940   5.127   4.701
 6090SOL    HW219170   3.078   5.039   4.705
 6091SOL     OW19171   3.061   1.554   0.672
 6091SOL    HW119172   3.112   1.640   0.682
 6091SOL    HW219173   3.059   1.527   0.576
 6092SOL     OW19174   4.328   1.079   2.167
 6092SOL    HW119175   4.253   1.013   2.175
 6092SOL    HW219176   4.385   1.057   2.088
 6093SOL     OW19177   2.423   2.554   1.972
 6093SOL    HW119178   2.366   2.505   1.906
 6093SOL    HW219179   2.487   2.490   2.015
 6094SOL     OW19180   1.270   6.231   3.487
 6094SOL    HW119181   1.181   6.235   3.442
 6094SOL    HW219182   1.273   6.151   3.547
 6095SOL     OW19183   4.613   5.056   6.523
 6095SOL    HW119184   4.591   5.046   6.620
 6095SOL    HW219185   4.529   5.044   6.469
 6096SOL     OW19186   5.456   6.953   2.172
 6096SOL    HW119187   5.502   6.876   2.216
 6096SOL    HW219188   5.371   6.974   2.221
 6097SOL     OW19189   1.713   5.533   1.975
 6097SOL    HW119190   1.752   5.623   1.989
 6097SOL    HW219191   1.722   5.507   1.879
 6098SOL     OW19192   6.472   0.974   5.767
 6098SOL    HW119193   6.457   1.048   5.832
 6098SOL    HW219194   6.466   0.886   5.813
 6099SOL     OW19195   5.126   5.800   5.369
 6099SOL    HW119196   5.030   5.775   5.384
 6099SOL    HW219197   5.131   5.890   5.326
 6100SOL     OW19198   0.290   5.881   2.084
 6100SOL    HW119199   0.321   5.959   2.030
 6100SOL    HW219200   0.272   5.911   2.177
 6101SOL     OW19201   6.519   2.867   2.658
 6101SOL    HW119202   6.526   2.784   2.714
 6101SOL    HW219203   6.600   2.875   2.600
 6102SOL     OW19204   3.973   6.035   2.901
 6102SOL    HW119205   3.879   6.002   2.910
 6102SOL    HW219206   3.984   6.082   2.814
 6103SOL     OW19207   6.644   1.089   1.292
 6103SOL    HW119208   6.653   1.185   1.266
 6103SOL    HW219209   6.619   1.083   1.389
 6104SOL     OW19210   5.964   0.643   5.261
 6104SOL    HW119211   5.888   0.708   5.263
 6104SOL    HW219212   5.930   0.552   5.237
 6105SOL     OW19213   1.774   5.486   5.937
 6105SOL    HW119214   1.871   5.494   5.918
 6105SOL    HW219215   1.737   5.407   5.888
 6106SOL     OW19216   1.215   5.332   0.274
 6106SOL    HW119217   1.295   5.290   0.316
 6106SOL    HW219218   1.192   5.284   0.189
 6107SOL     OW19219   4.402   5.360   4.081
 6107SOL    HW119220   4.480   5.299   4.065
 6107SOL    HW219221   4.426   5.453   4.051
 6108SOL     OW19222   1.954   2.541   2.939
 6108SOL    HW119223   1.956   2.618   2.874
 6108SOL    HW219224   1.869   2.543   2.991
 6109SOL     OW19225   5.363   1.313   5.128
 6109SOL    HW119226   5.407   1.322   5.218
 6109SOL    HW219227   5.264   1.306   5.139
 6110SOL     OW19228   2.009   2.928   6.873
 6110SOL    HW119229   2.084   2.869   6.844
 6110SOL    HW219230   1.999   2.922   6.972
 6111SOL     OW19231   1.356   3.373   1.915
 6111SOL    HW119232   1.454   3.386   1.933
 6111SOL    HW219233   1.319   3.307   1.980
 6112SOL     OW19234   4.476   0.326   2.745
 6112SOL    HW119235   4.507   0.387   2.672
 6112SOL    HW219236   4.404   0.265   2.710
 6113SOL     OW19237   2.684   3.402   6.610
 6113SOL    HW119238   2.658   3.475   6.546
 6113SOL    HW219239   2.621   3.401   6.687
 6114SOL     OW19240   5.092   3.363   2.523
 6114SOL    HW119241   5.047   3.381   2.435
 6114SOL    HW219242   5.171   3.303   2.509
 6115SOL     OW19243   6.664   1.751   5.221
 6115SOL    HW119244   6.716   1.834   5.203
 6115SOL    HW219245   6.641   1.706   5.135
 6116SOL     OW19246   4.074   2.240   5.481
 6116SOL    HW119247   3.983   2.281   5.480
 6116SOL    HW219248   4.112   2.243   5.573
 6117SOL     OW19249   1.701   2.301   2.980
 6117SOL    HW119250   1.740   2.365   3.046
 6117SOL    HW219251   1.684   2.349   2.894
 6118SOL     OW19252   5.488   1.281   1.625
 6118SOL    HW119253   5.412   1.346   1.625
 6118SOL    HW219254   5.454   1.191   1.599
 6119SOL     OW19255   1.059   3.197   0.502
 6119SOL    HW119256   1.059   3.122   0.436
 6119SOL    HW219257   1.070   3.284   0.452
 6120SOL     OW19258   2.033   6.752   5.204
 6120SOL    HW119259   2.010   6.825   5.269
 6120SOL    HW219260   2.132   6.737   5.206
 6121SOL     OW19261   1.082   4.008   5.568
 6121SOL    HW119262   1.081   4.011   5.468
 6121SOL    HW219263   0.994   3.974   5.601
 6122SOL     OW19264   4.946   5.366   6.301
 6122SOL    HW119265   4.880   5.437   6.278
 6122SOL    HW219266   4.941   5.293   6.233
 6123SOL     OW19267   5.309   0.669   5.281
 6123SOL    HW119268   5.257   0.595   5.238
 6123SOL    HW219269   5.407   0.647   5.276
 6124SOL     OW19270   0.401   6.767   5.877
 6124SOL    HW119271   0.402   6.851   5.932
 6124SOL    HW219272   0.342   6.700   5.921
 6125SOL     OW19273   2.544   4.212   0.035
 6125SOL    HW119274   2.604   4.147   7.014
 6125SOL    HW219275   2.558   4.205   0.134
 6126SOL     OW19276   1.045   1.900   5.312
 6126SOL    HW119277   1.116   1.949   5.362
 6126SOL    HW219278   1.010   1.826   5.368
 6127SOL     OW19279   4.221   0.352   1.649
 6127SOL    HW119280   4.284   0.340   1.572
 6127SOL    HW219281   4.174   0.265   1.666
 6128SOL     OW19282   5.412   5.327   0.587
 6128SOL    HW119283   5.343   5.379   0.638
 6128SOL    HW219284   5.374   5.298   0.499
 6129SOL     OW19285   1.195   3.560   3.934
 6129SOL    HW119286   1.282   3.568   3.984
 6129SOL    HW219287   1.189   3.633   3.867
 6130SOL     OW19288   5.917   2.424   3.021
 6130SOL    HW119289   5.927   2.324   3.017
 6130SOL    HW219290   6.007   2.467   3.025
 6131SOL     OW19291   1.086   1.790   2.573
 6131SOL    HW119292   1.121   1.883   2.572
 6131SOL    HW219293   1.159   1.726   2.595
 6132SOL     OW19294   3.756   1.843   6.816
 6132SOL    HW119295   3.737   1.745   6.826
 6132SOL    HW219296   3.682   1.886   6.765
 6133SOL     OW19297   1.690   2.696   3.303
 6133SOL    HW119298   1.733   2.740   3.382
 6133SOL    HW219299   1.687   2.760   3.226
 6134SOL     OW19300   3.963   6.709   6.770
 6134SOL    HW119301   4.052   6.724   6.727
 6134SOL    HW219302   3.911   6.642   6.717
 6135SOL     OW19303   6.563   5.952   0.713
 6135SOL    HW119304   6.546   6.050   0.714
 6135SOL    HW219305   6.619   5.927   0.792
 6136SOL     OW19306   1.399   2.591   1.335
 6136SOL    HW119307   1.433   2.527   1.266
 6136SOL    HW219308   1.301   2.575   1.349
 6137SOL     OW19309   0.792   3.918   2.541
 6137SOL    HW119310   0.798   4.004   2.490
 6137SOL    HW219311   0.698   3.885   2.540
 6138SOL     OW19312   3.912   0.102   2.834
 6138SOL    HW119313   3.903   0.202   2.835
 6138SOL    HW219314   3.823   0.061   2.854
 6139SOL     OW19315   0.372   0.010   5.606
 6139SOL    HW119316   0.326   6.965   5.553
 6139SOL    HW219317   0.467   0.018   5.575
 6140SOL     OW19318   0.515   1.111   3.244
 6140SOL    HW119319   0.477   1.201   3.264
 6140SOL    HW219320   0.514   1.095   3.145
 6141SOL     OW19321   0.797   0.361   5.832
 6141SOL    HW119322   0.794   0.430   5.905
 6141SOL    HW219323   0.892   0.345   5.805
 6142SOL     OW19324   1.117   7.009   5.972
 6142SOL    HW119325   1.077   6.969   6.055
 6142SOL    HW219326   1.110   6.942   5.897
 6143SOL     OW19327   6.889   4.175   0.882
 6143SOL    HW119328   6.975   4.201   0.926
 6143SOL    HW219329   6.889   4.206   0.787
 6144SOL     OW19330   5.070   4.505   3.479
 6144SOL    HW119331   4.989   4.469   3.432
 6144SOL    HW219332   5.124   4.560   3.415
 6145SOL     OW19333   5.735   4.934   4.247
 6145SOL    HW119334   5.707   4.977   4.161
 6145SOL    HW219335   5.662   4.943   4.315
 6146SOL     OW19336   3.486   6.050   3.987
 6146SOL    HW119337   3.586   6.061   3.988
 6146SOL    HW219338   3.450   6.089   3.902
 6147SOL     OW19339   2.050   2.494   4.927
 6147SOL    HW119340   2.057   2.539   4.838
 6147SOL    HW219341   2.026   2.562   4.996
 6148SOL     OW19342   3.655   5.436   6.390
 6148SOL    HW119343   3.748   5.468   6.411
 6148SOL    HW219344   3.599   5.444   6.472
 6149SOL     OW19345   1.740   0.236   1.808
 6149SOL    HW119346   1.825   0.188   1.831
 6149SOL    HW219347   1.728   0.236   1.708
 6150SOL     OW19348   6.091   3.980   6.737
 6150SOL    HW119349   6.036   4.032   6.671
 6150SOL    HW219350   6.132   3.901   6.691
 6151SOL     OW19351   5.123   5.327   4.462
 6151SOL    HW119352   5.062   5.329   4.383
 6151SOL    HW219353   5.197   5.262   4.444
 6152SOL     OW19354   1.229   5.606   4.370
 6152SOL    HW119355   1.268   5.683   4.421
 6152SOL    HW219356   1.176   5.548   4.433
 6153SOL     OW19357   4.837   5.283   1.176
 6153SOL    HW119358   4.752   5.329   1.205
 6153SOL    HW219359   4.829   5.256   1.080
 6154SOL     OW19360   5.622   2.990   2.966
 6154SOL    HW119361   5.628   2.970   2.868
 6154SOL    HW219362   5.566   2.922   3.012
 6155SOL     OW19363   3.026   1.186   2.740
 6155SOL    HW119364   3.015   1.142   2.829
 6155SOL    HW219365   3.052   1.282   2.753
 6156SOL     OW19366   4.399   4.777   1.615
 6156SOL    HW119367   4.471   4.739   1.556
 6156SOL    HW219368   4.359   4.703   1.669
 6157SOL     OW19369   1.017   2.303   3.068
 6157SOL    HW119370   0.976   2.223   3.111
 6157SOL    HW219371   1.094   2.335   3.123
 6158SOL     OW19372   3.096   1.855   0.190
 6158SOL    HW119373   3.159   1.796   0.241
 6158SOL    HW219374   3.022   1.885   0.250
 6159SOL     OW19375   5.309   2.705   0.709
 6159SOL    HW119376   5.386   2.757   0.746
 6159SOL    HW219377   5.233   2.767   0.688
 6160SOL     OW19378   0.031   0.028   6.644
 6160SOL    HW119379   6.965   7.014   6.629
 6160SOL    HW219380   0.021   0.123   6.675
 6161SOL     OW19381   4.718   0.817   0.389
 6161SOL    HW119382   4.696   0.908   0.353
 6161SOL    HW219383   4.815   0.815   0.416
 6162SOL     OW19384   6.241   5.899   3.772
 6162SOL    HW119385   6.164   5.962   3.770
 6162SOL    HW219386   6.327   5.950   3.767
 6163SOL     OW19387   5.492   6.189   2.691
 6163SOL    HW119388   5.556   6.194   2.615
 6163SOL    HW219389   5.503   6.101   2.738
 6164SOL     OW19390   3.571   4.147   4.853
 6164SOL    HW119391   3.658   4.156   4.901
 6164SOL    HW219392   3.496   4.145   4.918
 6165SOL     OW19393   3.627   1.924   5.748
 6165SOL    HW119394   3.660   2.019   5.753
 6165SOL    HW219395   3.589   1.907   5.657
 6166SOL     OW19396   5.947   2.068   0.526
 6166SOL    HW119397   5.946   2.121   0.441
 6166SOL    HW219398   5.858   2.074   0.570
 6167SOL     OW19399   0.622   4.800   3.281
 6167SOL    HW119400   0.580   4.879   3.326
 6167SOL    HW219401   0.591   4.716   3.326
 6168SOL     OW19402   0.524   2.654   3.117
 6168SOL    HW119403   0.575   2.695   3.192
 6168SOL    HW219404   0.503   2.559   3.139
 6169SOL     OW19405   0.771   0.902   6.477
 6169SOL    HW119406   0.845   0.913   6.410
 6169SOL    HW219407   0.733   0.991   6.500
 6170SOL     OW19408   3.223   4.104   5.863
 6170SOL    HW119409   3.280   4.172   5.817
 6170SOL    HW219410   3.141   4.149   5.899
 6171SOL     OW19411   1.522   3.552   1.334
 6171SOL    HW119412   1.605   3.591   1.295
 6171SOL    HW219413   1.505   3.463   1.293
 6172SOL     OW19414   0.161   0.581   2.949
 6172SOL    HW119415   0.088   0.513   2.945
 6172SOL    HW219416   0.193   0.590   3.044
 6173SOL     OW19417   6.881   4.496   2.921
 6173SOL    HW119418   6.953   4.430   2.899
 6173SOL    HW219419   6.899   4.537   3.010
 6174SOL     OW19420   5.862   5.050   2.939
 6174SOL    HW119421   5.784   5.040   2.878
 6174SOL    HW219422   5.901   4.960   2.957
 6175SOL     OW19423   5.494   0.181   3.902
 6175SOL    HW119424   5.447   0.250   3.847
 6175SOL    HW219425   5.477   0.091   3.864
 6176SOL     OW19426   5.966   2.571   0.160
 6176SOL    HW119427   5.986   2.539   0.252
 6176SOL    HW219428   5.885   2.629   0.161
 6177SOL     OW19429   5.783   1.677   1.649
 6177SOL    HW119430   5.693   1.682   1.606
 6177SOL    HW219431   5.772   1.659   1.747
 6178SOL     OW19432   4.580   5.764   1.511
 6178SOL    HW119433   4.542   5.856   1.519
 6178SOL    HW219434   4.525   5.700   1.565
 6179SOL     OW19435   6.966   4.192   4.733
 6179SOL    HW119436   6.955   4.104   4.685
 6179SOL    HW219437   7.021   4.253   4.676
 6180SOL     OW19438   3.269   6.595   6.182
 6180SOL    HW119439   3.310   6.561   6.098
 6180SOL    HW219440   3.234   6.687   6.167
 6181SOL     OW19441   5.205   6.186   0.673
 6181SOL    HW119442   5.268   6.205   0.747
 6181SOL    HW219443   5.154   6.269   0.651
 6182SOL     OW19444   5.195   4.134   5.482
 6182SOL    HW119445   5.270   4.088   5.435
 6182SOL    HW219446   5.231   4.207   5.540
 6183SOL     OW19447   2.906   0.218   3.335
 6183SOL    HW119448   2.897   0.134   3.283
 6183SOL    HW219449   2.895   0.297   3.274
 6184SOL     OW19450   1.623   6.270   6.142
 6184SOL    HW119451   1.721   6.263   6.123
 6184SOL    HW219452   1.572   6.252   6.058
 6185SOL     OW19453   1.505   4.477   6.836
 6185SOL    HW119454   1.433   4.541   6.811
 6185SOL    HW219455   1.570   4.469   6.760
 6186SOL     OW19456   5.833   6.918   4.158
 6186SOL    HW119457   5.882   6.901   4.244
 6186SOL    HW219458   5.895   6.904   4.081
 6187SOL     OW19459   4.693   4.241   4.362
 6187SOL    HW119460   4.608   4.248   4.310
 6187SOL    HW219461   4.769   4.273   4.305
 6188SOL     OW19462   2.157   6.206   1.402
 6188SOL    HW119463   2.131   6.199   1.306
 6188SOL    HW219464   2.161   6.303   1.428
 6189SOL     OW19465   4.360   4.583   3.866
 6189SOL    HW119466   4.388   4.677   3.847
 6189SOL    HW219467   4.421   4.519   3.818
 6190SOL     OW19468   6.079   4.030   6.172
 6190SOL    HW119469   6.028   3.946   6.190
 6190SOL    HW219470   6.097   4.037   6.073
 6191SOL     OW19471   4.813   2.327   0.724
 6191SOL    HW119472   4.722   2.368   0.727
 6191SOL    HW219473   4.823   2.273   0.641
 6192SOL     OW19474   3.402   3.158   0.437
 6192SOL    HW119475   3.414   3.119   0.529
 6192SOL    HW219476   3.483   3.212   0.413
 6193SOL     OW19477   4.404   1.113   2.795
 6193SOL    HW119478   4.463   1.081   2.869
 6193SOL    HW219479   4.328   1.165   2.833
 6194SOL     OW19480   1.845   6.817   0.278
 6194SOL    HW119481   1.870   6.808   0.182
 6194SOL    HW219482   1.910   6.765   0.334
 6195SOL     OW19483   3.803   5.461   5.436
 6195SOL    HW119484   3.817   5.445   5.338
 6195SOL    HW219485   3.768   5.554   5.450
 6196SOL     OW19486   5.685   2.179   1.332
 6196SOL    HW119487   5.747   2.216   1.401
 6196SOL    HW219488   5.703   2.222   1.243
 6197SOL     OW19489   4.864   3.926   0.308
 6197SOL    HW119490   4.800   3.987   0.354
 6197SOL    HW219491   4.917   3.876   0.377
 6198SOL     OW19492   3.028   5.518   2.287
 6198SOL    HW119493   3.094   5.579   2.330
 6198SOL    HW219494   2.952   5.500   2.349
 6199SOL     OW19495   0.543   0.153   1.022
 6199SOL    HW119496   0.597   0.099   1.086
 6199SOL    HW219497   0.451   0.167   1.058
 6200SOL     OW19498   2.112   0.977   5.775
 6200SOL    HW119499   2.191   0.979   5.837
 6200SOL    HW219500   2.069   0.887   5.779
 6201SOL     OW19501   1.796   3.613   5.702
 6201SOL    HW119502   1.726   3.681   5.683
 6201SOL    HW219503   1.816   3.612   5.800
 6202SOL     OW19504   4.209   1.704   1.530
 6202SOL    HW119505   4.209   1.678   1.626
 6202SOL    HW219506   4.127   1.758   1.509
 6203SOL     OW19507   5.311   6.895   3.449
 6203SOL    HW119508   5.319   6.983   3.496
 6203SOL    HW219509   5.216   6.880   3.422
 6204SOL     OW19510   0.529   5.020   5.180
 6204SOL    HW119511   0.487   5.009   5.089
 6204SOL    HW219512   0.628   5.022   5.170
 6205SOL     OW19513   5.635   6.586   6.970
 6205SOL    HW119514   5.558   6.546   7.020
 6205SOL    HW219515   5.708   6.518   6.962
 6206SOL     OW19516   6.459   0.411   2.817
 6206SOL    HW119517   6.406   0.366   2.745
 6206SOL    HW219518   6.469   0.508   2.794
 6207SOL     OW19519   1.453   4.281   4.594
 6207SOL    HW119520   1.478   4.184   4.598
 6207SOL    HW219521   1.534   4.335   4.570
 6208SOL     OW19522   5.997   0.942   6.904
 6208SOL    HW119523   5.963   0.955   6.811
 6208SOL    HW219524   5.940   0.994   6.968
 6209SOL     OW19525   4.835   5.613   6.853
 6209SOL    HW119526   4.812   5.615   6.755
 6209SOL    HW219527   4.887   5.530   6.873
 6210SOL     OW19528   6.095   4.918   3.475
 6210SOL    HW119529   6.103   5.003   3.423
 6210SOL    HW219530   6.048   4.850   3.419
 6211SOL     OW19531   3.581   6.406   4.400
 6211SOL    HW119532   3.501   6.346   4.408
 6211SOL    HW219533   3.664   6.350   4.404
 6212SOL     OW19534   1.934   5.249   2.882
 6212SOL    HW119535   1.908   5.251   2.785
 6212SOL    HW219536   2.021   5.296   2.894
 6213SOL     OW19537   5.052   0.151   6.746
 6213SOL    HW119538   4.964   0.178   6.707
 6213SOL    HW219539   5.115   0.228   6.744
 6214SOL     OW19540   5.542   4.767   3.072
 6214SOL    HW119541   5.527   4.793   3.168
 6214SOL    HW219542   5.636   4.788   3.046
 6215SOL     OW19543   4.038   1.803   6.770
 6215SOL    HW119544   4.107   1.795   6.842
 6215SOL    HW219545   3.949   1.825   6.812
 6216SOL     OW19546   6.770   2.579   2.600
 6216SOL    HW119547   6.864   2.547   2.588
 6216SOL    HW219548   6.707   2.518   2.552
 6217SOL     OW19549   6.772   2.840   2.561
 6217SOL    HW119550   6.796   2.884   2.475
 6217SOL    HW219551   6.783   2.741   2.553
 6218SOL     OW19552   3.476   5.567   4.877
 6218SOL    HW119553   3.427   5.527   4.954
 6218SOL    HW219554   3.436   5.533   4.792
 6219SOL     OW19555   1.105   1.545   4.724
 6219SOL    HW119556   1.020   1.560   4.775
 6219SOL    HW219557   1.170   1.618   4.746
 6220SOL     OW19558   1.013   3.537   5.612
 6220SOL    HW119559   1.051   3.624   5.645
 6220SOL    HW219560   1.074   3.462   5.638
 6221SOL     OW19561   6.230   6.089   6.510
 6221SOL    HW119562   6.222   6.072   6.608
 6221SOL    HW219563   6.139   6.087   6.469
 6222SOL     OW19564   0.671   6.696   1.175
 6222SOL    HW119565   0.590   6.661   1.223
 6222SOL    HW219566   0.752   6.677   1.230
 6223SOL     OW19567   7.011   3.929   4.663
 6223SOL    HW119568   7.010   3.843   4.715
 6223SOL    HW219569   6.918   3.954   4.637
 6224SOL     OW19570   2.018   1.665   6.304
 6224SOL    HW119571   1.939   1.715   6.340
 6224SOL    HW219572   2.102   1.711   6.331
 6225SOL     OW19573   3.338   2.969   1.211
 6225SOL    HW119574   3.423   2.971   1.264
 6225SOL    HW219575   3.323   3.058   1.168
 6226SOL     OW19576   5.435   2.014   4.531
 6226SOL    HW119577   5.522   1.992   4.576
 6226SOL    HW219578   5.407   1.938   4.473
 6227SOL     OW19579   3.885   5.572   6.424
 6227SOL    HW119580   3.897   5.639   6.350
 6227SOL    HW219581   3.894   5.618   6.512
 6228SOL     OW19582   0.150   3.108   2.240
 6228SOL    HW119583   0.148   3.177   2.312
 6228SOL    HW219584   0.057   3.090   2.208
 6229SOL     OW19585   0.686   3.036   2.032
 6229SOL    HW119586   0.712   2.981   2.112
 6229SOL    HW219587   0.744   3.012   1.954
 6230SOL     OW19588   1.508   0.938   4.202
 6230SOL    HW119589   1.546   1.022   4.240
 6230SOL    HW219590   1.439   0.960   4.134
 6231SOL     OW19591   0.041   4.708   1.312
 6231SOL    HW119592   0.070   4.622   1.270
 6231SOL    HW219593   0.119   4.752   1.356
 6232SOL     OW19594   6.429   1.834   1.125
 6232SOL    HW119595   6.468   1.821   1.216
 6232SOL    HW219596   6.373   1.755   1.101
 6233SOL     OW19597   5.607   1.136   0.086
 6233SOL    HW119598   5.516   1.155   0.050
 6233SOL    HW219599   5.641   1.050   0.048
 6234SOL     OW19600   6.911   1.359   5.974
 6234SOL    HW119601   6.858   1.407   6.044
 6234SOL    HW219602   6.907   1.409   5.888
 6235SOL     OW19603   1.127   0.219   2.185
 6235SOL    HW119604   1.209   0.232   2.130
 6235SOL    HW219605   1.148   0.161   2.264
 6236SOL     OW19606   0.896   5.121   0.197
 6236SOL    HW119607   0.971   5.056   0.208
 6236SOL    HW219608   0.919   5.207   0.241
 6237SOL     OW19609   3.221   6.124   0.024
 6237SOL    HW119610   3.172   6.073   6.978
 6237SOL    HW219611   3.308   6.080   0.043
 6238SOL     OW19612   4.059   4.800   2.983
 6238SOL    HW119613   4.137   4.796   2.920
 6238SOL    HW219614   3.993   4.867   2.949
 6239SOL     OW19615   2.836   6.475   1.743
 6239SOL    HW119616   2.793   6.386   1.727
 6239SOL    HW219617   2.766   6.546   1.748
 6240SOL     OW19618   2.852   2.606   6.682
 6240SOL    HW119619   2.926   2.606   6.750
 6240SOL    HW219620   2.877   2.665   6.605
 6241SOL     OW19621   2.499   0.646   2.253
 6241SOL    HW119622   2.422   0.698   2.291
 6241SOL    HW219623   2.482   0.627   2.156
 6242SOL     OW19624   5.109   0.412   3.754
 6242SOL    HW119625   5.087   0.451   3.665
 6242SOL    HW219626   5.203   0.435   3.779
 6243SOL     OW19627   5.531   6.702   3.503
 6243SOL    HW119628   5.482   6.788   3.487
 6243SOL    HW219629   5.467   6.631   3.530
 6244SOL     OW19630   1.554   2.453   2.045
 6244SOL    HW119631   1.521   2.394   1.971
 6244SOL    HW219632   1.613   2.400   2.106
 6245SOL     OW19633   1.844   4.858   1.188
 6245SOL    HW119634   1.882   4.841   1.097
 6245SOL    HW219635   1.917   4.888   1.250
 6246SOL     OW19636   2.002   3.166   6.044
 6246SOL    HW119637   2.096   3.189   6.069
 6246SOL    HW219638   1.965   3.237   5.983
 6247SOL     OW19639   0.849   6.481   3.418
 6247SOL    HW119640   0.933   6.437   3.385
 6247SOL    HW219641   0.872   6.542   3.494
 6248SOL     OW19642   2.802   3.955   0.989
 6248SOL    HW119643   2.790   3.955   1.089
 6248SOL    HW219644   2.864   3.880   0.963
 6249SOL     OW19645   0.522   4.436   0.329
 6249SOL    HW119646   0.577   4.448   0.411
 6249SOL    HW219647   0.541   4.511   0.265
 6250SOL     OW19648   6.519   6.089   0.299
 6250SOL    HW119649   6.536   6.177   0.256
 6250SOL    HW219650   6.605   6.038   0.305
 6251SOL     OW19651   3.276   6.348   6.712
 6251SOL    HW119652   3.279   6.391   6.621
 6251SOL    HW219653   3.316   6.409   6.779
 6252SOL     OW19654   1.682   6.784   5.272
 6252SOL    HW119655   1.618   6.853   5.239
 6252SOL    HW219656   1.760   6.829   5.315
 6253SOL     OW19657   2.131   3.878   2.624
 6253SOL    HW119658   2.153   3.940   2.699
 6253SOL    HW219659   2.112   3.930   2.541
 6254SOL     OW19660   4.803   1.048   0.877
 6254SOL    HW119661   4.823   1.109   0.801
 6254SOL    HW219662   4.704   1.040   0.889
 6255SOL     OW19663   2.192   1.163   1.229
 6255SOL    HW119664   2.104   1.136   1.269
 6255SOL    HW219665   2.192   1.262   1.214
 6256SOL     OW19666   3.274   5.608   2.751
 6256SOL    HW119667   3.195   5.582   2.695
 6256SOL    HW219668   3.346   5.539   2.739
 6257SOL     OW19669   5.175   2.236   1.273
 6257SOL    HW119670   5.188   2.264   1.178
 6257SOL    HW219671   5.120   2.152   1.275
 6258SOL     OW19672   4.687   0.244   3.929
 6258SOL    HW119673   4.668   0.146   3.922
 6258SOL    HW219674   4.663   0.288   3.842
 6259SOL     OW19675   2.932   2.252   0.423
 6259SOL    HW119676   2.902   2.240   0.328
 6259SOL    HW219677   2.854   2.283   0.478
 6260SOL     OW19678   2.551   4.640   0.106
 6260SOL    HW119679   2.521   4.566   0.046
 6260SOL    HW219680   2.571   4.604   0.197
 6261SOL     OW19681   3.355   0.359   6.438
 6261SOL    HW119682   3.345   0.260   6.423
 6261SOL    HW219683   3.265   0.401   6.449
 6262SOL     OW19684   1.457   4.542   1.116
 6262SOL    HW119685   1.527   4.586   1.172
 6262SOL    HW219686   1.501   4.480   1.050
 6263SOL     OW19687   0.056   0.695   5.909
 6263SOL    HW119688   0.106   0.650   5.983
 6263SOL    HW219689   0.026   0.627   5.843
 6264SOL     OW19690   1.827   6.908   0.799
 6264SOL    HW119691   1.884   6.973   0.750
 6264SOL    HW219692   1.802   6.832   0.738
 6265SOL     OW19693   3.573   4.194   0.754
 6265SOL    HW119694   3.589   4.119   0.691
 6265SOL    HW219695   3.477   4.221   0.750
 6266SOL     OW19696   4.342   0.338   4.589
 6266SOL    HW119697   4.262   0.365   4.642
 6266SOL    HW219698   4.383   0.256   4.629
 6267SOL     OW19699   3.033   0.209   0.034
 6267SOL    HW119700   3.117   0.187   0.083
 6267SOL    HW219701   2.966   0.248   0.097
 6268SOL     OW19702   3.186   6.218   3.317
 6268SOL    HW119703   3.205   6.168   3.233
 6268SOL    HW219704   3.106   6.177   3.363
 6269SOL     OW19705   6.648   5.837   2.244
 6269SOL    HW119706   6.720   5.892   2.201
 6269SOL    HW219707   6.590   5.897   2.299
 6270SOL     OW19708   1.477   6.933   5.209
 6270SOL    HW119709   1.444   7.022   5.241
 6270SOL    HW219710   1.479   6.932   5.109
 6271SOL     OW19711   5.862   2.473   5.621
 6271SOL    HW119712   5.859   2.406   5.695
 6271SOL    HW219713   5.882   2.427   5.535
 6272SOL     OW19714   1.326   2.932   5.828
 6272SOL    HW119715   1.410   2.987   5.822
 6272SOL    HW219716   1.296   2.906   5.736
 6273SOL     OW19717   1.512   0.360   2.153
 6273SOL    HW119718   1.557   0.283   2.198
 6273SOL    HW219719   1.497   0.433   2.219
 6274SOL     OW19720   2.262   5.672   5.956
 6274SOL    HW119721   2.304   5.684   5.866
 6274SOL    HW219722   2.323   5.707   6.027
 6275SOL     OW19723   1.977   6.424   4.984
 6275SOL    HW119724   1.934   6.433   5.074
 6275SOL    HW219725   1.914   6.457   4.913
 6276SOL     OW19726   1.838   5.164   3.925
 6276SOL    HW119727   1.794   5.074   3.931
 6276SOL    HW219728   1.935   5.152   3.908
 6277SOL     OW19729   5.090   3.366   1.989
 6277SOL    HW119730   5.186   3.374   1.962
 6277SOL    HW219731   5.054   3.277   1.961
 6278SOL     OW19732   4.873   6.839   4.511
 6278SOL    HW119733   4.805   6.879   4.450
 6278SOL    HW219734   4.882   6.897   4.592
 6279SOL     OW19735   3.575   0.513   6.498
 6279SOL    HW119736   3.582   0.509   6.598
 6279SOL    HW219737   3.487   0.474   6.470
 6280SOL     OW19738   0.756   2.105   5.926
 6280SOL    HW119739   0.751   2.142   5.833
 6280SOL    HW219740   0.782   2.177   5.989
 6281SOL     OW19741   1.503   5.873   4.271
 6281SOL    HW119742   1.522   5.775   4.281
 6281SOL    HW219743   1.577   5.916   4.218
 6282SOL     OW19744   1.090   0.621   4.966
 6282SOL    HW119745   1.105   0.533   4.921
 6282SOL    HW219746   1.031   0.678   4.908
 6283SOL     OW19747   6.440   3.284   5.616
 6283SOL    HW119748   6.503   3.298   5.692
 6283SOL    HW219749   6.491   3.268   5.532
 6284SOL     OW19750   2.100   5.684   4.975
 6284SOL    HW119751   2.138   5.608   5.027
 6284SOL    HW219752   2.131   5.770   5.015
 6285SOL     OW19753   0.813   2.730   3.581
 6285SOL    HW119754   0.847   2.728   3.675
 6285SOL    HW219755   0.868   2.669   3.524
 6286SOL     OW19756   6.411   1.943   3.787
 6286SOL    HW119757   6.455   2.010   3.728
 6286SOL    HW219758   6.453   1.853   3.772
 6287SOL     OW19759   4.275   4.837   2.827
 6287SOL    HW119760   4.356   4.896   2.822
 6287SOL    HW219761   4.267   4.785   2.742
 6288SOL     OW19762   6.110   4.783   2.364
 6288SOL    HW119763   6.208   4.781   2.384
 6288SOL    HW219764   6.078   4.878   2.367
 6289SOL     OW19765   1.476   4.755   2.553
 6289SOL    HW119766   1.446   4.831   2.610
 6289SOL    HW219767   1.566   4.724   2.585
 6290SOL     OW19768   5.803   4.028   4.372
 6290SOL    HW119769   5.866   3.998   4.301
 6290SOL    HW219770   5.853   4.039   4.458
 6291SOL     OW19771   3.836   3.420   4.097
 6291SOL    HW119772   3.932   3.430   4.070
 6291SOL    HW219773   3.778   3.422   4.015
 6292SOL     OW19774   1.563   2.315   3.765
 6292SOL    HW119775   1.526   2.398   3.804
 6292SOL    HW219776   1.514   2.292   3.681
 6293SOL     OW19777   4.172   6.995   0.022
 6293SOL    HW119778   4.089   6.988   0.078
 6293SOL    HW219779   4.243   0.019   0.074
 6294SOL     OW19780   3.583   5.059   4.162
 6294SOL    HW119781   3.550   5.113   4.240
 6294SOL    HW219782   3.602   5.120   4.085
 6295SOL     OW19783   4.925   5.206   5.411
 6295SOL    HW119784   4.931   5.118   5.363
 6295SOL    HW219785   4.919   5.280   5.343
 6296SOL     OW19786   6.951   6.840   5.062
 6296SOL    HW119787   6.887   6.900   5.015
 6296SOL    HW219788   6.904   6.757   5.092
 6297SOL     OW19789   4.930   0.285   5.403
 6297SOL    HW119790   5.021   0.258   5.372
 6297SOL    HW219791   4.923   0.384   5.405
 6298SOL     OW19792   1.590   2.676   5.898
 6298SOL    HW119793   1.687   2.698   5.889
 6298SOL    HW219794   1.558   2.628   5.816
 6299SOL     OW19795   5.057   1.551   0.499
 6299SOL    HW119796   5.029   1.477   0.438
 6299SOL    HW219797   5.156   1.552   0.508
 6300SOL     OW19798   5.428   0.409   5.503
 6300SOL    HW119799   5.469   0.497   5.479
 6300SOL    HW219800   5.453   0.341   5.433
 6301SOL     OW19801   3.173   0.772   1.324
 6301SOL    HW119802   3.213   0.681   1.334
 6301SOL    HW219803   3.244   0.841   1.339
 6302SOL     OW19804   1.540   1.490   3.880
 6302SOL    HW119805   1.520   1.413   3.820
 6302SOL    HW219806   1.595   1.558   3.830
 6303SOL     OW19807   2.121   0.946   4.629
 6303SOL    HW119808   2.085   1.039   4.616
 6303SOL    HW219809   2.094   0.912   4.719
 6304SOL     OW19810   2.313   1.342   0.479
 6304SOL    HW119811   2.234   1.282   0.489
 6304SOL    HW219812   2.382   1.319   0.548
 6305SOL     OW19813   6.298   6.944   0.880
 6305SOL    HW119814   6.216   6.982   0.836
 6305SOL    HW219815   6.286   6.945   0.979
 6306SOL     OW19816   1.416   4.007   4.292
 6306SOL    HW119817   1.457   3.974   4.207
 6306SOL    HW219818   1.485   4.056   4.346
 6307SOL     OW19819   3.950   3.958   5.610
 6307SOL    HW119820   3.912   4.050   5.611
 6307SOL    HW219821   4.020   3.951   5.540
 6308SOL     OW19822   1.485   1.621   4.658
 6308SOL    HW119823   1.471   1.614   4.757
 6308SOL    HW219824   1.583   1.618   4.638
 6309SOL     OW19825   4.848   4.010   4.484
 6309SOL    HW119826   4.773   4.061   4.442
 6309SOL    HW219827   4.866   4.047   4.575
 6310SOL     OW19828   2.131   5.542   3.776
 6310SOL    HW119829   2.046   5.503   3.741
 6310SOL    HW219830   2.110   5.604   3.851
 6311SOL     OW19831   5.785   0.371   5.652
 6311SOL    HW119832   5.748   0.447   5.705
 6311SOL    HW219833   5.829   0.306   5.714
 6312SOL     OW19834   5.932   5.267   5.610
 6312SOL    HW119835   5.975   5.211   5.538
 6312SOL    HW219836   5.894   5.349   5.570
 6313SOL     OW19837   1.665   5.671   3.062
 6313SOL    HW119838   1.683   5.706   3.154
 6313SOL    HW219839   1.569   5.642   3.055
 6314SOL     OW19840   4.045   6.260   1.685
 6314SOL    HW119841   4.141   6.259   1.656
 6314SOL    HW219842   4.028   6.342   1.740
 6315SOL     OW19843   3.562   3.025   5.816
 6315SOL    HW119844   3.534   2.973   5.897
 6315SOL    HW219845   3.535   2.976   5.733
 6316SOL     OW19846   4.652   2.040   6.367
 6316SOL    HW119847   4.577   2.098   6.336
 6316SOL    HW219848   4.658   2.043   6.467
 6317SOL     OW19849   4.869   5.306   3.336
 6317SOL    HW119850   4.962   5.342   3.333
 6317SOL    HW219851   4.870   5.212   3.370
 6318SOL     OW19852   3.082   2.063   4.758
 6318SOL    HW119853   3.128   2.123   4.693
 6318SOL    HW219854   2.999   2.026   4.715
 6319SOL     OW19855   0.729   2.254   3.107
 6319SOL    HW119856   0.747   2.306   3.023
 6319SOL    HW219857   0.772   2.164   3.100
 6320SOL     OW19858   5.800   4.362   5.054
 6320SOL    HW119859   5.852   4.408   4.982
 6320SOL    HW219860   5.703   4.363   5.032
 6321SOL     OW19861   3.367   4.876   0.948
 6321SOL    HW119862   3.375   4.844   1.042
 6321SOL    HW219863   3.321   4.965   0.946
 6322SOL     OW19864   1.747   2.250   6.690
 6322SOL    HW119865   1.781   2.344   6.683
 6322SOL    HW219866   1.824   2.188   6.706
 6323SOL     OW19867   3.617   2.931   1.094
 6323SOL    HW119868   3.669   2.846   1.087
 6323SOL    HW219869   3.591   2.947   1.189
 6324SOL     OW19870   5.185   0.041   6.328
 6324SOL    HW119871   5.182   6.968   6.311
 6324SOL    HW219872   5.219   0.058   6.421
 6325SOL     OW19873   1.680   1.918   2.160
 6325SOL    HW119874   1.771   1.885   2.135
 6325SOL    HW219875   1.651   1.877   2.246
 6326SOL     OW19876   4.613   6.028   2.166
 6326SOL    HW119877   4.628   6.124   2.142
 6326SOL    HW219878   4.627   5.971   2.084
 6327SOL     OW19879   6.970   0.766   5.493
 6327SOL    HW119880   6.877   0.748   5.461
 6327SOL    HW219881   0.003   0.786   5.414
 6328SOL     OW19882   2.184   3.951   0.751
 6328SOL    HW119883   2.130   3.931   0.670
 6328SOL    HW219884   2.271   3.993   0.724
 6329SOL     OW19885   2.351   2.681   3.142
 6329SOL    HW119886   2.300   2.734   3.074
 6329SOL    HW219887   2.398   2.606   3.097
 6330SOL     OW19888   4.493   0.803   1.587
 6330SOL    HW119889   4.561   0.873   1.565
 6330SOL    HW219890   4.418   0.845   1.638
 6331SOL     OW19891   6.118   2.132   0.204
 6331SOL    HW119892   6.168   2.100   0.286
 6331SOL    HW219893   6.022   2.144   0.227
 6332SOL     OW19894   6.951   3.932   2.079
 6332SOL    HW119895   6.868   3.984   2.098
 6332SOL    HW219896   7.016   3.944   2.154
 6333SOL     OW19897   4.151   4.721   4.265
 6333SOL    HW119898   4.157   4.725   4.165
 6333SOL    HW219899   4.077   4.779   4.297
 6334SOL     OW19900   2.135   0.360   2.167
 6334SOL    HW119901   2.080   0.341   2.086
 6334SOL    HW219902   2.125   0.285   2.232
 6335SOL     OW19903   4.684   1.548   0.683
 6335SOL    HW119904   4.672   1.511   0.775
 6335SOL    HW219905   4.764   1.607   0.681
 6336SOL     OW19906   0.249   1.577   6.402
 6336SOL    HW119907   0.150   1.565   6.404
 6336SOL    HW219908   0.274   1.635   6.324
 6337SOL     OW19909   4.834   4.050   6.306
 6337SOL    HW119910   4.798   4.077   6.217
 6337SOL    HW219911   4.768   4.072   6.377
 6338SOL     OW19912   3.006   2.158   2.603
 6338SOL    HW119913   3.007   2.060   2.626
 6338SOL    HW219914   3.082   2.203   2.649
 6339SOL     OW19915   0.778   2.730   2.980
 6339SOL    HW119916   0.682   2.734   2.952
 6339SOL    HW219917   0.796   2.805   3.044
 6340SOL     OW19918   1.866   4.684   2.965
 6340SOL    HW119919   1.953   4.649   2.999
 6340SOL    HW219920   1.828   4.749   3.030
 6341SOL     OW19921   0.813   4.566   3.841
 6341SOL    HW119922   0.755   4.630   3.891
 6341SOL    HW219923   0.756   4.498   3.795
 6342SOL     OW19924   2.686   1.900   1.842
 6342SOL    HW119925   2.726   1.987   1.870
 6342SOL    HW219926   2.702   1.884   1.745
 6343SOL     OW19927   5.110   2.201   6.619
 6343SOL    HW119928   5.122   2.184   6.521
 6343SOL    HW219929   5.103   2.299   6.636
 6344SOL     OW19930   5.998   3.496   5.690
 6344SOL    HW119931   5.959   3.514   5.600
 6344SOL    HW219932   5.980   3.574   5.750
 6345SOL     OW19933   4.350   1.880   2.182
 6345SOL    HW119934   4.386   1.809   2.121
 6345SOL    HW219935   4.255   1.899   2.158
 6346SOL     OW19936   6.957   3.697   3.640
 6346SOL    HW119937   6.884   3.744   3.592
 6346SOL    HW219938   0.001   3.667   3.575
 6347SOL     OW19939   2.032   0.715   1.507
 6347SOL    HW119940   2.033   0.805   1.551
 6347SOL    HW219941   2.113   0.706   1.449
 6348SOL     OW19942   1.472   4.287   4.912
 6348SOL    HW119943   1.438   4.194   4.900
 6348SOL    HW219944   1.425   4.349   4.849
 6349SOL     OW19945   3.258   0.055   1.366
 6349SOL    HW119946   3.253   0.044   1.465
 6349SOL    HW219947   3.184   0.003   1.323
 6350SOL     OW19948   2.459   4.917   3.844
 6350SOL    HW119949   2.407   4.868   3.914
 6350SOL    HW219950   2.449   5.015   3.857
 6351SOL     OW19951   6.564   3.125   2.911
 6351SOL    HW119952   6.544   3.170   2.825
 6351SOL    HW219953   6.663   3.126   2.927
 6352SOL     OW19954   2.082   5.282   4.756
 6352SOL    HW119955   2.177   5.285   4.726
 6352SOL    HW219956   2.068   5.202   4.816
 6353SOL     OW19957   6.485   0.933   6.273
 6353SOL    HW119958   6.554   0.905   6.207
 6353SOL    HW219959   6.414   0.986   6.227
 6354SOL     OW19960   1.487   0.515   2.657
 6354SOL    HW119961   1.404   0.544   2.703
 6354SOL    HW219962   1.494   0.560   2.568
 6355SOL     OW19963   1.410   5.264   5.755
 6355SOL    HW119964   1.439   5.234   5.664
 6355SOL    HW219965   1.391   5.184   5.812
 6356SOL     OW19966   3.963   4.766   2.632
 6356SOL    HW119967   3.980   4.709   2.551
 6356SOL    HW219968   4.045   4.819   2.653
 6357SOL     OW19969   5.111   2.664   1.904
 6357SOL    HW119970   5.077   2.758   1.911
 6357SOL    HW219971   5.090   2.628   1.813
 6358SOL     OW19972   1.151   1.914   6.102
 6358SOL    HW119973   1.200   1.939   6.019
 6358SOL    HW219974   1.184   1.826   6.135
 6359SOL     OW19975   6.386   7.020   5.804
 6359SOL    HW119976   6.454   0.023   5.737
 6359SOL    HW219977   6.296   7.015   5.760
 6360SOL     OW19978   1.822   3.911   4.262
 6360SOL    HW119979   1.824   3.817   4.296
 6360SOL    HW219980   1.907   3.930   4.213
 6361SOL     OW19981   6.351   6.993   0.270
 6361SOL    HW119982   6.294   6.910   0.275
 6361SOL    HW219983   6.374   7.023   0.362
 6362SOL     OW19984   6.537   5.549   6.446
 6362SOL    HW119985   6.502   5.610   6.375
 6362SOL    HW219986   6.548   5.600   6.531
 6363SOL     OW19987   2.275   4.583   3.355
 6363SOL    HW119988   2.188   4.539   3.377
 6363SOL    HW219989   2.262   4.647   3.279
 6364SOL     OW19990   3.290   1.344   5.904
 6364SOL    HW119991   3.361   1.333   5.973
 6364SOL    HW219992   3.272   1.441   5.890
 6365SOL     OW19993   5.360   6.729   4.425
 6365SOL    HW119994   5.295   6.786   4.475
 6365SOL    HW219995   5.453   6.761   4.443
 6366SOL     OW19996   0.652   5.889   6.326
 6366SOL    HW119997   0.629   5.796   6.352
 6366SOL    HW219998   0.716   5.887   6.249
 6367SOL     OW19999   3.777   0.528   4.371
 6367SOL    HW120000   3.779   0.500   4.466
 6367SOL    HW220001   3.784   0.448   4.312
 6368SOL     OW20002   3.439   6.881   3.519
 6368SOL    HW120003   3.454   6.974   3.487
 6368SOL    HW220004   3.469   6.873   3.614
 6369SOL     OW20005   2.488   5.020   4.869
 6369SOL    HW120006   2.531   4.940   4.912
 6369SOL    HW220007   2.479   5.093   4.937
 6370SOL     OW20008   1.060   3.459   2.524
 6370SOL    HW120009   1.015   3.417   2.602
 6370SOL    HW220010   1.044   3.558   2.524
 6371SOL     OW20011   4.985   3.338   3.903
 6371SOL    HW120012   4.941   3.267   3.847
 6371SOL    HW220013   4.972   3.316   4.000
 6372SOL     OW20014   3.501   0.054   1.738
 6372SOL    HW120015   3.539   0.134   1.785
 6372SOL    HW220016   3.556   0.034   1.657
 6373SOL     OW20017   5.791   4.264   3.652
 6373SOL    HW120018   5.889   4.283   3.661
 6373SOL    HW220019   5.751   4.329   3.587
 6374SOL     OW20020   3.584   4.113   4.259
 6374SOL    HW120021   3.627   4.024   4.274
 6374SOL    HW220022   3.649   4.185   4.280
 6375SOL     OW20023   0.125   1.737   4.088
 6375SOL    HW120024   0.140   1.753   3.991
 6375SOL    HW220025   0.065   1.807   4.125
 6376SOL     OW20026   6.507   2.507   5.437
 6376SOL    HW120027   6.605   2.525   5.435
 6376SOL    HW220028   6.473   2.518   5.531
 6377SOL     OW20029   6.481   1.827   5.440
 6377SOL    HW120030   6.548   1.796   5.372
 6377SOL    HW220031   6.454   1.921   5.420
 6378SOL     OW20032   5.088   5.079   3.325
 6378SOL    HW120033   5.099   5.083   3.424
 6378SOL    HW220034   5.114   5.167   3.285
 6379SOL     OW20035   2.364   4.366   4.299
 6379SOL    HW120036   2.448   4.417   4.315
 6379SOL    HW220037   2.311   4.359   4.384
 6380SOL     OW20038   0.119   1.640   5.899
 6380SOL    HW120039   0.116   1.540   5.903
 6380SOL    HW220040   0.111   1.670   5.803
 6381SOL     OW20041   3.535   3.524   2.205
 6381SOL    HW120042   3.448   3.513   2.156
 6381SOL    HW220043   3.607   3.474   2.157
 6382SOL     OW20044   1.249   2.675   0.538
 6382SOL    HW120045   1.265   2.755   0.480
 6382SOL    HW220046   1.155   2.678   0.573
 6383SOL     OW20047   2.092   2.403   2.571
 6383SOL    HW120048   2.154   2.326   2.553
 6383SOL    HW220049   2.142   2.475   2.620
 6384SOL     OW20050   5.737   4.181   1.376
 6384SOL    HW120051   5.813   4.123   1.348
 6384SOL    HW220052   5.655   4.156   1.324
 6385SOL     OW20053   6.898   4.605   4.468
 6385SOL    HW120054   6.803   4.585   4.445
 6385SOL    HW220055   6.938   4.527   4.516
 6386SOL     OW20056   2.660   4.199   6.234
 6386SOL    HW120057   2.714   4.139   6.175
 6386SOL    HW220058   2.599   4.143   6.291
 6387SOL     OW20059   0.589   1.706   6.640
 6387SOL    HW120060   0.610   1.801   6.616
 6387SOL    HW220061   0.671   1.661   6.676
 6388SOL     OW20062   4.268   5.011   1.524
 6388SOL    HW120063   4.322   4.936   1.561
 6388SOL    HW220064   4.195   5.036   1.588
 6389SOL     OW20065   1.108   6.048   2.439
 6389SOL    HW120066   1.097   5.950   2.422
 6389SOL    HW220067   1.113   6.065   2.537
 6390SOL     OW20068   1.327   2.166   4.739
 6390SOL    HW120069   1.232   2.169   4.707
 6390SOL    HW220070   1.331   2.122   4.828
 6391SOL     OW20071   3.200   6.881   5.831
 6391SOL    HW120072   3.154   6.807   5.783
 6391SOL    HW220073   3.281   6.910   5.779
 6392SOL     OW20074   2.286   6.829   3.377
 6392SOL    HW120075   2.259   6.769   3.301
 6392SOL    HW220076   2.367   6.791   3.421
 6393SOL     OW20077   6.290   6.585   1.534
 6393SOL    HW120078   6.371   6.531   1.555
 6393SOL    HW220079   6.287   6.666   1.592
 6394SOL     OW20080   2.355   4.509   1.009
 6394SOL    HW120081   2.282   4.441   1.020
 6394SOL    HW220082   2.329   4.593   1.055
 6395SOL     OW20083   5.857   2.594   1.373
 6395SOL    HW120084   5.783   2.586   1.440
 6395SOL    HW220085   5.910   2.676   1.392
 6396SOL     OW20086   5.304   2.913   6.664
 6396SOL    HW120087   5.256   2.902   6.751
 6396SOL    HW220088   5.358   2.997   6.667
 6397SOL     OW20089   5.760   2.460   6.666
 6397SOL    HW120090   5.710   2.538   6.628
 6397SOL    HW220091   5.756   2.463   6.766
 6398SOL     OW20092   3.374   0.512   0.720
 6398SOL    HW120093   3.299   0.446   0.718
 6398SOL    HW220094   3.454   0.473   0.676
 6399SOL     OW20095   1.478   4.891   6.715
 6399SOL    HW120096   1.438   4.983   6.721
 6399SOL    HW220097   1.564   4.888   6.765
 6400SOL     OW20098   2.026   5.637   2.869
 6400SOL    HW120099   2.124   5.615   2.866
 6400SOL    HW220100   1.986   5.627   2.778
 6401SOL     OW20101   6.652   4.543   3.829
 6401SOL    HW120102   6.679   4.516   3.921
 6401SOL    HW220103   6.734   4.553   3.772
 6402SOL     OW20104   3.149   0.885   2.996
 6402SOL    HW120105   3.204   0.964   2.967
 6402SOL    HW220106   3.198   0.835   3.068
 6403SOL     OW20107   0.649   6.195   6.208
 6403SOL    HW120108   0.678   6.290   6.217
 6403SOL    HW220109   0.578   6.175   6.276
 6404SOL     OW20110   3.974   1.185   2.981
 6404SOL    HW120111   3.932   1.274   2.964
 6404SOL    HW220112   3.903   1.115   2.984
 6405SOL     OW20113   1.709   0.901   3.506
 6405SOL    HW120114   1.754   0.935   3.588
 6405SOL    HW220115   1.707   0.801   3.508
 6406SOL     OW20116   1.805   2.360   3.482
 6406SOL    HW120117   1.871   2.285   3.480
 6406SOL    HW220118   1.851   2.444   3.510
 6407SOL     OW20119   3.157   0.190   2.911
 6407SOL    HW120120   3.070   0.198   2.960
 6407SOL    HW220121   3.228   0.158   2.973
 6408SOL     OW20122   5.854   2.297   6.924
 6408SOL    HW120123   5.931   2.316   6.984
 6408SOL    HW220124   5.887   2.258   6.838
 6409SOL     OW20125   0.318   4.367   3.045
 6409SOL    HW120126   0.255   4.325   3.110
 6409SOL    HW220127   0.298   4.464   3.037
 6410SOL     OW20128   1.912   1.229   0.206
 6410SOL    HW120129   1.995   1.266   0.248
 6410SOL    HW220130   1.833   1.282   0.236
 6411SOL     OW20131   0.157   2.991   3.314
 6411SOL    HW120132   0.187   2.904   3.354
 6411SOL    HW220133   0.236   3.041   3.281
 6412SOL     OW20134   0.002   3.267   5.387
 6412SOL    HW120135   6.962   3.262   5.463
 6412SOL    HW220136   6.983   3.237   5.303
 6413SOL     OW20137   5.084   4.808   2.939
 6413SOL    HW120138   5.119   4.805   2.846
 6413SOL    HW220139   5.116   4.891   2.984
 6414SOL     OW20140   5.857   0.721   1.794
 6414SOL    HW120141   5.791   0.739   1.867
 6414SOL    HW220142   5.938   0.677   1.832
 6415SOL     OW20143   2.499   2.224   2.443
 6415SOL    HW120144   2.478   2.252   2.350
 6415SOL    HW220145   2.575   2.279   2.478
 6416SOL     OW20146   1.416   1.248   5.630
 6416SOL    HW120147   1.356   1.328   5.627
 6416SOL    HW220148   1.454   1.237   5.722
 6417SOL     OW20149   0.240   4.566   2.441
 6417SOL    HW120150   0.274   4.474   2.464
 6417SOL    HW220151   0.158   4.585   2.494
 6418SOL     OW20152   5.911   4.624   2.156
 6418SOL    HW120153   5.945   4.642   2.249
 6418SOL    HW220154   5.976   4.568   2.106
 6419SOL     OW20155   2.222   4.995   2.693
 6419SOL    HW120156   2.133   4.964   2.660
 6419SOL    HW220157   2.221   5.001   2.793
 6420SOL     OW20158   2.728   3.310   5.726
 6420SOL    HW120159   2.684   3.395   5.754
 6420SOL    HW220160   2.743   3.311   5.627
 6421SOL     OW20161   5.547   1.695   2.205
 6421SOL    HW120162   5.508   1.680   2.114
 6421SOL    HW220163   5.479   1.670   2.275
 6422SOL     OW20164   0.191   0.291   4.258
 6422SOL    HW120165   0.151   0.208   4.218
 6422SOL    HW220166   0.254   0.332   4.192
 6423SOL     OW20167   4.980   4.729   2.119
 6423SOL    HW120168   5.033   4.688   2.045
 6423SOL    HW220169   4.918   4.661   2.157
 6424SOL     OW20170   6.913   5.637   5.583
 6424SOL    HW120171   6.832   5.668   5.532
 6424SOL    HW220172   6.951   5.556   5.540
 6425SOL     OW20173   6.609   5.307   3.371
 6425SOL    HW120174   6.603   5.209   3.390
 6425SOL    HW220175   6.705   5.334   3.364
 6426SOL     OW20176   0.556   4.601   3.510
 6426SOL    HW120177   0.489   4.539   3.471
 6426SOL    HW220178   0.532   4.620   3.606
 6427SOL     OW20179   1.964   3.424   6.691
 6427SOL    HW120180   1.940   3.510   6.645
 6427SOL    HW220181   1.985   3.355   6.622
 6428SOL     OW20182   6.285   3.263   0.631
 6428SOL    HW120183   6.314   3.358   0.618
 6428SOL    HW220184   6.281   3.243   0.729
 6429SOL     OW20185   0.644   1.632   5.110
 6429SOL    HW120186   0.606   1.692   5.040
 6429SOL    HW220187   0.641   1.537   5.080
 6430SOL     OW20188   4.931   0.729   2.288
 6430SOL    HW120189   5.003   0.696   2.350
 6430SOL    HW220190   4.960   0.714   2.193
 6431SOL     OW20191   5.430   6.782   3.201
 6431SOL    HW120192   5.409   6.842   3.124
 6431SOL    HW220193   5.380   6.813   3.282
 6432SOL     OW20194   4.010   4.102   6.813
 6432SOL    HW120195   4.035   4.158   6.892
 6432SOL    HW220196   3.911   4.110   6.797
 6433SOL     OW20197   3.649   4.352   0.537
 6433SOL    HW120198   3.612   4.313   0.622
 6433SOL    HW220199   3.717   4.290   0.499
 6434SOL     OW20200   2.047   3.704   0.618
 6434SOL    HW120201   2.043   3.789   0.565
 6434SOL    HW220202   1.983   3.710   0.694
 6435SOL     OW20203   3.978   5.566   6.960
 6435SOL    HW120204   4.076   5.547   6.961
 6435SOL    HW220205   3.953   5.623   0.013
 6436SOL     OW20206   2.158   3.279   4.158
 6436SOL    HW120207   2.062   3.297   4.138
 6436SOL    HW220208   2.184   3.189   4.121
 6437SOL     OW20209   1.890   1.265   0.986
 6437SOL    HW120210   1.960   1.246   0.918
 6437SOL    HW220211   1.831   1.185   0.996
 6438SOL     OW20212   0.545   4.650   6.209
 6438SOL    HW120213   0.560   4.665   6.307
 6438SOL    HW220214   0.572   4.731   6.158
 6439SOL     OW20215   6.921   0.419   1.714
 6439SOL    HW120216   6.883   0.473   1.789
 6439SOL    HW220217   6.864   0.338   1.698
 6440SOL     OW20218   1.891   1.705   1.707
 6440SOL    HW120219   1.920   1.676   1.799
 6440SOL    HW220220   1.943   1.654   1.638
 6441SOL     OW20221   0.824   0.072   2.789
 6441SOL    HW120222   0.829   7.007   2.832
 6441SOL    HW220223   0.846   0.064   2.692
 6442SOL     OW20224   1.867   1.513   3.274
 6442SOL    HW120225   1.860   1.425   3.321
 6442SOL    HW220226   1.895   1.497   3.179
 6443SOL     OW20227   3.882   2.626   0.365
 6443SOL    HW120228   3.811   2.580   0.313
 6443SOL    HW220229   3.905   2.713   0.321
 6444SOL     OW20230   0.884   2.748   3.853
 6444SOL    HW120231   0.882   2.821   3.922
 6444SOL    HW220232   0.833   2.669   3.888
 6445SOL     OW20233   4.753   2.640   5.752
 6445SOL    HW120234   4.804   2.570   5.702
 6445SOL    HW220235   4.798   2.728   5.740
 6446SOL     OW20236   0.974   0.889   6.311
 6446SOL    HW120237   1.068   0.880   6.344
 6446SOL    HW220238   0.973   0.937   6.223
 6447SOL     OW20239   0.168   5.940   2.514
 6447SOL    HW120240   0.145   5.995   2.594
 6447SOL    HW220241   0.171   5.843   2.539
 6448SOL     OW20242   5.358   4.551   2.214
 6448SOL    HW120243   5.284   4.577   2.151
 6448SOL    HW220244   5.324   4.485   2.280
 6449SOL     OW20245   3.669   4.603   0.842
 6449SOL    HW120246   3.681   4.701   0.824
 6449SOL    HW220247   3.581   4.587   0.887
 6450SOL     OW20248   0.152   3.217   1.581
 6450SOL    HW120249   0.159   3.220   1.481
 6450SOL    HW220250   0.203   3.139   1.615
 6451SOL     OW20251   2.646   6.243   4.718
 6451SOL    HW120252   2.682   6.164   4.768
 6451SOL    HW220253   2.581   6.292   4.776
 6452SOL     OW20254   3.334   5.833   5.251
 6452SOL    HW120255   3.335   5.893   5.171
 6452SOL    HW220256   3.294   5.881   5.329
 6453SOL     OW20257   1.596   6.238   0.121
 6453SOL    HW120258   1.640   6.325   0.146
 6453SOL    HW220259   1.649   6.194   0.048
 6454SOL     OW20260   3.140   1.328   3.869
 6454SOL    HW120261   3.164   1.231   3.874
 6454SOL    HW220262   3.174   1.375   3.950
 6455SOL     OW20263   0.973   1.847   3.904
 6455SOL    HW120264   0.996   1.777   3.837
 6455SOL    HW220265   0.874   1.863   3.902
 6456SOL     OW20266   1.881   0.270   3.586
 6456SOL    HW120267   1.844   0.362   3.595
 6456SOL    HW220268   1.910   0.237   3.676
 6457SOL     OW20269   5.010   1.153   1.064
 6457SOL    HW120270   4.976   1.185   1.152
 6457SOL    HW220271   4.933   1.125   1.007
 6458SOL     OW20272   0.941   6.940   3.549
 6458SOL    HW120273   1.039   6.956   3.559
 6458SOL    HW220274   0.899   7.018   3.503
 6459SOL     OW20275   5.821   5.529   0.624
 6459SOL    HW120276   5.779   5.438   0.623
 6459SOL    HW220277   5.757   5.595   0.664
 6460SOL     OW20278   4.601   5.102   5.839
 6460SOL    HW120279   4.603   5.155   5.755
 6460SOL    HW220280   4.555   5.154   5.911
 6461SOL     OW20281   2.820   5.048   5.141
 6461SOL    HW120282   2.902   5.073   5.192
 6461SOL    HW220283   2.843   4.978   5.073
 6462SOL     OW20284   2.227   2.775   5.131
 6462SOL    HW120285   2.265   2.847   5.073
 6462SOL    HW220286   2.301   2.721   5.169
 6463SOL     OW20287   1.665   3.886   6.625
 6463SOL    HW120288   1.623   3.837   6.548
 6463SOL    HW220289   1.729   3.954   6.591
 6464SOL     OW20290   0.800   4.976   5.159
 6464SOL    HW120291   0.826   4.880   5.159
 6464SOL    HW220292   0.852   5.025   5.088
 6465SOL     OW20293   6.038   2.629   3.888
 6465SOL    HW120294   5.938   2.628   3.881
 6465SOL    HW220295   6.077   2.574   3.814
 6466SOL     OW20296   0.703   1.179   6.611
 6466SOL    HW120297   0.623   1.235   6.590
 6466SOL    HW220298   0.758   1.223   6.682
 6467SOL     OW20299   3.062   0.977   0.176
 6467SOL    HW120300   3.007   0.908   0.223
 6467SOL    HW220301   3.075   1.056   0.237
 6468SOL     OW20302   3.922   6.486   1.848
 6468SOL    HW120303   3.828   6.455   1.862
 6468SOL    HW220304   3.922   6.572   1.798
 6469SOL     OW20305   4.897   0.416   5.109
 6469SOL    HW120306   4.814   0.423   5.165
 6469SOL    HW220307   4.914   0.320   5.087
 6470SOL     OW20308   6.085   5.418   6.413
 6470SOL    HW120309   6.085   5.517   6.417
 6470SOL    HW220310   6.177   5.383   6.432
 6471SOL     OW20311   6.769   5.693   5.865
 6471SOL    HW120312   6.804   5.727   5.778
 6471SOL    HW220313   6.686   5.639   5.849
 6472SOL     OW20314   0.481   4.546   0.865
 6472SOL    HW120315   0.516   4.456   0.887
 6472SOL    HW220316   0.381   4.544   0.865
 6473SOL     OW20317   2.251   1.818   4.190
 6473SOL    HW120318   2.211   1.771   4.268
 6473SOL    HW220319   2.241   1.917   4.201
 6474SOL     OW20320   1.909   3.364   5.882
 6474SOL    HW120321   1.838   3.343   5.814
 6474SOL    HW220322   1.999   3.342   5.844
 6475SOL     OW20323   0.008   5.141   4.573
 6475SOL    HW120324   0.100   5.120   4.606
 6475SOL    HW220325   0.013   5.208   4.500
 6476SOL     OW20326   4.365   3.795   1.698
 6476SOL    HW120327   4.325   3.875   1.654
 6476SOL    HW220328   4.343   3.713   1.646
 6477SOL     OW20329   0.290   4.772   1.418
 6477SOL    HW120330   0.318   4.681   1.387
 6477SOL    HW220331   0.370   4.833   1.416
 6478SOL     OW20332   3.531   6.299   2.390
 6478SOL    HW120333   3.453   6.312   2.328
 6478SOL    HW220334   3.525   6.208   2.432
 6479SOL     OW20335   4.019   5.509   3.477
 6479SOL    HW120336   3.997   5.493   3.381
 6479SOL    HW220337   4.004   5.605   3.499
 6480SOL     OW20338   3.278   2.900   5.438
 6480SOL    HW120339   3.300   2.878   5.343
 6480SOL    HW220340   3.282   2.999   5.451
 6481SOL     OW20341   3.199   1.971   1.812
 6481SOL    HW120342   3.207   2.026   1.895
 6481SOL    HW220343   3.152   2.025   1.742
 6482SOL     OW20344   0.145   0.991   6.172
 6482SOL    HW120345   0.227   1.012   6.120
 6482SOL    HW220346   0.066   0.990   6.112
 6483SOL     OW20347   2.389   5.727   1.391
 6483SOL    HW120348   2.353   5.639   1.422
 6483SOL    HW220349   2.313   5.787   1.365
 6484SOL     OW20350   3.817   0.357   2.897
 6484SOL    HW120351   3.734   0.410   2.879
 6484SOL    HW220352   3.834   0.356   2.996
 6485SOL     OW20353   2.149   3.457   3.919
 6485SOL    HW120354   2.184   3.550   3.916
 6485SOL    HW220355   2.176   3.414   4.005
 6486SOL     OW20356   1.178   4.681   4.211
 6486SOL    HW120357   1.231   4.765   4.201
 6486SOL    HW220358   1.103   4.681   4.144
 6487SOL     OW20359   6.874   5.773   4.869
 6487SOL    HW120360   6.809   5.697   4.870
 6487SOL    HW220361   6.825   5.859   4.883
 6488SOL     OW20362   2.565   5.633   5.018
 6488SOL    HW120363   2.490   5.681   5.064
 6488SOL    HW220364   2.652   5.675   5.044
 6489SOL     OW20365   2.705   3.755   6.680
 6489SOL    HW120366   2.620   3.758   6.733
 6489SOL    HW220367   2.760   3.835   6.701
 6490SOL     OW20368   4.176   2.777   6.950
 6490SOL    HW120369   4.127   2.810   6.869
 6490SOL    HW220370   4.232   2.698   6.924
 6491SOL     OW20371   4.235   1.070   6.648
 6491SOL    HW120372   4.303   1.065   6.575
 6491SOL    HW220373   4.181   1.154   6.637
 6492SOL     OW20374   5.741   6.019   6.960
 6492SOL    HW120375   5.709   6.034   0.028
 6492SOL    HW220376   5.830   6.063   6.948
 6493SOL     OW20377   1.579   6.362   4.964
 6493SOL    HW120378   1.615   6.273   4.993
 6493SOL    HW220379   1.641   6.404   4.899
 6494SOL     OW20380   6.995   1.381   3.081
 6494SOL    HW120381   0.004   1.288   3.070
 6494SOL    HW220382   6.945   1.388   3.167
 6495SOL     OW20383   5.291   6.500   4.562
 6495SOL    HW120384   5.195   6.526   4.568
 6495SOL    HW220385   5.339   6.562   4.499
 6496SOL     OW20386   0.319   6.506   2.523
 6496SOL    HW120387   0.281   6.417   2.495
 6496SOL    HW220388   0.244   6.571   2.537
 6497SOL     OW20389   2.537   3.313   6.810
 6497SOL    HW120390   2.602   3.286   6.881
 6497SOL    HW220391   2.535   3.243   6.739
 6498SOL     OW20392   2.416   4.407   4.026
 6498SOL    HW120393   2.478   4.484   4.040
 6498SOL    HW220394   2.383   4.376   4.115
 6499SOL     OW20395   6.159   2.121   5.105
 6499SOL    HW120396   6.172   2.024   5.128
 6499SOL    HW220397   6.228   2.176   5.152
 6500SOL     OW20398   0.043   4.332   3.707
 6500SOL    HW120399   0.012   4.241   3.681
 6500SOL    HW220400   6.990   4.394   3.711
 6501SOL     OW20401   6.734   2.227   0.343
 6501SOL    HW120402   6.827   2.227   0.308
 6501SOL    HW220403   6.675   2.174   0.283
 6502SOL     OW20404   6.592   3.846   2.998
 6502SOL    HW120405   6.524   3.852   2.924
 6502SOL    HW220406   6.668   3.788   2.968
 6503SOL     OW20407   5.505   6.971   3.737
 6503SOL    HW120408   5.418   6.925   3.722
 6503SOL    HW220409   5.565   6.913   3.792
 6504SOL     OW20410   5.068   6.480   6.135
 6504SOL    HW120411   4.982   6.526   6.154
 6504SOL    HW220412   5.117   6.463   6.221
 6505SOL     OW20413   5.538   4.553   1.841
 6505SOL    HW120414   5.581   4.587   1.757
 6505SOL    HW220415   5.549   4.453   1.846
 6506SOL     OW20416   0.266   3.038   0.564
 6506SOL    HW120417   0.223   2.957   0.604
 6506SOL    HW220418   0.326   3.080   0.632
 6507SOL     OW20419   1.706   5.954   6.115
 6507SOL    HW120420   1.673   5.912   6.200
 6507SOL    HW220421   1.801   5.928   6.100
 6508SOL     OW20422   2.238   1.859   3.319
 6508SOL    HW120423   2.221   1.929   3.388
 6508SOL    HW220424   2.288   1.783   3.359
 6509SOL     OW20425   2.362   2.651   4.511
 6509SOL    HW120426   2.338   2.736   4.464
 6509SOL    HW220427   2.306   2.577   4.476
 6510SOL     OW20428   0.314   5.105   6.717
 6510SOL    HW120429   0.304   5.083   6.814
 6510SOL    HW220430   0.325   5.203   6.705
 6511SOL     OW20431   5.184   1.039   4.962
 6511SOL    HW120432   5.249   0.991   4.903
 6511SOL    HW220433   5.112   1.080   4.905
 6512SOL     OW20434   5.144   0.223   2.750
 6512SOL    HW120435   5.096   0.290   2.694
 6512SOL    HW220436   5.223   0.266   2.794
 6513SOL     OW20437   3.223   5.487   3.270
 6513SOL    HW120438   3.270   5.508   3.184
 6513SOL    HW220439   3.263   5.540   3.344
 6514SOL     OW20440   5.944   0.398   3.302
 6514SOL    HW120441   5.909   0.413   3.209
 6514SOL    HW220442   6.010   0.324   3.301
 6515SOL     OW20443   0.360   4.847   3.984
 6515SOL    HW120444   0.266   4.827   3.958
 6515SOL    HW220445   0.374   4.946   3.987
 6516SOL     OW20446   0.358   2.677   0.527
 6516SOL    HW120447   0.375   2.656   0.430
 6516SOL    HW220448   0.438   2.722   0.565
 6517SOL     OW20449   5.904   0.989   0.806
 6517SOL    HW120450   5.909   1.069   0.866
 6517SOL    HW220451   5.815   0.987   0.762
 6518SOL     OW20452   0.514   6.390   6.497
 6518SOL    HW120453   0.467   6.430   6.575
 6518SOL    HW220454   0.487   6.437   6.413
 6519SOL     OW20455   2.538   1.836   3.117
 6519SOL    HW120456   2.447   1.808   3.147
 6519SOL    HW220457   2.529   1.904   3.044
 6520SOL     OW20458   6.607   5.674   2.871
 6520SOL    HW120459   6.670   5.634   2.805
 6520SOL    HW220460   6.652   5.679   2.961
 6521SOL     OW20461   1.221   1.519   4.430
 6521SOL    HW120462   1.149   1.536   4.363
 6521SOL    HW220463   1.188   1.542   4.522
 6522SOL     OW20464   3.211   4.560   6.838
 6522SOL    HW120465   3.210   4.543   6.740
 6522SOL    HW220466   3.159   4.643   6.858
 6523SOL     OW20467   3.355   0.973   6.374
 6523SOL    HW120468   3.317   0.940   6.460
 6523SOL    HW220469   3.284   1.017   6.320
 6524SOL     OW20470   3.348   2.986   3.001
 6524SOL    HW120471   3.357   3.081   3.031
 6524SOL    HW220472   3.435   2.939   3.013
 6525SOL     OW20473   2.190   3.068   2.838
 6525SOL    HW120474   2.186   3.168   2.839
 6525SOL    HW220475   2.150   3.033   2.753
 6526SOL     OW20476   0.657   6.260   4.965
 6526SOL    HW120477   0.647   6.321   5.044
 6526SOL    HW220478   0.700   6.174   4.994
 6527SOL     OW20479   0.605   1.716   4.357
 6527SOL    HW120480   0.640   1.801   4.319
 6527SOL    HW220481   0.675   1.675   4.417
 6528SOL     OW20482   0.149   0.576   3.664
 6528SOL    HW120483   0.079   0.627   3.713
 6528SOL    HW220484   0.139   0.592   3.566
 6529SOL     OW20485   6.325   1.546   3.419
 6529SOL    HW120486   6.356   1.638   3.444
 6529SOL    HW220487   6.388   1.508   3.351
 6530SOL     OW20488   6.518   3.933   1.155
 6530SOL    HW120489   6.471   3.986   1.084
 6530SOL    HW220490   6.614   3.924   1.131
 6531SOL     OW20491   5.275   3.417   4.353
 6531SOL    HW120492   5.233   3.489   4.409
 6531SOL    HW220493   5.329   3.459   4.280
 6532SOL     OW20494   5.701   1.323   0.973
 6532SOL    HW120495   5.778   1.387   0.978
 6532SOL    HW220496   5.635   1.345   1.045
 6533SOL     OW20497   5.220   5.885   1.643
 6533SOL    HW120498   5.254   5.965   1.692
 6533SOL    HW220499   5.129   5.862   1.676
 6534SOL     OW20500   2.934   4.529   1.581
 6534SOL    HW120501   2.931   4.506   1.679
 6534SOL    HW220502   2.988   4.460   1.533
 6535SOL     OW20503   0.335   3.227   4.331
 6535SOL    HW120504   0.289   3.289   4.394
 6535SOL    HW220505   0.360   3.143   4.379
 6536SOL     OW20506   6.606   2.089   5.778
 6536SOL    HW120507   6.604   2.102   5.678
 6536SOL    HW220508   6.616   1.991   5.798
 6537SOL     OW20509   6.165   5.786   6.859
 6537SOL    HW120510   6.065   5.791   6.848
 6537SOL    HW220511   6.199   5.704   6.814
 6538SOL     OW20512   3.859   4.503   6.755
 6538SOL    HW120513   3.820   4.450   6.831
 6538SOL    HW220514   3.797   4.578   6.732
 6539SOL     OW20515   2.904   1.465   5.990
 6539SOL    HW120516   2.948   1.481   6.079
 6539SOL    HW220517   2.902   1.367   5.971
 6540SOL     OW20518   4.720   1.838   5.219
 6540SOL    HW120519   4.627   1.837   5.182
 6540SOL    HW220520   4.718   1.860   5.316
 6541SOL     OW20521   3.944   1.957   4.898
 6541SOL    HW120522   3.991   1.869   4.885
 6541SOL    HW220523   3.847   1.947   4.872
 6542SOL     OW20524   6.857   4.518   3.625
 6542SOL    HW120525   6.855   4.482   3.532
 6542SOL    HW220526   6.861   4.617   3.622
 6543SOL     OW20527   6.347   4.014   0.131
 6543SOL    HW120528   6.254   4.046   0.148
 6543SOL    HW220529   6.351   3.974   0.039
 6544SOL     OW20530   0.506   5.950   3.458
 6544SOL    HW120531   0.504   6.048   3.440
 6544SOL    HW220532   0.423   5.907   3.423
 6545SOL     OW20533   5.315   2.240   6.832
 6545SOL    HW120534   5.327   2.328   6.877
 6545SOL    HW220535   5.299   2.254   6.734
 6546SOL     OW20536   4.529   4.657   6.255
 6546SOL    HW120537   4.452   4.597   6.278
 6546SOL    HW220538   4.599   4.650   6.326
 6547SOL     OW20539   4.206   1.678   5.877
 6547SOL    HW120540   4.200   1.664   5.778
 6547SOL    HW220541   4.286   1.630   5.913
 6548SOL     OW20542   0.948   3.698   6.626
 6548SOL    HW120543   0.921   3.669   6.534
 6548SOL    HW220544   1.041   3.666   6.645
 6549SOL     OW20545   3.496   1.308   0.487
 6549SOL    HW120546   3.443   1.314   0.402
 6549SOL    HW220547   3.439   1.265   0.557
 6550SOL     OW20548   6.890   6.106   3.482
 6550SOL    HW120549   6.944   6.160   3.546
 6550SOL    HW220550   6.947   6.034   3.443
 6551SOL     OW20551   2.005   3.945   2.075
 6551SOL    HW120552   2.104   3.940   2.087
 6551SOL    HW220553   1.978   3.883   2.002
 6552SOL     OW20554   2.404   0.361   5.034
 6552SOL    HW120555   2.380   0.389   4.941
 6552SOL    HW220556   2.502   0.341   5.038
 6553SOL     OW20557   0.336   1.734   1.812
 6553SOL    HW120558   0.390   1.650   1.809
 6553SOL    HW220559   0.260   1.727   1.748
 6554SOL     OW20560   5.680   1.911   5.688
 6554SOL    HW120561   5.642   1.985   5.744
 6554SOL    HW220562   5.708   1.836   5.748
 6555SOL     OW20563   1.352   1.919   1.756
 6555SOL    HW120564   1.304   1.985   1.814
 6555SOL    HW220565   1.305   1.830   1.761
 6556SOL     OW20566   4.531   4.630   5.203
 6556SOL    HW120567   4.474   4.658   5.279
 6556SOL    HW220568   4.477   4.577   5.137
 6557SOL     OW20569   5.463   5.517   1.468
 6557SOL    HW120570   5.428   5.606   1.438
 6557SOL    HW220571   5.475   5.518   1.568
 6558SOL     OW20572   6.078   6.095   1.343
 6558SOL    HW120573   6.177   6.108   1.333
 6558SOL    HW220574   6.056   5.999   1.327
 6559SOL     OW20575   6.560   4.156   0.283
 6559SOL    HW120576   6.539   4.141   0.379
 6559SOL    HW220577   6.494   4.107   0.226
 6560SOL     OW20578   3.595   3.061   1.772
 6560SOL    HW120579   3.566   3.087   1.680
 6560SOL    HW220580   3.570   2.966   1.789
 6561SOL     OW20581   3.360   3.832   2.106
 6561SOL    HW120582   3.398   3.765   2.169
 6561SOL    HW220583   3.273   3.799   2.070
 6562SOL     OW20584   5.976   5.000   6.720
 6562SOL    HW120585   5.981   4.960   6.628
 6562SOL    HW220586   5.982   5.100   6.713
 6563SOL     OW20587   0.392   6.582   6.964
 6563SOL    HW120588   0.448   6.664   6.949
 6563SOL    HW220589   0.396   6.556   0.035
 6564SOL     OW20590   0.518   3.755   2.022
 6564SOL    HW120591   0.434   3.787   2.066
 6564SOL    HW220592   0.534   3.809   1.939
 6565SOL     OW20593   6.330   2.030   4.208
 6565SOL    HW120594   6.261   2.053   4.277
 6565SOL    HW220595   6.412   2.085   4.223
 6566SOL     OW20596   3.573   6.791   1.001
 6566SOL    HW120597   3.535   6.812   1.091
 6566SOL    HW220598   3.510   6.732   0.950
 6567SOL     OW20599   4.229   2.540   1.385
 6567SOL    HW120600   4.236   2.483   1.303
 6567SOL    HW220601   4.153   2.507   1.442
 6568SOL     OW20602   5.135   5.145   2.977
 6568SOL    HW120603   5.175   5.231   3.008
 6568SOL    HW220604   5.128   5.145   2.877
 6569SOL     OW20605   3.411   4.582   1.294
 6569SOL    HW120606   3.398   4.579   1.393
 6569SOL    HW220607   3.494   4.633   1.272
 6570SOL     OW20608   4.590   6.850   1.307
 6570SOL    HW120609   4.582   6.810   1.398
 6570SOL    HW220610   4.686   6.869   1.288
 6571SOL     OW20611   2.380   6.562   2.338
 6571SOL    HW120612   2.311   6.564   2.410
 6571SOL    HW220613   2.348   6.614   2.259
 6572SOL     OW20614   6.576   5.050   5.271
 6572SOL    HW120615   6.542   4.962   5.239
 6572SOL    HW220616   6.643   5.035   5.344
 6573SOL     OW20617   2.872   1.422   2.553
 6573SOL    HW120618   2.922   1.398   2.636
 6573SOL    HW220619   2.791   1.364   2.546
 6574SOL     OW20620   2.984   6.045   2.489
 6574SOL    HW120621   3.016   6.000   2.572
 6574SOL    HW220622   2.942   5.978   2.429
 6575SOL     OW20623   0.902   1.629   1.445
 6575SOL    HW120624   0.835   1.570   1.399
 6575SOL    HW220625   0.912   1.714   1.394
 6576SOL     OW20626   1.221   6.415   6.753
 6576SOL    HW120627   1.154   6.480   6.716
 6576SOL    HW220628   1.187   6.379   6.841
 6577SOL     OW20629   0.655   1.482   3.546
 6577SOL    HW120630   0.583   1.498   3.479
 6577SOL    HW220631   0.616   1.478   3.638
 6578SOL     OW20632   0.255   4.614   2.963
 6578SOL    HW120633   0.334   4.669   2.991
 6578SOL    HW220634   0.172   4.669   2.974
 6579SOL     OW20635   0.199   3.987   4.477
 6579SOL    HW120636   0.230   4.079   4.503
 6579SOL    HW220637   0.116   3.964   4.528
 6580SOL     OW20638   6.283   1.281   1.400
 6580SOL    HW120639   6.239   1.191   1.395
 6580SOL    HW220640   6.215   1.352   1.380
 6581SOL     OW20641   3.830   0.868   6.071
 6581SOL    HW120642   3.799   0.773   6.065
 6581SOL    HW220643   3.818   0.901   6.164
 6582SOL     OW20644   1.504   0.551   1.676
 6582SOL    HW120645   1.511   0.491   1.756
 6582SOL    HW220646   1.595   0.587   1.653
 6583SOL     OW20647   4.045   0.757   5.690
 6583SOL    HW120648   4.058   0.829   5.622
 6583SOL    HW220649   4.015   0.673   5.645
 6584SOL     OW20650   5.172   1.662   0.217
 6584SOL    HW120651   5.221   1.727   0.159
 6584SOL    HW220652   5.075   1.687   0.221
 6585SOL     OW20653   6.334   1.336   0.252
 6585SOL    HW120654   6.262   1.288   0.302
 6585SOL    HW220655   6.294   1.380   0.172
 6586SOL     OW20656   5.898   2.538   6.192
 6586SOL    HW120657   5.970   2.550   6.124
 6586SOL    HW220658   5.820   2.597   6.168
 6587SOL     OW20659   3.056   5.369   3.924
 6587SOL    HW120660   3.106   5.381   3.838
 6587SOL    HW220661   3.029   5.459   3.960
 6588SOL     OW20662   2.070   3.898   1.416
 6588SOL    HW120663   2.043   3.815   1.466
 6588SOL    HW220664   2.075   3.879   1.319
 6589SOL     OW20665   4.347   0.525   6.422
 6589SOL    HW120666   4.371   0.526   6.519
 6589SOL    HW220667   4.264   0.470   6.409
 6590SOL     OW20668   0.711   1.576   6.085
 6590SOL    HW120669   0.766   1.649   6.045
 6590SOL    HW220670   0.696   1.595   6.182
 6591SOL     OW20671   5.734   6.167   2.530
 6591SOL    HW120672   5.770   6.181   2.437
 6591SOL    HW220673   5.721   6.069   2.546
 6592SOL     OW20674   5.470   6.487   4.234
 6592SOL    HW120675   5.424   6.576   4.238
 6592SOL    HW220676   5.490   6.455   4.326
 6593SOL     OW20677   2.518   2.477   3.543
 6593SOL    HW120678   2.427   2.436   3.538
 6593SOL    HW220679   2.551   2.475   3.637
 6594SOL     OW20680   3.413   1.027   0.548
 6594SOL    HW120681   3.486   1.038   0.480
 6594SOL    HW220682   3.382   0.932   0.548
 6595SOL     OW20683   0.395   3.666   0.372
 6595SOL    HW120684   0.355   3.664   0.280
 6595SOL    HW220685   0.323   3.684   0.439
 6596SOL     OW20686   3.900   6.819   4.523
 6596SOL    HW120687   3.951   6.806   4.438
 6596SOL    HW220688   3.962   6.849   4.595
 6597SOL     OW20689   1.637   6.298   3.049
 6597SOL    HW120690   1.591   6.311   3.136
 6597SOL    HW220691   1.673   6.204   3.044
 6598SOL     OW20692   1.247   6.152   4.680
 6598SOL    HW120693   1.284   6.233   4.724
 6598SOL    HW220694   1.160   6.174   4.635
 6599SOL     OW20695   3.634   5.265   5.558
 6599SOL    HW120696   3.689   5.348   5.547
 6599SOL    HW220697   3.630   5.216   5.471
 6600SOL     OW20698   5.194   5.599   5.667
 6600SOL    HW120699   5.104   5.566   5.639
 6600SOL    HW220700   5.241   5.528   5.719
 6601SOL     OW20701   1.151   1.084   0.694
 6601SOL    HW120702   1.169   1.155   0.626
 6601SOL    HW220703   1.235   1.063   0.743
 6602SOL     OW20704   6.300   1.672   2.019
 6602SOL    HW120705   6.283   1.716   2.107
 6602SOL    HW220706   6.330   1.578   2.033
 6603SOL     OW20707   1.096   2.863   4.073
 6603SOL    HW120708   1.122   2.806   4.151
 6603SOL    HW220709   1.143   2.951   4.080
 6604SOL     OW20710   2.400   6.272   1.608
 6604SOL    HW120711   2.321   6.263   1.546
 6604SOL    HW220712   2.393   6.358   1.658
 6605SOL     OW20713   5.112   5.175   0.702
 6605SOL    HW120714   5.203   5.179   0.742
 6605SOL    HW220715   5.044   5.202   0.771
 6606SOL     OW20716   4.771   6.961   2.065
 6606SOL    HW120717   4.686   7.013   2.074
 6606SOL    HW220718   4.833   6.986   2.140
 6607SOL     OW20719   2.321   2.299   1.305
 6607SOL    HW120720   2.325   2.314   1.404
 6607SOL    HW220721   2.229   2.271   1.279
 6608SOL     OW20722   5.304   4.971   1.927
 6608SOL    HW120723   5.272   4.942   2.017
 6608SOL    HW220724   5.226   4.995   1.870
 6609SOL     OW20725   4.778   0.983   6.268
 6609SOL    HW120726   4.814   1.006   6.358
 6609SOL    HW220727   4.698   0.924   6.278
 6610SOL     OW20728   2.306   0.377   6.628
 6610SOL    HW120729   2.284   0.468   6.665
 6610SOL    HW220730   2.369   0.387   6.551
 6611SOL     OW20731   6.567   2.376   3.604
 6611SOL    HW120732   6.572   2.417   3.694
 6611SOL    HW220733   6.500   2.424   3.548
 6612SOL     OW20734   6.880   3.223   6.828
 6612SOL    HW120735   6.809   3.282   6.865
 6612SOL    HW220736   6.970   3.261   6.851
 6613SOL     OW20737   5.835   5.885   3.851
 6613SOL    HW120738   5.821   5.882   3.950
 6613SOL    HW220739   5.870   5.796   3.820
 6614SOL     OW20740   5.129   6.368   6.806
 6614SOL    HW120741   5.084   6.423   6.877
 6614SOL    HW220742   5.228   6.376   6.815
 6615SOL     OW20743   0.972   4.291   4.308
 6615SOL    HW120744   1.045   4.359   4.316
 6615SOL    HW220745   1.009   4.208   4.266
 6616SOL     OW20746   4.340   0.930   6.094
 6616SOL    HW120747   4.332   1.028   6.074
 6616SOL    HW220748   4.429   0.913   6.137
 6617SOL     OW20749   3.255   6.064   3.099
 6617SOL    HW120750   3.217   5.980   3.137
 6617SOL    HW220751   3.213   6.083   3.011
 6618SOL     OW20752   1.012   3.494   3.025
 6618SOL    HW120753   1.101   3.451   3.010
 6618SOL    HW220754   0.969   3.454   3.106
 6619SOL     OW20755   6.558   6.770   4.992
 6619SOL    HW120756   6.542   6.671   4.989
 6619SOL    HW220757   6.480   6.815   5.036
 6620SOL     OW20758   1.784   2.628   5.293
 6620SOL    HW120759   1.821   2.626   5.386
 6620SOL    HW220760   1.854   2.658   5.229
 6621SOL     OW20761   2.743   3.035   0.065
 6621SOL    HW120762   2.796   2.983   0.132
 6621SOL    HW220763   2.654   3.059   0.104
 6622SOL     OW20764   6.224   6.320   1.916
 6622SOL    HW120765   6.168   6.292   1.839
 6622SOL    HW220766   6.268   6.239   1.957
 6623SOL     OW20767   3.258   3.388   1.516
 6623SOL    HW120768   3.192   3.452   1.555
 6623SOL    HW220769   3.253   3.301   1.564
 6624SOL     OW20770   2.157   0.108   3.802
 6624SOL    HW120771   2.116   0.037   3.858
 6624SOL    HW220772   2.207   0.066   3.726
 6625SOL     OW20773   5.419   2.118   6.319
 6625SOL    HW120774   5.432   2.212   6.289
 6625SOL    HW220775   5.502   2.086   6.366
 6626SOL     OW20776   3.615   4.997   3.830
 6626SOL    HW120777   3.526   5.028   3.797
 6626SOL    HW220778   3.647   4.921   3.773
 6627SOL     OW20779   2.371   0.610   5.728
 6627SOL    HW120780   2.280   0.611   5.770
 6627SOL    HW220781   2.385   0.693   5.674
 6628SOL     OW20782   4.940   5.099   3.571
 6628SOL    HW120783   4.880   5.179   3.577
 6628SOL    HW220784   4.890   5.022   3.532
 6629SOL     OW20785   2.548   6.338   0.361
 6629SOL    HW120786   2.542   6.259   0.423
 6629SOL    HW220787   2.625   6.395   0.388
 6630SOL     OW20788   3.676   1.822   1.099
 6630SOL    HW120789   3.661   1.883   1.177
 6630SOL    HW220790   3.692   1.875   1.017
 6631SOL     OW20791   4.397   0.312   2.154
 6631SOL    HW120792   4.348   0.288   2.070
 6631SOL    HW220793   4.331   0.338   2.225
 6632SOL     OW20794   0.230   1.219   1.408
 6632SOL    HW120795   0.313   1.170   1.435
 6632SOL    HW220796   0.188   1.172   1.330
 6633SOL     OW20797   1.719   5.232   5.803
 6633SOL    HW120798   1.742   5.270   5.714
 6633SOL    HW220799   1.633   5.181   5.797
 6634SOL     OW20800   5.660   3.584   5.902
 6634SOL    HW120801   5.627   3.491   5.917
 6634SOL    HW220802   5.753   3.593   5.940
 6635SOL     OW20803   4.366   5.126   3.403
 6635SOL    HW120804   4.325   5.098   3.316
 6635SOL    HW220805   4.303   5.186   3.451
 6636SOL     OW20806   2.701   2.083   5.866
 6636SOL    HW120807   2.663   2.004   5.915
 6636SOL    HW220808   2.626   2.139   5.831
 6637SOL     OW20809   1.690   0.120   6.603
 6637SOL    HW120810   1.594   0.149   6.595
 6637SOL    HW220811   1.707   0.085   6.694
 6638SOL     OW20812   3.730   4.951   5.037
 6638SOL    HW120813   3.647   4.992   5.076
 6638SOL    HW220814   3.774   4.893   5.105
 6639SOL     OW20815   5.814   6.372   6.977
 6639SOL    HW120816   5.878   6.412   6.911
 6639SOL    HW220817   5.805   6.274   6.961
 6640SOL     OW20818   7.010   1.823   5.381
 6640SOL    HW120819   6.976   1.829   5.287
 6640SOL    HW220820   6.962   1.891   5.438
 6641SOL     OW20821   2.286   3.162   6.467
 6641SOL    HW120822   2.305   3.217   6.385
 6641SOL    HW220823   2.326   3.071   6.456
 6642SOL     OW20824   2.742   5.260   0.642
 6642SOL    HW120825   2.696   5.343   0.675
 6642SOL    HW220826   2.821   5.241   0.700
 6643SOL     OW20827   6.524   4.522   6.636
 6643SOL    HW120828   6.537   4.453   6.564
 6643SOL    HW220829   6.586   4.503   6.711
 6644SOL     OW20830   2.752   4.833   1.894
 6644SOL    HW120831   2.757   4.898   1.970
 6644SOL    HW220832   2.750   4.740   1.929
 6645SOL     OW20833   6.846   4.960   0.377
 6645SOL    HW120834   6.780   4.886   0.389
 6645SOL    HW220835   6.872   4.996   0.467
 6646SOL     OW20836   4.107   6.088   4.540
 6646SOL    HW120837   4.167   6.077   4.461
 6646SOL    HW220838   4.059   6.175   4.533
 6647SOL     OW20839   3.571   1.399   2.233
 6647SOL    HW120840   3.510   1.354   2.299
 6647SOL    HW220841   3.560   1.498   2.239
 6648SOL     OW20842   3.121   5.799   2.097
 6648SOL    HW120843   3.118   5.771   2.192
 6648SOL    HW220844   3.033   5.782   2.053
 6649SOL     OW20845   4.920   1.669   6.607
 6649SOL    HW120846   4.906   1.737   6.535
 6649SOL    HW220847   4.832   1.631   6.635
 6650SOL     OW20848   4.295   1.540   5.368
 6650SOL    HW120849   4.316   1.532   5.465
 6650SOL    HW220850   4.200   1.571   5.357
 6651SOL     OW20851   1.572   1.896   6.958
 6651SOL    HW120852   1.586   1.921   6.862
 6651SOL    HW220853   1.552   1.978   7.011
 6652SOL     OW20854   6.440   4.750   0.485
 6652SOL    HW120855   6.388   4.822   0.439
 6652SOL    HW220856   6.418   4.750   0.582
 6653SOL     OW20857   3.786   3.174   3.062
 6653SOL    HW120858   3.758   3.122   3.143
 6653SOL    HW220859   3.709   3.180   2.999
 6654SOL     OW20860   2.202   3.089   1.014
 6654SOL    HW120861   2.161   3.175   1.046
 6654SOL    HW220862   2.242   3.040   1.092
 6655SOL     OW20863   3.126   6.940   1.778
 6655SOL    HW120864   3.167   6.850   1.766
 6655SOL    HW220865   3.160   7.002   1.706
 6656SOL     OW20866   5.949   1.645   2.852
 6656SOL    HW120867   5.923   1.673   2.760
 6656SOL    HW220868   5.912   1.554   2.872
 6657SOL     OW20869   4.956   6.247   6.430
 6657SOL    HW120870   4.869   6.291   6.407
 6657SOL    HW220871   4.944   6.186   6.508
 6658SOL     OW20872   6.097   1.714   4.951
 6658SOL    HW120873   6.179   1.660   4.933
 6658SOL    HW220874   6.023   1.685   4.890
 6659SOL     OW20875   2.564   2.524   0.210
 6659SOL    HW120876   2.605   2.558   0.125
 6659SOL    HW220877   2.627   2.539   0.286
 6660SOL     OW20878   0.181   6.210   0.927
 6660SOL    HW120879   0.270   6.235   0.888
 6660SOL    HW220880   0.126   6.293   0.939
 6661SOL     OW20881   0.744   5.567   3.984
 6661SOL    HW120882   0.789   5.561   4.073
 6661SOL    HW220883   0.734   5.475   3.946
 6662SOL     OW20884   1.898   0.136   6.435
 6662SOL    HW120885   1.830   0.123   6.508
 6662SOL    HW220886   1.885   0.227   6.394
 6663SOL     OW20887   6.949   5.533   2.948
 6663SOL    HW120888   6.913   5.446   2.912
 6663SOL    HW220889   6.964   5.596   2.872
 6664SOL     OW20890   1.630   6.939   1.253
 6664SOL    HW120891   1.579   6.907   1.174
 6664SOL    HW220892   1.646   0.012   1.246
 6665SOL     OW20893   1.955   0.559   2.600
 6665SOL    HW120894   1.907   0.561   2.688
 6665SOL    HW220895   1.932   0.642   2.549
 6666SOL     OW20896   5.921   1.846   5.863
 6666SOL    HW120897   5.947   1.753   5.839
 6666SOL    HW220898   5.992   1.909   5.834
 6667SOL     OW20899   6.939   5.249   5.381
 6667SOL    HW120900   6.851   5.295   5.375
 6667SOL    HW220901   7.002   5.304   5.436
 6668SOL     OW20902   6.836   6.021   1.756
 6668SOL    HW120903   6.741   5.992   1.746
 6668SOL    HW220904   6.849   6.108   1.709
 6669SOL     OW20905   2.255   2.829   4.339
 6669SOL    HW120906   2.187   2.810   4.269
 6669SOL    HW220907   2.213   2.881   4.414
 6670SOL     OW20908   3.587   3.608   6.517
 6670SOL    HW120909   3.543   3.605   6.606
 6670SOL    HW220910   3.681   3.575   6.525
 6671SOL     OW20911   5.538   5.779   1.247
 6671SOL    HW120912   5.596   5.699   1.261
 6671SOL    HW220913   5.510   5.815   1.336
 6672SOL     OW20914   1.014   1.853   5.041
 6672SOL    HW120915   1.107   1.833   5.010
 6672SOL    HW220916   1.017   1.888   5.134
 6673SOL     OW20917   4.541   6.186   3.253
 6673SOL    HW120918   4.616   6.233   3.299
 6673SOL    HW220919   4.513   6.238   3.173
 6674SOL     OW20920   0.832   5.463   6.625
 6674SOL    HW120921   0.907   5.408   6.661
 6674SOL    HW220922   0.790   5.416   6.547
 6675SOL     OW20923   4.477   4.171   1.584
 6675SOL    HW120924   4.577   4.175   1.576
 6675SOL    HW220925   4.451   4.185   1.680
 6676SOL     OW20926   0.302   3.808   5.546
 6676SOL    HW120927   0.223   3.793   5.487
 6676SOL    HW220928   0.352   3.889   5.516
 6677SOL     OW20929   0.153   2.828   0.026
 6677SOL    HW120930   0.089   2.770   0.077
 6677SOL    HW220931   0.152   2.801   6.955
 6678SOL     OW20932   1.792   2.603   0.111
 6678SOL    HW120933   1.716   2.550   0.151
 6678SOL    HW220934   1.878   2.556   0.130
 6679SOL     OW20935   2.627   1.765   4.276
 6679SOL    HW120936   2.570   1.709   4.337
 6679SOL    HW220937   2.619   1.861   4.301
 6680SOL     OW20938   4.322   6.507   6.167
 6680SOL    HW120939   4.249   6.513   6.099
 6680SOL    HW220940   4.286   6.531   6.257
 6681SOL     OW20941   5.046   4.966   7.020
 6681SOL    HW120942   4.996   4.886   0.029
 6681SOL    HW220943   5.039   4.969   6.920
 6682SOL     OW20944   0.803   4.171   2.386
 6682SOL    HW120945   0.859   4.253   2.376
 6682SOL    HW220946   0.712   4.197   2.418
 6683SOL     OW20947   5.152   2.748   6.026
 6683SOL    HW120948   5.057   2.747   6.056
 6683SOL    HW220949   5.209   2.794   6.094
 6684SOL     OW20950   1.947   6.895   1.082
 6684SOL    HW120951   1.882   6.857   1.016
 6684SOL    HW220952   2.026   6.933   1.033
 6685SOL     OW20953   5.562   2.228   5.558
 6685SOL    HW120954   5.584   2.255   5.652
 6685SOL    HW220955   5.519   2.138   5.559
 6686SOL     OW20956   5.184   5.400   3.554
 6686SOL    HW120957   5.133   5.418   3.639
 6686SOL    HW220958   5.267   5.456   3.552
 6687SOL     OW20959   0.546   1.710   1.472
 6687SOL    HW120960   0.626   1.659   1.442
 6687SOL    HW220961   0.572   1.773   1.546
 6688SOL     OW20962   0.188   4.477   1.825
 6688SOL    HW120963   0.153   4.386   1.847
 6688SOL    HW220964   0.280   4.488   1.864
 6689SOL     OW20965   4.444   2.705   0.611
 6689SOL    HW120966   4.536   2.732   0.639
 6689SOL    HW220967   4.381   2.782   0.622
 6690SOL     OW20968   2.494   0.996   1.803
 6690SOL    HW120969   2.534   0.924   1.859
 6690SOL    HW220970   2.565   1.064   1.781
 6691SOL     OW20971   3.223   5.558   1.651
 6691SOL    HW120972   3.212   5.499   1.570
 6691SOL    HW220973   3.245   5.651   1.622
 6692SOL     OW20974   2.708   4.682   5.306
 6692SOL    HW120975   2.623   4.691   5.255
 6692SOL    HW220976   2.785   4.683   5.242
 6693SOL     OW20977   5.033   3.542   6.454
 6693SOL    HW120978   5.128   3.573   6.448
 6693SOL    HW220979   5.031   3.442   6.462
 6694SOL     OW20980   4.847   6.176   6.893
 6694SOL    HW120981   4.915   6.147   6.826
 6694SOL    HW220982   4.798   6.256   6.859
 6695SOL     OW20983   1.532   1.818   6.000
 6695SOL    HW120984   1.506   1.877   6.076
 6695SOL    HW220985   1.624   1.842   5.969
 6696SOL     OW20986   1.724   2.375   0.356
 6696SOL    HW120987   1.676   2.389   0.442
 6696SOL    HW220988   1.723   2.278   0.332
 6697SOL     OW20989   4.409   2.408   3.304
 6697SOL    HW120990   4.428   2.404   3.206
 6697SOL    HW220991   4.469   2.475   3.347
 6698SOL     OW20992   3.558   2.541   0.344
 6698SOL    HW120993   3.527   2.557   0.438
 6698SOL    HW220994   3.525   2.615   0.285
 6699SOL     OW20995   3.659   4.689   6.802
 6699SOL    HW120996   3.630   4.695   6.897
 6699SOL    HW220997   3.611   4.758   6.748
 6700SOL     OW20998   0.043   5.786   1.013
 6700SOL    HW120999   0.012   5.857   0.949
 6700SOL    HW221000   0.121   5.821   1.065
 6701SOL     OW21001   6.044   2.791   1.416
 6701SOL    HW121002   6.073   2.836   1.500
 6701SOL    HW221003   6.121   2.737   1.379
 6702SOL     OW21004   2.706   2.548   7.010
 6702SOL    HW121005   2.792   2.591   6.985
 6702SOL    HW221006   2.631   2.613   7.000
 6703SOL     OW21007   6.505   1.928   6.996
 6703SOL    HW121008   6.422   1.934   6.940
 6703SOL    HW221009   6.507   1.840   0.017
 6704SOL     OW21010   4.456   2.455   2.707
 6704SOL    HW121011   4.440   2.364   2.669
 6704SOL    HW221012   4.370   2.507   2.705
 6705SOL     OW21013   0.101   1.960   1.900
 6705SOL    HW121014   0.128   2.051   1.870
 6705SOL    HW221015   0.102   1.955   2.000
 6706SOL     OW21016   1.059   4.157   0.601
 6706SOL    HW121017   1.141   4.210   0.623
 6706SOL    HW221018   1.082   4.060   0.595
 6707SOL     OW21019   6.882   5.526   4.563
 6707SOL    HW121020   6.784   5.541   4.548
 6707SOL    HW221021   6.917   5.463   4.494
 6708SOL     OW21022   1.924   5.624   2.610
 6708SOL    HW121023   1.951   5.534   2.576
 6708SOL    HW221024   1.827   5.640   2.591
 6709SOL     OW21025   3.298   5.814   1.300
 6709SOL    HW121026   3.318   5.797   1.396
 6709SOL    HW221027   3.278   5.727   1.254
 6710SOL     OW21028   2.002   2.158   5.874
 6710SOL    HW121029   2.034   2.246   5.838
 6710SOL    HW221030   2.005   2.089   5.803
 6711SOL     OW21031   5.960   4.630   6.721
 6711SOL    HW121032   6.054   4.627   6.690
 6711SOL    HW221033   5.949   4.703   6.788
 6712SOL     OW21034   4.590   5.464   0.397
 6712SOL    HW121035   4.531   5.542   0.374
 6712SOL    HW221036   4.553   5.381   0.354
 6713SOL     OW21037   2.200   1.734   1.366
 6713SOL    HW121038   2.247   1.774   1.445
 6713SOL    HW221039   2.209   1.795   1.288
 6714SOL     OW21040   5.308   0.742   5.558
 6714SOL    HW121041   5.341   0.835   5.540
 6714SOL    HW221042   5.275   0.702   5.473
 6715SOL     OW21043   0.281   0.714   0.309
 6715SOL    HW121044   0.360   0.664   0.345
 6715SOL    HW221045   0.221   0.740   0.384
 6716SOL     OW21046   0.943   6.610   1.794
 6716SOL    HW121047   1.010   6.677   1.762
 6716SOL    HW221048   0.985   6.551   1.864
 6717SOL     OW21049   4.703   2.733   0.726
 6717SOL    HW121050   4.764   2.655   0.729
 6717SOL    HW221051   4.648   2.736   0.809
 6718SOL     OW21052   4.076   6.009   6.332
 6718SOL    HW121053   4.150   6.021   6.267
 6718SOL    HW221054   4.088   6.073   6.409
 6719SOL     OW21055   0.590   0.308   6.277
 6719SOL    HW121056   0.523   0.240   6.305
 6719SOL    HW221057   0.649   0.271   6.206
 6720SOL     OW21058   2.119   6.267   1.981
 6720SOL    HW121059   2.152   6.223   1.897
 6720SOL    HW221060   2.197   6.281   2.043
 6721SOL     OW21061   5.855   6.457   4.633
 6721SOL    HW121062   5.908   6.389   4.582
 6721SOL    HW221063   5.864   6.440   4.731
 6722SOL     OW21064   4.967   3.055   0.899
 6722SOL    HW121065   5.063   3.084   0.907
 6722SOL    HW221066   4.921   3.067   0.987
 6723SOL     OW21067   2.237   6.773   3.094
 6723SOL    HW121068   2.211   6.843   3.027
 6723SOL    HW221069   2.283   6.698   3.048
 6724SOL     OW21070   1.188   4.261   5.638
 6724SOL    HW121071   1.163   4.316   5.717
 6724SOL    HW221072   1.136   4.176   5.638
 6725SOL     OW21073   0.948   4.251   1.966
 6725SOL    HW121074   0.927   4.321   2.034
 6725SOL    HW221075   1.046   4.247   1.951
 6726SOL     OW21076   1.750   1.902   4.425
 6726SOL    HW121077   1.771   1.900   4.523
 6726SOL    HW221078   1.652   1.915   4.412
 6727SOL     OW21079   5.674   3.963   5.995
 6727SOL    HW121080   5.742   3.919   5.936
 6727SOL    HW221081   5.583   3.947   5.958
 6728SOL     OW21082   4.255   1.339   4.692
 6728SOL    HW121083   4.175   1.384   4.654
 6728SOL    HW221084   4.334   1.353   4.632
 6729SOL     OW21085   6.580   1.483   2.463
 6729SOL    HW121086   6.581   1.466   2.561
 6729SOL    HW221087   6.640   1.560   2.441
 6730SOL     OW21088   2.079   6.509   6.633
 6730SOL    HW121089   1.997   6.460   6.605
 6730SOL    HW221090   2.148   6.502   6.561
 6731SOL     OW21091   2.617   4.411   1.174
 6731SOL    HW121092   2.680   4.435   1.100
 6731SOL    HW221093   2.527   4.450   1.156
 6732SOL     OW21094   2.893   5.881   6.573
 6732SOL    HW121095   2.957   5.806   6.591
 6732SOL    HW221096   2.913   5.921   6.484
 6733SOL     OW21097   4.504   5.383   6.443
 6733SOL    HW121098   4.453   5.359   6.361
 6733SOL    HW221099   4.472   5.327   6.520
 6734SOL     OW21100   0.835   3.363   5.907
 6734SOL    HW121101   0.893   3.443   5.921
 6734SOL    HW221102   0.806   3.358   5.812
 6735SOL     OW21103   0.300   5.410   5.338
 6735SOL    HW121104   0.341   5.325   5.372
 6735SOL    HW221105   0.371   5.478   5.325
 6736SOL     OW21106   1.838   3.513   0.579
 6736SOL    HW121107   1.899   3.585   0.548
 6736SOL    HW221108   1.804   3.461   0.500
 6737SOL     OW21109   2.318   1.716   1.022
 6737SOL    HW121110   2.326   1.796   1.080
 6737SOL    HW221111   2.233   1.722   0.968
 6738SOL     OW21112   1.743   2.694   1.983
 6738SOL    HW121113   1.825   2.638   1.977
 6738SOL    HW221114   1.662   2.635   1.982
 6739SOL     OW21115   3.248   5.465   5.912
 6739SOL    HW121116   3.318   5.521   5.868
 6739SOL    HW221117   3.281   5.434   6.001
 6740SOL     OW21118   2.039   1.371   4.382
 6740SOL    HW121119   2.052   1.290   4.439
 6740SOL    HW221120   1.941   1.385   4.367
 6741SOL     OW21121   4.427   1.567   6.019
 6741SOL    HW121122   4.461   1.501   5.953
 6741SOL    HW221123   4.495   1.581   6.091
 6742SOL     OW21124   0.256   5.885   4.075
 6742SOL    HW121125   0.255   5.981   4.102
 6742SOL    HW221126   0.297   5.876   3.984
 6743SOL     OW21127   4.135   3.927   6.431
 6743SOL    HW121128   4.194   3.869   6.375
 6743SOL    HW221129   4.040   3.911   6.406
 6744SOL     OW21130   3.872   5.481   6.108
 6744SOL    HW121131   3.947   5.547   6.116
 6744SOL    HW221132   3.898   5.396   6.154
 6745SOL     OW21133   0.705   5.317   2.915
 6745SOL    HW121134   0.739   5.344   2.825
 6745SOL    HW221135   0.781   5.288   2.972
 6746SOL     OW21136   0.353   0.651   1.998
 6746SOL    HW121137   0.410   0.574   2.024
 6746SOL    HW221138   0.410   0.733   1.986
 6747SOL     OW21139   5.808   6.105   4.333
 6747SOL    HW121140   5.825   6.180   4.398
 6747SOL    HW221141   5.812   6.018   4.381
 6748SOL     OW21142   1.029   1.010   2.521
 6748SOL    HW121143   1.022   0.934   2.457
 6748SOL    HW221144   1.027   0.975   2.615
 6749SOL     OW21145   3.118   6.831   0.021
 6749SOL    HW121146   3.215   6.855   0.016
 6749SOL    HW221147   3.065   6.893   6.989
 6750SOL     OW21148   3.562   1.629   4.687
 6750SOL    HW121149   3.573   1.673   4.598
 6750SOL    HW221150   3.507   1.688   4.746
 6751SOL     OW21151   2.963   2.230   3.694
 6751SOL    HW121152   3.052   2.222   3.649
 6751SOL    HW221153   2.895   2.260   3.627
 6752SOL     OW21154   6.400   2.416   1.553
 6752SOL    HW121155   6.304   2.399   1.530
 6752SOL    HW221156   6.404   2.468   1.638
 6753SOL     OW21157   4.439   1.625   6.806
 6753SOL    HW121158   4.366   1.650   6.742
 6753SOL    HW221159   4.420   1.534   6.843
 6754SOL     OW21160   6.793   2.162   6.399
 6754SOL    HW121161   6.752   2.072   6.413
 6754SOL    HW221162   6.745   2.230   6.454
 6755SOL     OW21163   5.110   1.475   4.075
 6755SOL    HW121164   5.179   1.542   4.049
 6755SOL    HW221165   5.054   1.511   4.149
 6756SOL     OW21166   4.775   4.183   4.029
 6756SOL    HW121167   4.723   4.252   4.079
 6756SOL    HW221168   4.816   4.119   4.094
 6757SOL     OW21169   4.763   5.585   0.101
 6757SOL    HW121170   4.792   5.616   0.011
 6757SOL    HW221171   4.709   5.657   0.145
 6758SOL     OW21172   4.932   3.715   1.891
 6758SOL    HW121173   4.897   3.669   1.810
 6758SOL    HW221174   4.945   3.647   1.964
 6759SOL     OW21175   1.425   3.957   3.919
 6759SOL    HW121176   1.518   3.927   3.938
 6759SOL    HW221177   1.427   4.046   3.874
 6760SOL     OW21178   0.085   4.910   4.980
 6760SOL    HW121179   0.092   4.963   4.896
 6760SOL    HW221180   0.040   4.965   5.050
 6761SOL     OW21181   5.722   2.876   5.880
 6761SOL    HW121182   5.762   2.844   5.794
 6761SOL    HW221183   5.655   2.948   5.861
 6762SOL     OW21184   6.370   5.026   3.368
 6762SOL    HW121185   6.319   5.107   3.398
 6762SOL    HW221186   6.417   4.986   3.446
 6763SOL     OW21187   6.195   5.579   4.514
 6763SOL    HW121188   6.250   5.523   4.576
 6763SOL    HW221189   6.154   5.655   4.566
 6764SOL     OW21190   3.316   3.849   5.903
 6764SOL    HW121191   3.302   3.782   5.830
 6764SOL    HW221192   3.330   3.940   5.863
 6765SOL     OW21193   6.246   4.712   3.616
 6765SOL    HW121194   6.208   4.802   3.594
 6765SOL    HW221195   6.172   4.649   3.638
 6766SOL     OW21196   2.253   0.255   6.204
 6766SOL    HW121197   2.334   0.248   6.146
 6766SOL    HW221198   2.208   0.342   6.188
 6767SOL     OW21199   0.249   2.320   0.370
 6767SOL    HW121200   0.196   2.379   0.430
 6767SOL    HW221201   0.206   2.316   0.280
 6768SOL     OW21202   0.616   0.663   3.832
 6768SOL    HW121203   0.613   0.566   3.809
 6768SOL    HW221204   0.579   0.717   3.757
 6769SOL     OW21205   2.994   1.869   5.268
 6769SOL    HW121206   2.911   1.821   5.295
 6769SOL    HW221207   2.990   1.963   5.303
 6770SOL     OW21208   0.277   2.758   4.069
 6770SOL    HW121209   0.264   2.844   4.120
 6770SOL    HW221210   0.251   2.772   3.973
 6771SOL     OW21211   3.550   2.063   3.407
 6771SOL    HW121212   3.502   1.978   3.384
 6771SOL    HW221213   3.609   2.090   3.330
 6772SOL     OW21214   5.342   1.422   2.707
 6772SOL    HW121215   5.319   1.471   2.791
 6772SOL    HW221216   5.291   1.462   2.631
 6773SOL     OW21217   6.940   6.628   1.509
 6773SOL    HW121218   6.933   6.538   1.467
 6773SOL    HW221219   6.900   6.626   1.601
 6774SOL     OW21220   1.928   1.746   5.098
 6774SOL    HW121221   2.000   1.787   5.154
 6774SOL    HW221222   1.904   1.809   5.024
 6775SOL     OW21223   0.901   1.882   4.210
 6775SOL    HW121224   0.813   1.930   4.209
 6775SOL    HW221225   0.945   1.892   4.121
 6776SOL     OW21226   3.809   4.111   1.135
 6776SOL    HW121227   3.730   4.157   1.094
 6776SOL    HW221228   3.872   4.083   1.062
 6777SOL     OW21229   4.764   5.653   1.340
 6777SOL    HW121230   4.716   5.589   1.280
 6777SOL    HW221231   4.697   5.703   1.395
 6778SOL     OW21232   5.636   3.175   2.557
 6778SOL    HW121233   5.689   3.244   2.607
 6778SOL    HW221234   5.695   3.098   2.535
 6779SOL     OW21235   5.810   4.294   5.607
 6779SOL    HW121236   5.837   4.350   5.685
 6779SOL    HW221237   5.715   4.313   5.583
 6780SOL     OW21238   2.449   2.415   3.041
 6780SOL    HW121239   2.352   2.394   3.056
 6780SOL    HW221240   2.498   2.410   3.128
 6781SOL     OW21241   6.254   1.350   4.289
 6781SOL    HW121242   6.179   1.366   4.226
 6781SOL    HW221243   6.263   1.252   4.307
 6782SOL     OW21244   6.678   1.636   3.233
 6782SOL    HW121245   6.667   1.537   3.221
 6782SOL    HW221246   6.611   1.684   3.177
 6783SOL     OW21247   1.137   4.930   5.690
 6783SOL    HW121248   1.223   4.881   5.673
 6783SOL    HW221249   1.125   5.001   5.622
 6784SOL     OW21250   2.253   3.204   1.472
 6784SOL    HW121251   2.224   3.109   1.485
 6784SOL    HW221252   2.305   3.234   1.552
 6785SOL     OW21253   5.268   4.745   4.856
 6785SOL    HW121254   5.300   4.833   4.892
 6785SOL    HW221255   5.244   4.685   4.932
 6786SOL     OW21256   6.402   2.398   1.044
 6786SOL    HW121257   6.426   2.488   1.008
 6786SOL    HW221258   6.414   2.329   0.973
 6787SOL     OW21259   3.700   2.301   0.389
 6787SOL    HW121260   3.797   2.326   0.388
 6787SOL    HW221261   3.644   2.382   0.368
 6788SOL     OW21262   0.731   3.771   3.447
 6788SOL    HW121263   0.686   3.749   3.534
 6788SOL    HW221264   0.664   3.770   3.373
 6789SOL     OW21265   0.005   3.796   3.913
 6789SOL    HW121266   6.954   3.853   3.944
 6789SOL    HW221267   7.010   3.759   3.823
 6790SOL     OW21268   1.068   4.725   6.101
 6790SOL    HW121269   1.084   4.801   6.164
 6790SOL    HW221270   0.990   4.746   6.042
 6791SOL     OW21271   4.488   1.606   3.971
 6791SOL    HW121272   4.553   1.611   4.047
 6791SOL    HW221273   4.410   1.664   3.990
 6792SOL     OW21274   4.663   6.952   5.316
 6792SOL    HW121275   4.583   6.896   5.291
 6792SOL    HW221276   4.723   6.899   5.375
 6793SOL     OW21277   2.502   3.041   0.194
 6793SOL    HW121278   2.408   3.006   0.201
 6793SOL    HW221279   2.547   3.033   0.283
 6794SOL     OW21280   4.525   1.138   5.733
 6794SOL    HW121281   4.609   1.175   5.693
 6794SOL    HW221282   4.453   1.137   5.664
 6795SOL     OW21283   1.193   1.056   1.035
 6795SOL    HW121284   1.126   1.110   0.985
 6795SOL    HW221285   1.229   1.110   1.111
 6796SOL     OW21286   5.849   1.815   2.241
 6796SOL    HW121287   5.776   1.816   2.173
 6796SOL    HW221288   5.874   1.720   2.262
 6797SOL     OW21289   0.407   2.239   1.619
 6797SOL    HW121290   0.500   2.221   1.652
 6797SOL    HW221291   0.387   2.336   1.626
 6798SOL     OW21292   5.723   0.682   2.038
 6798SOL    HW121293   5.630   0.718   2.024
 6798SOL    HW221294   5.733   0.652   2.133
 6799SOL     OW21295   5.299   6.984   3.032
 6799SOL    HW121296   5.246   7.013   2.952
 6799SOL    HW221297   5.238   6.942   3.099
 6800SOL     OW21298   0.935   0.999   1.499
 6800SOL    HW121299   1.007   0.961   1.441
 6800SOL    HW221300   0.847   0.960   1.474
 6801SOL     OW21301   0.916   6.370   4.886
 6801SOL    HW121302   0.827   6.345   4.846
 6801SOL    HW221303   0.909   6.460   4.928
 6802SOL     OW21304   3.293   5.809   1.601
 6802SOL    HW121305   3.382   5.821   1.646
 6802SOL    HW221306   3.225   5.866   1.646
 6803SOL     OW21307   5.265   5.163   0.027
 6803SOL    HW121308   5.181   5.110   0.019
 6803SOL    HW221309   5.330   5.113   0.084
 6804SOL     OW21310   2.478   4.487   2.886
 6804SOL    HW121311   2.405   4.502   2.819
 6804SOL    HW221312   2.441   4.434   2.963
 6805SOL     OW21313   0.522   4.761   5.906
 6805SOL    HW121314   0.445   4.805   5.953
 6805SOL    HW221315   0.489   4.719   5.821
 6806SOL     OW21316   6.561   0.237   3.532
 6806SOL    HW121317   6.547   0.198   3.623
 6806SOL    HW221318   6.472   0.252   3.488
 6807SOL     OW21319   3.313   3.713   2.462
 6807SOL    HW121320   3.397   3.764   2.479
 6807SOL    HW221321   3.307   3.692   2.364
 6808SOL     OW21322   4.509   1.927   4.998
 6808SOL    HW121323   4.538   1.982   4.920
 6808SOL    HW221324   4.409   1.931   5.007
 6809SOL     OW21325   6.157   4.779   1.940
 6809SOL    HW121326   6.058   4.793   1.935
 6809SOL    HW221327   6.176   4.686   1.973
 6810SOL     OW21328   2.868   1.250   3.426
 6810SOL    HW121329   2.845   1.152   3.420
 6810SOL    HW221330   2.960   1.259   3.464
 6811SOL     OW21331   6.197   1.481   2.313
 6811SOL    HW121332   6.220   1.491   2.409
 6811SOL    HW221333   6.169   1.387   2.294
 6812SOL     OW21334   2.920   3.825   5.172
 6812SOL    HW121335   2.939   3.921   5.195
 6812SOL    HW221336   2.822   3.806   5.186
 6813SOL     OW21337   5.393   3.411   1.531
 6813SOL    HW121338   5.487   3.386   1.510
 6813SOL    HW221339   5.384   3.430   1.629
 6814SOL     OW21340   4.398   1.385   6.342
 6814SOL    HW121341   4.498   1.388   6.344
 6814SOL    HW221342   4.369   1.311   6.281
 6815SOL     OW21343   2.103   5.061   6.610
 6815SOL    HW121344   2.027   5.035   6.551
 6815SOL    HW221345   2.166   4.984   6.618
 6816SOL     OW21346   0.649   2.026   4.313
 6816SOL    HW121347   0.691   2.110   4.347
 6816SOL    HW221348   0.566   2.007   4.365
 6817SOL     OW21349   3.143   2.164   2.352
 6817SOL    HW121350   3.098   2.142   2.439
 6817SOL    HW221351   3.118   2.257   2.325
 6818SOL     OW21352   2.024   6.422   6.196
 6818SOL    HW121353   1.988   6.475   6.119
 6818SOL    HW221354   2.103   6.469   6.234
 6819SOL     OW21355   4.773   4.638   3.257
 6819SOL    HW121356   4.680   4.658   3.289
 6819SOL    HW221357   4.817   4.722   3.225
 6820SOL     OW21358   2.208   6.465   1.482
 6820SOL    HW121359   2.128   6.522   1.499
 6820SOL    HW221360   2.275   6.516   1.427
 6821SOL     OW21361   4.376   2.972   5.310
 6821SOL    HW121362   4.472   2.990   5.286
 6821SOL    HW221363   4.331   3.059   5.334
 6822SOL     OW21364   0.325   2.587   6.490
 6822SOL    HW121365   0.410   2.536   6.501
 6822SOL    HW221366   0.338   2.681   6.522
 6823SOL     OW21367   5.538   3.422   0.070
 6823SOL    HW121368   5.499   3.477   7.022
 6823SOL    HW221369   5.489   3.439   0.155
 6824SOL     OW21370   1.434   1.723   6.695
 6824SOL    HW121371   1.499   1.799   6.700
 6824SOL    HW221372   1.478   1.643   6.654
 6825SOL     OW21373   0.134   5.877   1.588
 6825SOL    HW121374   0.174   5.858   1.499
 6825SOL    HW221375   0.078   5.800   1.617
 6826SOL     OW21376   0.855   3.401   3.256
 6826SOL    HW121377   0.891   3.470   3.319
 6826SOL    HW221378   0.901   3.314   3.272
 6827SOL     OW21379   4.385   5.673   4.734
 6827SOL    HW121380   4.424   5.607   4.670
 6827SOL    HW221381   4.295   5.640   4.764
 6828SOL     OW21382   3.630   1.801   3.063
 6828SOL    HW121383   3.707   1.843   3.112
 6828SOL    HW221384   3.554   1.787   3.126
 6829SOL     OW21385   5.443   6.506   4.796
 6829SOL    HW121386   5.402   6.512   4.705
 6829SOL    HW221387   5.403   6.429   4.845
 6830SOL     OW21388   5.690   0.597   3.144
 6830SOL    HW121389   5.681   0.629   3.050
 6830SOL    HW221390   5.735   0.507   3.144
 6831SOL     OW21391   1.491   1.235   5.899
 6831SOL    HW121392   1.497   1.202   5.993
 6831SOL    HW221393   1.538   1.323   5.891
 6832SOL     OW21394   3.081   2.023   0.501
 6832SOL    HW121395   3.017   2.016   0.577
 6832SOL    HW221396   3.038   2.071   0.425
 6833SOL     OW21397   2.867   5.287   5.762
 6833SOL    HW121398   2.833   5.380   5.750
 6833SOL    HW221399   2.848   5.234   5.679
 6834SOL     OW21400   5.063   6.854   0.637
 6834SOL    HW121401   4.997   6.855   0.712
 6834SOL    HW221402   5.092   6.948   0.616
 6835SOL     OW21403   3.285   2.000   4.383
 6835SOL    HW121404   3.354   1.961   4.444
 6835SOL    HW221405   3.197   1.955   4.400
 6836SOL     OW21406   1.870   5.004   6.479
 6836SOL    HW121407   1.829   4.937   6.417
 6836SOL    HW221408   1.847   5.096   6.447
 6837SOL     OW21409   0.793   0.516   2.096
 6837SOL    HW121410   0.760   0.598   2.143
 6837SOL    HW221411   0.781   0.528   1.997
 6838SOL     OW21412   2.730   4.374   5.329
 6838SOL    HW121413   2.757   4.470   5.333
 6838SOL    HW221414   2.641   4.367   5.283
 6839SOL     OW21415   5.465   2.665   3.826
 6839SOL    HW121416   5.452   2.729   3.902
 6839SOL    HW221417   5.457   2.715   3.740
 6840SOL     OW21418   2.656   6.461   5.116
 6840SOL    HW121419   2.639   6.514   5.033
 6840SOL    HW221420   2.709   6.516   5.180
 6841SOL     OW21421   3.794   5.633   2.035
 6841SOL    HW121422   3.713   5.688   2.055
 6841SOL    HW221423   3.767   5.550   1.987
 6842SOL     OW21424   0.633   3.522   0.035
 6842SOL    HW121425   0.552   3.465   0.024
 6842SOL    HW221426   0.713   3.464   0.049
 6843SOL     OW21427   3.899   2.324   1.737
 6843SOL    HW121428   3.949   2.238   1.732
 6843SOL    HW221429   3.814   2.310   1.788
 6844SOL     OW21430   4.567   5.148   4.039
 6844SOL    HW121431   4.534   5.056   4.061
 6844SOL    HW221432   4.666   5.146   4.028
 6845SOL     OW21433   4.718   5.242   2.434
 6845SOL    HW121434   4.677   5.180   2.368
 6845SOL    HW221435   4.663   5.325   2.442
 6846SOL     OW21436   3.809   3.078   2.409
 6846SOL    HW121437   3.747   3.125   2.347
 6846SOL    HW221438   3.846   2.996   2.365
 6847SOL     OW21439   4.990   3.950   1.680
 6847SOL    HW121440   5.083   3.948   1.716
 6847SOL    HW221441   4.933   3.885   1.731
 6848SOL     OW21442   0.573   5.273   4.568
 6848SOL    HW121443   0.600   5.321   4.485
 6848SOL    HW221444   0.606   5.179   4.564
 6849SOL     OW21445   3.727   5.867   3.999
 6849SOL    HW121446   3.797   5.814   3.950
 6849SOL    HW221447   3.644   5.812   4.008
 6850SOL     OW21448   5.562   2.413   3.564
 6850SOL    HW121449   5.633   2.352   3.527
 6850SOL    HW221450   5.549   2.491   3.503
 6851SOL     OW21451   1.762   5.156   6.106
 6851SOL    HW121452   1.700   5.231   6.129
 6851SOL    HW221453   1.816   5.182   6.026
 6852SOL     OW21454   1.081   4.185   1.368
 6852SOL    HW121455   1.124   4.097   1.389
 6852SOL    HW221456   1.018   4.210   1.442
 6853SOL     OW21457   0.636   5.537   5.682
 6853SOL    HW121458   0.551   5.484   5.686
 6853SOL    HW221459   0.702   5.500   5.747
 6854SOL     OW21460   6.471   1.656   5.948
 6854SOL    HW121461   6.538   1.721   5.983
 6854SOL    HW221462   6.507   1.563   5.958
 6855SOL     OW21463   4.334   7.001   2.772
 6855SOL    HW121464   4.310   0.042   2.701
 6855SOL    HW221465   4.252   6.975   2.823
 6856SOL     OW21466   6.416   3.780   4.538
 6856SOL    HW121467   6.473   3.706   4.501
 6856SOL    HW221468   6.377   3.751   4.626
 6857SOL     OW21469   3.090   2.148   6.133
 6857SOL    HW121470   3.049   2.083   6.070
 6857SOL    HW221471   3.020   2.182   6.196
 6858SOL     OW21472   4.120   3.476   4.657
 6858SOL    HW121473   4.118   3.561   4.603
 6858SOL    HW221474   4.104   3.398   4.596
 6859SOL     OW21475   2.528   6.882   0.906
 6859SOL    HW121476   2.574   6.797   0.880
 6859SOL    HW221477   2.456   6.861   0.973
 6860SOL     OW21478   5.657   4.970   1.566
 6860SOL    HW121479   5.588   4.992   1.496
 6860SOL    HW221480   5.611   4.950   1.652
 6861SOL     OW21481   5.471   5.785   0.200
 6861SOL    HW121482   5.376   5.770   0.174
 6861SOL    HW221483   5.485   5.757   0.295
 6862SOL     OW21484   3.089   5.336   5.198
 6862SOL    HW121485   2.991   5.354   5.209
 6862SOL    HW221486   3.130   5.321   5.288
 6863SOL     OW21487   6.017   1.443   4.164
 6863SOL    HW121488   5.931   1.473   4.207
 6863SOL    HW221489   6.074   1.523   4.145
 6864SOL     OW21490   2.755   5.796   3.374
 6864SOL    HW121491   2.678   5.784   3.311
 6864SOL    HW221492   2.826   5.850   3.328
 6865SOL     OW21493   6.286   3.872   4.818
 6865SOL    HW121494   6.335   3.789   4.845
 6865SOL    HW221495   6.353   3.942   4.793
 6866SOL     OW21496   6.998   3.857   1.794
 6866SOL    HW121497   6.963   3.867   1.888
 6866SOL    HW221498   0.057   3.909   1.785
 6867SOL     OW21499   1.729   4.568   1.804
 6867SOL    HW121500   1.808   4.587   1.746
 6867SOL    HW221501   1.689   4.480   1.779
 6868SOL     OW21502   1.782   6.464   4.800
 6868SOL    HW121503   1.743   6.546   4.756
 6868SOL    HW221504   1.816   6.402   4.729
 6869SOL     OW21505   5.577   2.549   5.470
 6869SOL    HW121506   5.559   2.467   5.415
 6869SOL    HW221507   5.671   2.546   5.505
 6870SOL     OW21508   5.584   3.596   3.323
 6870SOL    HW121509   5.530   3.622   3.403
 6870SOL    HW221510   5.679   3.583   3.351
 6871SOL     OW21511   6.070   4.250   1.480
 6871SOL    HW121512   6.082   4.284   1.387
 6871SOL    HW221513   6.110   4.159   1.489
 6872SOL     OW21514   1.857   3.613   1.060
 6872SOL    HW121515   1.895   3.631   0.970
 6872SOL    HW221516   1.834   3.515   1.068
 6873SOL     OW21517   6.055   2.872   5.740
 6873SOL    HW121518   6.043   2.971   5.743
 6873SOL    HW221519   6.134   2.846   5.796
 6874SOL     OW21520   6.912   2.968   3.945
 6874SOL    HW121521   6.948   3.023   4.020
 6874SOL    HW221522   6.967   2.983   3.863
 6875SOL     OW21523   1.297   1.607   2.629
 6875SOL    HW121524   1.351   1.586   2.548
 6875SOL    HW221525   1.329   1.551   2.706
 6876SOL     OW21526   3.640   5.727   6.813
 6876SOL    HW121527   3.732   5.710   6.778
 6876SOL    HW221528   3.639   5.712   6.912
 6877SOL     OW21529   2.379   4.022   6.980
 6877SOL    HW121530   2.426   3.973   0.028
 6877SOL    HW221531   2.422   4.112   6.968
 6878SOL     OW21532   2.339   1.481   5.629
 6878SOL    HW121533   2.319   1.477   5.727
 6878SOL    HW221534   2.358   1.575   5.603
 6879SOL     OW21535   0.151   1.962   6.745
 6879SOL    HW121536   0.213   1.933   6.672
 6879SOL    HW221537   0.163   1.902   6.824
 6880SOL     OW21538   2.199   4.093   5.254
 6880SOL    HW121539   2.151   4.022   5.305
 6880SOL    HW221540   2.260   4.050   5.187
 6881SOL     OW21541   0.157   4.498   1.142
 6881SOL    HW121542   0.256   4.488   1.132
 6881SOL    HW221543   0.112   4.424   1.092
 6882SOL     OW21544   2.000   1.186   4.615
 6882SOL    HW121545   1.992   1.255   4.687
 6882SOL    HW221546   1.922   1.193   4.553
 6883SOL     OW21547   3.887   6.803   1.123
 6883SOL    HW121548   3.792   6.789   1.094
 6883SOL    HW221549   3.897   6.895   1.160
 6884SOL     OW21550   2.412   4.417   4.707
 6884SOL    HW121551   2.436   4.512   4.724
 6884SOL    HW221552   2.368   4.378   4.789
 6885SOL     OW21553   2.763   6.148   3.123
 6885SOL    HW121554   2.677   6.156   3.073
 6885SOL    HW221555   2.771   6.223   3.189
 6886SOL     OW21556   4.938   1.292   2.533
 6886SOL    HW121557   4.942   1.388   2.508
 6886SOL    HW221558   5.014   1.270   2.594
 6887SOL     OW21559   5.899   0.402   5.084
 6887SOL    HW121560   5.907   0.312   5.127
 6887SOL    HW221561   5.899   0.391   4.985
 6888SOL     OW21562   6.234   0.693   5.227
 6888SOL    HW121563   6.220   0.614   5.166
 6888SOL    HW221564   6.146   0.720   5.266
 6889SOL     OW21565   0.701   2.647   6.042
 6889SOL    HW121566   0.755   2.721   6.002
 6889SOL    HW221567   0.626   2.686   6.095
 6890SOL     OW21568   2.678   0.516   1.127
 6890SOL    HW121569   2.758   0.507   1.067
 6890SOL    HW221570   2.653   0.426   1.162
 6891SOL     OW21571   1.893   3.767   4.942
 6891SOL    HW121572   1.962   3.770   5.015
 6891SOL    HW221573   1.933   3.801   4.857
 6892SOL     OW21574   3.962   0.086   4.239
 6892SOL    HW121575   4.006   0.105   4.327
 6892SOL    HW221576   4.011   0.134   4.166
 6893SOL     OW21577   5.139   5.795   3.184
 6893SOL    HW121578   5.113   5.845   3.101
 6893SOL    HW221579   5.152   5.860   3.259
 6894SOL     OW21580   6.215   5.663   0.194
 6894SOL    HW121581   6.124   5.624   0.175
 6894SOL    HW221582   6.251   5.705   0.111
 6895SOL     OW21583   2.717   4.060   0.290
 6895SOL    HW121584   2.684   4.017   0.374
 6895SOL    HW221585   2.804   4.107   0.309
 6896SOL     OW21586   3.220   0.674   3.616
 6896SOL    HW121587   3.194   0.622   3.697
 6896SOL    HW221588   3.169   0.760   3.614
 6897SOL     OW21589   3.267   3.438   0.291
 6897SOL    HW121590   3.255   3.417   0.194
 6897SOL    HW221591   3.314   3.361   0.335
 6898SOL     OW21592   4.118   0.659   1.931
 6898SOL    HW121593   4.052   0.594   1.969
 6898SOL    HW221594   4.204   0.653   1.982
 6899SOL     OW21595   5.555   0.148   6.315
 6899SOL    HW121596   5.638   0.096   6.297
 6899SOL    HW221597   5.477   0.086   6.316
 6900SOL     OW21598   5.541   0.821   5.883
 6900SOL    HW121599   5.469   0.825   5.953
 6900SOL    HW221600   5.523   0.889   5.813
 6901SOL     OW21601   0.756   0.211   6.093
 6901SOL    HW121602   0.852   0.238   6.105
 6901SOL    HW221603   0.745   0.167   6.004
 6902SOL     OW21604   0.701   0.180   0.010
 6902SOL    HW121605   0.651   0.181   0.096
 6902SOL    HW221606   0.799   0.175   0.029
 6903SOL     OW21607   3.633   3.518   0.203
 6903SOL    HW121608   3.722   3.546   0.170
 6903SOL    HW221609   3.593   3.451   0.140
 6904SOL     OW21610   6.667   0.803   3.788
 6904SOL    HW121611   6.757   0.760   3.784
 6904SOL    HW221612   6.599   0.742   3.747
 6905SOL     OW21613   6.613   6.740   0.759
 6905SOL    HW121614   6.584   6.821   0.708
 6905SOL    HW221615   6.549   6.724   0.835
 6906SOL     OW21616   3.960   1.220   4.087
 6906SOL    HW121617   4.054   1.192   4.106
 6906SOL    HW221618   3.917   1.154   4.026
 6907SOL     OW21619   3.686   0.966   0.972
 6907SOL    HW121620   3.639   1.043   0.928
 6907SOL    HW221621   3.734   0.912   0.903
 6908SOL     OW21622   1.188   0.439   5.671
 6908SOL    HW121623   1.234   0.497   5.738
 6908SOL    HW221624   1.140   0.365   5.718
 6909SOL     OW21625   4.232   5.318   1.007
 6909SOL    HW121626   4.310   5.289   1.063
 6909SOL    HW221627   4.257   5.315   0.911
 6910SOL     OW21628   6.320   1.263   2.694
 6910SOL    HW121629   6.350   1.358   2.706
 6910SOL    HW221630   6.235   1.248   2.745
 6911SOL     OW21631   4.085   0.427   3.931
 6911SOL    HW121632   4.111   0.359   3.999
 6911SOL    HW221633   4.030   0.498   3.975
 6912SOL     OW21634   4.610   4.968   1.470
 6912SOL    HW121635   4.559   4.902   1.415
 6912SOL    HW221636   4.557   5.052   1.479
 6913SOL     OW21637   4.944   4.585   4.331
 6913SOL    HW121638   5.011   4.658   4.316
 6913SOL    HW221639   4.871   4.619   4.390
 6914SOL     OW21640   5.805   5.414   6.835
 6914SOL    HW121641   5.813   5.491   6.772
 6914SOL    HW221642   5.880   5.349   6.819
 6915SOL     OW21643   0.655   4.859   2.692
 6915SOL    HW121644   0.651   4.764   2.724
 6915SOL    HW221645   0.651   4.921   2.770
 6916SOL     OW21646   6.536   4.361   6.381
 6916SOL    HW121647   6.446   4.403   6.372
 6916SOL    HW221648   6.555   4.304   6.301
 6917SOL     OW21649   4.870   5.757   5.992
 6917SOL    HW121650   4.882   5.827   5.922
 6917SOL    HW221651   4.807   5.790   6.062
 6918SOL     OW21652   0.441   3.594   4.405
 6918SOL    HW121653   0.445   3.544   4.319
 6918SOL    HW221654   0.373   3.667   4.399
 6919SOL     OW21655   1.867   6.124   2.454
 6919SOL    HW121656   1.772   6.108   2.428
 6919SOL    HW221657   1.884   6.086   2.545
 6920SOL     OW21658   4.930   5.166   4.992
 6920SOL    HW121659   5.015   5.217   5.000
 6920SOL    HW221660   4.859   5.225   4.955
 6921SOL     OW21661   6.301   5.943   3.419
 6921SOL    HW121662   6.202   5.951   3.431
 6921SOL    HW221663   6.324   5.846   3.405
 6922SOL     OW21664   1.753   6.231   6.796
 6922SOL    HW121665   1.667   6.217   6.747
 6922SOL    HW221666   1.827   6.185   6.747
 6923SOL     OW21667   4.397   6.616   3.774
 6923SOL    HW121668   4.445   6.645   3.856
 6923SOL    HW221669   4.399   6.516   3.767
 6924SOL     OW21670   0.813   4.658   0.349
 6924SOL    HW121671   0.792   4.576   0.402
 6924SOL    HW221672   0.732   4.688   0.298
 6925SOL     OW21673   3.669   6.233   3.704
 6925SOL    HW121674   3.580   6.190   3.691
 6925SOL    HW221675   3.712   6.197   3.787
 6926SOL     OW21676   3.977   3.801   3.653
 6926SOL    HW121677   3.933   3.811   3.563
 6926SOL    HW221678   4.072   3.831   3.647
 6927SOL     OW21679   5.019   3.911   6.458
 6927SOL    HW121680   4.959   3.954   6.392
 6927SOL    HW221681   5.021   3.965   6.542
 6928SOL     OW21682   4.407   0.139   6.428
 6928SOL    HW121683   4.352   0.184   6.359
 6928SOL    HW221684   4.501   0.172   6.423
 6929SOL     OW21685   4.776   6.746   6.463
 6929SOL    HW121686   4.868   6.721   6.433
 6929SOL    HW221687   4.725   6.785   6.386
 6930SOL     OW21688   0.260   6.509   2.161
 6930SOL    HW121689   0.356   6.483   2.154
 6930SOL    HW221690   0.252   6.607   2.178
 6931SOL     OW21691   0.534   0.288   1.451
 6931SOL    HW121692   0.572   0.261   1.540
 6931SOL    HW221693   0.435   0.297   1.459
 6932SOL     OW21694   3.226   0.867   6.572
 6932SOL    HW121695   3.131   0.882   6.546
 6932SOL    HW221696   3.233   0.780   6.621
 6933SOL     OW21697   3.710   5.755   4.977
 6933SOL    HW121698   3.791   5.711   4.938
 6933SOL    HW221699   3.642   5.686   5.001
 6934SOL     OW21700   5.350   3.008   0.036
 6934SOL    HW121701   5.307   3.068   6.994
 6934SOL    HW221702   5.280   2.950   0.079
 6935SOL     OW21703   4.526   5.943   3.415
 6935SOL    HW121704   4.460   5.883   3.371
 6935SOL    HW221705   4.532   6.029   3.365
 6936SOL     OW21706   0.036   1.949   2.194
 6936SOL    HW121707   6.964   1.970   2.190
 6936SOL    HW221708   0.078   1.999   2.270
 6937SOL     OW21709   4.698   6.457   6.337
 6937SOL    HW121710   4.616   6.461   6.280
 6937SOL    HW221711   4.715   6.547   6.377
 6938SOL     OW21712   4.896   3.933   5.865
 6938SOL    HW121713   4.863   3.881   5.944
 6938SOL    HW221714   4.863   3.890   5.780
 6939SOL     OW21715   0.460   4.680   2.350
 6939SOL    HW121716   0.538   4.654   2.408
 6939SOL    HW221717   0.375   4.647   2.393
 6940SOL     OW21718   4.747   0.667   0.167
 6940SOL    HW121719   4.716   0.700   0.256
 6940SOL    HW221720   4.670   0.664   0.104
 6941SOL     OW21721   3.337   3.481   2.036
 6941SOL    HW121722   3.267   3.552   2.021
 6941SOL    HW221723   3.331   3.413   1.963
 6942SOL     OW21724   0.186   2.486   0.607
 6942SOL    HW121725   0.250   2.563   0.605
 6942SOL    HW221726   0.196   2.436   0.693
 6943SOL     OW21727   5.236   6.801   6.270
 6943SOL    HW121728   5.318   6.850   6.301
 6943SOL    HW221729   5.254   6.759   6.181
 6944SOL     OW21730   1.472   5.912   5.248
 6944SOL    HW121731   1.411   5.923   5.169
 6944SOL    HW221732   1.430   5.952   5.329
 6945SOL     OW21733   6.107   3.768   6.554
 6945SOL    HW121734   6.029   3.739   6.609
 6945SOL    HW221735   6.141   3.691   6.500
 6946SOL     OW21736   5.962   5.027   2.428
 6946SOL    HW121737   6.006   5.012   2.517
 6946SOL    HW221738   5.877   4.975   2.424
 6947SOL     OW21739   3.795   0.008   3.527
 6947SOL    HW121740   3.848   6.948   3.524
 6947SOL    HW221741   3.725   7.025   3.598
 6948SOL     OW21742   5.019   0.552   0.584
 6948SOL    HW121743   5.054   0.460   0.567
 6948SOL    HW221744   4.934   0.547   0.636
 6949SOL     OW21745   4.787   6.546   3.229
 6949SOL    HW121746   4.859   6.610   3.254
 6949SOL    HW221747   4.817   6.489   3.153
 6950SOL     OW21748   2.233   0.492   3.131
 6950SOL    HW121749   2.287   0.487   3.047
 6950SOL    HW221750   2.233   0.402   3.176
 6951SOL     OW21751   6.721   6.290   6.056
 6951SOL    HW121752   6.692   6.380   6.024
 6951SOL    HW221753   6.813   6.270   6.023
 6952SOL     OW21754   0.080   4.824   3.281
 6952SOL    HW121755   0.156   4.760   3.290
 6952SOL    HW221756   0.070   4.876   3.366
 6953SOL     OW21757   5.072   0.910   5.937
 6953SOL    HW121758   5.078   0.848   5.859
 6953SOL    HW221759   5.146   0.977   5.931
 6954SOL     OW21760   0.656   3.047   4.120
 6954SOL    HW121761   0.623   3.006   4.205
 6954SOL    HW221762   0.673   3.144   4.134
 6955SOL     OW21763   6.820   6.980   1.634
 6955SOL    HW121764   6.774   0.030   1.681
 6955SOL    HW221765   6.797   6.894   1.678
 6956SOL     OW21766   4.334   5.531   2.137
 6956SOL    HW121767   4.423   5.496   2.106
 6956SOL    HW221768   4.273   5.541   2.059
 6957SOL     OW21769   6.681   5.013   1.432
 6957SOL    HW121770   6.744   4.950   1.386
 6957SOL    HW221771   6.598   4.964   1.459
 6958SOL     OW21772   2.246   2.328   5.783
 6958SOL    HW121773   2.263   2.382   5.865
 6958SOL    HW221774   2.333   2.292   5.748
 6959SOL     OW21775   3.217   1.477   4.869
 6959SOL    HW121776   3.127   1.509   4.841
 6959SOL    HW221777   3.237   1.511   4.961
 6960SOL     OW21778   0.070   4.937   0.231
 6960SOL    HW121779   0.040   5.011   0.171
 6960SOL    HW221780   7.022   4.913   0.293
 6961SOL     OW21781   0.797   2.353   3.349
 6961SOL    HW121782   0.748   2.306   3.276
 6961SOL    HW221783   0.762   2.446   3.358
 6962SOL     OW21784   5.625   5.029   2.777
 6962SOL    HW121785   5.651   4.935   2.756
 6962SOL    HW221786   5.526   5.040   2.764
 6963SOL     OW21787   6.980   5.389   1.383
 6963SOL    HW121788   0.040   5.346   1.354
 6963SOL    HW221789   6.988   5.488   1.377
 6964SOL     OW21790   4.556   4.918   5.296
 6964SOL    HW121791   4.457   4.927   5.297
 6964SOL    HW221792   4.592   4.959   5.212
 6965SOL     OW21793   6.499   3.411   6.093
 6965SOL    HW121794   6.511   3.428   5.995
 6965SOL    HW221795   6.447   3.486   6.134
 6966SOL     OW21796   5.509   2.744   3.082
 6966SOL    HW121797   5.479   2.687   3.005
 6966SOL    HW221798   5.435   2.750   3.149
 6967SOL     OW21799   1.852   1.695   5.382
 6967SOL    HW121800   1.944   1.714   5.416
 6967SOL    HW221801   1.837   1.748   5.298
 6968SOL     OW21802   4.069   6.041   1.267
 6968SOL    HW121803   4.082   6.137   1.243
 6968SOL    HW221804   4.130   5.984   1.211
 6969SOL     OW21805   3.726   1.553   1.767
 6969SOL    HW121806   3.767   1.543   1.677
 6969SOL    HW221807   3.693   1.464   1.799
 6970SOL     OW21808   3.960   4.021   0.906
 6970SOL    HW121809   4.045   4.046   0.860
 6970SOL    HW221810   3.922   3.939   0.863
 6971SOL     OW21811   6.638   2.712   1.943
 6971SOL    HW121812   6.662   2.626   1.898
 6971SOL    HW221813   6.670   2.788   1.886
 6972SOL     OW21814   5.359   4.594   4.366
 6972SOL    HW121815   5.429   4.619   4.299
 6972SOL    HW221816   5.351   4.494   4.371
 6973SOL     OW21817   1.607   4.857   5.129
 6973SOL    HW121818   1.552   4.801   5.068
 6973SOL    HW221819   1.701   4.822   5.131
 6974SOL     OW21820   3.705   3.267   3.606
 6974SOL    HW121821   3.768   3.237   3.534
 6974SOL    HW221822   3.612   3.236   3.585
 6975SOL     OW21823   3.367   6.891   5.390
 6975SOL    HW121824   3.306   6.962   5.426
 6975SOL    HW221825   3.411   6.924   5.306
 6976SOL     OW21826   3.569   4.923   6.691
 6976SOL    HW121827   3.585   5.020   6.673
 6976SOL    HW221828   3.479   4.897   6.655
 6977SOL     OW21829   5.051   1.947   2.026
 6977SOL    HW121830   5.029   1.862   2.073
 6977SOL    HW221831   5.149   1.966   2.034
 6978SOL     OW21832   6.496   0.704   1.909
 6978SOL    HW121833   6.489   0.661   1.999
 6978SOL    HW221834   6.564   0.655   1.855
 6979SOL     OW21835   1.345   5.784   2.265
 6979SOL    HW121836   1.380   5.695   2.293
 6979SOL    HW221837   1.368   5.852   2.334
 6980SOL     OW21838   1.932   0.795   3.239
 6980SOL    HW121839   1.959   0.806   3.335
 6980SOL    HW221840   1.852   0.735   3.234
 6981SOL     OW21841   2.582   4.193   6.626
 6981SOL    HW121842   2.532   4.247   6.693
 6981SOL    HW221843   2.520   4.129   6.582
 6982SOL     OW21844   1.680   0.785   4.097
 6982SOL    HW121845   1.604   0.839   4.134
 6982SOL    HW221846   1.690   0.701   4.151
 6983SOL     OW21847   0.325   1.083   4.085
 6983SOL    HW121848   0.229   1.063   4.063
 6983SOL    HW221849   0.354   1.023   4.159
 6984SOL     OW21850   2.227   1.479   5.033
 6984SOL    HW121851   2.137   1.465   5.074
 6984SOL    HW221852   2.221   1.550   4.963
 6985SOL     OW21853   3.873   5.495   2.300
 6985SOL    HW121854   3.826   5.550   2.231
 6985SOL    HW221855   3.834   5.402   2.301
 6986SOL     OW21856   2.183   6.329   5.913
 6986SOL    HW121857   2.139   6.240   5.925
 6986SOL    HW221858   2.113   6.400   5.906
 6987SOL     OW21859   6.929   1.799   5.962
 6987SOL    HW121860   6.971   1.889   5.971
 6987SOL    HW221861   6.999   1.728   5.968
 6988SOL     OW21862   5.953   1.378   4.971
 6988SOL    HW121863   5.925   1.435   5.048
 6988SOL    HW221864   6.032   1.323   4.998
 6989SOL     OW21865   0.906   1.722   3.112
 6989SOL    HW121866   0.988   1.675   3.144
 6989SOL    HW221867   0.887   1.698   3.017
 6990SOL     OW21868   4.774   1.946   0.406
 6990SOL    HW121869   4.748   1.968   0.312
 6990SOL    HW221870   4.840   1.871   0.406
 6991SOL     OW21871   2.615   4.832   5.012
 6991SOL    HW121872   2.541   4.833   5.079
 6991SOL    HW221873   2.661   4.743   5.016
 6992SOL     OW21874   5.976   6.049   4.670
 6992SOL    HW121875   5.883   6.078   4.688
 6992SOL    HW221876   6.040   6.107   4.720
 6993SOL     OW21877   6.265   6.447   3.331
 6993SOL    HW121878   6.339   6.397   3.377
 6993SOL    HW221879   6.304   6.519   3.274
 6994SOL     OW21880   0.788   3.680   5.469
 6994SOL    HW121881   0.862   3.647   5.527
 6994SOL    HW221882   0.714   3.613   5.469
 6995SOL     OW21883   6.132   5.379   4.905
 6995SOL    HW121884   6.124   5.280   4.902
 6995SOL    HW221885   6.041   5.420   4.899
 6996SOL     OW21886   2.785   0.853   5.010
 6996SOL    HW121887   2.796   0.875   4.913
 6996SOL    HW221888   2.723   0.776   5.020
 6997SOL     OW21889   4.930   6.514   5.483
 6997SOL    HW121890   4.891   6.422   5.482
 6997SOL    HW221891   4.970   6.533   5.572
 6998SOL     OW21892   1.854   3.400   1.644
 6998SOL    HW121893   1.788   3.452   1.698
 6998SOL    HW221894   1.858   3.436   1.551
 6999SOL     OW21895   2.547   1.650   6.748
 6999SOL    HW121896   2.547   1.744   6.711
 6999SOL    HW221897   2.641   1.622   6.768
 7000SOL     OW21898   0.447   6.253   2.898
 7000SOL    HW121899   0.355   6.275   2.868
 7000SOL    HW221900   0.510   6.260   2.821
 7001SOL     OW21901   2.699   2.438   5.792
 7001SOL    HW121902   2.695   2.502   5.715
 7001SOL    HW221903   2.794   2.408   5.805
 7002SOL     OW21904   2.536   4.513   3.662
 7002SOL    HW121905   2.484   4.597   3.647
 7002SOL    HW221906   2.545   4.463   3.576
 7003SOL     OW21907   2.966   7.020   6.907
 7003SOL    HW121908   2.872   6.986   6.910
 7003SOL    HW221909   2.979   0.062   6.980
 7004SOL     OW21910   2.064   4.379   1.701
 7004SOL    HW121911   2.164   4.373   1.700
 7004SOL    HW221912   2.025   4.294   1.664
 7005SOL     OW21913   0.227   6.167   5.653
 7005SOL    HW121914   0.136   6.159   5.613
 7005SOL    HW221915   0.292   6.111   5.601
 7006SOL     OW21916   5.203   4.447   5.221
 7006SOL    HW121917   5.192   4.350   5.200
 7006SOL    HW221918   5.191   4.461   5.319
 7007SOL     OW21919   5.056   6.643   3.272
 7007SOL    HW121920   5.095   6.729   3.240
 7007SOL    HW221921   5.067   6.573   3.201
 7008SOL     OW21922   2.325   4.837   4.061
 7008SOL    HW121923   2.242   4.885   4.089
 7008SOL    HW221924   2.359   4.782   4.137
 7009SOL     OW21925   6.537   5.172   2.314
 7009SOL    HW121926   6.487   5.131   2.390
 7009SOL    HW221927   6.631   5.138   2.314
 7010SOL     OW21928   4.083   5.002   5.758
 7010SOL    HW121929   4.121   5.072   5.819
 7010SOL    HW221930   4.092   4.912   5.802
 7011SOL     OW21931   1.314   6.643   5.462
 7011SOL    HW121932   1.307   6.675   5.367
 7011SOL    HW221933   1.395   6.585   5.472
 7012SOL     OW21934   1.326   0.764   1.670
 7012SOL    HW121935   1.391   0.836   1.692
 7012SOL    HW221936   1.371   0.675   1.679
 7013SOL     OW21937   0.757   6.734   0.929
 7013SOL    HW121938   0.850   6.703   0.947
 7013SOL    HW221939   0.700   6.720   1.010
 7014SOL     OW21940   4.580   4.107   0.919
 7014SOL    HW121941   4.549   4.106   1.014
 7014SOL    HW221942   4.634   4.025   0.901
 7015SOL     OW21943   5.728   3.763   1.817
 7015SOL    HW121944   5.746   3.856   1.848
 7015SOL    HW221945   5.814   3.712   1.813
 7016SOL     OW21946   4.314   4.836   2.246
 7016SOL    HW121947   4.356   4.906   2.304
 7016SOL    HW221948   4.216   4.832   2.264
 7017SOL     OW21949   2.435   1.360   2.132
 7017SOL    HW121950   2.396   1.312   2.054
 7017SOL    HW221951   2.386   1.335   2.215
 7018SOL     OW21952   0.032   4.164   4.993
 7018SOL    HW121953   7.025   4.181   4.900
 7018SOL    HW221954   0.097   4.235   5.019
 7019SOL     OW21955   2.725   4.910   6.507
 7019SOL    HW121956   2.680   4.820   6.507
 7019SOL    HW221957   2.673   4.973   6.450
 7020SOL     OW21958   5.348   7.014   0.389
 7020SOL    HW121959   5.253   0.020   0.392
 7020SOL    HW221960   5.351   6.914   0.389
 7021SOL     OW21961   2.824   0.958   5.254
 7021SOL    HW121962   2.804   0.939   5.158
 7021SOL    HW221963   2.745   0.933   5.310
 7022SOL     OW21964   5.323   4.210   0.371
 7022SOL    HW121965   5.246   4.165   0.326
 7022SOL    HW221966   5.392   4.142   0.395
 7023SOL     OW21967   6.421   2.363   3.112
 7023SOL    HW121968   6.397   2.267   3.103
 7023SOL    HW221969   6.481   2.390   3.038
 7024SOL     OW21970   1.697   5.876   6.561
 7024SOL    HW121971   1.746   5.907   6.479
 7024SOL    HW221972   1.622   5.816   6.535
 7025SOL     OW21973   3.320   1.581   6.581
 7025SOL    HW121974   3.418   1.569   6.591
 7025SOL    HW221975   3.287   1.524   6.505
 7026SOL     OW21976   2.763   1.483   1.913
 7026SOL    HW121977   2.731   1.391   1.889
 7026SOL    HW221978   2.838   1.509   1.852
 7027SOL     OW21979   3.493   5.813   3.102
 7027SOL    HW121980   3.479   5.794   3.200
 7027SOL    HW221981   3.549   5.895   3.092
 7028SOL     OW21982   5.599   6.414   4.485
 7028SOL    HW121983   5.672   6.451   4.542
 7028SOL    HW221984   5.557   6.336   4.531
 7029SOL     OW21985   3.833   6.498   6.625
 7029SOL    HW121986   3.734   6.490   6.618
 7029SOL    HW221987   3.872   6.409   6.650
 7030SOL     OW21988   0.523   3.541   5.996
 7030SOL    HW121989   0.459   3.483   5.947
 7030SOL    HW221990   0.572   3.599   5.932
 7031SOL     OW21991   2.351   5.631   3.627
 7031SOL    HW121992   2.427   5.666   3.682
 7031SOL    HW221993   2.281   5.592   3.686
 7032SOL     OW21994   4.270   6.913   3.477
 7032SOL    HW121995   4.252   7.006   3.508
 7032SOL    HW221996   4.184   6.868   3.452
 7033SOL     OW21997   6.559   1.350   4.238
 7033SOL    HW121998   6.579   1.252   4.246
 7033SOL    HW221999   6.463   1.366   4.263
 7034SOL     OW22000   5.402   0.828   2.910
 7034SOL    HW122001   5.392   0.769   2.830
 7034SOL    HW222002   5.369   0.920   2.888
 7035SOL     OW22003   1.165   6.641   2.800
 7035SOL    HW122004   1.263   6.655   2.813
 7035SOL    HW222005   1.144   6.639   2.702
 7036SOL     OW22006   6.639   5.893   1.583
 7036SOL    HW122007   6.631   5.849   1.494
 7036SOL    HW222008   6.679   5.829   1.648
 7037SOL     OW22009   0.282   6.726   6.486
 7037SOL    HW122010   0.302   6.717   6.584
 7037SOL    HW222011   0.218   6.801   6.471
 7038SOL     OW22012   1.802   3.649   4.353
 7038SOL    HW122013   1.880   3.632   4.412
 7038SOL    HW222014   1.761   3.562   4.325
 7039SOL     OW22015   3.169   6.582   0.188
 7039SOL    HW122016   3.125   6.669   0.167
 7039SOL    HW222017   3.159   6.563   0.286
 7040SOL     OW22018   4.799   2.484   5.996
 7040SOL    HW122019   4.816   2.387   6.013
 7040SOL    HW222020   4.744   2.494   5.913
 7041SOL     OW22021   1.280   1.912   3.118
 7041SOL    HW122022   1.254   1.858   3.038
 7041SOL    HW222023   1.270   2.009   3.098
 7042SOL     OW22024   5.339   5.298   6.270
 7042SOL    HW122025   5.263   5.233   6.277
 7042SOL    HW222026   5.423   5.249   6.246
 7043SOL     OW22027   2.218   2.813   2.947
 7043SOL    HW122028   2.252   2.901   2.913
 7043SOL    HW222029   2.124   2.825   2.981
 7044SOL     OW22030   4.781   4.745   2.922
 7044SOL    HW122031   4.873   4.782   2.939
 7044SOL    HW222032   4.789   4.654   2.882
 7045SOL     OW22033   4.671   6.458   1.292
 7045SOL    HW122034   4.665   6.534   1.227
 7045SOL    HW222035   4.760   6.413   1.281
 7046SOL     OW22036   3.733   1.979   4.048
 7046SOL    HW122037   3.689   2.016   3.966
 7046SOL    HW222038   3.783   2.051   4.095
 7047SOL     OW22039   1.213   2.364   3.255
 7047SOL    HW122040   1.246   2.317   3.337
 7047SOL    HW222041   1.291   2.400   3.204
 7048SOL     OW22042   1.263   5.885   1.439
 7048SOL    HW122043   1.188   5.863   1.376
 7048SOL    HW222044   1.350   5.856   1.399
 7049SOL     OW22045   2.651   0.720   0.800
 7049SOL    HW122046   2.716   0.667   0.854
 7049SOL    HW222047   2.594   0.776   0.861
 7050SOL     OW22048   3.344   4.124   3.557
 7050SOL    HW122049   3.330   4.221   3.575
 7050SOL    HW222050   3.432   4.095   3.592
 7051SOL     OW22051   0.266   0.263   1.074
 7051SOL    HW122052   0.273   0.239   1.171
 7051SOL    HW222053   0.275   0.362   1.064
 7052SOL     OW22054   6.505   2.236   4.470
 7052SOL    HW122055   6.453   2.182   4.536
 7052SOL    HW222056   6.489   2.334   4.486
 7053SOL     OW22057   0.178   3.311   6.551
 7053SOL    HW122058   0.171   3.222   6.506
 7053SOL    HW222059   0.092   3.362   6.538
 7054SOL     OW22060   0.937   6.363   1.076
 7054SOL    HW122061   0.902   6.367   1.169
 7054SOL    HW222062   0.868   6.318   1.017
 7055SOL     OW22063   4.386   6.406   5.541
 7055SOL    HW122064   4.299   6.438   5.504
 7055SOL    HW222065   4.460   6.426   5.477
 7056SOL     OW22066   5.776   5.007   3.401
 7056SOL    HW122067   5.737   5.030   3.312
 7056SOL    HW222068   5.734   5.063   3.472
 7057SOL     OW22069   0.600   4.097   4.526
 7057SOL    HW122070   0.581   4.021   4.463
 7057SOL    HW222071   0.669   4.156   4.486
 7058SOL     OW22072   0.144   5.794   5.437
 7058SOL    HW122073   0.111   5.729   5.505
 7058SOL    HW222074   0.224   5.756   5.391
 7059SOL     OW22075   0.024   0.430   2.159
 7059SOL    HW122076   6.966   0.454   2.209
 7059SOL    HW222077   0.044   0.501   2.092
 7060SOL     OW22078   3.659   0.043   1.526
 7060SOL    HW122079   3.667   6.984   1.474
 7060SOL    HW222080   3.717   0.113   1.485
 7061SOL     OW22081   0.051   1.904   3.679
 7061SOL    HW122082   0.094   1.970   3.618
 7061SOL    HW222083   0.012   1.951   3.758
 7062SOL     OW22084   5.705   1.391   5.619
 7062SOL    HW122085   5.767   1.315   5.600
 7062SOL    HW222086   5.687   1.441   5.534
 7063SOL     OW22087   1.397   6.373   0.728
 7063SOL    HW122088   1.338   6.401   0.653
 7063SOL    HW222089   1.365   6.286   0.767
 7064SOL     OW22090   4.330   2.345   1.604
 7064SOL    HW122091   4.301   2.257   1.643
 7064SOL    HW222092   4.306   2.347   1.507
 7065SOL     OW22093   5.145   3.888   1.176
 7065SOL    HW122094   5.152   3.794   1.142
 7065SOL    HW222095   5.052   3.922   1.162
 7066SOL     OW22096   3.622   0.413   0.631
 7066SOL    HW122097   3.602   0.360   0.549
 7066SOL    HW222098   3.705   0.467   0.617
 7067SOL     OW22099   1.460   2.792   5.484
 7067SOL    HW122100   1.487   2.773   5.390
 7067SOL    HW222101   1.361   2.802   5.490
 7068SOL     OW22102   0.678   3.510   3.046
 7068SOL    HW122103   0.742   3.492   3.121
 7068SOL    HW222104   0.723   3.489   2.958
 7069SOL     OW22105   6.589   3.240   4.804
 7069SOL    HW122106   6.500   3.274   4.775
 7069SOL    HW222107   6.579   3.189   4.890
 7070SOL     OW22108   6.531   5.472   4.988
 7070SOL    HW122109   6.625   5.507   4.990
 7070SOL    HW222110   6.511   5.434   4.898
 7071SOL     OW22111   0.339   6.845   5.182
 7071SOL    HW122112   0.294   6.933   5.166
 7071SOL    HW222113   0.436   6.853   5.160
 7072SOL     OW22114   6.722   0.612   5.978
 7072SOL    HW122115   6.658   0.536   5.965
 7072SOL    HW222116   6.794   0.585   6.042
 7073SOL     OW22117   6.461   0.689   4.554
 7073SOL    HW122118   6.516   0.631   4.614
 7073SOL    HW222119   6.488   0.784   4.567
 7074SOL     OW22120   3.615   3.093   2.217
 7074SOL    HW122121   3.640   3.184   2.187
 7074SOL    HW222122   3.517   3.091   2.240
 7075SOL     OW22123   1.282   6.427   4.375
 7075SOL    HW122124   1.191   6.418   4.336
 7075SOL    HW222125   1.284   6.385   4.466
 7076SOL     OW22126   4.065   2.209   0.578
 7076SOL    HW122127   4.023   2.271   0.512
 7076SOL    HW222128   4.161   2.195   0.554
 7077SOL     OW22129   2.231   5.568   5.528
 7077SOL    HW122130   2.134   5.543   5.525
 7077SOL    HW222131   2.274   5.546   5.441
 7078SOL     OW22132   6.469   0.225   2.154
 7078SOL    HW122133   6.414   0.282   2.093
 7078SOL    HW222134   6.416   0.145   2.182
 7079SOL     OW22135   6.541   6.543   5.941
 7079SOL    HW122136   6.559   6.608   6.015
 7079SOL    HW222137   6.514   6.593   5.859
 7080SOL     OW22138   4.353   2.008   3.996
 7080SOL    HW122139   4.344   2.006   3.896
 7080SOL    HW222140   4.449   2.016   4.021
 7081SOL     OW22141   3.815   0.854   5.394
 7081SOL    HW122142   3.780   0.932   5.446
 7081SOL    HW222143   3.741   0.814   5.340
 7082SOL     OW22144   5.472   6.397   0.689
 7082SOL    HW122145   5.481   6.458   0.767
 7082SOL    HW222146   5.538   6.322   0.697
 7083SOL     OW22147   3.129   1.337   6.154
 7083SOL    HW122148   3.083   1.255   6.187
 7083SOL    HW222149   3.152   1.326   6.057
 7084SOL     OW22150   6.897   0.049   5.225
 7084SOL    HW122151   6.947   0.043   5.312
 7084SOL    HW222152   6.925   7.000   5.165
 7085SOL     OW22153   1.773   1.033   3.212
 7085SOL    HW122154   1.782   0.933   3.211
 7085SOL    HW222155   1.808   1.068   3.299
 7086SOL     OW22156   5.453   1.471   6.188
 7086SOL    HW122157   5.516   1.439   6.259
 7086SOL    HW222158   5.363   1.432   6.204
 7087SOL     OW22159   0.259   3.576   3.877
 7087SOL    HW122160   0.188   3.559   3.945
 7087SOL    HW222161   0.229   3.541   3.788
 7088SOL     OW22162   4.895   3.024   4.175
 7088SOL    HW122163   4.897   3.017   4.275
 7088SOL    HW222164   4.897   3.120   4.149
 7089SOL     OW22165   3.233   2.573   6.120
 7089SOL    HW122166   3.147   2.622   6.134
 7089SOL    HW222167   3.223   2.508   6.045
 7090SOL     OW22168   2.499   1.237   5.779
 7090SOL    HW122169   2.418   1.242   5.720
 7090SOL    HW222170   2.569   1.182   5.733
 7091SOL     OW22171   7.003   1.787   6.492
 7091SOL    HW122172   0.056   1.849   6.494
 7091SOL    HW222173   7.006   1.727   6.572
 7092SOL     OW22174   4.204   2.994   0.071
 7092SOL    HW122175   4.232   2.985   0.166
 7092SOL    HW222176   4.187   2.904   0.032
 7093SOL     OW22177   2.984   3.809   3.905
 7093SOL    HW122178   3.010   3.866   3.982
 7093SOL    HW222179   3.027   3.842   3.822
 7094SOL     OW22180   0.316   6.640   5.614
 7094SOL    HW122181   0.293   6.554   5.659
 7094SOL    HW222182   0.363   6.700   5.678
 7095SOL     OW22183   2.929   2.831   6.928
 7095SOL    HW122184   2.852   2.846   6.866
 7095SOL    HW222185   3.012   2.814   6.875
 7096SOL     OW22186   6.069   1.333   3.917
 7096SOL    HW122187   6.116   1.405   3.865
 7096SOL    HW222188   6.037   1.370   4.004
 7097SOL     OW22189   6.656   0.593   1.707
 7097SOL    HW122190   6.720   0.611   1.781
 7097SOL    HW222191   6.704   0.551   1.630
 7098SOL     OW22192   1.053   6.216   5.093
 7098SOL    HW122193   1.018   6.123   5.087
 7098SOL    HW222194   1.029   6.266   5.009
 7099SOL     OW22195   2.009   0.840   4.262
 7099SOL    HW122196   1.928   0.889   4.293
 7099SOL    HW222197   2.013   0.840   4.162
 7100SOL     OW22198   5.052   3.519   1.005
 7100SOL    HW122199   5.116   3.564   1.067
 7100SOL    HW222200   4.960   3.521   1.044
 7101SOL     OW22201   2.216   0.367   4.641
 7101SOL    HW122202   2.258   0.442   4.692
 7101SOL    HW222203   2.126   0.347   4.679
 7102SOL     OW22204   4.286   0.590   0.987
 7102SOL    HW122205   4.324   0.675   1.023
 7102SOL    HW222206   4.335   0.564   0.904
 7103SOL     OW22207   3.901   5.755   0.145
 7103SOL    HW122208   3.860   5.823   0.084
 7103SOL    HW222209   3.937   5.801   0.226
 7104SOL     OW22210   1.040   3.455   4.529
 7104SOL    HW122211   1.077   3.407   4.609
 7104SOL    HW222212   0.940   3.443   4.527
 7105SOL     OW22213   3.644   3.052   5.403
 7105SOL    HW122214   3.708   3.064   5.327
 7105SOL    HW222215   3.562   3.108   5.388
 7106SOL     OW22216   3.621   2.852   3.649
 7106SOL    HW122217   3.708   2.869   3.694
 7106SOL    HW222218   3.637   2.796   3.567
 7107SOL     OW22219   2.786   0.872   0.595
 7107SOL    HW122220   2.749   0.881   0.688
 7107SOL    HW222221   2.772   0.778   0.563
 7108SOL     OW22222   4.542   6.383   1.067
 7108SOL    HW122223   4.588   6.385   1.156
 7108SOL    HW222224   4.464   6.445   1.069
 7109SOL     OW22225   3.664   6.837   6.390
 7109SOL    HW122226   3.619   6.924   6.407
 7109SOL    HW222227   3.719   6.812   6.469
 7110SOL     OW22228   5.414   5.160   3.784
 7110SOL    HW122229   5.317   5.177   3.762
 7110SOL    HW222230   5.448   5.233   3.842
 7111SOL     OW22231   1.509   3.096   4.553
 7111SOL    HW122232   1.536   3.191   4.536
 7111SOL    HW222233   1.465   3.088   4.642
 7112SOL     OW22234   1.844   5.662   4.304
 7112SOL    HW122235   1.881   5.692   4.392
 7112SOL    HW222236   1.917   5.624   4.248
 7113SOL     OW22237   2.965   3.812   4.546
 7113SOL    HW122238   2.963   3.912   4.542
 7113SOL    HW222239   2.920   3.781   4.630
 7114SOL     OW22240   4.274   6.863   1.492
 7114SOL    HW122241   4.354   6.922   1.493
 7114SOL    HW222242   4.249   6.839   1.586
 7115SOL     OW22243   5.043   2.279   1.783
 7115SOL    HW122244   5.130   2.324   1.805
 7115SOL    HW222245   5.061   2.197   1.728
 7116SOL     OW22246   5.577   3.230   3.352
 7116SOL    HW122247   5.623   3.258   3.267
 7116SOL    HW222248   5.645   3.222   3.425
 7117SOL     OW22249   0.110   0.076   4.620
 7117SOL    HW122250   0.045   0.059   4.694
 7117SOL    HW222251   0.120   7.019   4.564
 7118SOL     OW22252   4.491   3.009   0.703
 7118SOL    HW122253   4.501   2.987   0.800
 7118SOL    HW222254   4.394   3.007   0.677
 7119SOL     OW22255   4.811   1.294   3.569
 7119SOL    HW122256   4.804   1.226   3.641
 7119SOL    HW222257   4.767   1.379   3.599
 7120SOL     OW22258   3.806   1.392   2.922
 7120SOL    HW122259   3.818   1.490   2.939
 7120SOL    HW222260   3.734   1.378   2.854
 7121SOL     OW22261   2.018   0.228   2.863
 7121SOL    HW122262   2.090   0.273   2.810
 7121SOL    HW222263   1.980   0.293   2.929
 7122SOL     OW22264   6.372   1.317   6.571
 7122SOL    HW122265   6.332   1.375   6.501
 7122SOL    HW222266   6.304   1.251   6.604
 7123SOL     OW22267   3.161   5.380   1.451
 7123SOL    HW122268   3.107   5.385   1.367
 7123SOL    HW222269   3.222   5.300   1.446
 7124SOL     OW22270   1.257   3.852   0.293
 7124SOL    HW122271   1.240   3.863   0.195
 7124SOL    HW222272   1.231   3.760   0.321
 7125SOL     OW22273   6.939   6.343   1.421
 7125SOL    HW122274   6.910   6.310   1.331
 7125SOL    HW222275   0.013   6.348   1.424
 7126SOL     OW22276   2.226   4.500   0.287
 7126SOL    HW122277   2.237   4.543   0.197
 7126SOL    HW222278   2.276   4.553   0.356
 7127SOL     OW22279   2.574   5.422   4.344
 7127SOL    HW122280   2.651   5.405   4.406
 7127SOL    HW222281   2.604   5.410   4.249
 7128SOL     OW22282   3.022   5.049   0.485
 7128SOL    HW122283   3.076   5.132   0.485
 7128SOL    HW222284   2.981   5.035   0.395
 7129SOL     OW22285   3.374   0.710   0.899
 7129SOL    HW122286   3.328   0.797   0.878
 7129SOL    HW222287   3.392   0.660   0.814
 7130SOL     OW22288   3.340   4.907   4.882
 7130SOL    HW122289   3.407   4.929   4.811
 7130SOL    HW222290   3.271   4.844   4.845
 7131SOL     OW22291   2.446   2.240   0.211
 7131SOL    HW122292   2.473   2.336   0.216
 7131SOL    HW222293   2.521   2.187   0.171
 7132SOL     OW22294   3.368   3.972   1.507
 7132SOL    HW122295   3.330   3.939   1.421
 7132SOL    HW222296   3.295   4.002   1.567
 7133SOL     OW22297   5.389   4.933   3.300
 7133SOL    HW122298   5.324   4.888   3.361
 7133SOL    HW222299   5.466   4.967   3.353
 7134SOL     OW22300   6.028   5.430   3.022
 7134SOL    HW122301   6.048   5.527   3.035
 7134SOL    HW222302   5.948   5.405   3.077
 7135SOL     OW22303   1.589   1.561   3.211
 7135SOL    HW122304   1.685   1.550   3.237
 7135SOL    HW222305   1.557   1.651   3.240
 7136SOL     OW22306   2.406   2.049   0.629
 7136SOL    HW122307   2.386   1.975   0.692
 7136SOL    HW222308   2.427   2.132   0.680
 7137SOL     OW22309   5.050   0.942   5.391
 7137SOL    HW122310   5.129   0.958   5.331
 7137SOL    HW222311   4.986   0.881   5.346
 7138SOL     OW22312   2.869   2.427   0.944
 7138SOL    HW122313   2.929   2.488   0.892
 7138SOL    HW222314   2.863   2.459   1.039
 7139SOL     OW22315   4.879   3.055   2.236
 7139SOL    HW122316   4.830   3.035   2.151
 7139SOL    HW222317   4.854   2.987   2.306
 7140SOL     OW22318   6.252   3.297   5.016
 7140SOL    HW122319   6.222   3.373   4.957
 7140SOL    HW222320   6.351   3.302   5.029
 7141SOL     OW22321   3.191   6.854   1.014
 7141SOL    HW122322   3.202   6.953   1.005
 7141SOL    HW222323   3.095   6.833   1.034
 7142SOL     OW22324   4.231   6.684   2.858
 7142SOL    HW122325   4.181   6.765   2.828
 7142SOL    HW222326   4.181   6.640   2.933
 7143SOL     OW22327   1.084   2.326   6.608
 7143SOL    HW122328   1.010   2.394   6.605
 7143SOL    HW222329   1.172   2.373   6.609
 7144SOL     OW22330   1.012   1.452   2.896
 7144SOL    HW122331   1.104   1.420   2.873
 7144SOL    HW222332   0.986   1.526   2.835
 7145SOL     OW22333   4.015   6.282   5.955
 7145SOL    HW122334   4.082   6.222   6.000
 7145SOL    HW222335   4.040   6.378   5.972
 7146SOL     OW22336   2.362   0.476   0.086
 7146SOL    HW122337   2.373   0.559   0.031
 7146SOL    HW222338   2.440   0.415   0.070
 7147SOL     OW22339   6.412   6.613   3.573
 7147SOL    HW122340   6.327   6.657   3.547
 7147SOL    HW222341   6.405   6.579   3.667
 7148SOL     OW22342   0.367   6.064   1.912
 7148SOL    HW122343   0.298   6.137   1.911
 7148SOL    HW222344   0.454   6.100   1.879
 7149SOL     OW22345   6.944   6.675   3.376
 7149SOL    HW122346   6.887   6.642   3.452
 7149SOL    HW222347   6.956   6.773   3.384
 7150SOL     OW22348   4.783   2.854   1.677
 7150SOL    HW122349   4.840   2.914   1.733
 7150SOL    HW222350   4.691   2.848   1.717
 7151SOL     OW22351   0.674   5.437   0.921
 7151SOL    HW122352   0.646   5.508   0.856
 7151SOL    HW222353   0.773   5.430   0.921
 7152SOL     OW22354   0.408   2.792   5.580
 7152SOL    HW122355   0.436   2.696   5.585
 7152SOL    HW222356   0.325   2.801   5.525
 7153SOL     OW22357   3.247   6.068   4.561
 7153SOL    HW122358   3.180   6.077   4.635
 7153SOL    HW222359   3.330   6.026   4.596
 7154SOL     OW22360   4.028   5.976   4.966
 7154SOL    HW122361   4.029   5.939   5.059
 7154SOL    HW222362   3.999   5.904   4.902
 7155SOL     OW22363   1.744   6.500   1.564
 7155SOL    HW122364   1.819   6.546   1.517
 7155SOL    HW222365   1.691   6.446   1.499
 7156SOL     OW22366   0.945   5.079   4.622
 7156SOL    HW122367   1.009   5.113   4.553
 7156SOL    HW222368   0.993   5.019   4.686
 7157SOL     OW22369   6.102   5.048   1.123
 7157SOL    HW122370   6.186   5.063   1.175
 7157SOL    HW222371   6.029   5.019   1.184
 7158SOL     OW22372   0.117   6.981   3.293
 7158SOL    HW122373   0.052   0.005   3.235
 7158SOL    HW222374   0.078   6.973   3.385
 7159SOL     OW22375   0.304   4.259   2.195
 7159SOL    HW122376   0.248   4.332   2.156
 7159SOL    HW222377   0.336   4.198   2.123
 7160SOL     OW22378   6.646   0.792   3.034
 7160SOL    HW122379   6.549   0.803   3.012
 7160SOL    HW222380   6.683   0.713   2.985
 7161SOL     OW22381   3.129   4.008   4.377
 7161SOL    HW122382   3.159   4.036   4.285
 7161SOL    HW222383   3.209   3.985   4.432
 7162SOL     OW22384   2.794   6.003   5.305
 7162SOL    HW122385   2.877   6.038   5.348
 7162SOL    HW222386   2.751   6.075   5.251
 7163SOL     OW22387   3.234   6.678   3.940
 7163SOL    HW122388   3.199   6.649   3.851
 7163SOL    HW222389   3.261   6.597   3.993
 7164SOL     OW22390   2.036   2.298   2.828
 7164SOL    HW122391   2.077   2.325   2.740
 7164SOL    HW222392   2.016   2.379   2.881
 7165SOL     OW22393   5.961   0.775   1.153
 7165SOL    HW122394   5.904   0.854   1.129
 7165SOL    HW222395   5.922   0.728   1.232
 7166SOL     OW22396   5.351   3.921   0.977
 7166SOL    HW122397   5.340   3.827   0.947
 7166SOL    HW222398   5.291   3.939   1.055
 7167SOL     OW22399   4.887   4.080   5.152
 7167SOL    HW122400   4.908   4.072   5.250
 7167SOL    HW222401   4.952   4.143   5.109
 7168SOL     OW22402   1.143   2.470   3.681
 7168SOL    HW122403   1.125   2.565   3.708
 7168SOL    HW222404   1.157   2.415   3.763
 7169SOL     OW22405   0.993   3.057   4.682
 7169SOL    HW122406   1.050   3.093   4.608
 7169SOL    HW222407   0.968   3.131   4.745
 7170SOL     OW22408   4.225   5.286   3.578
 7170SOL    HW122409   4.288   5.362   3.592
 7170SOL    HW222410   4.131   5.319   3.587
 7171SOL     OW22411   5.832   4.195   6.014
 7171SOL    HW122412   5.774   4.255   5.959
 7171SOL    HW222413   5.797   4.102   6.010
 7172SOL     OW22414   1.335   0.155   6.046
 7172SOL    HW122415   1.347   0.123   6.140
 7172SOL    HW222416   1.259   0.106   6.003
 7173SOL     OW22417   0.457   4.419   5.380
 7173SOL    HW122418   0.370   4.469   5.379
 7173SOL    HW222419   0.526   4.471   5.329
 7174SOL     OW22420   1.076   5.358   6.773
 7174SOL    HW122421   1.107   5.363   6.678
 7174SOL    HW222422   1.052   5.264   6.795
 7175SOL     OW22423   5.745   3.233   0.591
 7175SOL    HW122424   5.833   3.269   0.561
 7175SOL    HW222425   5.740   3.237   0.691
 7176SOL     OW22426   0.203   5.505   2.774
 7176SOL    HW122427   0.214   5.413   2.735
 7176SOL    HW222428   0.289   5.533   2.816
 7177SOL     OW22429   2.492   6.205   3.545
 7177SOL    HW122430   2.558   6.269   3.504
 7177SOL    HW222431   2.539   6.150   3.614
 7178SOL     OW22432   2.479   2.612   5.464
 7178SOL    HW122433   2.455   2.708   5.454
 7178SOL    HW222434   2.403   2.562   5.506
 7179SOL     OW22435   1.730   3.158   5.206
 7179SOL    HW122436   1.787   3.149   5.288
 7179SOL    HW222437   1.647   3.209   5.229
 7180SOL     OW22438   1.258   5.375   6.095
 7180SOL    HW122439   1.271   5.440   6.170
 7180SOL    HW222440   1.166   5.336   6.101
 7181SOL     OW22441   2.941   6.749   1.083
 7181SOL    HW122442   2.915   6.715   0.993
 7181SOL    HW222443   2.860   6.783   1.131
 7182SOL     OW22444   1.061   3.084   5.466
 7182SOL    HW122445   0.980   3.037   5.431
 7182SOL    HW222446   1.050   3.104   5.563
 7183SOL     OW22447   1.896   4.841   1.851
 7183SOL    HW122448   1.925   4.784   1.775
 7183SOL    HW222449   1.886   4.785   1.933
 7184SOL     OW22450   0.612   6.943   3.595
 7184SOL    HW122451   0.553   7.018   3.626
 7184SOL    HW222452   0.695   6.941   3.652
 7185SOL     OW22453   4.760   2.209   5.949
 7185SOL    HW122454   4.785   2.162   6.034
 7185SOL    HW222455   4.787   2.153   5.871
 7186SOL     OW22456   0.120   0.167   5.758
 7186SOL    HW122457   0.187   0.142   5.688
 7186SOL    HW222458   0.034   0.118   5.741
 7187SOL     OW22459   1.674   4.656   1.250
 7187SOL    HW122460   1.729   4.733   1.219
 7187SOL    HW222461   1.619   4.684   1.329
 7188SOL     OW22462   5.396   0.029   0.686
 7188SOL    HW122463   5.400   0.128   0.693
 7188SOL    HW222464   5.401   0.002   0.589
 7189SOL     OW22465   6.204   1.089   6.954
 7189SOL    HW122466   6.207   1.160   6.884
 7189SOL    HW222467   6.164   1.006   6.915
 7190SOL     OW22468   5.352   3.476   3.187
 7190SOL    HW122469   5.383   3.426   3.106
 7190SOL    HW222470   5.431   3.511   3.238
 7191SOL     OW22471   0.634   4.450   2.479
 7191SOL    HW122472   0.566   4.409   2.418
 7191SOL    HW222473   0.712   4.482   2.425
 7192SOL     OW22474   2.059   5.974   4.588
 7192SOL    HW122475   2.033   5.987   4.684
 7192SOL    HW222476   2.082   6.063   4.548
 7193SOL     OW22477   3.242   2.026   3.269
 7193SOL    HW122478   3.227   2.068   3.179
 7193SOL    HW222479   3.154   2.003   3.310
 7194SOL     OW22480   2.486   2.253   1.057
 7194SOL    HW122481   2.470   2.212   1.147
 7194SOL    HW222482   2.508   2.350   1.067
 7195SOL     OW22483   0.434   5.255   6.986
 7195SOL    HW122484   0.437   5.314   0.041
 7195SOL    HW222485   0.528   5.236   6.956
 7196SOL     OW22486   2.879   3.568   2.494
 7196SOL    HW122487   2.915   3.501   2.560
 7196SOL    HW222488   2.871   3.525   2.404
 7197SOL     OW22489   6.989   2.461   5.916
 7197SOL    HW122490   6.908   2.508   5.879
 7197SOL    HW222491   6.966   2.421   6.004
 7198SOL     OW22492   0.730   0.584   5.118
 7198SOL    HW122493   0.732   0.649   5.194
 7198SOL    HW222494   0.636   0.551   5.105
 7199SOL     OW22495   1.787   0.644   2.161
 7199SOL    HW122496   1.794   0.691   2.073
 7199SOL    HW222497   1.706   0.675   2.210
 7200SOL     OW22498   2.497   0.931   0.019
 7200SOL    HW122499   2.453   0.842   0.017
 7200SOL    HW222500   2.529   0.955   6.953
 7201SOL     OW22501   1.496   4.912   3.382
 7201SOL    HW122502   1.563   4.979   3.413
 7201SOL    HW222503   1.475   4.927   3.286
 7202SOL     OW22504   3.696   0.272   6.280
 7202SOL    HW122505   3.776   0.227   6.238
 7202SOL    HW222506   3.631   0.298   6.209
 7203SOL     OW22507   5.728   1.282   0.706
 7203SOL    HW122508   5.701   1.264   0.800
 7203SOL    HW222509   5.828   1.284   0.700
 7204SOL     OW22510   5.778   6.705   4.636
 7204SOL    HW122511   5.804   6.610   4.618
 7204SOL    HW222512   5.718   6.707   4.716
 7205SOL     OW22513   1.796   6.360   3.421
 7205SOL    HW122514   1.758   6.349   3.329
 7205SOL    HW222515   1.728   6.332   3.489
 7206SOL     OW22516   0.859   0.603   1.567
 7206SOL    HW122517   0.954   0.595   1.597
 7206SOL    HW222518   0.852   0.672   1.495
 7207SOL     OW22519   3.668   6.872   1.314
 7207SOL    HW122520   3.709   6.795   1.363
 7207SOL    HW222521   3.572   6.852   1.295
 7208SOL     OW22522   4.392   6.482   4.242
 7208SOL    HW122523   4.429   6.391   4.225
 7208SOL    HW222524   4.294   6.476   4.260
 7209SOL     OW22525   3.141   3.198   3.455
 7209SOL    HW122526   3.110   3.192   3.361
 7209SOL    HW222527   3.125   3.290   3.490
 7210SOL     OW22528   5.271   0.123   3.591
 7210SOL    HW122529   5.260   0.122   3.690
 7210SOL    HW222530   5.327   0.201   3.564
 7211SOL     OW22531   1.426   5.740   3.663
 7211SOL    HW122532   1.360   5.706   3.730
 7211SOL    HW222533   1.378   5.788   3.590
 7212SOL     OW22534   0.942   5.774   3.649
 7212SOL    HW122535   0.987   5.834   3.583
 7212SOL    HW222536   0.988   5.686   3.651
 7213SOL     OW22537   5.858   0.031   5.536
 7213SOL    HW122538   5.782   0.084   5.574
 7213SOL    HW222539   5.928   0.017   5.606
 7214SOL     OW22540   2.448   5.102   4.156
 7214SOL    HW122541   2.497   5.016   4.170
 7214SOL    HW222542   2.385   5.092   4.078
 7215SOL     OW22543   0.687   3.529   4.342
 7215SOL    HW122544   0.747   3.598   4.301
 7215SOL    HW222545   0.602   3.572   4.372
 7216SOL     OW22546   2.288   6.177   6.769
 7216SOL    HW122547   2.329   6.085   6.767
 7216SOL    HW222548   2.355   6.244   6.736
 7217SOL     OW22549   1.734   4.792   1.505
 7217SOL    HW122550   1.797   4.714   1.497
 7217SOL    HW222551   1.689   4.790   1.594
 7218SOL     OW22552   4.428   2.991   5.775
 7218SOL    HW122553   4.336   3.020   5.803
 7218SOL    HW222554   4.433   2.892   5.778
 7219SOL     OW22555   4.771   5.673   3.100
 7219SOL    HW122556   4.721   5.592   3.131
 7219SOL    HW222557   4.767   5.744   3.171
 7220SOL     OW22558   6.624   5.636   3.550
 7220SOL    HW122559   6.659   5.728   3.561
 7220SOL    HW222560   6.529   5.640   3.518
 7221SOL     OW22561   5.165   5.339   4.969
 7221SOL    HW122562   5.190   5.317   4.874
 7221SOL    HW222563   5.246   5.371   5.018
 7222SOL     OW22564   6.323   6.474   0.428
 7222SOL    HW122565   6.374   6.437   0.506
 7222SOL    HW222566   6.263   6.547   0.459
 7223SOL     OW22567   3.128   1.643   1.528
 7223SOL    HW122568   3.091   1.601   1.611
 7223SOL    HW222569   3.055   1.652   1.460
 7224SOL     OW22570   5.906   2.027   4.780
 7224SOL    HW122571   5.874   1.996   4.690
 7224SOL    HW222572   5.865   2.116   4.801
 7225SOL     OW22573   1.594   5.452   6.578
 7225SOL    HW122574   1.692   5.462   6.591
 7225SOL    HW222575   1.545   5.489   6.657
 7226SOL     OW22576   0.503   0.702   0.574
 7226SOL    HW122577   0.489   0.617   0.626
 7226SOL    HW222578   0.417   0.752   0.569
 7227SOL     OW22579   0.776   1.973   0.466
 7227SOL    HW122580   0.692   2.017   0.497
 7227SOL    HW222581   0.761   1.932   0.377
 7228SOL     OW22582   0.006   0.751   1.769
 7228SOL    HW122583   0.012   0.728   1.672
 7228SOL    HW222584   0.044   0.842   1.785
 7229SOL     OW22585   0.597   0.704   4.249
 7229SOL    HW122586   0.642   0.637   4.308
 7229SOL    HW222587   0.664   0.746   4.188
 7230SOL     OW22588   4.465   5.072   4.753
 7230SOL    HW122589   4.443   5.164   4.720
 7230SOL    HW222590   4.528   5.078   4.830
 7231SOL     OW22591   4.539   0.378   0.131
 7231SOL    HW122592   4.545   0.477   0.115
 7231SOL    HW222593   4.503   0.334   0.049
 7232SOL     OW22594   4.005   4.917   3.429
 7232SOL    HW122595   4.052   4.841   3.475
 7232SOL    HW222596   4.057   4.944   3.348
 7233SOL     OW22597   0.625   2.815   4.700
 7233SOL    HW122598   0.539   2.843   4.742
 7233SOL    HW222599   0.668   2.893   4.655
 7234SOL     OW22600   6.374   2.524   1.816
 7234SOL    HW122601   6.275   2.515   1.831
 7234SOL    HW222602   6.397   2.621   1.803
 7235SOL     OW22603   6.578   3.759   3.484
 7235SOL    HW122604   6.647   3.731   3.418
 7235SOL    HW222605   6.487   3.748   3.444
 7236SOL     OW22606   3.252   1.781   2.926
 7236SOL    HW122607   3.279   1.700   2.978
 7236SOL    HW222608   3.153   1.789   2.928
 7237SOL     OW22609   6.477   6.471   5.331
 7237SOL    HW122610   6.476   6.567   5.359
 7237SOL    HW222611   6.383   6.437   5.326
 7238SOL     OW22612   2.285   1.863   1.619
 7238SOL    HW122613   2.332   1.875   1.707
 7238SOL    HW222614   2.254   1.952   1.585
 7239SOL     OW22615   1.954   1.762   3.362
 7239SOL    HW122616   1.918   1.682   3.313
 7239SOL    HW222617   2.031   1.801   3.311
 7240SOL     OW22618   3.054   3.920   0.211
 7240SOL    HW122619   2.994   3.889   0.285
 7240SOL    HW222620   3.037   3.865   0.129
 7241SOL     OW22621   3.509   0.283   6.036
 7241SOL    HW122622   3.478   0.370   6.073
 7241SOL    HW222623   3.541   0.296   5.942
 7242SOL     OW22624   5.965   4.597   0.121
 7242SOL    HW122625   5.991   4.510   0.163
 7242SOL    HW222626   5.883   4.633   0.166
 7243SOL     OW22627   1.261   4.585   6.525
 7243SOL    HW122628   1.281   4.601   6.621
 7243SOL    HW222629   1.341   4.547   6.479
 7244SOL     OW22630   4.392   0.802   1.122
 7244SOL    HW122631   4.349   0.892   1.120
 7244SOL    HW222632   4.484   0.808   1.084
 7245SOL     OW22633   0.255   2.630   4.960
 7245SOL    HW122634   0.172   2.685   4.951
 7245SOL    HW222635   0.292   2.640   5.052
 7246SOL     OW22636   6.737   6.778   4.709
 7246SOL    HW122637   6.828   6.801   4.743
 7246SOL    HW222638   6.672   6.849   4.735
 7247SOL     OW22639   2.493   6.776   2.501
 7247SOL    HW122640   2.447   6.706   2.445
 7247SOL    HW222641   2.457   6.866   2.477
 7248SOL     OW22642   3.494   1.220   3.682
 7248SOL    HW122643   3.474   1.268   3.767
 7248SOL    HW222644   3.557   1.144   3.700
 7249SOL     OW22645   5.785   4.396   1.194
 7249SOL    HW122646   5.795   4.300   1.221
 7249SOL    HW222647   5.853   4.451   1.244
 7250SOL     OW22648   2.238   4.894   6.373
 7250SOL    HW122649   2.205   4.833   6.445
 7250SOL    HW222650   2.161   4.927   6.319
 7251SOL     OW22651   6.578   0.079   5.606
 7251SOL    HW122652   6.605   7.023   5.554
 7251SOL    HW222653   6.549   0.151   5.544
 7252SOL     OW22654   3.475   3.436   4.622
 7252SOL    HW122655   3.394   3.377   4.618
 7252SOL    HW222656   3.456   3.516   4.679
 7253SOL     OW22657   1.781   6.024   0.446
 7253SOL    HW122658   1.823   6.113   0.429
 7253SOL    HW222659   1.765   6.013   0.544
 7254SOL     OW22660   3.370   5.451   4.660
 7254SOL    HW122661   3.323   5.377   4.708
 7254SOL    HW222662   3.438   5.412   4.598
 7255SOL     OW22663   3.220   3.084   1.976
 7255SOL    HW122664   3.266   3.003   2.013
 7255SOL    HW222665   3.207   3.152   2.048
 7256SOL     OW22666   4.689   4.923   4.671
 7256SOL    HW122667   4.619   4.985   4.637
 7256SOL    HW222668   4.776   4.972   4.680
 7257SOL     OW22669   6.534   2.793   3.471
 7257SOL    HW122670   6.606   2.778   3.538
 7257SOL    HW222671   6.510   2.707   3.427
 7258SOL     OW22672   4.382   0.524   4.176
 7258SOL    HW122673   4.402   0.589   4.250
 7258SOL    HW222674   4.319   0.454   4.210
 7259SOL     OW22675   2.914   4.380   0.145
 7259SOL    HW122676   2.933   4.307   0.211
 7259SOL    HW222677   2.902   4.341   0.054
 7260SOL     OW22678   3.877   1.895   3.137
 7260SOL    HW122679   3.859   1.993   3.132
 7260SOL    HW222680   3.941   1.869   3.064
 7261SOL     OW22681   2.413   3.267   1.713
 7261SOL    HW122682   2.505   3.273   1.675
 7261SOL    HW222683   2.400   3.342   1.778
 7262SOL     OW22684   5.905   2.683   4.581
 7262SOL    HW122685   5.846   2.749   4.534
 7262SOL    HW222686   5.849   2.615   4.628
 7263SOL     OW22687   1.225   5.431   1.796
 7263SOL    HW122688   1.310   5.426   1.847
 7263SOL    HW222689   1.229   5.508   1.732
 7264SOL     OW22690   6.944   1.352   6.945
 7264SOL    HW122691   6.880   1.302   7.002
 7264SOL    HW222692   7.014   1.395   7.002
 7265SOL     OW22693   5.487   5.535   6.060
 7265SOL    HW122694   5.447   5.590   6.133
 7265SOL    HW222695   5.574   5.496   6.090
 7266SOL     OW22696   4.747   0.811   1.355
 7266SOL    HW122697   4.821   0.834   1.418
 7266SOL    HW222698   4.714   0.895   1.311
 7267SOL     OW22699   6.789   4.360   5.200
 7267SOL    HW122700   6.788   4.375   5.299
 7267SOL    HW222701   6.839   4.436   5.156
 7268SOL     OW22702   4.071   5.771   2.301
 7268SOL    HW122703   4.070   5.752   2.203
 7268SOL    HW222704   4.140   5.841   2.321
 7269SOL     OW22705   0.768   5.343   1.614
 7269SOL    HW122706   0.723   5.356   1.702
 7269SOL    HW222707   0.850   5.287   1.626
 7270SOL     OW22708   2.561   2.022   2.931
 7270SOL    HW122709   2.641   2.079   2.947
 7270SOL    HW222710   2.568   1.980   2.841
 7271SOL     OW22711   0.316   4.298   2.601
 7271SOL    HW122712   0.315   4.198   2.606
 7271SOL    HW222713   0.239   4.335   2.653
 7272SOL     OW22714   5.417   3.062   2.714
 7272SOL    HW122715   5.363   3.122   2.655
 7272SOL    HW222716   5.493   3.114   2.753
 7273SOL     OW22717   5.805   4.288   1.844
 7273SOL    HW122718   5.818   4.324   1.752
 7273SOL    HW222719   5.707   4.280   1.863
 7274SOL     OW22720   0.138   4.975   5.608
 7274SOL    HW122721   0.169   4.946   5.699
 7274SOL    HW222722   0.068   5.045   5.618
 7275SOL     OW22723   6.496   0.502   0.284
 7275SOL    HW122724   6.560   0.458   0.221
 7275SOL    HW222725   6.421   0.544   0.232
 7276SOL     OW22726   2.609   1.882   3.647
 7276SOL    HW122727   2.642   1.948   3.579
 7276SOL    HW222728   2.687   1.844   3.697
 7277SOL     OW22729   4.880   1.380   6.170
 7277SOL    HW122730   4.798   1.398   6.223
 7277SOL    HW222731   4.926   1.467   6.150
 7278SOL     OW22732   3.952   1.517   3.499
 7278SOL    HW122733   3.977   1.582   3.571
 7278SOL    HW222734   3.908   1.437   3.541
 7279SOL     OW22735   4.327   4.433   0.923
 7279SOL    HW122736   4.291   4.527   0.921
 7279SOL    HW222737   4.250   4.369   0.930
 7280SOL     OW22738   5.430   2.336   5.342
 7280SOL    HW122739   5.383   2.275   5.277
 7280SOL    HW222740   5.431   2.293   5.433
 7281SOL     OW22741   3.841   6.780   0.738
 7281SOL    HW122742   3.785   6.699   0.758
 7281SOL    HW222743   3.889   6.767   0.651
 7282SOL     OW22744   6.533   5.490   1.953
 7282SOL    HW122745   6.468   5.446   1.891
 7282SOL    HW222746   6.621   5.443   1.947
 7283SOL     OW22747   3.086   6.105   2.236
 7283SOL    HW122748   3.004   6.073   2.189
 7283SOL    HW222749   3.076   6.090   2.334
 7284SOL     OW22750   6.854   2.554   3.827
 7284SOL    HW122751   6.812   2.480   3.878
 7284SOL    HW222752   6.880   2.628   3.890
 7285SOL     OW22753   4.841   3.108   1.783
 7285SOL    HW122754   4.761   3.074   1.831
 7285SOL    HW222755   4.831   3.206   1.766
 7286SOL     OW22756   0.892   1.027   0.641
 7286SOL    HW122757   0.985   1.053   0.664
 7286SOL    HW222758   0.856   1.088   0.570
 7287SOL     OW22759   0.521   2.735   3.773
 7287SOL    HW122760   0.452   2.668   3.746
 7287SOL    HW222761   0.601   2.727   3.714
 7288SOL     OW22762   2.774   2.276   2.500
 7288SOL    HW122763   2.751   2.225   2.417
 7288SOL    HW222764   2.856   2.236   2.541
 7289SOL     OW22765   5.931   2.589   2.093
 7289SOL    HW122766   5.932   2.616   1.997
 7289SOL    HW222767   6.024   2.567   2.122
 7290SOL     OW22768   4.352   1.154   5.527
 7290SOL    HW122769   4.278   1.206   5.486
 7290SOL    HW222770   4.431   1.152   5.465
 7291SOL     OW22771   3.399   6.870   0.043
 7291SOL    HW122772   3.422   6.800   0.111
 7291SOL    HW222773   3.451   6.853   6.984
 7292SOL     OW22774   1.366   0.113   3.382
 7292SOL    HW122775   1.393   0.209   3.372
 7292SOL    HW222776   1.387   0.082   3.474
 7293SOL     OW22777   1.550   0.570   5.366
 7293SOL    HW122778   1.506   0.500   5.309
 7293SOL    HW222779   1.552   0.657   5.317
 7294SOL     OW22780   3.068   4.727   1.833
 7294SOL    HW122781   3.015   4.802   1.874
 7294SOL    HW222782   3.010   4.646   1.825
 7295SOL     OW22783   6.644   4.917   1.930
 7295SOL    HW122784   6.606   4.842   1.876
 7295SOL    HW222785   6.577   4.992   1.935
 7296SOL     OW22786   3.762   4.824   2.858
 7296SOL    HW122787   3.823   4.764   2.807
 7296SOL    HW222788   3.669   4.817   2.821
 7297SOL     OW22789   3.216   6.663   1.741
 7297SOL    HW122790   3.230   6.640   1.838
 7297SOL    HW222791   3.301   6.650   1.691
 7298SOL     OW22792   4.781   5.864   6.632
 7298SOL    HW122793   4.854   5.903   6.687
 7298SOL    HW222794   4.699   5.851   6.689
 7299SOL     OW22795   1.199   2.668   0.174
 7299SOL    HW122796   1.140   2.593   0.202
 7299SOL    HW222797   1.234   2.715   0.255
 7300SOL     OW22798   1.010   5.432   2.029
 7300SOL    HW122799   1.067   5.359   2.068
 7300SOL    HW222800   1.033   5.444   1.933
 7301SOL     OW22801   6.124   7.023   5.769
 7301SOL    HW122802   6.069   0.079   5.786
 7301SOL    HW222803   6.090   6.947   5.824
 7302SOL     OW22804   4.941   2.997   6.265
 7302SOL    HW122805   5.002   3.023   6.190
 7302SOL    HW222806   4.894   2.912   6.243
 7303SOL     OW22807   2.834   1.290   0.786
 7303SOL    HW122808   2.818   1.366   0.849
 7303SOL    HW222809   2.862   1.325   0.697
 7304SOL     OW22810   2.748   5.055   1.333
 7304SOL    HW122811   2.689   5.134   1.319
 7304SOL    HW222812   2.694   4.971   1.329
 7305SOL     OW22813   5.872   2.195   0.289
 7305SOL    HW122814   5.795   2.132   0.298
 7305SOL    HW222815   5.837   2.285   0.261
 7306SOL     OW22816   3.445   1.991   0.713
 7306SOL    HW122817   3.527   2.047   0.698
 7306SOL    HW222818   3.420   1.945   0.627
 7307SOL     OW22819   3.218   6.580   2.007
 7307SOL    HW122820   3.181   6.653   2.065
 7307SOL    HW222821   3.317   6.573   2.022
 7308SOL     OW22822   5.446   0.972   2.027
 7308SOL    HW122823   5.522   1.003   1.969
 7308SOL    HW222824   5.359   1.002   1.988
 7309SOL     OW22825   2.426   5.820   2.756
 7309SOL    HW122826   2.525   5.824   2.771
 7309SOL    HW222827   2.406   5.843   2.660
 7310SOL     OW22828   1.606   3.160   0.395
 7310SOL    HW122829   1.577   3.105   0.317
 7310SOL    HW222830   1.671   3.230   0.364
 7311SOL     OW22831   0.268   0.279   0.776
 7311SOL    HW122832   0.282   0.312   0.870
 7311SOL    HW222833   0.170   0.273   0.757
 7312SOL     OW22834   6.783   1.771   5.721
 7312SOL    HW122835   6.820   1.851   5.675
 7312SOL    HW222836   6.822   1.764   5.813
 7313SOL     OW22837   2.265   0.915   1.338
 7313SOL    HW122838   2.261   0.983   1.265
 7313SOL    HW222839   2.269   0.961   1.426
 7314SOL     OW22840   6.881   4.093   6.891
 7314SOL    HW122841   6.860   4.105   6.988
 7314SOL    HW222842   6.853   4.002   6.862
 7315SOL     OW22843   6.788   5.060   2.548
 7315SOL    HW122844   6.769   5.004   2.467
 7315SOL    HW222845   6.739   5.022   2.627
 7316SOL     OW22846   2.494   2.188   6.157
 7316SOL    HW122847   2.406   2.235   6.169
 7316SOL    HW222848   2.479   2.102   6.106
 7317SOL     OW22849   3.405   1.529   1.866
 7317SOL    HW122850   3.474   1.459   1.883
 7317SOL    HW222851   3.393   1.541   1.768
 7318SOL     OW22852   3.576   6.868   2.227
 7318SOL    HW122853   3.636   6.947   2.215
 7318SOL    HW222854   3.587   6.806   2.149
 7319SOL     OW22855   6.879   4.232   0.138
 7319SOL    HW122856   6.909   4.208   0.230
 7319SOL    HW222857   6.883   4.331   0.126
 7320SOL     OW22858   6.792   3.837   1.108
 7320SOL    HW122859   6.874   3.864   1.057
 7320SOL    HW222860   6.787   3.737   1.111
 7321SOL     OW22861   1.917   5.900   5.930
 7321SOL    HW122862   1.999   5.956   5.939
 7321SOL    HW222863   1.843   5.955   5.891
 7322SOL     OW22864   0.797   1.270   2.891
 7322SOL    HW122865   0.805   1.174   2.864
 7322SOL    HW222866   0.887   1.307   2.914
 7323SOL     OW22867   1.768   1.822   1.217
 7323SOL    HW122868   1.686   1.774   1.186
 7323SOL    HW222869   1.819   1.764   1.281
 7324SOL     OW22870   5.443   4.745   2.831
 7324SOL    HW122871   5.527   4.744   2.777
 7324SOL    HW222872   5.466   4.745   2.928
 7325SOL     OW22873   3.871   0.510   5.609
 7325SOL    HW122874   3.775   0.533   5.594
 7325SOL    HW222875   3.914   0.487   5.522
 7326SOL     OW22876   2.905   0.680   6.288
 7326SOL    HW122877   3.005   0.682   6.283
 7326SOL    HW222878   2.877   0.682   6.384
 7327SOL     OW22879   5.651   3.836   3.212
 7327SOL    HW122880   5.608   3.746   3.213
 7327SOL    HW222881   5.746   3.829   3.243
 7328SOL     OW22882   3.888   5.415   5.765
 7328SOL    HW122883   3.830   5.355   5.819
 7328SOL    HW222884   3.863   5.408   5.668
 7329SOL     OW22885   2.090   3.168   0.274
 7329SOL    HW122886   1.999   3.175   0.232
 7329SOL    HW222887   2.081   3.179   0.373
 7330SOL     OW22888   3.029   2.963   1.426
 7330SOL    HW122889   3.040   3.061   1.406
 7330SOL    HW222890   2.931   2.941   1.427
 7331SOL     OW22891   4.918   0.369   2.124
 7331SOL    HW122892   4.818   0.364   2.128
 7331SOL    HW222893   4.957   0.299   2.183
 7332SOL     OW22894   3.809   3.849   6.887
 7332SOL    HW122895   3.903   3.847   6.923
 7332SOL    HW222896   3.790   3.939   6.848
 7333SOL     OW22897   6.818   3.245   1.606
 7333SOL    HW122898   6.859   3.180   1.541
 7333SOL    HW222899   6.725   3.215   1.629
 7334SOL     OW22900   2.591   6.989   5.373
 7334SOL    HW122901   2.622   7.019   5.463
 7334SOL    HW222902   2.506   6.936   5.383
 7335SOL     OW22903   0.032   3.586   2.942
 7335SOL    HW122904   7.023   3.509   2.994
 7335SOL    HW222905   0.090   3.643   3.002
 7336SOL     OW22906   1.450   6.404   1.151
 7336SOL    HW122907   1.371   6.463   1.168
 7336SOL    HW222908   1.420   6.323   1.100
 7337SOL     OW22909   3.023   2.955   1.791
 7337SOL    HW122910   3.046   2.959   1.889
 7337SOL    HW222911   3.092   3.006   1.739
 7338SOL     OW22912   5.478   2.933   1.201
 7338SOL    HW122913   5.488   2.835   1.217
 7338SOL    HW222914   5.420   2.973   1.272
 7339SOL     OW22915   6.968   6.278   5.145
 7339SOL    HW122916   6.971   6.178   5.150
 7339SOL    HW222917   0.034   6.315   5.164
 7340SOL     OW22918   3.140   1.014   6.936
 7340SOL    HW122919   3.237   0.993   6.942
 7340SOL    HW222920   3.096   0.997   7.024
 7341SOL     OW22921   0.142   4.557   3.850
 7341SOL    HW122922   0.238   4.528   3.858
 7341SOL    HW222923   0.082   4.483   3.882
 7342SOL     OW22924   0.012   0.575   0.226
 7342SOL    HW122925   0.022   0.631   0.309
 7342SOL    HW222926   0.015   0.478   0.251
 7343SOL     OW22927   5.929   4.086   2.324
 7343SOL    HW122928   5.874   4.063   2.404
 7343SOL    HW222929   5.869   4.117   2.250
 7344SOL     OW22930   1.638   6.581   6.703
 7344SOL    HW122931   1.726   6.562   6.658
 7344SOL    HW222932   1.567   6.525   6.662
 7345SOL     OW22933   4.217   5.119   5.539
 7345SOL    HW122934   4.148   5.187   5.511
 7345SOL    HW222935   4.179   5.061   5.611
 7346SOL     OW22936   3.869   4.394   0.843
 7346SOL    HW122937   3.872   4.491   0.870
 7346SOL    HW222938   3.783   4.354   0.875
 7347SOL     OW22939   6.262   2.252   2.265
 7347SOL    HW122940   6.232   2.177   2.205
 7347SOL    HW222941   6.313   2.319   2.212
 7348SOL     OW22942   1.394   3.013   3.831
 7348SOL    HW122943   1.311   3.057   3.797
 7348SOL    HW222944   1.370   2.953   3.908
 7349SOL     OW22945   3.438   2.103   1.511
 7349SOL    HW122946   3.366   2.158   1.469
 7349SOL    HW222947   3.409   2.007   1.515
 7350SOL     OW22948   0.837   2.200   3.599
 7350SOL    HW122949   0.924   2.161   3.627
 7350SOL    HW222950   0.835   2.208   3.499
 7351SOL     OW22951   4.134   4.482   6.115
 7351SOL    HW122952   4.097   4.575   6.121
 7351SOL    HW222953   4.174   4.468   6.025
 7352SOL     OW22954   1.480   1.458   2.409
 7352SOL    HW122955   1.510   1.533   2.350
 7352SOL    HW222956   1.410   1.405   2.361
 7353SOL     OW22957   6.332   1.744   4.750
 7353SOL    HW122958   6.280   1.822   4.716
 7353SOL    HW222959   6.421   1.741   4.704
 7354SOL     OW22960   6.740   0.590   6.410
 7354SOL    HW122961   6.707   0.599   6.503
 7354SOL    HW222962   6.668   0.553   6.352
 7355SOL     OW22963   0.846   6.389   1.323
 7355SOL    HW122964   0.834   6.292   1.342
 7355SOL    HW222965   0.810   6.443   1.400
 7356SOL     OW22966   6.016   2.443   6.568
 7356SOL    HW122967   5.923   2.446   6.605
 7356SOL    HW222968   6.080   2.470   6.640
 7357SOL     OW22969   4.671   0.510   0.416
 7357SOL    HW122970   4.683   0.604   0.450
 7357SOL    HW222971   4.724   0.499   0.332
 7358SOL     OW22972   3.600   2.119   3.831
 7358SOL    HW122973   3.658   2.128   3.750
 7358SOL    HW222974   3.610   2.201   3.888
 7359SOL     OW22975   3.795   2.878   2.215
 7359SOL    HW122976   3.712   2.933   2.206
 7359SOL    HW222977   3.811   2.826   2.131
 7360SOL     OW22978   1.777   2.900   5.490
 7360SOL    HW122979   1.694   2.908   5.546
 7360SOL    HW222980   1.795   2.987   5.444
 7361SOL     OW22981   5.184   6.611   0.683
 7361SOL    HW122982   5.216   6.578   0.594
 7361SOL    HW222983   5.151   6.705   0.673
 7362SOL     OW22984   0.920   0.160   4.935
 7362SOL    HW122985   0.880   0.100   5.004
 7362SOL    HW222986   0.961   0.105   4.862
 7363SOL     OW22987   6.015   2.428   0.517
 7363SOL    HW122988   6.053   2.520   0.529
 7363SOL    HW222989   5.927   2.435   0.469
 7364SOL     OW22990   4.189   6.573   0.770
 7364SOL    HW122991   4.165   6.657   0.819
 7364SOL    HW222992   4.107   6.518   0.755
 7365SOL     OW22993   2.870   6.923   2.649
 7365SOL    HW122994   2.969   6.922   2.630
 7365SOL    HW222995   2.849   6.995   2.715
 7366SOL     OW22996   0.906   5.166   6.857
 7366SOL    HW122997   0.907   5.085   6.916
 7366SOL    HW222998   0.849   5.237   6.898
 7367SOL     OW22999   4.807   3.800   1.332
 7367SOL    HW123000   4.801   3.817   1.233
 7367SOL    HW223001   4.724   3.832   1.377
 7368SOL     OW23002   3.400   3.706   4.386
 7368SOL    HW123003   3.342   3.696   4.466
 7368SOL    HW223004   3.496   3.710   4.415
 7369SOL     OW23005   4.661   3.831   1.043
 7369SOL    HW123006   4.575   3.839   1.095
 7369SOL    HW223007   4.697   3.739   1.052
 7370SOL     OW23008   2.059   0.216   6.623
 7370SOL    HW123009   2.037   0.185   6.530
 7370SOL    HW223010   2.150   0.257   6.623
 7371SOL     OW23011   2.899   5.148   4.006
 7371SOL    HW123012   2.966   5.219   3.983
 7371SOL    HW223013   2.848   5.124   3.923
 7372SOL     OW23014   3.677   6.838   5.267
 7372SOL    HW123015   3.695   6.749   5.225
 7372SOL    HW223016   3.591   6.875   5.231
 7373SOL     OW23017   4.012   0.971   3.570
 7373SOL    HW123018   4.009   0.994   3.472
 7373SOL    HW223019   4.018   1.055   3.623
 7374SOL     OW23020   1.549   2.772   5.230
 7374SOL    HW123021   1.635   2.745   5.273
 7374SOL    HW223022   1.567   2.845   5.164
 7375SOL     OW23023   1.494   1.567   4.308
 7375SOL    HW123024   1.430   1.553   4.233
 7375SOL    HW223025   1.444   1.574   4.394
 7376SOL     OW23026   3.296   2.978   6.955
 7376SOL    HW123027   3.213   2.967   7.010
 7376SOL    HW223028   3.316   2.891   6.909
 7377SOL     OW23029   4.887   4.915   1.549
 7377SOL    HW123030   4.925   4.954   1.465
 7377SOL    HW223031   4.792   4.888   1.534
 7378SOL     OW23032   6.985   2.167   4.548
 7378SOL    HW123033   6.920   2.103   4.506
 7378SOL    HW223034   0.024   2.200   4.479
 7379SOL     OW23035   4.197   1.176   2.585
 7379SOL    HW123036   4.227   1.087   2.619
 7379SOL    HW223037   4.276   1.227   2.551
 7380SOL     OW23038   6.602   3.324   5.825
 7380SOL    HW123039   6.670   3.252   5.840
 7380SOL    HW223040   6.649   3.411   5.808
 7381SOL     OW23041   4.745   2.818   2.411
 7381SOL    HW123042   4.825   2.794   2.465
 7381SOL    HW223043   4.664   2.772   2.448
 7382SOL     OW23044   0.371   4.790   5.179
 7382SOL    HW123045   0.437   4.862   5.201
 7382SOL    HW223046   0.339   4.802   5.085
 7383SOL     OW23047   0.581   6.465   2.689
 7383SOL    HW123048   0.572   6.556   2.729
 7383SOL    HW223049   0.525   6.460   2.606
 7384SOL     OW23050   5.440   0.782   2.282
 7384SOL    HW123051   5.479   0.847   2.216
 7384SOL    HW223052   5.504   0.769   2.358
 7385SOL     OW23053   4.344   5.959   2.240
 7385SOL    HW123054   4.441   5.980   2.229
 7385SOL    HW223055   4.289   6.029   2.195
 7386SOL     OW23056   0.769   2.197   5.684
 7386SOL    HW123057   0.682   2.190   5.635
 7386SOL    HW223058   0.801   2.291   5.682
 7387SOL     OW23059   4.114   5.890   4.150
 7387SOL    HW123060   4.038   5.851   4.203
 7387SOL    HW223061   4.139   5.979   4.188
 7388SOL     OW23062   6.555   5.157   4.034
 7388SOL    HW123063   6.485   5.095   4.000
 7388SOL    HW223064   6.626   5.168   3.964
 7389SOL     OW23065   1.465   4.278   0.037
 7389SOL    HW123066   1.426   4.306   6.975
 7389SOL    HW223067   1.392   4.244   0.097
 7390SOL     OW23068   0.561   1.967   6.288
 7390SOL    HW123069   0.502   2.029   6.237
 7390SOL    HW223070   0.641   2.018   6.321
 7391SOL     OW23071   5.447   4.522   6.120
 7391SOL    HW123072   5.514   4.559   6.055
 7391SOL    HW223073   5.432   4.588   6.194
 7392SOL     OW23074   1.594   5.870   5.660
 7392SOL    HW123075   1.501   5.860   5.625
 7392SOL    HW223076   1.595   5.855   5.758
 7393SOL     OW23077   6.077   5.405   1.997
 7393SOL    HW123078   6.076   5.503   2.015
 7393SOL    HW223079   6.032   5.387   1.909
 7394SOL     OW23080   3.677   3.224   6.033
 7394SOL    HW123081   3.658   3.183   6.122
 7394SOL    HW223082   3.608   3.193   5.967
 7395SOL     OW23083   0.588   0.692   6.513
 7395SOL    HW123084   0.604   0.650   6.423
 7395SOL    HW223085   0.662   0.756   6.533
 7396SOL     OW23086   1.809   0.854   6.090
 7396SOL    HW123087   1.784   0.950   6.083
 7396SOL    HW223088   1.726   0.799   6.101
 7397SOL     OW23089   6.226   4.341   4.831
 7397SOL    HW123090   6.257   4.418   4.775
 7397SOL    HW223091   6.302   4.306   4.886
 7398SOL     OW23092   3.634   5.217   3.946
 7398SOL    HW123093   3.647   5.122   3.917
 7398SOL    HW223094   3.642   5.278   3.867
 7399SOL     OW23095   0.342   4.142   5.818
 7399SOL    HW123096   0.269   4.168   5.755
 7399SOL    HW223097   0.399   4.222   5.837
 7400SOL     OW23098   3.254   4.221   6.542
 7400SOL    HW123099   3.175   4.224   6.603
 7400SOL    HW223100   3.244   4.144   6.478
 7401SOL     OW23101   0.247   0.967   3.456
 7401SOL    HW123102   0.275   0.876   3.424
 7401SOL    HW223103   0.179   0.957   3.529
 7402SOL     OW23104   1.983   6.780   3.738
 7402SOL    HW123105   2.032   6.698   3.769
 7402SOL    HW223106   1.891   6.780   3.775
 7403SOL     OW23107   1.902   3.084   3.995
 7403SOL    HW123108   1.985   3.039   3.962
 7403SOL    HW223109   1.831   3.077   3.925
 7404SOL     OW23110   2.457   0.650   1.123
 7404SOL    HW123111   2.406   0.631   1.039
 7404SOL    HW223112   2.539   0.593   1.126
 7405SOL     OW23113   1.788   5.133   4.876
 7405SOL    HW123114   1.759   5.083   4.795
 7405SOL    HW223115   1.720   5.203   4.899
 7406SOL     OW23116   1.509   3.951   2.322
 7406SOL    HW123117   1.426   3.897   2.334
 7406SOL    HW223118   1.555   3.924   2.238
 7407SOL     OW23119   6.914   6.245   4.705
 7407SOL    HW123120   6.973   6.314   4.663
 7407SOL    HW223121   6.863   6.287   4.780
 7408SOL     OW23122   1.722   4.421   5.977
 7408SOL    HW123123   1.650   4.396   6.041
 7408SOL    HW223124   1.810   4.418   6.024
 7409SOL     OW23125   0.813   1.325   4.869
 7409SOL    HW123126   0.847   1.418   4.885
 7409SOL    HW223127   0.734   1.329   4.808
 7410SOL     OW23128   0.424   4.713   1.110
 7410SOL    HW123129   0.450   4.745   1.019
 7410SOL    HW223130   0.491   4.645   1.142
 7411SOL     OW23131   2.648   6.919   4.251
 7411SOL    HW123132   2.696   6.979   4.187
 7411SOL    HW223133   2.578   6.867   4.202
 7412SOL     OW23134   2.696   0.800   1.237
 7412SOL    HW123135   2.786   0.843   1.234
 7412SOL    HW223136   2.704   0.704   1.209
 7413SOL     OW23137   0.230   3.503   3.603
 7413SOL    HW123138   0.321   3.469   3.576
 7413SOL    HW223139   0.208   3.584   3.549
 7414SOL     OW23140   6.549   7.014   2.819
 7414SOL    HW123141   6.493   0.036   2.751
 7414SOL    HW223142   6.501   6.932   2.851
 7415SOL     OW23143   1.012   3.066   3.006
 7415SOL    HW123144   1.037   2.996   3.073
 7415SOL    HW223145   1.095   3.104   2.964
 7416SOL     OW23146   3.437   1.178   4.472
 7416SOL    HW123147   3.416   1.110   4.402
 7416SOL    HW223148   3.536   1.178   4.489
 7417SOL     OW23149   1.509   6.252   5.887
 7417SOL    HW123150   1.425   6.205   5.913
 7417SOL    HW223151   1.489   6.321   5.818
 7418SOL     OW23152   3.150   4.593   1.199
 7418SOL    HW123153   3.242   4.600   1.237
 7418SOL    HW223154   3.120   4.497   1.199
 7419SOL     OW23155   5.589   1.800   4.334
 7419SOL    HW123156   5.492   1.787   4.353
 7419SOL    HW223157   5.630   1.712   4.310
 7420SOL     OW23158   6.728   0.067   2.216
 7420SOL    HW123159   6.754   0.026   2.129
 7420SOL    HW223160   6.646   0.122   2.205
 7421SOL     OW23161   3.452   3.534   1.394
 7421SOL    HW123162   3.461   3.613   1.455
 7421SOL    HW223163   3.378   3.475   1.428
 7422SOL     OW23164   6.907   3.440   1.226
 7422SOL    HW123165   6.934   3.344   1.218
 7422SOL    HW223166   6.881   3.459   1.321
 7423SOL     OW23167   1.446   4.821   6.249
 7423SOL    HW123168   1.466   4.882   6.172
 7423SOL    HW223169   1.405   4.736   6.216
 7424SOL     OW23170   5.797   1.491   4.312
 7424SOL    HW123171   5.736   1.453   4.382
 7424SOL    HW223172   5.744   1.511   4.229
 7425SOL     OW23173   4.153   4.826   6.400
 7425SOL    HW123174   4.144   4.918   6.362
 7425SOL    HW223175   4.250   4.800   6.401
 7426SOL     OW23176   0.413   2.317   6.784
 7426SOL    HW123177   0.322   2.311   6.826
 7426SOL    HW223178   0.458   2.401   6.814
 7427SOL     OW23179   3.258   5.712   4.324
 7427SOL    HW123180   3.197   5.789   4.342
 7427SOL    HW223181   3.221   5.629   4.365
 7428SOL     OW23182   3.827   2.144   5.088
 7428SOL    HW123183   3.830   2.123   4.990
 7428SOL    HW223184   3.865   2.067   5.139
 7429SOL     OW23185   6.679   0.323   2.581
 7429SOL    HW123186   6.587   0.291   2.558
 7429SOL    HW223187   6.710   0.279   2.665
 7430SOL     OW23188   6.868   4.598   5.440
 7430SOL    HW123189   6.846   4.504   5.466
 7430SOL    HW223190   6.944   4.631   5.497
 7431SOL     OW23191   0.485   3.522   1.269
 7431SOL    HW123192   0.500   3.423   1.278
 7431SOL    HW223193   0.400   3.547   1.315
 7432SOL     OW23194   0.934   6.242   3.811
 7432SOL    HW123195   1.000   6.201   3.874
 7432SOL    HW223196   0.900   6.171   3.748
 7433SOL     OW23197   6.353   5.089   1.229
 7433SOL    HW123198   6.381   5.088   1.133
 7433SOL    HW223199   6.373   5.178   1.269
 7434SOL     OW23200   2.818   1.623   6.767
 7434SOL    HW123201   2.886   1.691   6.793
 7434SOL    HW223202   2.782   1.579   6.849
 7435SOL     OW23203   3.453   6.490   5.631
 7435SOL    HW123204   3.432   6.501   5.534
 7435SOL    HW223205   3.514   6.412   5.645
 7436SOL     OW23206   6.152   3.043   6.704
 7436SOL    HW123207   6.149   2.974   6.777
 7436SOL    HW223208   6.193   3.127   6.739
 7437SOL     OW23209   6.545   5.116   6.625
 7437SOL    HW123210   6.638   5.141   6.652
 7437SOL    HW223211   6.543   5.099   6.527
 7438SOL     OW23212   0.872   4.014   1.838
 7438SOL    HW123213   0.891   3.942   1.904
 7438SOL    HW223214   0.900   4.102   1.875
 7439SOL     OW23215   2.872   6.917   3.618
 7439SOL    HW123216   2.816   6.998   3.602
 7439SOL    HW223217   2.930   6.931   3.699
 7440SOL     OW23218   1.039   3.216   4.919
 7440SOL    HW123219   1.111   3.171   4.971
 7440SOL    HW223220   1.076   3.296   4.871
 7441SOL     OW23221   5.651   6.838   3.953
 7441SOL    HW123222   5.702   6.878   4.030
 7441SOL    HW223223   5.670   6.740   3.947
 7442SOL     OW23224   1.236   0.910   6.456
 7442SOL    HW123225   1.221   0.813   6.479
 7442SOL    HW223226   1.196   0.967   6.528
 7443SOL     OW23227   6.850   1.858   0.727
 7443SOL    HW123228   6.805   1.820   0.646
 7443SOL    HW223229   6.935   1.903   0.699
 7444SOL     OW23230   6.884   3.294   6.581
 7444SOL    HW123231   6.861   3.251   6.668
 7444SOL    HW223232   6.805   3.291   6.520
 7445SOL     OW23233   4.889   1.359   1.661
 7445SOL    HW123234   4.794   1.381   1.642
 7445SOL    HW223235   4.939   1.443   1.682
 7446SOL     OW23236   6.468   4.164   6.796
 7446SOL    HW123237   6.533   4.199   6.728
 7446SOL    HW223238   6.446   4.237   6.861
 7447SOL     OW23239   2.489   4.645   6.485
 7447SOL    HW123240   2.416   4.686   6.432
 7447SOL    HW223241   2.525   4.565   6.437
 7448SOL     OW23242   5.741   6.849   5.933
 7448SOL    HW123243   5.838   6.849   5.956
 7448SOL    HW223244   5.729   6.814   5.840
 7449SOL     OW23245   4.732   2.062   2.324
 7449SOL    HW123246   4.643   2.055   2.279
 7449SOL    HW223247   4.800   2.096   2.259
 7450SOL     OW23248   4.975   2.651   3.448
 7450SOL    HW123249   4.920   2.730   3.475
 7450SOL    HW223250   4.982   2.587   3.524
 7451SOL     OW23251   1.424   0.314   3.834
 7451SOL    HW123252   1.458   0.346   3.922
 7451SOL    HW223253   1.409   0.215   3.837
 7452SOL     OW23254   1.762   0.193   4.514
 7452SOL    HW123255   1.774   0.274   4.572
 7452SOL    HW223256   1.826   0.197   4.437
 7453SOL     OW23257   5.784   6.035   5.001
 7453SOL    HW123258   5.877   6.073   5.002
 7453SOL    HW223259   5.769   5.979   5.082
 7454SOL     OW23260   1.005   3.398   1.355
 7454SOL    HW123261   1.023   3.454   1.435
 7454SOL    HW223262   0.937   3.444   1.297
 7455SOL     OW23263   5.542   1.690   1.452
 7455SOL    HW123264   5.582   1.666   1.363
 7455SOL    HW223265   5.572   1.781   1.479
 7456SOL     OW23266   1.489   2.344   4.543
 7456SOL    HW123267   1.485   2.269   4.609
 7456SOL    HW223268   1.547   2.417   4.578
 7457SOL     OW23269   5.579   0.592   5.354
 7457SOL    HW123270   5.644   0.524   5.388
 7457SOL    HW223271   5.612   0.684   5.376
 7458SOL     OW23272   2.433   6.726   6.920
 7458SOL    HW123273   2.434   6.754   6.824
 7458SOL    HW223274   2.512   6.765   6.966
 7459SOL     OW23275   4.660   0.120   6.311
 7459SOL    HW123276   4.650   0.196   6.246
 7459SOL    HW223277   4.710   0.152   6.391
 7460SOL     OW23278   2.121   5.398   0.591
 7460SOL    HW123279   2.044   5.435   0.539
 7460SOL    HW223280   2.207   5.434   0.553
 7461SOL     OW23281   5.176   1.170   5.795
 7461SOL    HW123282   5.115   1.140   5.722
 7461SOL    HW223283   5.232   1.246   5.762
 7462SOL     OW23284   1.992   2.444   1.458
 7462SOL    HW123285   2.001   2.449   1.358
 7462SOL    HW223286   1.912   2.388   1.481
 7463SOL     OW23287   3.563   2.956   1.373
 7463SOL    HW123288   3.634   2.894   1.408
 7463SOL    HW223289   3.540   3.024   1.442
 7464SOL     OW23290   4.117   6.051   6.733
 7464SOL    HW123291   4.068   6.049   6.820
 7464SOL    HW223292   4.147   6.144   6.713
 7465SOL     OW23293   1.622   0.313   0.989
 7465SOL    HW123294   1.594   0.356   0.904
 7465SOL    HW223295   1.722   0.305   0.992
 7466SOL     OW23296   0.839   0.575   6.067
 7466SOL    HW123297   0.847   0.502   6.135
 7466SOL    HW223298   0.926   0.623   6.060
 7467SOL     OW23299   6.497   2.034   1.440
 7467SOL    HW123300   6.551   2.058   1.520
 7467SOL    HW223301   6.479   2.115   1.385
 7468SOL     OW23302   4.822   2.097   2.602
 7468SOL    HW123303   4.901   2.038   2.589
 7468SOL    HW223304   4.775   2.110   2.515
 7469SOL     OW23305   1.055   6.967   6.970
 7469SOL    HW123306   1.013   6.878   6.952
 7469SOL    HW223307   1.122   6.988   6.898
 7470SOL     OW23308   0.795   3.095   2.592
 7470SOL    HW123309   0.746   3.180   2.577
 7470SOL    HW223310   0.846   3.070   2.510
 7471SOL     OW23311   6.254   6.645   4.861
 7471SOL    HW123312   6.255   6.579   4.786
 7471SOL    HW223313   6.185   6.619   4.928
 7472SOL     OW23314   4.691   6.939   4.345
 7472SOL    HW123315   4.659   6.955   4.252
 7472SOL    HW223316   4.659   7.013   4.405
 7473SOL     OW23317   6.957   4.196   3.346
 7473SOL    HW123318   6.950   4.099   3.322
 7473SOL    HW223319   6.866   4.232   3.364
 7474SOL     OW23320   3.049   1.072   4.278
 7474SOL    HW123321   3.074   0.977   4.256
 7474SOL    HW223322   2.950   1.081   4.275
 7475SOL     OW23323   4.814   0.498   2.458
 7475SOL    HW123324   4.810   0.595   2.482
 7475SOL    HW223325   4.859   0.488   2.369
 7476SOL     OW23326   4.424   6.122   4.839
 7476SOL    HW123327   4.414   6.027   4.809
 7476SOL    HW223328   4.374   6.182   4.777
 7477SOL     OW23329   4.493   0.673   3.977
 7477SOL    HW123330   4.465   0.596   4.035
 7477SOL    HW223331   4.592   0.687   3.987
 7478SOL     OW23332   4.010   4.042   6.090
 7478SOL    HW123333   3.958   3.989   6.158
 7478SOL    HW223334   3.976   4.136   6.088
 7479SOL     OW23335   3.939   2.051   1.012
 7479SOL    HW123336   3.956   1.960   1.050
 7479SOL    HW223337   3.864   2.047   0.946
 7480SOL     OW23338   6.401   5.805   1.410
 7480SOL    HW123339   6.373   5.850   1.494
 7480SOL    HW223340   6.501   5.803   1.404
 7481SOL     OW23341   5.533   5.402   1.229
 7481SOL    HW123342   5.448   5.409   1.177
 7481SOL    HW223343   5.520   5.440   1.321
 7482SOL     OW23344   4.045   1.199   1.923
 7482SOL    HW123345   4.042   1.203   2.023
 7482SOL    HW223346   4.035   1.104   1.894
 7483SOL     OW23347   4.088   1.739   4.488
 7483SOL    HW123348   4.079   1.750   4.389
 7483SOL    HW223349   4.184   1.749   4.514
 7484SOL     OW23350   0.204   0.333   1.842
 7484SOL    HW123351   0.151   0.412   1.874
 7484SOL    HW223352   0.231   0.277   1.920
 7485SOL     OW23353   3.052   6.327   5.109
 7485SOL    HW123354   3.001   6.242   5.103
 7485SOL    HW223355   3.064   6.365   5.017
 7486SOL     OW23356   2.275   6.858   5.454
 7486SOL    HW123357   2.264   6.774   5.400
 7486SOL    HW223358   2.260   6.837   5.550
 7487SOL     OW23359   1.883   6.915   2.527
 7487SOL    HW123360   1.794   6.960   2.531
 7487SOL    HW223361   1.956   6.984   2.522
 7488SOL     OW23362   2.183   0.041   5.291
 7488SOL    HW123363   2.231   0.031   5.204
 7488SOL    HW223364   2.205   6.989   5.351
 7489SOL     OW23365   4.549   2.303   5.069
 7489SOL    HW123366   4.635   2.290   5.019
 7489SOL    HW223367   4.556   2.384   5.127
 7490SOL     OW23368   0.579   0.599   0.969
 7490SOL    HW123369   0.615   0.517   0.926
 7490SOL    HW223370   0.582   0.589   1.069
 7491SOL     OW23371   0.529   4.927   6.671
 7491SOL    HW123372   0.448   4.983   6.689
 7491SOL    HW223373   0.596   4.980   6.620
 7492SOL     OW23374   2.320   2.112   5.101
 7492SOL    HW123375   2.233   2.098   5.054
 7492SOL    HW223376   2.390   2.052   5.061
 7493SOL     OW23377   6.309   4.663   5.753
 7493SOL    HW123378   6.362   4.681   5.835
 7493SOL    HW223379   6.371   4.651   5.675
 7494SOL     OW23380   5.462   1.382   2.423
 7494SOL    HW123381   5.456   1.300   2.366
 7494SOL    HW223382   5.370   1.416   2.442
 7495SOL     OW23383   2.127   1.217   0.819
 7495SOL    HW123384   2.171   1.301   0.852
 7495SOL    HW223385   2.188   1.172   0.754
 7496SOL     OW23386   1.333   4.608   6.136
 7496SOL    HW123387   1.242   4.643   6.112
 7496SOL    HW223388   1.354   4.528   6.080
 7497SOL     OW23389   2.958   5.353   1.650
 7497SOL    HW123390   3.026   5.377   1.581
 7497SOL    HW223391   2.939   5.255   1.646
 7498SOL     OW23392   2.547   1.339   4.217
 7498SOL    HW123393   2.518   1.274   4.147
 7498SOL    HW223394   2.601   1.412   4.175
 7499SOL     OW23395   6.241   6.819   3.424
 7499SOL    HW123396   6.222   6.783   3.333
 7499SOL    HW223397   6.311   6.890   3.418
 7500SOL     OW23398   3.900   5.988   2.583
 7500SOL    HW123399   3.857   5.926   2.518
 7500SOL    HW223400   3.831   6.047   2.624
 7501SOL     OW23401   6.544   4.402   4.137
 7501SOL    HW123402   6.462   4.377   4.086
 7501SOL    HW223403   6.523   4.476   4.201
 7502SOL     OW23404   1.681   1.275   5.304
 7502SOL    HW123405   1.713   1.192   5.349
 7502SOL    HW223406   1.681   1.350   5.370
 7503SOL     OW23407   2.849   0.749   6.565
 7503SOL    HW123408   2.828   0.795   6.651
 7503SOL    HW223409   2.877   0.655   6.583
 7504SOL     OW23410   4.185   6.742   3.677
 7504SOL    HW123411   4.172   6.662   3.618
 7504SOL    HW223412   4.260   6.725   3.740
 7505SOL     OW23413   3.466   1.042   5.369
 7505SOL    HW123414   3.410   0.989   5.433
 7505SOL    HW223415   3.527   0.980   5.319
 7506SOL     OW23416   3.840   0.989   2.653
 7506SOL    HW123417   3.936   1.011   2.635
 7506SOL    HW223418   3.781   1.052   2.603
 7507SOL     OW23419   0.314   6.256   0.320
 7507SOL    HW123420   0.228   6.229   0.277
 7507SOL    HW223421   0.358   6.327   0.264
 7508SOL     OW23422   5.820   6.647   2.566
 7508SOL    HW123423   5.807   6.693   2.654
 7508SOL    HW223424   5.748   6.579   2.553
 7509SOL     OW23425   4.632   4.929   0.764
 7509SOL    HW123426   4.609   4.882   0.850
 7509SOL    HW223427   4.554   4.922   0.701
 7510SOL     OW23428   3.109   4.017   4.952
 7510SOL    HW123429   3.046   3.970   4.889
 7510SOL    HW223430   3.062   4.037   5.037
 7511SOL     OW23431   1.056   0.459   2.057
 7511SOL    HW123432   1.093   0.376   2.099
 7511SOL    HW223433   0.956   0.455   2.058
 7512SOL     OW23434   3.065   4.300   1.449
 7512SOL    HW123435   3.043   4.239   1.525
 7512SOL    HW223436   3.096   4.247   1.371
 7513SOL     OW23437   1.431   3.014   0.183
 7513SOL    HW123438   1.359   3.049   0.123
 7513SOL    HW223439   1.475   2.935   0.140
 7514SOL     OW23440   2.818   6.231   2.138
 7514SOL    HW123441   2.872   6.310   2.111
 7514SOL    HW223442   2.845   6.152   2.083
 7515SOL     OW23443   0.666   0.291   2.809
 7515SOL    HW123444   0.695   0.198   2.834
 7515SOL    HW223445   0.739   0.355   2.833
 7516SOL     OW23446   6.681   6.108   4.319
 7516SOL    HW123447   6.620   6.179   4.355
 7516SOL    HW223448   6.724   6.060   4.396
 7517SOL     OW23449   6.735   3.590   1.071
 7517SOL    HW123450   6.788   3.528   1.129
 7517SOL    HW223451   6.646   3.607   1.113
 7518SOL     OW23452   3.549   5.601   3.416
 7518SOL    HW123453   3.629   5.549   3.385
 7518SOL    HW223454   3.566   5.699   3.401
 7519SOL     OW23455   0.720   5.992   4.021
 7519SOL    HW123456   0.658   5.927   4.065
 7519SOL    HW223457   0.784   5.943   3.963
 7520SOL     OW23458   2.069   0.626   2.187
 7520SOL    HW123459   1.971   0.612   2.194
 7520SOL    HW223460   2.113   0.540   2.159
 7521SOL     OW23461   4.360   4.577   5.441
 7521SOL    HW123462   4.263   4.590   5.460
 7521SOL    HW223463   4.414   4.629   5.506
 7522SOL     OW23464   2.678   1.033   6.344
 7522SOL    HW123465   2.758   1.087   6.316
 7522SOL    HW223466   2.609   1.094   6.383
 7523SOL     OW23467   6.469   1.035   5.461
 7523SOL    HW123468   6.410   1.116   5.465
 7523SOL    HW223469   6.496   1.009   5.554
 7524SOL     OW23470   0.442   2.794   6.201
 7524SOL    HW123471   0.402   2.710   6.166
 7524SOL    HW223472   0.444   2.863   6.128
 7525SOL     OW23473   2.274   0.092   6.410
 7525SOL    HW123474   2.278   0.005   6.361
 7525SOL    HW223475   2.246   0.165   6.347
 7526SOL     OW23476   3.842   2.955   3.449
 7526SOL    HW123477   3.894   3.038   3.432
 7526SOL    HW223478   3.841   2.934   3.547
 7527SOL     OW23479   4.556   4.801   2.625
 7527SOL    HW123480   4.583   4.886   2.671
 7527SOL    HW223481   4.573   4.809   2.527
 7528SOL     OW23482   4.515   2.119   0.294
 7528SOL    HW123483   4.499   2.043   0.357
 7528SOL    HW223484   4.608   2.153   0.305
 7529SOL     OW23485   5.667   1.459   4.063
 7529SOL    HW123486   5.627   1.370   4.041
 7529SOL    HW223487   5.689   1.507   3.978
 7530SOL     OW23488   6.921   3.130   2.168
 7530SOL    HW123489   6.906   3.229   2.170
 7530SOL    HW223490   6.897   3.095   2.077
 7531SOL     OW23491   4.739   2.172   4.557
 7531SOL    HW123492   4.749   2.272   4.558
 7531SOL    HW223493   4.820   2.131   4.514
 7532SOL     OW23494   5.246   5.348   1.833
 7532SOL    HW123495   5.153   5.342   1.797
 7532SOL    HW223496   5.243   5.369   1.931
 7533SOL     OW23497   1.909   0.920   2.880
 7533SOL    HW123498   1.967   0.908   2.799
 7533SOL    HW223499   1.955   0.879   2.959
 7534SOL     OW23500   3.862   6.190   4.979
 7534SOL    HW123501   3.867   6.241   4.893
 7534SOL    HW223502   3.927   6.113   4.975
 7535SOL     OW23503   2.686   1.141   5.592
 7535SOL    HW123504   2.650   1.130   5.500
 7535SOL    HW223505   2.777   1.182   5.588
 7536SOL     OW23506   5.239   4.885   5.352
 7536SOL    HW123507   5.257   4.873   5.449
 7536SOL    HW223508   5.159   4.943   5.339
 7537SOL     OW23509   2.003   4.260   5.376
 7537SOL    HW123510   1.940   4.333   5.347
 7537SOL    HW223511   2.042   4.216   5.295
 7538SOL     OW23512   3.426   3.457   2.812
 7538SOL    HW123513   3.490   3.492   2.880
 7538SOL    HW223514   3.354   3.524   2.795
 7539SOL     OW23515   2.436   2.306   5.223
 7539SOL    HW123516   2.532   2.316   5.194
 7539SOL    HW223517   2.396   2.226   5.178
 7540SOL     OW23518   3.412   0.755   6.174
 7540SOL    HW123519   3.436   0.835   6.228
 7540SOL    HW223520   3.388   0.784   6.081
 7541SOL     OW23521   6.945   4.021   5.433
 7541SOL    HW123522   6.881   3.995   5.505
 7541SOL    HW223523   6.896   4.073   5.363
 7542SOL     OW23524   0.861   6.676   5.981
 7542SOL    HW123525   0.898   6.728   6.058
 7542SOL    HW223526   0.895   6.715   5.896
 7543SOL     OW23527   4.095   1.687   0.429
 7543SOL    HW123528   4.052   1.713   0.515
 7543SOL    HW223529   4.132   1.594   0.437
 7544SOL     OW23530   0.084   1.960   3.204
 7544SOL    HW123531   0.170   1.966   3.256
 7544SOL    HW223532   0.046   1.868   3.213
 7545SOL     OW23533   4.699   6.763   2.951
 7545SOL    HW123534   4.635   6.735   3.022
 7545SOL    HW223535   4.721   6.684   2.893
 7546SOL     OW23536   4.405   0.564   0.471
 7546SOL    HW123537   4.497   0.523   0.475
 7546SOL    HW223538   4.358   0.530   0.390
 7547SOL     OW23539   3.988   6.493   0.292
 7547SOL    HW123540   4.019   6.422   0.355
 7547SOL    HW223541   3.952   6.450   0.209
 7548SOL     OW23542   2.339   1.817   0.061
 7548SOL    HW123543   2.421   1.763   0.083
 7548SOL    HW223544   2.260   1.778   0.108
 7549SOL     OW23545   5.526   2.175   2.222
 7549SOL    HW123546   5.535   2.100   2.288
 7549SOL    HW223547   5.579   2.154   2.140
 7550SOL     OW23548   2.445   5.450   2.660
 7550SOL    HW123549   2.401   5.431   2.572
 7550SOL    HW223550   2.492   5.368   2.692
 7551SOL     OW23551   4.439   3.886   6.694
 7551SOL    HW123552   4.511   3.954   6.688
 7551SOL    HW223553   4.475   3.796   6.668
 7552SOL     OW23554   2.528   5.479   3.482
 7552SOL    HW123555   2.458   5.548   3.503
 7552SOL    HW223556   2.502   5.392   3.524
 7553SOL     OW23557   3.737   5.011   5.940
 7553SOL    HW123558   3.709   4.925   5.983
 7553SOL    HW223559   3.660   5.051   5.891
 7554SOL     OW23560   5.113   1.363   0.758
 7554SOL    HW123561   5.158   1.416   0.686
 7554SOL    HW223562   5.113   1.416   0.843
 7555SOL     OW23563   1.261   5.452   4.915
 7555SOL    HW123564   1.334   5.483   4.977
 7555SOL    HW223565   1.235   5.359   4.939
 7556SOL     OW23566   0.099   2.387   5.409
 7556SOL    HW123567   0.181   2.342   5.443
 7556SOL    HW223568   0.039   2.409   5.486
 7557SOL     OW23569   5.102   3.853   6.147
 7557SOL    HW123570   5.196   3.825   6.165
 7557SOL    HW223571   5.101   3.923   6.075
 7558SOL     OW23572   2.498   2.705   4.205
 7558SOL    HW123573   2.506   2.619   4.256
 7558SOL    HW223574   2.439   2.767   4.256
 7559SOL     OW23575   6.378   5.618   1.213
 7559SOL    HW123576   6.468   5.575   1.203
 7559SOL    HW223577   6.383   5.688   1.285
 7560SOL     OW23578   5.388   6.852   6.955
 7560SOL    HW123579   5.289   6.847   6.944
 7560SOL    HW223580   5.432   6.806   6.877
 7561SOL     OW23581   0.840   3.350   0.111
 7561SOL    HW123582   0.935   3.380   0.110
 7561SOL    HW223583   0.836   3.250   0.105
 7562SOL     OW23584   5.082   6.052   4.396
 7562SOL    HW123585   5.093   5.986   4.322
 7562SOL    HW223586   4.986   6.081   4.402
 7563SOL     OW23587   2.974   0.021   1.013
 7563SOL    HW123588   2.881   0.052   1.033
 7563SOL    HW223589   3.004   0.058   0.925
 7564SOL     OW23590   5.007   0.918   3.361
 7564SOL    HW123591   4.951   0.992   3.323
 7564SOL    HW223592   4.978   0.900   3.455
 7565SOL     OW23593   4.901   4.501   6.764
 7565SOL    HW123594   4.948   4.500   6.675
 7565SOL    HW223595   4.819   4.558   6.757
 7566SOL     OW23596   1.017   4.705   3.736
 7566SOL    HW123597   0.965   4.647   3.800
 7566SOL    HW223598   0.988   4.800   3.747
 7567SOL     OW23599   1.178   3.321   5.637
 7567SOL    HW123600   1.248   3.271   5.586
 7567SOL    HW223601   1.120   3.256   5.687
 7568SOL     OW23602   5.904   5.332   4.312
 7568SOL    HW123603   5.938   5.425   4.321
 7568SOL    HW223604   5.947   5.273   4.381
 7569SOL     OW23605   4.692   5.882   6.119
 7569SOL    HW123606   4.610   5.905   6.066
 7569SOL    HW223607   4.665   5.855   6.211
 7570SOL     OW23608   5.627   4.700   5.358
 7570SOL    HW123609   5.575   4.745   5.286
 7570SOL    HW223610   5.567   4.640   5.411
 7571SOL     OW23611   5.146   4.658   1.694
 7571SOL    HW123612   5.155   4.712   1.777
 7571SOL    HW223613   5.200   4.700   1.621
 7572SOL     OW23614   4.965   0.259   3.924
 7572SOL    HW123615   4.865   0.251   3.927
 7572SOL    HW223616   4.991   0.332   3.861
 7573SOL     OW23617   5.499   5.611   4.150
 7573SOL    HW123618   5.487   5.689   4.211
 7573SOL    HW223619   5.578   5.627   4.091
 7574SOL     OW23620   5.608   1.415   4.479
 7574SOL    HW123621   5.652   1.326   4.495
 7574SOL    HW223622   5.535   1.428   4.546
 7575SOL     OW23623   4.212   0.741   5.939
 7575SOL    HW123624   4.156   0.781   5.866
 7575SOL    HW223625   4.251   0.814   5.995
 7576SOL     OW23626   5.897   5.491   0.122
 7576SOL    HW123627   5.861   5.578   0.088
 7576SOL    HW223628   5.853   5.416   0.073
 7577SOL     OW23629   6.567   0.243   4.969
 7577SOL    HW123630   6.520   0.310   4.911
 7577SOL    HW223631   6.633   0.291   5.028
 7578SOL     OW23632   1.870   6.337   3.820
 7578SOL    HW123633   1.905   6.295   3.904
 7578SOL    HW223634   1.830   6.426   3.841
 7579SOL     OW23635   4.079   2.191   2.078
 7579SOL    HW123636   3.999   2.252   2.073
 7579SOL    HW223637   4.155   2.233   2.027
 7580SOL     OW23638   1.480   3.571   3.991
 7580SOL    HW123639   1.512   3.658   4.027
 7580SOL    HW223640   1.542   3.540   3.919
 7581SOL     OW23641   4.375   1.261   0.437
 7581SOL    HW123642   4.368   1.318   0.519
 7581SOL    HW223643   4.425   1.177   0.460
 7582SOL     OW23644   3.807   1.548   0.383
 7582SOL    HW123645   3.901   1.528   0.413
 7582SOL    HW223646   3.807   1.570   0.286
 7583SOL     OW23647   6.203   3.559   1.892
 7583SOL    HW123648   6.128   3.610   1.849
 7583SOL    HW223649   6.251   3.619   1.956
 7584SOL     OW23650   2.512   6.900   1.388
 7584SOL    HW123651   2.562   6.962   1.449
 7584SOL    HW223652   2.414   6.913   1.400
 7585SOL     OW23653   1.505   3.218   5.732
 7585SOL    HW123654   1.484   3.304   5.686
 7585SOL    HW223655   1.603   3.212   5.750
 7586SOL     OW23656   2.892   0.928   2.875
 7586SOL    HW123657   2.869   0.842   2.829
 7586SOL    HW223658   2.950   0.908   2.954
 7587SOL     OW23659   2.626   1.402   6.594
 7587SOL    HW123660   2.700   1.400   6.527
 7587SOL    HW223661   2.618   1.494   6.632
 7588SOL     OW23662   0.465   3.830   1.531
 7588SOL    HW123663   0.556   3.870   1.525
 7588SOL    HW223664   0.399   3.892   1.489
 7589SOL     OW23665   6.113   6.150   0.754
 7589SOL    HW123666   6.190   6.213   0.748
 7589SOL    HW223667   6.135   6.065   0.705
 7590SOL     OW23668   3.173   1.797   6.325
 7590SOL    HW123669   3.090   1.847   6.348
 7590SOL    HW223670   3.241   1.811   6.397
 7591SOL     OW23671   0.343   5.456   0.656
 7591SOL    HW123672   0.407   5.387   0.620
 7591SOL    HW223673   0.395   5.526   0.706
 7592SOL     OW23674   7.001   4.334   6.574
 7592SOL    HW123675   6.928   4.394   6.541
 7592SOL    HW223676   0.064   4.382   6.566
 7593SOL     OW23677   5.844   2.764   6.801
 7593SOL    HW123678   5.884   2.854   6.820
 7593SOL    HW223679   5.896   2.693   6.847
 7594SOL     OW23680   0.491   4.605   1.645
 7594SOL    HW123681   0.510   4.703   1.652
 7594SOL    HW223682   0.503   4.576   1.550
 7595SOL     OW23683   0.626   3.078   6.462
 7595SOL    HW123684   0.639   2.981   6.442
 7595SOL    HW223685   0.603   3.126   6.377
 7596SOL     OW23686   4.741   5.640   2.232
 7596SOL    HW123687   4.740   5.631   2.332
 7596SOL    HW223688   4.711   5.732   2.207
 7597SOL     OW23689   2.701   5.975   1.600
 7597SOL    HW123690   2.753   6.059   1.587
 7597SOL    HW223691   2.751   5.913   1.660
 7598SOL     OW23692   5.996   0.947   2.906
 7598SOL    HW123693   5.948   0.946   2.818
 7598SOL    HW223694   5.937   0.988   2.976
 7599SOL     OW23695   5.230   1.125   3.456
 7599SOL    HW123696   5.199   1.073   3.535
 7599SOL    HW223697   5.165   1.200   3.438
 7600SOL     OW23698   1.951   0.776   2.435
 7600SOL    HW123699   2.015   0.775   2.358
 7600SOL    HW223700   1.860   0.801   2.402
 7601SOL     OW23701   1.984   5.606   3.180
 7601SOL    HW123702   1.911   5.673   3.196
 7601SOL    HW223703   2.047   5.641   3.111
 7602SOL     OW23704   1.608   3.875   5.284
 7602SOL    HW123705   1.556   3.883   5.199
 7602SOL    HW223706   1.585   3.952   5.345
 7603SOL     OW23707   1.169   6.240   6.462
 7603SOL    HW123708   1.229   6.305   6.508
 7603SOL    HW223709   1.119   6.187   6.530
 7604SOL     OW23710   2.678   5.571   4.036
 7604SOL    HW123711   2.665   5.471   4.041
 7604SOL    HW223712   2.624   5.608   3.961
 7605SOL     OW23713   1.838   6.302   0.430
 7605SOL    HW123714   1.738   6.308   0.424
 7605SOL    HW223715   1.879   6.370   0.369
 7606SOL     OW23716   0.236   2.234   2.329
 7606SOL    HW123717   0.258   2.319   2.377
 7606SOL    HW223718   0.171   2.253   2.256
 7607SOL     OW23719   4.326   6.596   0.004
 7607SOL    HW123720   4.237   6.629   0.036
 7607SOL    HW223721   4.391   6.671   0.000
 7608SOL     OW23722   3.431   4.183   3.244
 7608SOL    HW123723   3.470   4.092   3.236
 7608SOL    HW223724   3.336   4.182   3.211
 7609SOL     OW23725   6.469   3.459   3.071
 7609SOL    HW123726   6.506   3.462   2.978
 7609SOL    HW223727   6.534   3.413   3.131
 7610SOL     OW23728   5.985   1.000   0.343
 7610SOL    HW123729   5.885   0.996   0.346
 7610SOL    HW223730   6.013   1.068   0.276
 7611SOL     OW23731   0.660   1.677   0.035
 7611SOL    HW123732   0.697   1.667   6.968
 7611SOL    HW223733   0.607   1.595   0.058
 7612SOL     OW23734   4.021   2.053   4.352
 7612SOL    HW123735   3.996   2.098   4.438
 7612SOL    HW223736   4.069   1.967   4.372
 7613SOL     OW23737   4.618   2.046   1.872
 7613SOL    HW123738   4.585   2.026   1.964
 7613SOL    HW223739   4.664   2.135   1.871
 7614SOL     OW23740   4.366   2.888   1.648
 7614SOL    HW123741   4.312   2.855   1.570
 7614SOL    HW223742   4.438   2.821   1.668
 7615SOL     OW23743   5.388   4.754   6.273
 7615SOL    HW123744   5.356   4.827   6.335
 7615SOL    HW223745   5.347   4.768   6.183
 7616SOL     OW23746   0.633   4.444   4.197
 7616SOL    HW123747   0.710   4.415   4.140
 7616SOL    HW223748   0.563   4.486   4.139
 7617SOL     OW23749   2.710   5.796   2.743
 7617SOL    HW123750   2.748   5.732   2.810
 7617SOL    HW223751   2.717   5.756   2.652
 7618SOL     OW23752   1.178   1.708   6.781
 7618SOL    HW123753   1.255   1.767   6.756
 7618SOL    HW223754   1.093   1.760   6.775
 7619SOL     OW23755   5.669   3.156   5.189
 7619SOL    HW123756   5.702   3.203   5.107
 7619SOL    HW223757   5.611   3.079   5.162
 7620SOL     OW23758   3.565   5.922   0.403
 7620SOL    HW123759   3.655   5.920   0.448
 7620SOL    HW223760   3.520   6.009   0.423
 7621SOL     OW23761   0.697   1.113   0.420
 7621SOL    HW123762   0.602   1.087   0.434
 7621SOL    HW223763   0.702   1.211   0.402
 7622SOL     OW23764   5.512   3.731   1.667
 7622SOL    HW123765   5.603   3.723   1.709
 7622SOL    HW223766   5.514   3.804   1.599
 7623SOL     OW23767   4.430   4.916   6.323
 7623SOL    HW123768   4.351   4.923   6.263
 7623SOL    HW223769   4.491   4.844   6.289
 7624SOL     OW23770   0.618   2.787   4.291
 7624SOL    HW123771   0.715   2.777   4.315
 7624SOL    HW223772   0.592   2.715   4.226
 7625SOL     OW23773   4.610   0.363   0.773
 7625SOL    HW123774   4.540   0.433   0.787
 7625SOL    HW223775   4.659   0.348   0.859
 7626SOL     OW23776   6.836   6.676   5.422
 7626SOL    HW123777   6.908   6.626   5.470
 7626SOL    HW223778   6.821   6.635   5.332
 7627SOL     OW23779   6.241   3.116   7.007
 7627SOL    HW123780   6.286   3.160   6.930
 7627SOL    HW223781   6.304   3.054   0.028
 7628SOL     OW23782   3.411   0.490   1.120
 7628SOL    HW123783   3.417   0.560   1.049
 7628SOL    HW223784   3.499   0.444   1.129
 7629SOL     OW23785   6.416   6.766   2.876
 7629SOL    HW123786   6.418   6.672   2.912
 7629SOL    HW223787   6.325   6.805   2.889
 7630SOL     OW23788   6.339   6.146   2.094
 7630SOL    HW123789   6.391   6.225   2.128
 7630SOL    HW223790   6.302   6.095   2.172
 7631SOL     OW23791   1.182   1.439   5.596
 7631SOL    HW123792   1.160   1.494   5.516
 7631SOL    HW223793   1.115   1.455   5.668
 7632SOL     OW23794   3.859   2.020   1.517
 7632SOL    HW123795   3.930   1.951   1.511
 7632SOL    HW223796   3.829   2.031   1.611
 7633SOL     OW23797   4.739   2.464   0.386
 7633SOL    HW123798   4.764   2.371   0.413
 7633SOL    HW223799   4.645   2.482   0.415
 7634SOL     OW23800   1.344   1.259   2.260
 7634SOL    HW123801   1.353   1.229   2.165
 7634SOL    HW223802   1.356   1.181   2.322
 7635SOL     OW23803   2.424   4.882   5.492
 7635SOL    HW123804   2.450   4.786   5.492
 7635SOL    HW223805   2.329   4.891   5.522
 7636SOL     OW23806   0.987   1.456   3.197
 7636SOL    HW123807   0.964   1.458   3.100
 7636SOL    HW223808   1.065   1.395   3.211
 7637SOL     OW23809   1.559   6.614   2.352
 7637SOL    HW123810   1.599   6.524   2.369
 7637SOL    HW223811   1.557   6.631   2.253
 7638SOL     OW23812   5.149   5.961   2.269
 7638SOL    HW123813   5.225   5.970   2.333
 7638SOL    HW223814   5.129   6.050   2.228
 7639SOL     OW23815   1.154   2.149   0.329
 7639SOL    HW123816   1.217   2.202   0.386
 7639SOL    HW223817   1.204   2.074   0.285
 7640SOL     OW23818   2.815   2.333   6.891
 7640SOL    HW123819   2.773   2.424   6.895
 7640SOL    HW223820   2.743   2.264   6.887
 7641SOL     OW23821   0.849   4.130   1.604
 7641SOL    HW123822   0.875   4.086   1.690
 7641SOL    HW223823   0.790   4.208   1.623
 7642SOL     OW23824   2.736   1.641   2.985
 7642SOL    HW123825   2.723   1.543   2.997
 7642SOL    HW223826   2.672   1.691   3.043
 7643SOL     OW23827   4.230   1.837   4.267
 7643SOL    HW123828   4.290   1.894   4.324
 7643SOL    HW223829   4.269   1.830   4.175
 7644SOL     OW23830   6.251   1.799   2.686
 7644SOL    HW123831   6.336   1.838   2.721
 7644SOL    HW223832   6.203   1.868   2.631
 7645SOL     OW23833   4.664   4.695   6.036
 7645SOL    HW123834   4.620   4.638   5.967
 7645SOL    HW223835   4.613   4.687   6.122
 7646SOL     OW23836   1.586   2.974   2.611
 7646SOL    HW123837   1.554   2.970   2.517
 7646SOL    HW223838   1.669   2.920   2.621
 7647SOL     OW23839   1.491   3.012   1.112
 7647SOL    HW123840   1.511   2.921   1.075
 7647SOL    HW223841   1.574   3.052   1.149
 7648SOL     OW23842   3.997   2.177   3.912
 7648SOL    HW123843   3.942   2.225   3.980
 7648SOL    HW223844   3.999   2.079   3.932
 7649SOL     OW23845   1.626   0.858   2.878
 7649SOL    HW123846   1.622   0.763   2.909
 7649SOL    HW223847   1.720   0.891   2.881
 7650SOL     OW23848   5.935   3.444   1.295
 7650SOL    HW123849   5.898   3.525   1.340
 7650SOL    HW223850   5.864   3.401   1.239
 7651SOL     OW23851   2.776   0.067   5.605
 7651SOL    HW123852   2.833   0.146   5.626
 7651SOL    HW223853   2.818   7.009   5.642
 7652SOL     OW23854   6.885   3.722   4.299
 7652SOL    HW123855   6.926   3.635   4.328
 7652SOL    HW223856   6.814   3.704   4.231
 7653SOL     OW23857   2.559   2.039   0.084
 7653SOL    HW123858   2.605   1.996   0.161
 7653SOL    HW223859   2.473   1.993   0.066
 7654SOL     OW23860   4.806   2.842   3.111
 7654SOL    HW123861   4.900   2.823   3.083
 7654SOL    HW223862   4.805   2.865   3.208
 7655SOL     OW23863   3.650   0.593   3.805
 7655SOL    HW123864   3.721   0.649   3.847
 7655SOL    HW223865   3.620   0.635   3.719
 7656SOL     OW23866   1.080   5.715   5.779
 7656SOL    HW123867   1.068   5.694   5.682
 7656SOL    HW223868   0.993   5.747   5.817
 7657SOL     OW23869   2.641   2.433   2.674
 7657SOL    HW123870   2.673   2.420   2.768
 7657SOL    HW223871   2.709   2.396   2.610
 7658SOL     OW23872   4.620   6.644   5.846
 7658SOL    HW123873   4.587   6.727   5.889
 7658SOL    HW223874   4.720   6.641   5.849
 7659SOL     OW23875   5.591   6.325   6.462
 7659SOL    HW123876   5.541   6.276   6.534
 7659SOL    HW223877   5.623   6.412   6.497
 7660SOL     OW23878   6.625   5.479   4.435
 7660SOL    HW123879   6.665   5.388   4.422
 7660SOL    HW223880   6.602   5.518   4.346
 7661SOL     OW23881   6.128   1.835   4.402
 7661SOL    HW123882   6.083   1.774   4.467
 7661SOL    HW223883   6.132   1.790   4.312
 7662SOL     OW23884   1.005   2.115   2.026
 7662SOL    HW123885   0.934   2.106   1.956
 7662SOL    HW223886   1.007   2.209   2.058
 7663SOL     OW23887   6.154   6.677   6.100
 7663SOL    HW123888   6.176   6.705   6.194
 7663SOL    HW223889   6.229   6.705   6.039
 7664SOL     OW23890   3.516   0.259   2.524
 7664SOL    HW123891   3.581   0.231   2.453
 7664SOL    HW223892   3.563   0.315   2.592
 7665SOL     OW23893   3.952   0.581   3.711
 7665SOL    HW123894   3.981   0.502   3.765
 7665SOL    HW223895   3.898   0.643   3.769
 7666SOL     OW23896   6.784   0.184   1.173
 7666SOL    HW123897   6.760   0.118   1.244
 7666SOL    HW223898   6.846   0.253   1.212
 7667SOL     OW23899   5.018   5.933   1.347
 7667SOL    HW123900   5.018   6.024   1.387
 7667SOL    HW223901   4.978   5.937   1.255
 7668SOL     OW23902   2.796   4.461   0.972
 7668SOL    HW123903   2.722   4.506   0.924
 7668SOL    HW223904   2.883   4.503   0.947
 7669SOL     OW23905   5.484   1.698   5.060
 7669SOL    HW123906   5.387   1.674   5.062
 7669SOL    HW223907   5.527   1.657   4.980
 7670SOL     OW23908   1.613   5.766   6.316
 7670SOL    HW123909   1.535   5.706   6.333
 7670SOL    HW223910   1.676   5.721   6.253
 7671SOL     OW23911   4.442   1.330   5.224
 7671SOL    HW123912   4.480   1.390   5.153
 7671SOL    HW223913   4.372   1.380   5.275
 7672SOL     OW23914   5.674   6.192   3.894
 7672SOL    HW123915   5.642   6.205   3.988
 7672SOL    HW223916   5.691   6.095   3.878
 7673SOL     OW23917   2.403   5.190   0.192
 7673SOL    HW123918   2.475   5.129   0.161
 7673SOL    HW223919   2.381   5.255   0.119
 7674SOL     OW23920   6.561   2.214   4.211
 7674SOL    HW123921   6.588   2.310   4.198
 7674SOL    HW223922   6.537   2.200   4.307
 7675SOL     OW23923   5.142   0.638   2.842
 7675SOL    HW123924   5.117   0.731   2.866
 7675SOL    HW223925   5.101   0.574   2.907
 7676SOL     OW23926   1.061   1.833   0.338
 7676SOL    HW123927   1.069   1.793   0.429
 7676SOL    HW223928   0.969   1.872   0.326
 7677SOL     OW23929   1.225   3.939   1.435
 7677SOL    HW123930   1.172   3.904   1.512
 7677SOL    HW223931   1.252   3.863   1.376
 7678SOL     OW23932   1.940   1.254   5.966
 7678SOL    HW123933   1.914   1.245   5.869
 7678SOL    HW223934   2.040   1.248   5.974
 7679SOL     OW23935   0.926   6.588   5.050
 7679SOL    HW123936   0.981   6.575   5.132
 7679SOL    HW223937   0.948   6.676   5.009
 7680SOL     OW23938   1.961   2.812   0.078
 7680SOL    HW123939   2.032   2.825   0.147
 7680SOL    HW223940   1.895   2.745   0.111
 7681SOL     OW23941   3.029   0.101   0.356
 7681SOL    HW123942   2.934   0.073   0.367
 7681SOL    HW223943   3.034   0.201   0.350
 7682SOL     OW23944   2.551   0.128   2.048
 7682SOL    HW123945   2.453   0.129   2.031
 7682SOL    HW223946   2.577   0.043   2.094
 7683SOL     OW23947   6.669   1.959   4.182
 7683SOL    HW123948   6.711   1.926   4.097
 7683SOL    HW223949   6.649   2.056   4.173
 7684SOL     OW23950   5.551   2.148   0.265
 7684SOL    HW123951   5.590   2.229   0.222
 7684SOL    HW223952   5.473   2.173   0.322
 7685SOL     OW23953   3.460   3.198   0.148
 7685SOL    HW123954   3.517   3.122   0.114
 7685SOL    HW223955   3.412   3.168   0.231
 7686SOL     OW23956   4.674   0.355   3.683
 7686SOL    HW123957   4.626   0.429   3.636
 7686SOL    HW223958   4.684   0.277   3.622
 7687SOL     OW23959   6.241   5.658   5.323
 7687SOL    HW123960   6.169   5.690   5.385
 7687SOL    HW223961   6.219   5.685   5.230
 7688SOL     OW23962   0.563   0.623   6.765
 7688SOL    HW123963   0.632   0.650   6.832
 7688SOL    HW223964   0.587   0.661   6.675
 7689SOL     OW23965   5.348   6.131   3.569
 7689SOL    HW123966   5.393   6.196   3.630
 7689SOL    HW223967   5.330   6.046   3.619
 7690SOL     OW23968   6.120   5.238   1.469
 7690SOL    HW123969   6.111   5.292   1.386
 7690SOL    HW223970   6.215   5.206   1.477
 7691SOL     OW23971   4.685   2.830   4.336
 7691SOL    HW123972   4.707   2.753   4.275
 7691SOL    HW223973   4.678   2.914   4.282
 7692SOL     OW23974   0.697   6.995   1.193
 7692SOL    HW123975   0.667   6.905   1.224
 7692SOL    HW223976   0.779   6.985   1.137
 7693SOL     OW23977   4.528   6.841   0.646
 7693SOL    HW123978   4.530   6.763   0.707
 7693SOL    HW223979   4.434   6.870   0.630
 7694SOL     OW23980   0.399   4.327   4.283
 7694SOL    HW123981   0.493   4.360   4.269
 7694SOL    HW223982   0.392   4.288   4.375
 7695SOL     OW23983   4.237   6.855   0.631
 7695SOL    HW123984   4.190   6.842   0.718
 7695SOL    HW223985   4.207   6.785   0.566
 7696SOL     OW23986   6.818   1.986   4.430
 7696SOL    HW123987   6.777   1.997   4.339
 7696SOL    HW223988   6.829   1.888   4.450
 7697SOL     OW23989   2.708   0.816   2.542
 7697SOL    HW123990   2.626   0.786   2.590
 7697SOL    HW223991   2.706   0.781   2.448
 7698SOL     OW23992   0.333   2.930   4.647
 7698SOL    HW123993   0.263   2.960   4.712
 7698SOL    HW223994   0.331   2.830   4.640
 7699SOL     OW23995   3.397   5.652   6.662
 7699SOL    HW123996   3.345   5.567   6.672
 7699SOL    HW223997   3.485   5.643   6.708
 7700SOL     OW23998   5.389   6.809   5.188
 7700SOL    HW123999   5.341   6.736   5.140
 7700SOL    HW224000   5.392   6.891   5.131
 7701SOL     OW24001   6.057   1.688   6.752
 7701SOL    HW124002   6.004   1.772   6.753
 7701SOL    HW224003   6.106   1.678   6.839
 7702SOL     OW24004   3.283   6.333   5.292
 7702SOL    HW124005   3.192   6.325   5.251
 7702SOL    HW224006   3.342   6.386   5.232
 7703SOL     OW24007   6.667   1.418   4.734
 7703SOL    HW124008   6.588   1.476   4.711
 7703SOL    HW224009   6.720   1.399   4.651
 7704SOL     OW24010   4.596   4.746   5.500
 7704SOL    HW124011   4.593   4.820   5.434
 7704SOL    HW224012   4.670   4.762   5.566
 7705SOL     OW24013   3.634   4.720   6.053
 7705SOL    HW124014   3.559   4.782   6.074
 7705SOL    HW224015   3.623   4.635   6.104
 7706SOL     OW24016   5.014   1.704   5.887
 7706SOL    HW124017   5.043   1.678   5.795
 7706SOL    HW224018   5.062   1.647   5.954
 7707SOL     OW24019   0.790   5.941   6.557
 7707SOL    HW124020   0.745   6.013   6.610
 7707SOL    HW224021   0.731   5.913   6.481
 7708SOL     OW24022   5.041   6.064   5.254
 7708SOL    HW124023   5.027   6.060   5.155
 7708SOL    HW224024   4.960   6.101   5.299
 7709SOL     OW24025   5.180   3.783   2.018
 7709SOL    HW124026   5.104   3.745   1.967
 7709SOL    HW224027   5.239   3.836   1.957
 7710SOL     OW24028   2.532   0.898   0.978
 7710SOL    HW124029   2.566   0.842   1.054
 7710SOL    HW224030   2.507   0.988   1.013
 7711SOL     OW24031   6.491   6.287   4.889
 7711SOL    HW124032   6.469   6.189   4.883
 7711SOL    HW224033   6.539   6.315   4.807
 7712SOL     OW24034   6.839   4.272   1.263
 7712SOL    HW124035   6.859   4.356   1.314
 7712SOL    HW224036   6.925   4.228   1.237
 7713SOL     OW24037   1.735   4.727   0.542
 7713SOL    HW124038   1.646   4.695   0.510
 7713SOL    HW224039   1.807   4.672   0.500
 7714SOL     OW24040   6.698   5.765   5.177
 7714SOL    HW124041   6.747   5.842   5.217
 7714SOL    HW224042   6.755   5.683   5.184
 7715SOL     OW24043   4.954   1.218   1.312
 7715SOL    HW124044   5.038   1.181   1.353
 7715SOL    HW224045   4.959   1.318   1.313
 7716SOL     OW24046   5.737   3.397   3.805
 7716SOL    HW124047   5.809   3.328   3.816
 7716SOL    HW224048   5.776   3.488   3.821
 7717SOL     OW24049   2.717   1.270   4.740
 7717SOL    HW124050   2.748   1.337   4.672
 7717SOL    HW224051   2.764   1.286   4.826
 7718SOL     OW24052   1.468   2.722   2.758
 7718SOL    HW124053   1.470   2.764   2.849
 7718SOL    HW224054   1.498   2.789   2.690
 7719SOL     OW24055   6.864   3.266   3.595
 7719SOL    HW124056   6.844   3.347   3.541
 7719SOL    HW224057   6.962   3.261   3.612
 7720SOL     OW24058   0.198   6.820   0.662
 7720SOL    HW124059   0.140   6.810   0.742
 7720SOL    HW224060   0.217   6.917   0.646
 7721SOL     OW24061   1.697   4.255   3.353
 7721SOL    HW124062   1.731   4.198   3.278
 7721SOL    HW224063   1.628   4.318   3.319
 7722SOL     OW24064   0.251   5.177   2.748
 7722SOL    HW124065   0.295   5.135   2.827
 7722SOL    HW224066   0.193   5.109   2.703
 7723SOL     OW24067   6.504   4.126   0.549
 7723SOL    HW124068   6.456   4.214   0.558
 7723SOL    HW224069   6.505   4.079   0.638
 7724SOL     OW24070   2.413   4.332   2.244
 7724SOL    HW124071   2.486   4.401   2.238
 7724SOL    HW224072   2.424   4.266   2.170
 7725SOL     OW24073   5.277   2.590   3.304
 7725SOL    HW124074   5.187   2.623   3.276
 7725SOL    HW224075   5.320   2.542   3.228
 7726SOL     OW24076   0.270   5.148   3.966
 7726SOL    HW124077   0.339   5.160   4.038
 7726SOL    HW224078   0.220   5.234   3.954
 7727SOL     OW24079   5.877   2.058   3.423
 7727SOL    HW124080   5.836   2.148   3.413
 7727SOL    HW224081   5.890   2.039   3.521
 7728SOL     OW24082   0.932   3.853   3.816
 7728SOL    HW124083   0.999   3.891   3.880
 7728SOL    HW224084   0.913   3.921   3.745
 7729SOL     OW24085   5.938   2.626   1.792
 7729SOL    HW124086   5.856   2.638   1.735
 7729SOL    HW224087   5.984   2.714   1.802
 7730SOL     OW24088   5.732   5.607   2.140
 7730SOL    HW124089   5.793   5.576   2.213
 7730SOL    HW224090   5.728   5.537   2.068
 7731SOL     OW24091   5.813   1.022   1.100
 7731SOL    HW124092   5.834   1.105   1.152
 7731SOL    HW224093   5.723   1.030   1.059
 7732SOL     OW24094   4.643   6.027   0.586
 7732SOL    HW124095   4.719   6.023   0.521
 7732SOL    HW224096   4.672   6.076   0.669
 7733SOL     OW24097   4.348   6.175   2.024
 7733SOL    HW124098   4.433   6.187   1.973
 7733SOL    HW224099   4.338   6.249   2.090
 7734SOL     OW24100   1.702   4.145   3.876
 7734SOL    HW124101   1.682   4.083   3.800
 7734SOL    HW224102   1.690   4.098   3.962
 7735SOL     OW24103   3.676   4.973   6.340
 7735SOL    HW124104   3.682   5.014   6.431
 7735SOL    HW224105   3.642   5.040   6.275
 7736SOL     OW24106   5.338   4.500   6.920
 7736SOL    HW124107   5.421   4.491   6.975
 7736SOL    HW224108   5.259   4.511   6.980
 7737SOL     OW24109   4.442   1.041   1.026
 7737SOL    HW124110   4.482   1.110   0.966
 7737SOL    HW224111   4.357   1.076   1.065
 7738SOL     OW24112   2.128   5.726   6.943
 7738SOL    HW124113   2.200   5.740   6.875
 7738SOL    HW224114   2.074   5.810   6.951
 7739SOL     OW24115   0.124   1.456   1.458
 7739SOL    HW124116   0.154   1.361   1.443
 7739SOL    HW224117   0.028   1.457   1.483
 7740SOL     OW24118   0.495   0.811   2.830
 7740SOL    HW124119   0.423   0.836   2.765
 7740SOL    HW224120   0.561   0.751   2.784
 7741SOL     OW24121   1.530   6.167   4.340
 7741SOL    HW124122   1.454   6.182   4.277
 7741SOL    HW224123   1.612   6.143   4.288
 7742SOL     OW24124   6.321   2.056   3.472
 7742SOL    HW124125   6.260   2.087   3.545
 7742SOL    HW224126   6.416   2.072   3.498
 7743SOL     OW24127   4.271   2.571   6.603
 7743SOL    HW124128   4.253   2.578   6.701
 7743SOL    HW224129   4.317   2.485   6.583
 7744SOL     OW24130   0.597   5.854   4.246
 7744SOL    HW124131   0.652   5.877   4.326
 7744SOL    HW224132   0.575   5.756   4.247
 7745SOL     OW24133   3.191   2.284   5.592
 7745SOL    HW124134   3.271   2.333   5.627
 7745SOL    HW224135   3.171   2.206   5.651
 7746SOL     OW24136   2.764   0.012   6.504
 7746SOL    HW124137   2.708   0.056   6.433
 7746SOL    HW224138   2.735   6.942   6.515
 7747SOL     OW24139   4.480   6.056   1.246
 7747SOL    HW124140   4.454   5.961   1.225
 7747SOL    HW224141   4.507   6.103   1.162
 7748SOL     OW24142   2.871   3.688   5.748
 7748SOL    HW124143   2.901   3.748   5.823
 7748SOL    HW224144   2.949   3.668   5.689
 7749SOL     OW24145   4.432   3.563   5.851
 7749SOL    HW124146   4.491   3.505   5.907
 7749SOL    HW224147   4.336   3.547   5.878
 7750SOL     OW24148   0.555   6.246   1.471
 7750SOL    HW124149   0.635   6.186   1.483
 7750SOL    HW224150   0.505   6.218   1.390
 7751SOL     OW24151   1.316   1.691   2.010
 7751SOL    HW124152   1.276   1.642   1.933
 7751SOL    HW224153   1.247   1.750   2.051
 7752SOL     OW24154   5.139   0.531   5.084
 7752SOL    HW124155   5.129   0.624   5.049
 7752SOL    HW224156   5.049   0.493   5.106
 7753SOL     OW24157   1.784   1.577   4.599
 7753SOL    HW124158   1.799   1.616   4.509
 7753SOL    HW224159   1.852   1.612   4.663
 7754SOL     OW24160   3.654   6.118   1.493
 7754SOL    HW124161   3.658   6.019   1.498
 7754SOL    HW224162   3.744   6.154   1.467
 7755SOL     OW24163   1.279   3.252   6.042
 7755SOL    HW124164   1.331   3.279   5.962
 7755SOL    HW224165   1.313   3.164   6.076
 7756SOL     OW24166   2.690   6.712   1.768
 7756SOL    HW124167   2.700   6.811   1.779
 7756SOL    HW224168   2.630   6.693   1.691
 7757SOL     OW24169   6.565   4.530   1.133
 7757SOL    HW124170   6.495   4.498   1.198
 7757SOL    HW224171   6.613   4.451   1.095
 7758SOL     OW24172   1.581   0.008   6.299
 7758SOL    HW124173   1.659   0.066   6.324
 7758SOL    HW224174   1.588   7.009   6.202
 7759SOL     OW24175   3.256   2.221   5.914
 7759SOL    HW124176   3.199   2.302   5.899
 7759SOL    HW224177   3.215   2.164   5.986
 7760SOL     OW24178   5.088   2.296   2.282
 7760SOL    HW124179   5.025   2.237   2.231
 7760SOL    HW224180   5.047   2.321   2.370
 7761SOL     OW24181   5.636   5.739   5.023
 7761SOL    HW124182   5.627   5.641   5.002
 7761SOL    HW224183   5.634   5.752   5.122
 7762SOL     OW24184   1.247   0.472   4.108
 7762SOL    HW124185   1.182   0.505   4.039
 7762SOL    HW224186   1.335   0.455   4.064
 7763SOL     OW24187   2.033   0.267   5.347
 7763SOL    HW124188   2.082   0.188   5.309
 7763SOL    HW224189   2.003   0.246   5.440
 7764SOL     OW24190   3.268   4.007   5.459
 7764SOL    HW124191   3.221   3.934   5.409
 7764SOL    HW224192   3.200   4.062   5.508
 7765SOL     OW24193   6.432   3.975   4.336
 7765SOL    HW124194   6.405   3.908   4.405
 7765SOL    HW224195   6.473   3.928   4.258
 7766SOL     OW24196   0.546   4.202   0.474
 7766SOL    HW124197   0.544   4.287   0.422
 7766SOL    HW224198   0.635   4.191   0.517
 7767SOL     OW24199   3.980   6.777   2.662
 7767SOL    HW124200   3.959   6.830   2.580
 7767SOL    HW224201   4.009   6.685   2.636
 7768SOL     OW24202   4.892   4.368   3.313
 7768SOL    HW124203   4.953   4.322   3.249
 7768SOL    HW224204   4.844   4.442   3.266
 7769SOL     OW24205   3.766   2.026   5.391
 7769SOL    HW124206   3.698   2.077   5.339
 7769SOL    HW224207   3.857   2.065   5.374
 7770SOL     OW24208   0.203   3.523   4.839
 7770SOL    HW124209   0.260   3.518   4.922
 7770SOL    HW224210   0.251   3.577   4.770
 7771SOL     OW24211   2.980   1.970   5.963
 7771SOL    HW124212   2.890   1.976   5.919
 7771SOL    HW224213   3.048   1.943   5.895
 7772SOL     OW24214   4.787   0.563   0.712
 7772SOL    HW124215   4.773   0.635   0.780
 7772SOL    HW224216   4.741   0.480   0.741
 7773SOL     OW24217   2.664   6.011   0.119
 7773SOL    HW124218   2.629   6.104   0.108
 7773SOL    HW224219   2.589   5.945   0.113
 7774SOL     OW24220   4.615   2.194   3.945
 7774SOL    HW124221   4.631   2.245   3.860
 7774SOL    HW224222   4.697   2.142   3.968
 7775SOL     OW24223   4.112   0.381   6.888
 7775SOL    HW124224   4.074   0.333   6.967
 7775SOL    HW224225   4.154   0.314   6.826
 7776SOL     OW24226   0.414   6.838   6.218
 7776SOL    HW124227   0.391   6.823   6.315
 7776SOL    HW224228   0.480   6.768   6.189
 7777SOL     OW24229   6.035   5.254   4.557
 7777SOL    HW124230   5.961   5.221   4.616
 7777SOL    HW224231   6.114   5.280   4.613
 7778SOL     OW24232   5.868   3.882   2.946
 7778SOL    HW124233   5.898   3.807   2.886
 7778SOL    HW224234   5.812   3.946   2.893
 7779SOL     OW24235   3.521   6.774   2.697
 7779SOL    HW124236   3.548   6.846   2.633
 7779SOL    HW224237   3.422   6.780   2.714
 7780SOL     OW24238   0.236   6.265   6.367
 7780SOL    HW124239   0.299   6.192   6.395
 7780SOL    HW224240   0.284   6.353   6.369
 7781SOL     OW24241   1.789   3.820   0.449
 7781SOL    HW124242   1.701   3.852   0.415
 7781SOL    HW224243   1.854   3.816   0.373
 7782SOL     OW24244   6.170   4.975   3.188
 7782SOL    HW124245   6.248   4.999   3.245
 7782SOL    HW224246   6.172   5.029   3.104
 7783SOL     OW24247   0.420   0.007   5.914
 7783SOL    HW124248   0.393   7.018   5.819
 7783SOL    HW224249   0.338   0.010   5.971
 7784SOL     OW24250   2.700   2.577   1.794
 7784SOL    HW124251   2.766   2.503   1.807
 7784SOL    HW224252   2.630   2.572   1.866
 7785SOL     OW24253   1.483   6.300   3.323
 7785SOL    HW124254   1.436   6.379   3.283
 7785SOL    HW224255   1.441   6.278   3.412
 7786SOL     OW24256   4.519   0.840   6.582
 7786SOL    HW124257   4.421   0.822   6.594
 7786SOL    HW224258   4.532   0.933   6.547
 7787SOL     OW24259   2.539   3.574   0.907
 7787SOL    HW124260   2.463   3.521   0.869
 7787SOL    HW224261   2.508   3.668   0.926
 7788SOL     OW24262   1.463   6.218   1.595
 7788SOL    HW124263   1.427   6.126   1.610
 7788SOL    HW224264   1.556   6.224   1.631
 7789SOL     OW24265   3.577   6.675   6.146
 7789SOL    HW124266   3.628   6.718   6.220
 7789SOL    HW224267   3.512   6.741   6.108
 7790SOL     OW24268   6.439   5.054   2.528
 7790SOL    HW124269   6.369   5.113   2.567
 7790SOL    HW224270   6.498   5.020   2.601
 7791SOL     OW24271   2.128   5.709   1.646
 7791SOL    HW124272   2.179   5.661   1.575
 7791SOL    HW224273   2.147   5.667   1.735
 7792SOL     OW24274   0.202   1.246   2.951
 7792SOL    HW124275   0.149   1.316   2.903
 7792SOL    HW224276   0.141   1.177   2.990
 7793SOL     OW24277   4.297   1.972   6.711
 7793SOL    HW124278   4.358   2.048   6.729
 7793SOL    HW224279   4.257   1.940   6.798
 7794SOL     OW24280   0.614   5.520   2.607
 7794SOL    HW124281   0.710   5.496   2.597
 7794SOL    HW224282   0.559   5.437   2.609
 7795SOL     OW24283   3.212   5.204   5.415
 7795SOL    HW124284   3.297   5.151   5.413
 7795SOL    HW224285   3.196   5.237   5.508
 7796SOL     OW24286   3.590   3.492   5.318
 7796SOL    HW124287   3.642   3.445   5.246
 7796SOL    HW224288   3.639   3.484   5.405
 7797SOL     OW24289   1.260   5.252   2.184
 7797SOL    HW124290   1.329   5.260   2.112
 7797SOL    HW224291   1.237   5.155   2.197
 7798SOL     OW24292   0.835   1.196   1.737
 7798SOL    HW124293   0.740   1.171   1.720
 7798SOL    HW224294   0.873   1.240   1.656
 7799SOL     OW24295   2.687   6.076   2.678
 7799SOL    HW124296   2.706   5.983   2.711
 7799SOL    HW224297   2.747   6.097   2.601
 7800SOL     OW24298   1.048   5.832   1.229
 7800SOL    HW124299   0.953   5.863   1.226
 7800SOL    HW224300   1.106   5.895   1.176
 7801SOL     OW24301   1.848   2.351   2.501
 7801SOL    HW124302   1.935   2.384   2.538
 7801SOL    HW224303   1.836   2.255   2.525
 7802SOL     OW24304   6.959   4.462   6.206
 7802SOL    HW124305   0.027   4.432   6.224
 7802SOL    HW224306   6.904   4.451   6.288
 7803SOL     OW24307   5.608   2.690   6.604
 7803SOL    HW124308   5.592   2.782   6.639
 7803SOL    HW224309   5.612   2.693   6.504
 7804SOL     OW24310   2.773   1.821   3.863
 7804SOL    HW124311   2.811   1.827   3.956
 7804SOL    HW224312   2.673   1.820   3.868
 7805SOL     OW24313   4.958   2.893   1.925
 7805SOL    HW124314   4.864   2.927   1.936
 7805SOL    HW224315   5.022   2.967   1.941
 7806SOL     OW24316   6.757   2.819   5.482
 7806SOL    HW124317   6.679   2.793   5.539
 7806SOL    HW224318   6.761   2.759   5.402
 7807SOL     OW24319   1.883   4.846   6.033
 7807SOL    HW124320   1.910   4.838   6.128
 7807SOL    HW224321   1.874   4.943   6.008
 7808SOL     OW24322   4.533   4.436   2.488
 7808SOL    HW124323   4.502   4.496   2.414
 7808SOL    HW224324   4.591   4.364   2.451
 7809SOL     OW24325   4.810   5.043   4.240
 7809SOL    HW124326   4.770   4.958   4.205
 7809SOL    HW224327   4.875   5.022   4.313
 7810SOL     OW24328   4.117   6.400   4.919
 7810SOL    HW124329   4.064   6.369   4.841
 7810SOL    HW224330   4.140   6.323   4.978
 7811SOL     OW24331   0.878   5.690   2.893
 7811SOL    HW124332   0.863   5.591   2.892
 7811SOL    HW224333   0.917   5.718   2.981
 7812SOL     OW24334   2.381   2.884   5.397
 7812SOL    HW124335   2.425   2.924   5.478
 7812SOL    HW224336   2.422   2.923   5.315
 7813SOL     OW24337   4.934   2.905   1.408
 7813SOL    HW124338   4.864   2.881   1.475
 7813SOL    HW224339   5.023   2.908   1.454
 7814SOL     OW24340   6.565   3.312   2.259
 7814SOL    HW124341   6.549   3.379   2.186
 7814SOL    HW224342   6.503   3.234   2.247
 7815SOL     OW24343   6.190   2.266   4.787
 7815SOL    HW124344   6.227   2.248   4.878
 7815SOL    HW224345   6.222   2.355   4.755
 7816SOL     OW24346   0.104   1.730   5.658
 7816SOL    HW124347   0.176   1.700   5.595
 7816SOL    HW224348   0.025   1.760   5.605
 7817SOL     OW24349   3.900   4.251   5.746
 7817SOL    HW124350   3.843   4.251   5.663
 7817SOL    HW224351   3.844   4.231   5.825
 7818SOL     OW24352   4.498   1.142   2.355
 7818SOL    HW124353   4.486   1.073   2.427
 7818SOL    HW224354   4.424   1.133   2.288
 7819SOL     OW24355   0.531   3.576   3.901
 7819SOL    HW124356   0.431   3.577   3.910
 7819SOL    HW224357   0.566   3.488   3.932
 7820SOL     OW24358   1.899   0.711   5.502
 7820SOL    HW124359   1.818   0.770   5.504
 7820SOL    HW224360   1.946   0.716   5.590
 7821SOL     OW24361   6.268   6.115   0.041
 7821SOL    HW124362   6.329   6.188   0.070
 7821SOL    HW224363   6.235   6.065   0.120
 7822SOL     OW24364   1.233   1.314   5.147
 7822SOL    HW124365   1.308   1.265   5.194
 7822SOL    HW224366   1.159   1.330   5.212
 7823SOL     OW24367   1.673   4.284   6.606
 7823SOL    HW124368   1.629   4.239   6.683
 7823SOL    HW224369   1.731   4.218   6.558
 7824SOL     OW24370   5.573   1.231   3.946
 7824SOL    HW124371   5.488   1.223   3.893
 7824SOL    HW224372   5.649   1.195   3.892
 7825SOL     OW24373   2.390   3.250   1.230
 7825SOL    HW124374   2.381   3.225   1.326
 7825SOL    HW224375   2.319   3.316   1.205
 7826SOL     OW24376   5.725   1.077   0.322
 7826SOL    HW124377   5.670   1.089   0.240
 7826SOL    HW224378   5.732   1.165   0.370
 7827SOL     OW24379   4.130   4.780   1.397
 7827SOL    HW124380   4.104   4.876   1.403
 7827SOL    HW224381   4.229   4.772   1.388
 7828SOL     OW24382   0.838   5.995   0.988
 7828SOL    HW124383   0.812   6.077   0.937
 7828SOL    HW224384   0.781   5.986   1.070
 7829SOL     OW24385   2.576   3.486   1.445
 7829SOL    HW124386   2.546   3.534   1.527
 7829SOL    HW224387   2.661   3.437   1.464
 7830SOL     OW24388   5.513   3.513   6.343
 7830SOL    HW124389   5.488   3.601   6.303
 7830SOL    HW224390   5.557   3.529   6.432
 7831SOL     OW24391   1.577   3.984   0.290
 7831SOL    HW124392   1.639   4.056   0.260
 7831SOL    HW224393   1.503   4.025   0.344
 7832SOL     OW24394   3.288   1.851   5.158
 7832SOL    HW124395   3.307   1.914   5.082
 7832SOL    HW224396   3.208   1.884   5.209
 7833SOL     OW24397   0.840   0.350   0.668
 7833SOL    HW124398   0.763   0.341   0.730
 7833SOL    HW224399   0.872   0.259   0.642
 7834SOL     OW24400   0.460   1.015   2.323
 7834SOL    HW124401   0.475   1.020   2.224
 7834SOL    HW224402   0.520   0.945   2.362
 7835SOL     OW24403   2.323   2.836   4.785
 7835SOL    HW124404   2.405   2.779   4.790
 7835SOL    HW224405   2.331   2.911   4.850
 7836SOL     OW24406   3.166   6.851   6.554
 7836SOL    HW124407   3.178   6.911   6.634
 7836SOL    HW224408   3.130   6.905   6.478
 7837SOL     OW24409   6.307   6.506   2.284
 7837SOL    HW124410   6.349   6.451   2.211
 7837SOL    HW224411   6.210   6.518   2.264
 7838SOL     OW24412   5.148   6.399   5.169
 7838SOL    HW124413   5.141   6.486   5.217
 7838SOL    HW224414   5.057   6.361   5.153
 7839SOL     OW24415   6.108   3.828   4.525
 7839SOL    HW124416   6.203   3.857   4.536
 7839SOL    HW224417   6.047   3.908   4.536
 7840SOL     OW24418   5.032   2.448   4.313
 7840SOL    HW124419   5.020   2.490   4.403
 7840SOL    HW224420   5.101   2.499   4.261
 7841SOL     OW24421   5.607   2.917   6.748
 7841SOL    HW124422   5.705   2.936   6.756
 7841SOL    HW224423   5.555   3.001   6.763
 7842SOL     OW24424   1.272   1.465   3.328
 7842SOL    HW124425   1.236   1.428   3.414
 7842SOL    HW224426   1.253   1.563   3.323
 7843SOL     OW24427   5.552   3.733   1.143
 7843SOL    HW124428   5.561   3.822   1.099
 7843SOL    HW224429   5.562   3.743   1.242
 7844SOL     OW24430   4.557   1.028   3.698
 7844SOL    HW124431   4.562   0.933   3.729
 7844SOL    HW224432   4.623   1.083   3.749
 7845SOL     OW24433   1.137   0.844   3.918
 7845SOL    HW124434   1.070   0.906   3.876
 7845SOL    HW224435   1.190   0.894   3.986
 7846SOL     OW24436   2.422   1.099   1.108
 7846SOL    HW124437   2.334   1.126   1.148
 7846SOL    HW224438   2.457   1.172   1.050
 7847SOL     OW24439   0.455   1.147   0.741
 7847SOL    HW124440   0.390   1.093   0.794
 7847SOL    HW224441   0.537   1.092   0.722
 7848SOL     OW24442   3.643   4.301   1.005
 7848SOL    HW124443   3.608   4.249   0.926
 7848SOL    HW224444   3.581   4.378   1.023
 7849SOL     OW24445   4.902   3.525   3.665
 7849SOL    HW124446   4.907   3.516   3.764
 7849SOL    HW224447   4.922   3.437   3.622
 7850SOL     OW24448   0.164   1.220   3.679
 7850SOL    HW124449   0.202   1.142   3.729
 7850SOL    HW224450   0.226   1.298   3.686
 7851SOL     OW24451   6.069   6.407   0.104
 7851SOL    HW124452   5.996   6.353   0.063
 7851SOL    HW224453   6.106   6.360   0.184
 7852SOL     OW24454   2.659   6.479   6.958
 7852SOL    HW124455   2.680   6.512   6.866
 7852SOL    HW224456   2.736   6.498   7.019
 7853SOL     OW24457   2.883   1.347   0.250
 7853SOL    HW124458   2.839   1.296   0.175
 7853SOL    HW224459   2.890   1.444   0.224
 7854SOL     OW24460   3.753   3.798   1.477
 7854SOL    HW124461   3.813   3.750   1.542
 7854SOL    HW224462   3.803   3.873   1.434
 7855SOL     OW24463   4.182   5.728   6.359
 7855SOL    HW124464   4.144   5.648   6.312
 7855SOL    HW224465   4.114   5.801   6.361
 7856SOL     OW24466   6.407   4.193   4.960
 7856SOL    HW124467   6.441   4.202   5.053
 7856SOL    HW224468   6.484   4.183   4.897
 7857SOL     OW24469   6.385   2.301   5.890
 7857SOL    HW124470   6.304   2.352   5.918
 7857SOL    HW224471   6.467   2.355   5.910
 7858SOL     OW24472   5.551   4.617   3.421
 7858SOL    HW124473   5.610   4.546   3.460
 7858SOL    HW224474   5.475   4.573   3.372
 7859SOL     OW24475   0.810   4.232   6.429
 7859SOL    HW124476   0.876   4.198   6.363
 7859SOL    HW224477   0.761   4.155   6.471
 7860SOL     OW24478   3.849   6.284   2.628
 7860SOL    HW124479   3.801   6.349   2.688
 7860SOL    HW224480   3.811   6.291   2.536
 7861SOL     OW24481   4.061   5.355   1.621
 7861SOL    HW124482   4.003   5.434   1.643
 7861SOL    HW224483   4.154   5.387   1.601
 7862SOL     OW24484   2.848   4.238   1.756
 7862SOL    HW124485   2.870   4.327   1.796
 7862SOL    HW224486   2.758   4.242   1.714
 7863SOL     OW24487   6.678   6.134   3.273
 7863SOL    HW124488   6.751   6.124   3.341
 7863SOL    HW224489   6.704   6.086   3.189
 7864SOL     OW24490   0.117   6.536   5.296
 7864SOL    HW124491   0.173   6.454   5.287
 7864SOL    HW224492   0.132   6.595   5.216
 7865SOL     OW24493   3.850   6.208   3.495
 7865SOL    HW124494   3.781   6.233   3.562
 7865SOL    HW224495   3.909   6.136   3.533
 7866SOL     OW24496   2.855   1.509   2.302
 7866SOL    HW124497   2.873   1.474   2.394
 7866SOL    HW224498   2.941   1.536   2.259
 7867SOL     OW24499   5.741   5.902   2.571
 7867SOL    HW124500   5.830   5.897   2.616
 7867SOL    HW224501   5.728   5.820   2.514
 7868SOL     OW24502   5.166   6.396   1.802
 7868SOL    HW124503   5.206   6.396   1.893
 7868SOL    HW224504   5.235   6.367   1.735
 7869SOL     OW24505   6.504   3.656   1.159
 7869SOL    HW124506   6.418   3.621   1.196
 7869SOL    HW224507   6.496   3.754   1.143
 7870SOL     OW24508   6.174   5.124   3.675
 7870SOL    HW124509   6.169   5.175   3.590
 7870SOL    HW224510   6.089   5.073   3.689
 7871SOL     OW24511   5.684   3.094   3.738
 7871SOL    HW124512   5.729   3.158   3.677
 7871SOL    HW224513   5.587   3.116   3.743
 7872SOL     OW24514   1.101   3.972   2.721
 7872SOL    HW124515   1.128   3.997   2.628
 7872SOL    HW224516   1.167   3.908   2.760
 7873SOL     OW24517   6.752   1.013   5.767
 7873SOL    HW124518   6.652   1.002   5.764
 7873SOL    HW224519   6.795   0.924   5.776
 7874SOL     OW24520   6.635   1.350   6.674
 7874SOL    HW124521   6.546   1.328   6.633
 7874SOL    HW224522   6.704   1.287   6.639
 7875SOL     OW24523   5.065   4.483   6.992
 7875SOL    HW124524   5.023   4.512   6.906
 7875SOL    HW224525   5.048   4.552   0.037
 7876SOL     OW24526   6.755   0.760   4.662
 7876SOL    HW124527   6.675   0.812   4.694
 7876SOL    HW224528   6.771   0.682   4.723
 7877SOL     OW24529   0.278   2.122   3.050
 7877SOL    HW124530   0.191   2.076   3.066
 7877SOL    HW224531   0.342   2.057   3.009
 7878SOL     OW24532   4.821   4.522   2.711
 7878SOL    HW124533   4.722   4.521   2.714
 7878SOL    HW224534   4.852   4.545   2.619
 7879SOL     OW24535   4.764   5.862   3.298
 7879SOL    HW124536   4.680   5.874   3.349
 7879SOL    HW224537   4.842   5.889   3.354
 7880SOL     OW24538   0.671   6.323   0.435
 7880SOL    HW124539   0.767   6.351   0.439
 7880SOL    HW224540   0.640   6.324   0.340
 7881SOL     OW24541   6.981   4.253   4.270
 7881SOL    HW124542   0.020   4.245   4.346
 7881SOL    HW224543   6.915   4.178   4.275
 7882SOL     OW24544   1.263   2.864   2.409
 7882SOL    HW124545   1.343   2.909   2.369
 7882SOL    HW224546   1.263   2.879   2.508
 7883SOL     OW24547   2.288   1.020   1.599
 7883SOL    HW124548   2.367   1.004   1.659
 7883SOL    HW224549   2.223   1.080   1.645
 7884SOL     OW24550   1.396   4.213   3.847
 7884SOL    HW124551   1.336   4.205   3.768
 7884SOL    HW224552   1.450   4.297   3.840
 7885SOL     OW24553   5.941   5.307   2.800
 7885SOL    HW124554   5.909   5.223   2.843
 7885SOL    HW224555   6.011   5.349   2.858
 7886SOL     OW24556   5.140   3.412   1.405
 7886SOL    HW124557   5.094   3.499   1.423
 7886SOL    HW224558   5.233   3.414   1.443
 7887SOL     OW24559   3.317   3.160   5.502
 7887SOL    HW124560   3.289   3.222   5.429
 7887SOL    HW224561   3.394   3.199   5.552
 7888SOL     OW24562   6.526   1.613   3.931
 7888SOL    HW124563   6.615   1.656   3.941
 7888SOL    HW224564   6.500   1.614   3.834
 7889SOL     OW24565   6.639   5.442   0.317
 7889SOL    HW124566   6.618   5.380   0.393
 7889SOL    HW224567   6.735   5.470   0.323
 7890SOL     OW24568   1.693   2.791   4.167
 7890SOL    HW124569   1.616   2.852   4.147
 7890SOL    HW224570   1.771   2.845   4.199
 7891SOL     OW24571   0.893   2.990   4.276
 7891SOL    HW124572   0.970   2.947   4.228
 7891SOL    HW224573   0.813   2.990   4.216
 7892SOL     OW24574   1.952   2.118   4.352
 7892SOL    HW124575   1.901   2.048   4.403
 7892SOL    HW224576   1.958   2.201   4.407
 7893SOL     OW24577   6.307   6.565   1.965
 7893SOL    HW124578   6.252   6.489   1.931
 7893SOL    HW224579   6.362   6.534   2.042
 7894SOL     OW24580   2.479   1.908   6.620
 7894SOL    HW124581   2.409   1.936   6.686
 7894SOL    HW224582   2.462   1.952   6.532
 7895SOL     OW24583   3.844   5.889   4.272
 7895SOL    HW124584   3.830   5.800   4.315
 7895SOL    HW224585   3.811   5.886   4.178
 7896SOL     OW24586   4.392   3.265   1.200
 7896SOL    HW124587   4.388   3.365   1.208
 7896SOL    HW224588   4.316   3.225   1.252
 7897SOL     OW24589   3.529   4.251   6.525
 7897SOL    HW124590   3.554   4.332   6.578
 7897SOL    HW224591   3.431   4.235   6.534
 7898SOL     OW24592   4.813   0.379   4.241
 7898SOL    HW124593   4.724   0.333   4.229
 7898SOL    HW224594   4.878   0.316   4.282
 7899SOL     OW24595   5.443   5.510   1.749
 7899SOL    HW124596   5.357   5.459   1.758
 7899SOL    HW224597   5.433   5.600   1.791
 7900SOL     OW24598   0.144   4.021   0.568
 7900SOL    HW124599   0.233   4.010   0.524
 7900SOL    HW224600   0.143   3.969   0.654
 7901SOL     OW24601   5.381   1.090   6.249
 7901SOL    HW124602   5.288   1.124   6.257
 7901SOL    HW224603   5.433   1.150   6.188
 7902SOL     OW24604   0.447   6.206   3.361
 7902SOL    HW124605   0.444   6.302   3.388
 7902SOL    HW224606   0.356   6.166   3.369
 7903SOL     OW24607   3.595   1.732   4.000
 7903SOL    HW124608   3.574   1.748   3.904
 7903SOL    HW224609   3.667   1.796   4.029
 7904SOL     OW24610   6.222   0.887   2.756
 7904SOL    HW124611   6.286   0.963   2.752
 7904SOL    HW224612   6.140   0.915   2.806
 7905SOL     OW24613   5.282   0.928   0.385
 7905SOL    HW124614   5.311   0.834   0.404
 7905SOL    HW224615   5.300   0.950   0.289
 7906SOL     OW24616   1.261   5.016   1.323
 7906SOL    HW124617   1.317   4.992   1.402
 7906SOL    HW224618   1.320   5.040   1.246
 7907SOL     OW24619   5.892   0.379   3.006
 7907SOL    HW124620   5.876   0.445   2.933
 7907SOL    HW224621   5.888   0.286   2.970
 7908SOL     OW24622   0.551   2.142   6.958
 7908SOL    HW124623   0.492   2.210   6.915
 7908SOL    HW224624   0.512   2.114   0.020
 7909SOL     OW24625   5.024   4.283   3.066
 7909SOL    HW124626   5.048   4.370   3.023
 7909SOL    HW224627   5.090   4.213   3.037
 7910SOL     OW24628   1.590   3.181   0.878
 7910SOL    HW124629   1.545   3.111   0.933
 7910SOL    HW224630   1.521   3.226   0.820
 7911SOL     OW24631   0.966   4.050   1.120
 7911SOL    HW124632   0.937   4.068   1.214
 7911SOL    HW224633   1.062   4.076   1.109
 7912SOL     OW24634   5.506   5.612   0.468
 7912SOL    HW124635   5.529   5.525   0.424
 7912SOL    HW224636   5.578   5.638   0.532
 7913SOL     OW24637   1.990   4.086   0.902
 7913SOL    HW124638   1.980   4.157   0.832
 7913SOL    HW224639   2.066   4.026   0.879
 7914SOL     OW24640   6.924   5.443   6.408
 7914SOL    HW124641   6.903   5.441   6.505
 7914SOL    HW224642   6.917   5.537   6.374
 7915SOL     OW24643   4.216   0.617   2.838
 7915SOL    HW124644   4.135   0.666   2.873
 7915SOL    HW224645   4.298   0.670   2.860
 7916SOL     OW24646   0.251   0.529   4.711
 7916SOL    HW124647   0.179   0.461   4.702
 7916SOL    HW224648   0.314   0.501   4.784
 7917SOL     OW24649   3.965   2.642   6.175
 7917SOL    HW124650   4.008   2.622   6.263
 7917SOL    HW224651   3.866   2.626   6.181
 7918SOL     OW24652   1.596   1.377   5.051
 7918SOL    HW124653   1.683   1.372   5.001
 7918SOL    HW224654   1.611   1.351   5.147
 7919SOL     OW24655   1.183   5.030   3.157
 7919SOL    HW124656   1.245   5.102   3.188
 7919SOL    HW224657   1.121   5.005   3.231
 7920SOL     OW24658   4.914   0.831   1.581
 7920SOL    HW124659   4.904   0.929   1.566
 7920SOL    HW224660   4.943   0.814   1.675
 7921SOL     OW24661   5.259   1.768   1.711
 7921SOL    HW124662   5.232   1.834   1.782
 7921SOL    HW224663   5.338   1.803   1.661
 7922SOL     OW24664   0.754   6.486   6.557
 7922SOL    HW124665   0.747   6.582   6.584
 7922SOL    HW224666   0.662   6.451   6.536
 7923SOL     OW24667   3.014   2.374   6.416
 7923SOL    HW124668   3.086   2.442   6.432
 7923SOL    HW224669   2.996   2.325   6.501
 7924SOL     OW24670   5.781   6.906   1.364
 7924SOL    HW124671   5.721   6.964   1.420
 7924SOL    HW224672   5.728   6.861   1.293
 7925SOL     OW24673   2.573   6.620   0.870
 7925SOL    HW124674   2.559   6.597   0.966
 7925SOL    HW224675   2.523   6.555   0.813
 7926SOL     OW24676   5.609   1.354   6.432
 7926SOL    HW124677   5.639   1.443   6.465
 7926SOL    HW224678   5.682   1.287   6.448
 7927SOL     OW24679   5.199   6.899   2.329
 7927SOL    HW124680   5.207   6.998   2.330
 7927SOL    HW224681   5.220   6.862   2.419
 7928SOL     OW24682   6.936   0.959   3.318
 7928SOL    HW124683   6.995   0.992   3.243
 7928SOL    HW224684   6.957   1.009   3.401
 7929SOL     OW24685   4.422   4.254   6.778
 7929SOL    HW124686   4.354   4.217   6.843
 7929SOL    HW224687   4.475   4.178   6.740
 7930SOL     OW24688   3.672   5.670   6.105
 7930SOL    HW124689   3.585   5.656   6.058
 7930SOL    HW224690   3.723   5.584   6.106
 7931SOL     OW24691   3.377   2.796   0.255
 7931SOL    HW124692   3.279   2.785   0.271
 7931SOL    HW224693   3.416   2.854   0.326
 7932SOL     OW24694   6.687   5.328   0.586
 7932SOL    HW124695   6.696   5.405   0.650
 7932SOL    HW224696   6.754   5.258   0.609
 7933SOL     OW24697   6.455   0.699   5.811
 7933SOL    HW124698   6.530   0.632   5.811
 7933SOL    HW224699   6.384   0.670   5.747
 7934SOL     OW24700   1.530   5.048   0.807
 7934SOL    HW124701   1.485   5.135   0.825
 7934SOL    HW224702   1.554   5.043   0.710
 7935SOL     OW24703   5.276   4.355   2.369
 7935SOL    HW124704   5.180   4.326   2.380
 7935SOL    HW224705   5.335   4.274   2.373
 7936SOL     OW24706   2.804   6.249   3.839
 7936SOL    HW124707   2.748   6.198   3.904
 7936SOL    HW224708   2.776   6.345   3.839
 7937SOL     OW24709   1.511   6.033   4.571
 7937SOL    HW124710   1.522   6.061   4.476
 7937SOL    HW224711   1.443   6.090   4.616
 7938SOL     OW24712   5.211   0.185   5.336
 7938SOL    HW124713   5.295   0.191   5.283
 7938SOL    HW224714   5.151   0.115   5.296
 7939SOL     OW24715   0.642   1.864   5.341
 7939SOL    HW124716   0.557   1.853   5.393
 7939SOL    HW224717   0.647   1.793   5.271
 7940SOL     OW24718   3.780   1.763   2.243
 7940SOL    HW124719   3.829   1.845   2.212
 7940SOL    HW224720   3.691   1.757   2.198
 7941SOL     OW24721   4.543   6.641   3.152
 7941SOL    HW124722   4.627   6.627   3.204
 7941SOL    HW224723   4.464   6.636   3.213
 7942SOL     OW24724   0.757   2.923   2.282
 7942SOL    HW124725   0.672   2.921   2.335
 7942SOL    HW224726   0.823   2.983   2.327
 7943SOL     OW24727   1.403   4.814   5.658
 7943SOL    HW124728   1.432   4.724   5.625
 7943SOL    HW224729   1.376   4.871   5.580
 7944SOL     OW24730   0.809   2.374   1.899
 7944SOL    HW124731   0.880   2.368   1.829
 7944SOL    HW224732   0.733   2.428   1.864
 7945SOL     OW24733   6.314   5.231   2.711
 7945SOL    HW124734   6.217   5.254   2.717
 7945SOL    HW224735   6.369   5.308   2.746
 7946SOL     OW24736   3.867   0.147   5.518
 7946SOL    HW124737   3.796   0.080   5.541
 7946SOL    HW224738   3.891   0.199   5.600
 7947SOL     OW24739   1.849   2.285   4.992
 7947SOL    HW124740   1.781   2.333   5.048
 7947SOL    HW224741   1.933   2.340   4.989
 7948SOL     OW24742   1.580   4.779   1.727
 7948SOL    HW124743   1.605   4.872   1.755
 7948SOL    HW224744   1.623   4.713   1.787
 7949SOL     OW24745   4.477   4.566   5.861
 7949SOL    HW124746   4.456   4.660   5.833
 7949SOL    HW224747   4.392   4.515   5.873
 7950SOL     OW24748   5.883   6.119   5.352
 7950SOL    HW124749   5.859   6.203   5.400
 7950SOL    HW224750   5.885   6.136   5.254
 7951SOL     OW24751   2.420   4.891   2.985
 7951SOL    HW124752   2.458   4.854   2.900
 7951SOL    HW224753   2.355   4.964   2.963
 7952SOL     OW24754   6.403   3.654   6.799
 7952SOL    HW124755   6.441   3.625   6.711
 7952SOL    HW224756   6.315   3.610   6.814
 7953SOL     OW24757   4.250   1.597   0.855
 7953SOL    HW124758   4.232   1.506   0.890
 7953SOL    HW224759   4.243   1.597   0.755
 7954SOL     OW24760   4.104   3.729   6.159
 7954SOL    HW124761   4.177   3.726   6.227
 7954SOL    HW224762   4.127   3.794   6.087
 7955SOL     OW24763   2.236   1.447   6.250
 7955SOL    HW124764   2.171   1.521   6.233
 7955SOL    HW224765   2.275   1.416   6.164
 7956SOL     OW24766   5.813   1.968   1.678
 7956SOL    HW124767   5.880   2.018   1.623
 7956SOL    HW224768   5.843   1.874   1.690
 7957SOL     OW24769   3.767   0.183   5.788
 7957SOL    HW124770   3.694   0.248   5.809
 7957SOL    HW224771   3.854   0.220   5.819
 7958SOL     OW24772   5.882   4.458   6.548
 7958SOL    HW124773   5.784   4.436   6.555
 7958SOL    HW224774   5.903   4.535   6.608
 7959SOL     OW24775   5.144   0.627   6.463
 7959SOL    HW124776   5.124   0.719   6.430
 7959SOL    HW224777   5.089   0.561   6.411
 7960SOL     OW24778   0.187   1.206   6.321
 7960SOL    HW124779   0.160   1.131   6.261
 7960SOL    HW224780   0.168   1.181   6.416
 7961SOL     OW24781   6.621   0.050   0.763
 7961SOL    HW124782   6.682   7.025   0.702
 7961SOL    HW224783   6.535   0.069   0.715
 7962SOL     OW24784   0.088   1.427   6.165
 7962SOL    HW124785   0.137   1.347   6.200
 7962SOL    HW224786   0.018   1.397   6.099
 7963SOL     OW24787   6.199   4.563   3.984
 7963SOL    HW124788   6.122   4.624   3.967
 7963SOL    HW224789   6.279   4.593   3.930
 7964SOL     OW24790   0.014   2.856   1.493
 7964SOL    HW124791   6.982   2.779   1.463
 7964SOL    HW224792   0.059   2.832   1.579
 7965SOL     OW24793   4.950   2.725   0.116
 7965SOL    HW124794   4.923   2.770   0.201
 7965SOL    HW224795   4.909   2.772   0.038
 7966SOL     OW24796   4.176   3.514   5.969
 7966SOL    HW124797   4.170   3.590   6.034
 7966SOL    HW224798   4.092   3.510   5.915
 7967SOL     OW24799   1.642   5.120   2.194
 7967SOL    HW124800   1.704   5.106   2.116
 7967SOL    HW224801   1.554   5.153   2.161
 7968SOL     OW24802   6.442   1.977   4.975
 7968SOL    HW124803   6.535   1.940   4.969
 7968SOL    HW224804   6.384   1.933   4.907
 7969SOL     OW24805   4.876   6.048   0.193
 7969SOL    HW124806   4.854   6.135   0.239
 7969SOL    HW224807   4.866   5.973   0.258
 7970SOL     OW24808   6.011   2.804   2.722
 7970SOL    HW124809   6.104   2.804   2.760
 7970SOL    HW224810   5.952   2.746   2.779
 7971SOL     OW24811   2.990   1.553   1.762
 7971SOL    HW124812   3.039   1.619   1.818
 7971SOL    HW224813   3.033   1.463   1.772
 7972SOL     OW24814   3.564   3.280   1.899
 7972SOL    HW124815   3.591   3.342   1.826
 7972SOL    HW224816   3.586   3.186   1.874
 7973SOL     OW24817   5.366   3.908   3.782
 7973SOL    HW124818   5.411   3.927   3.869
 7973SOL    HW224819   5.341   3.993   3.737
 7974SOL     OW24820   6.416   1.230   4.603
 7974SOL    HW124821   6.432   1.324   4.631
 7974SOL    HW224822   6.328   1.199   4.638
 7975SOL     OW24823   4.396   0.303   0.343
 7975SOL    HW124824   4.361   0.213   0.319
 7975SOL    HW224825   4.463   0.333   0.275
 7976SOL     OW24826   1.059   0.196   5.809
 7976SOL    HW124827   1.023   0.145   5.731
 7976SOL    HW224828   1.076   0.133   5.885
 7977SOL     OW24829   6.033   6.272   2.617
 7977SOL    HW124830   6.039   6.253   2.715
 7977SOL    HW224831   5.958   6.220   2.577
 7978SOL     OW24832   0.463   3.705   6.932
 7978SOL    HW124833   0.526   3.731   6.858
 7978SOL    HW224834   0.506   3.633   6.987
 7979SOL     OW24835   2.097   4.421   5.826
 7979SOL    HW124836   2.159   4.389   5.897
 7979SOL    HW224837   2.095   4.521   5.825
 7980SOL     OW24838   3.322   5.090   5.943
 7980SOL    HW124839   3.403   5.115   5.890
 7980SOL    HW224840   3.240   5.097   5.886
 7981SOL     OW24841   1.117   4.678   2.230
 7981SOL    HW124842   1.127   4.701   2.326
 7981SOL    HW224843   1.207   4.677   2.186
 7982SOL     OW24844   1.637   1.478   5.827
 7982SOL    HW124845   1.665   1.509   5.737
 7982SOL    HW224846   1.551   1.522   5.853
 7983SOL     OW24847   5.476   1.351   1.115
 7983SOL    HW124848   5.475   1.292   1.196
 7983SOL    HW224849   5.385   1.351   1.073
 7984SOL     OW24850   0.730   1.457   0.723
 7984SOL    HW124851   0.753   1.538   0.670
 7984SOL    HW224852   0.632   1.457   0.743
 7985SOL     OW24853   2.484   2.012   4.697
 7985SOL    HW124854   2.504   1.934   4.638
 7985SOL    HW224855   2.559   2.078   4.692
 7986SOL     OW24856   3.872   1.768   5.496
 7986SOL    HW124857   3.800   1.699   5.491
 7986SOL    HW224858   3.838   1.854   5.460
 7987SOL     OW24859   2.293   3.746   0.901
 7987SOL    HW124860   2.241   3.807   0.842
 7987SOL    HW224861   2.353   3.800   0.961
 7988SOL     OW24862   0.497   0.829   1.369
 7988SOL    HW124863   0.433   0.817   1.293
 7988SOL    HW224864   0.461   0.782   1.450
 7989SOL     OW24865   1.718   4.193   6.980
 7989SOL    HW124866   1.767   4.145   0.028
 7989SOL    HW224867   1.627   4.219   7.013
 7990SOL     OW24868   3.062   5.942   4.392
 7990SOL    HW124869   2.990   6.010   4.383
 7990SOL    HW224870   3.139   5.980   4.443
 7991SOL     OW24871   5.323   1.801   4.376
 7991SOL    HW124872   5.289   1.819   4.284
 7991SOL    HW224873   5.247   1.775   4.436
 7992SOL     OW24874   2.578   0.497   0.546
 7992SOL    HW124875   2.530   0.533   0.466
 7992SOL    HW224876   2.582   0.397   0.540
 7993SOL     OW24877   0.238   6.810   2.128
 7993SOL    HW124878   0.168   6.869   2.088
 7993SOL    HW224879   0.318   6.865   2.151
 7994SOL     OW24880   4.995   0.501   3.098
 7994SOL    HW124881   5.045   0.422   3.136
 7994SOL    HW224882   4.972   0.564   3.172
 7995SOL     OW24883   5.602   4.422   2.762
 7995SOL    HW124884   5.575   4.421   2.858
 7995SOL    HW224885   5.520   4.423   2.705
 7996SOL     OW24886   4.144   0.252   4.133
 7996SOL    HW124887   4.168   0.289   4.223
 7996SOL    HW224888   4.226   0.217   4.088
 7997SOL     OW24889   0.011   1.840   6.992
 7997SOL    HW124890   6.977   1.807   6.919
 7997SOL    HW224891   7.008   1.800   0.054
 7998SOL     OW24892   2.926   6.682   0.278
 7998SOL    HW124893   2.890   6.770   0.247
 7998SOL    HW224894   2.906   6.612   0.209
 7999SOL     OW24895   1.412   1.574   5.959
 7999SOL    HW124896   1.343   1.560   6.030
 7999SOL    HW224897   1.455   1.663   5.972
 8000SOL     OW24898   6.048   0.250   6.478
 8000SOL    HW124899   6.071   0.342   6.511
 8000SOL    HW224900   5.990   0.258   6.397
 8001SOL     OW24901   4.519   6.511   1.512
 8001SOL    HW124902   4.440   6.556   1.470
 8001SOL    HW224903   4.593   6.505   1.445
 8002SOL     OW24904   0.331   1.501   5.576
 8002SOL    HW124905   0.367   1.488   5.669
 8002SOL    HW224906   0.405   1.486   5.510
 8003SOL     OW24907   1.560   6.634   2.066
 8003SOL    HW124908   1.482   6.597   2.016
 8003SOL    HW224909   1.557   6.734   2.062
 8004SOL     OW24910   2.335   2.709   3.410
 8004SOL    HW124911   2.391   2.635   3.447
 8004SOL    HW224912   2.369   2.736   3.321
 8005SOL     OW24913   2.778   0.433   3.938
 8005SOL    HW124914   2.800   0.457   3.843
 8005SOL    HW224915   2.860   0.399   3.983
 8006SOL     OW24916   3.302   5.593   5.553
 8006SOL    HW124917   3.257   5.511   5.589
 8006SOL    HW224918   3.342   5.573   5.463
 8007SOL     OW24919   5.446   2.392   6.454
 8007SOL    HW124920   5.537   2.364   6.425
 8007SOL    HW224921   5.452   2.441   6.541
 8008SOL     OW24922   3.202   6.240   0.270
 8008SOL    HW124923   3.227   6.208   0.179
 8008SOL    HW224924   3.150   6.325   0.263
 8009SOL     OW24925   4.747   1.054   1.211
 8009SOL    HW124926   4.827   1.086   1.262
 8009SOL    HW224927   4.671   1.118   1.225
 8010SOL     OW24928   3.012   2.444   5.391
 8010SOL    HW124929   3.089   2.454   5.328
 8010SOL    HW224930   2.952   2.524   5.384
 8011SOL     OW24931   3.683   1.791   1.870
 8011SOL    HW124932   3.590   1.774   1.904
 8011SOL    HW224933   3.714   1.711   1.819
 8012SOL     OW24934   0.647   2.817   6.382
 8012SOL    HW124935   0.676   2.723   6.397
 8012SOL    HW224936   0.581   2.820   6.307
 8013SOL     OW24937   0.672   2.782   3.367
 8013SOL    HW124938   0.725   2.757   3.448
 8013SOL    HW224939   0.717   2.858   3.320
 8014SOL     OW24940   1.736   0.151   3.999
 8014SOL    HW124941   1.663   0.104   3.949
 8014SOL    HW224942   1.781   0.086   4.060
 8015SOL     OW24943   2.010   6.983   6.016
 8015SOL    HW124944   2.094   6.982   5.962
 8015SOL    HW224945   2.012   6.909   6.083
 8016SOL     OW24946   3.897   1.482   5.123
 8016SOL    HW124947   3.841   1.517   5.049
 8016SOL    HW224948   3.986   1.453   5.087
 8017SOL     OW24949   6.634   6.900   0.319
 8017SOL    HW124950   6.550   6.848   0.333
 8017SOL    HW224951   6.614   6.997   0.317
 8018SOL     OW24952   3.839   2.796   6.991
 8018SOL    HW124953   3.876   2.881   0.002
 8018SOL    HW224954   3.753   2.814   6.944
 8019SOL     OW24955   2.496   3.668   0.617
 8019SOL    HW124956   2.576   3.614   0.644
 8019SOL    HW224957   2.415   3.609   0.617
 8020SOL     OW24958   5.862   0.656   6.379
 8020SOL    HW124959   5.816   0.635   6.465
 8020SOL    HW224960   5.954   0.617   6.379
 8021SOL     OW24961   2.318   2.623   1.225
 8021SOL    HW124962   2.289   2.528   1.218
 8021SOL    HW224963   2.402   2.637   1.172
 8022SOL     OW24964   5.978   0.354   1.822
 8022SOL    HW124965   5.881   0.351   1.795
 8022SOL    HW224966   5.991   0.295   1.902
 8023SOL     OW24967   5.625   5.318   2.881
 8023SOL    HW124968   5.617   5.233   2.829
 8023SOL    HW224969   5.722   5.342   2.891
 8024SOL     OW24970   1.377   5.719   6.086
 8024SOL    HW124971   1.446   5.681   6.024
 8024SOL    HW224972   1.290   5.672   6.073
 8025SOL     OW24973   1.637   5.040   1.344
 8025SOL    HW124974   1.577   4.976   1.393
 8025SOL    HW224975   1.673   4.996   1.262
 8026SOL     OW24976   6.883   4.524   0.558
 8026SOL    HW124977   6.980   4.542   0.568
 8026SOL    HW224978   6.869   4.427   0.540
 8027SOL     OW24979   3.409   6.546   5.083
 8027SOL    HW124980   3.398   6.634   5.037
 8027SOL    HW224981   3.359   6.475   5.033
 8028SOL     OW24982   2.671   5.959   4.200
 8028SOL    HW124983   2.672   5.887   4.131
 8028SOL    HW224984   2.643   5.919   4.288
 8029SOL     OW24985   4.781   2.274   1.895
 8029SOL    HW124986   4.868   2.300   1.852
 8029SOL    HW224987   4.717   2.350   1.891
 8030SOL     OW24988   6.147   5.319   0.532
 8030SOL    HW124989   6.158   5.405   0.483
 8030SOL    HW224990   6.163   5.335   0.630
 8031SOL     OW24991   6.175   6.801   3.136
 8031SOL    HW124992   6.251   6.738   3.116
 8031SOL    HW224993   6.196   6.892   3.100
 8032SOL     OW24994   4.976   3.631   1.464
 8032SOL    HW124995   4.919   3.623   1.545
 8032SOL    HW224996   4.930   3.688   1.395
 8033SOL     OW24997   4.549   3.522   6.938
 8033SOL    HW124998   4.620   3.455   6.961
 8033SOL    HW224999   4.506   3.555   7.022
 8034SOL     OW25000   5.780   0.357   5.372
 8034SOL    HW125001   5.780   0.354   5.472
 8034SOL    HW225002   5.707   0.299   5.337
 8035SOL     OW25003   4.679   0.845   2.186
 8035SOL    HW125004   4.763   0.804   2.222
 8035SOL    HW225005   4.602   0.818   2.243
 8036SOL     OW25006   6.920   2.881   3.478
 8036SOL    HW125007   6.885   2.957   3.423
 8036SOL    HW225008   6.984   2.827   3.423
 8037SOL     OW25009   1.142   3.311   0.122
 8037SOL    HW125010   1.152   3.377   0.196
 8037SOL    HW225011   1.139   3.218   0.160
 8038SOL     OW25012   5.667   6.291   2.146
 8038SOL    HW125013   5.670   6.302   2.046
 8038SOL    HW225014   5.612   6.364   2.186
 8039SOL     OW25015   0.497   2.479   5.223
 8039SOL    HW125016   0.415   2.521   5.261
 8039SOL    HW225017   0.471   2.413   5.152
 8040SOL     OW25018   2.012   6.019   7.017
 8040SOL    HW125019   1.970   6.006   6.927
 8040SOL    HW225020   2.042   6.114   0.001
 8041SOL     OW25021   3.337   1.073   2.880
 8041SOL    HW125022   3.375   1.101   2.968
 8041SOL    HW225023   3.338   1.151   2.816
 8042SOL     OW25024   4.297   4.238   5.445
 8042SOL    HW125025   4.265   4.226   5.539
 8042SOL    HW225026   4.220   4.224   5.382
 8043SOL     OW25027   4.024   5.192   0.875
 8043SOL    HW125028   4.025   5.093   0.891
 8043SOL    HW225029   4.089   5.236   0.937
 8044SOL     OW25030   3.399   3.215   1.062
 8044SOL    HW125031   3.465   3.178   0.996
 8044SOL    HW225032   3.417   3.312   1.077
 8045SOL     OW25033   0.057   1.896   2.829
 8045SOL    HW125034   0.032   1.848   2.744
 8045SOL    HW225035   0.117   1.837   2.883
 8046SOL     OW25036   0.672   5.118   2.296
 8046SOL    HW125037   0.674   5.182   2.373
 8046SOL    HW225038   0.626   5.034   2.324
 8047SOL     OW25039   3.781   6.842   6.657
 8047SOL    HW125040   3.844   6.778   6.700
 8047SOL    HW225041   3.780   6.928   6.708
 8048SOL     OW25042   3.605   3.076   6.659
 8048SOL    HW125043   3.647   3.012   6.595
 8048SOL    HW225044   3.517   3.108   6.622
 8049SOL     OW25045   1.311   6.334   0.168
 8049SOL    HW125046   1.330   6.430   0.151
 8049SOL    HW225047   1.391   6.279   0.145
 8050SOL     OW25048   2.030   3.844   4.732
 8050SOL    HW125049   2.061   3.934   4.699
 8050SOL    HW225050   2.011   3.785   4.653
 8051SOL     OW25051   4.699   5.706   4.193
 8051SOL    HW125052   4.620   5.724   4.252
 8051SOL    HW225053   4.709   5.781   4.127
 8052SOL     OW25054   2.512   2.103   1.986
 8052SOL    HW125055   2.524   2.065   2.078
 8052SOL    HW225056   2.491   2.029   1.922
 8053SOL     OW25057   2.942   2.722   5.322
 8053SOL    HW125058   2.999   2.777   5.260
 8053SOL    HW225059   2.878   2.781   5.371
 8054SOL     OW25060   5.734   3.709   5.021
 8054SOL    HW125061   5.826   3.698   5.059
 8054SOL    HW225062   5.724   3.800   4.982
 8055SOL     OW25063   0.521   1.082   5.466
 8055SOL    HW125064   0.449   1.149   5.485
 8055SOL    HW225065   0.610   1.124   5.482
 8056SOL     OW25066   3.233   6.480   3.401
 8056SOL    HW125067   3.212   6.391   3.361
 8056SOL    HW225068   3.206   6.552   3.338
 8057SOL     OW25069   2.822   1.914   2.136
 8057SOL    HW125070   2.856   1.946   2.048
 8057SOL    HW225071   2.789   1.820   2.126
 8058SOL     OW25072   3.054   6.663   2.917
 8058SOL    HW125073   3.115   6.614   2.980
 8058SOL    HW225074   3.049   6.613   2.830
 8059SOL     OW25075   3.077   0.875   5.730
 8059SOL    HW125076   3.149   0.942   5.750
 8059SOL    HW225077   2.988   0.919   5.734
 8060SOL     OW25078   0.165   1.234   5.920
 8060SOL    HW125079   0.094   1.181   5.966
 8060SOL    HW225080   0.127   1.277   5.838
 8061SOL     OW25081   0.108   1.045   3.121
 8061SOL    HW125082   0.123   0.966   3.062
 8061SOL    HW225083   0.190   1.062   3.176
 8062SOL     OW25084   4.158   5.151   4.812
 8062SOL    HW125085   4.160   5.089   4.733
 8062SOL    HW225086   4.173   5.099   4.896
 8063SOL     OW25087   3.076   1.451   2.774
 8063SOL    HW125088   3.085   1.545   2.742
 8063SOL    HW225089   3.056   1.450   2.872
 8064SOL     OW25090   6.496   3.084   0.064
 8064SOL    HW125091   6.567   3.035   0.115
 8064SOL    HW225092   6.493   3.179   0.095
 8065SOL     OW25093   3.681   6.914   4.707
 8065SOL    HW125094   3.750   6.892   4.638
 8065SOL    HW225095   3.677   6.840   4.775
 8066SOL     OW25096   6.479   0.522   4.341
 8066SOL    HW125097   6.486   0.575   4.256
 8066SOL    HW225098   6.450   0.582   4.415
 8067SOL     OW25099   5.005   2.519   3.717
 8067SOL    HW125100   4.983   2.518   3.815
 8067SOL    HW225101   5.103   2.511   3.705
 8068SOL     OW25102   0.601   4.798   0.910
 8068SOL    HW125103   0.664   4.846   0.848
 8068SOL    HW225104   0.587   4.705   0.876
 8069SOL     OW25105   2.538   5.007   1.855
 8069SOL    HW125106   2.581   5.074   1.794
 8069SOL    HW225107   2.590   4.921   1.852
 8070SOL     OW25108   3.961   3.512   0.671
 8070SOL    HW125109   3.992   3.439   0.611
 8070SOL    HW225110   3.866   3.534   0.651
 8071SOL     OW25111   3.820   6.578   4.630
 8071SOL    HW125112   3.785   6.596   4.722
 8071SOL    HW225113   3.858   6.662   4.591
 8072SOL     OW25114   3.036   2.760   0.590
 8072SOL    HW125115   2.989   2.780   0.676
 8072SOL    HW225116   3.118   2.706   0.608
 8073SOL     OW25117   2.720   6.693   5.399
 8073SOL    HW125118   2.712   6.696   5.300
 8073SOL    HW225119   2.800   6.746   5.428
 8074SOL     OW25120   2.530   1.266   0.918
 8074SOL    HW125121   2.451   1.327   0.926
 8074SOL    HW225122   2.611   1.312   0.957
 8075SOL     OW25123   0.306   6.935   0.981
 8075SOL    HW125124   0.356   6.952   0.896
 8075SOL    HW225125   0.234   7.004   0.992
 8076SOL     OW25126   0.150   0.402   5.897
 8076SOL    HW125127   0.219   0.474   5.887
 8076SOL    HW225128   0.165   0.331   5.829
 8077SOL     OW25129   3.780   5.835   2.374
 8077SOL    HW125130   3.729   5.884   2.303
 8077SOL    HW225131   3.848   5.775   2.330
 8078SOL     OW25132   0.852   1.675   0.973
 8078SOL    HW125133   0.771   1.724   1.004
 8078SOL    HW225134   0.830   1.578   0.963
 8079SOL     OW25135   6.611   1.340   3.973
 8079SOL    HW125136   6.555   1.409   3.926
 8079SOL    HW225137   6.586   1.339   4.070
 8080SOL     OW25138   1.512   2.882   1.793
 8080SOL    HW125139   1.502   2.804   1.731
 8080SOL    HW225140   1.452   2.869   1.872
 8081SOL     OW25141   6.083   5.075   5.473
 8081SOL    HW125142   6.102   5.006   5.544
 8081SOL    HW225143   6.033   5.033   5.398
 8082SOL     OW25144   3.531   0.606   2.293
 8082SOL    HW125145   3.432   0.594   2.306
 8082SOL    HW225146   3.547   0.661   2.211
 8083SOL     OW25147   5.346   2.972   4.455
 8083SOL    HW125148   5.278   2.918   4.505
 8083SOL    HW225149   5.413   2.911   4.414
 8084SOL     OW25150   2.985   0.827   6.058
 8084SOL    HW125151   2.983   0.768   5.977
 8084SOL    HW225152   2.943   0.778   6.135
 8085SOL     OW25153   6.823   6.314   2.867
 8085SOL    HW125154   6.736   6.329   2.912
 8085SOL    HW225155   6.817   6.343   2.771
 8086SOL     OW25156   0.116   1.196   0.814
 8086SOL    HW125157   0.162   1.280   0.842
 8086SOL    HW225158   0.178   1.118   0.826
 8087SOL     OW25159   1.859   0.191   6.051
 8087SOL    HW125160   1.928   0.119   6.059
 8087SOL    HW225161   1.887   0.271   6.104
 8088SOL     OW25162   5.862   0.261   6.901
 8088SOL    HW125163   5.883   0.291   6.994
 8088SOL    HW225164   5.881   0.163   6.892
 8089SOL     OW25165   5.888   2.784   6.512
 8089SOL    HW125166   5.814   2.774   6.446
 8089SOL    HW225167   5.858   2.754   6.602
 8090SOL     OW25168   4.539   1.287   5.971
 8090SOL    HW125169   4.612   1.354   5.960
 8090SOL    HW225170   4.515   1.249   5.882
 8091SOL     OW25171   1.494   4.667   4.990
 8091SOL    HW125172   1.440   4.696   4.912
 8091SOL    HW225173   1.532   4.576   4.973
 8092SOL     OW25174   5.031   2.154   5.721
 8092SOL    HW125175   5.109   2.178   5.663
 8092SOL    HW225176   5.064   2.118   5.808
 8093SOL     OW25177   3.129   5.242   3.403
 8093SOL    HW125178   3.192   5.286   3.339
 8093SOL    HW225179   3.037   5.278   3.389
 8094SOL     OW25180   0.791   3.071   5.725
 8094SOL    HW125181   0.867   3.105   5.780
 8094SOL    HW225182   0.756   3.144   5.667
 8095SOL     OW25183   0.682   5.030   4.543
 8095SOL    HW125184   0.780   5.046   4.561
 8095SOL    HW225185   0.671   4.985   4.454
 8096SOL     OW25186   1.828   0.554   2.841
 8096SOL    HW125187   1.893   0.578   2.913
 8096SOL    HW225188   1.735   0.578   2.870
 8097SOL     OW25189   4.210   0.398   4.357
 8097SOL    HW125190   4.261   0.355   4.431
 8097SOL    HW225191   4.170   0.484   4.390
 8098SOL     OW25192   2.245   6.348   3.698
 8098SOL    HW125193   2.160   6.316   3.657
 8098SOL    HW225194   2.322   6.327   3.637
 8099SOL     OW25195   4.550   6.454   4.451
 8099SOL    HW125196   4.574   6.362   4.484
 8099SOL    HW225197   4.474   6.447   4.386
 8100SOL     OW25198   6.651   1.642   6.655
 8100SOL    HW125199   6.748   1.661   6.639
 8100SOL    HW225200   6.638   1.545   6.673
 8101SOL     OW25201   1.501   5.354   0.499
 8101SOL    HW125202   1.585   5.334   0.548
 8101SOL    HW225203   1.451   5.269   0.482
 8102SOL     OW25204   0.427   3.832   3.587
 8102SOL    HW125205   0.491   3.776   3.640
 8102SOL    HW225206   0.448   3.823   3.490
 8103SOL     OW25207   3.729   0.066   2.199
 8103SOL    HW125208   3.692   0.157   2.221
 8103SOL    HW225209   3.781   0.071   2.114
 8104SOL     OW25210   2.006   0.226   5.069
 8104SOL    HW125211   2.030   0.286   5.145
 8104SOL    HW225212   2.072   0.150   5.064
 8105SOL     OW25213   7.009   2.475   2.489
 8105SOL    HW125214   0.070   2.479   2.539
 8105SOL    HW225215   7.025   2.497   2.393
 8106SOL     OW25216   2.731   6.382   3.271
 8106SOL    HW125217   2.729   6.351   3.366
 8106SOL    HW225218   2.806   6.447   3.258
 8107SOL     OW25219   1.303   6.042   4.201
 8107SOL    HW125220   1.219   6.028   4.254
 8107SOL    HW225221   1.376   5.984   4.238
 8108SOL     OW25222   6.509   2.147   0.138
 8108SOL    HW125223   6.500   2.245   0.119
 8108SOL    HW225224   6.499   2.095   0.053
 8109SOL     OW25225   0.224   3.765   6.801
 8109SOL    HW125226   0.311   3.729   6.836
 8109SOL    HW225227   0.207   3.728   6.710
 8110SOL     OW25228   4.173   4.792   1.834
 8110SOL    HW125229   4.097   4.776   1.898
 8110SOL    HW225230   4.178   4.715   1.770
 8111SOL     OW25231   4.774   1.320   4.229
 8111SOL    HW125232   4.854   1.349   4.281
 8111SOL    HW225233   4.796   1.317   4.132
 8112SOL     OW25234   2.111   2.669   4.723
 8112SOL    HW125235   2.198   2.710   4.753
 8112SOL    HW225236   2.129   2.606   4.648
 8113SOL     OW25237   6.761   3.458   0.829
 8113SOL    HW125238   6.745   3.506   0.915
 8113SOL    HW225239   6.736   3.518   0.752
 8114SOL     OW25240   1.407   3.549   2.178
 8114SOL    HW125241   1.384   3.609   2.101
 8114SOL    HW225242   1.469   3.477   2.146
 8115SOL     OW25243   3.028   6.381   5.678
 8115SOL    HW125244   3.014   6.305   5.615
 8115SOL    HW225245   3.112   6.365   5.731
 8116SOL     OW25246   4.266   4.883   0.191
 8116SOL    HW125247   4.284   4.785   0.191
 8116SOL    HW225248   4.190   4.904   0.129
 8117SOL     OW25249   2.514   0.150   3.356
 8117SOL    HW125250   2.482   0.063   3.319
 8117SOL    HW225251   2.438   0.214   3.364
 8118SOL     OW25252   5.614   4.185   6.495
 8118SOL    HW125253   5.625   4.264   6.554
 8118SOL    HW225254   5.670   4.196   6.413
 8119SOL     OW25255   5.219   6.659   5.993
 8119SOL    HW125256   5.161   6.591   6.038
 8119SOL    HW225257   5.235   6.631   5.899
 8120SOL     OW25258   3.118   4.569   0.527
 8120SOL    HW125259   3.120   4.667   0.507
 8120SOL    HW225260   3.179   4.520   0.465
 8121SOL     OW25261   0.646   4.695   1.392
 8121SOL    HW125262   0.585   4.774   1.379
 8121SOL    HW225263   0.643   4.638   1.310
 8122SOL     OW25264   0.562   4.249   2.962
 8122SOL    HW125265   0.545   4.252   2.863
 8122SOL    HW225266   0.481   4.280   3.011
 8123SOL     OW25267   6.782   2.194   7.017
 8123SOL    HW125268   6.718   2.234   6.952
 8123SOL    HW225269   6.741   2.113   0.035
 8124SOL     OW25270   5.323   6.324   3.359
 8124SOL    HW125271   5.231   6.318   3.320
 8124SOL    HW225272   5.334   6.253   3.430
 8125SOL     OW25273   1.328   1.023   2.441
 8125SOL    HW125274   1.245   1.011   2.496
 8125SOL    HW225275   1.325   0.961   2.362
 8126SOL     OW25276   5.130   4.660   3.261
 8126SOL    HW125277   5.126   4.671   3.162
 8126SOL    HW225278   5.114   4.749   3.304
 8127SOL     OW25279   3.026   3.125   6.424
 8127SOL    HW125280   2.933   3.090   6.432
 8127SOL    HW225281   3.081   3.062   6.370
 8128SOL     OW25282   3.113   2.118   2.078
 8128SOL    HW125283   3.159   2.124   2.166
 8128SOL    HW225284   3.048   2.193   2.068
 8129SOL     OW25285   3.827   1.477   6.739
 8129SOL    HW125286   3.893   1.490   6.813
 8129SOL    HW225287   3.873   1.489   6.651
 8130SOL     OW25288   0.600   6.143   6.624
 8130SOL    HW125289   0.559   6.212   6.563
 8130SOL    HW225290   0.539   6.064   6.631
 8131SOL     OW25291   3.089   1.561   2.127
 8131SOL    HW125292   3.128   1.471   2.105
 8131SOL    HW225293   3.091   1.619   2.045
 8132SOL     OW25294   5.750   6.142   4.776
 8132SOL    HW125295   5.742   6.085   4.857
 8132SOL    HW225296   5.660   6.154   4.734
 8133SOL     OW25297   3.715   5.278   2.275
 8133SOL    HW125298   3.639   5.311   2.218
 8133SOL    HW225299   3.695   5.184   2.305
 8134SOL     OW25300   6.938   1.722   6.249
 8134SOL    HW125301   6.964   1.735   6.344
 8134SOL    HW225302   6.959   1.806   6.197
 8135SOL     OW25303   1.822   1.263   1.588
 8135SOL    HW125304   1.860   1.197   1.523
 8135SOL    HW225305   1.864   1.352   1.573
 8136SOL     OW25306   5.464   5.247   2.031
 8136SOL    HW125307   5.485   5.298   1.948
 8136SOL    HW225308   5.412   5.165   2.007
 8137SOL     OW25309   3.153   1.562   5.343
 8137SOL    HW125310   3.068   1.511   5.330
 8137SOL    HW225311   3.133   1.660   5.340
 8138SOL     OW25312   5.406   1.070   1.489
 8138SOL    HW125313   5.431   1.096   1.395
 8138SOL    HW225314   5.309   1.048   1.493
 8139SOL     OW25315   0.066   1.179   2.014
 8139SOL    HW125316   0.067   1.139   2.105
 8139SOL    HW225317   0.144   1.241   2.003
 8140SOL     OW25318   5.246   0.953   5.210
 8140SOL    HW125319   5.258   0.854   5.212
 8140SOL    HW225320   5.260   0.987   5.117
 8141SOL     OW25321   4.898   5.161   5.854
 8141SOL    HW125322   4.867   5.252   5.885
 8141SOL    HW225323   4.926   5.167   5.758
 8142SOL     OW25324   6.441   5.128   0.276
 8142SOL    HW125325   6.394   5.094   0.358
 8142SOL    HW225326   6.412   5.222   0.258
 8143SOL     OW25327   6.300   5.043   0.503
 8143SOL    HW125328   6.200   5.038   0.501
 8143SOL    HW225329   6.329   5.133   0.535
 8144SOL     OW25330   5.704   6.779   0.116
 8144SOL    HW125331   5.638   6.809   0.185
 8144SOL    HW225332   5.661   6.710   0.057
 8145SOL     OW25333   5.448   5.739   1.933
 8145SOL    HW125334   5.432   5.837   1.940
 8145SOL    HW225335   5.546   5.720   1.943
 8146SOL     OW25336   3.524   1.306   5.079
 8146SOL    HW125337   3.524   1.328   5.177
 8146SOL    HW225338   3.511   1.389   5.026
 8147SOL     OW25339   5.705   2.399   3.185
 8147SOL    HW125340   5.779   2.409   3.118
 8147SOL    HW225341   5.685   2.489   3.226
 8148SOL     OW25342   5.415   3.655   2.266
 8148SOL    HW125343   5.503   3.692   2.237
 8148SOL    HW225344   5.359   3.729   2.306
 8149SOL     OW25345   2.595   5.520   2.281
 8149SOL    HW125346   2.581   5.454   2.354
 8149SOL    HW225347   2.631   5.474   2.200
 8150SOL     OW25348   6.959   5.193   0.579
 8150SOL    HW125349   7.025   5.238   0.639
 8150SOL    HW225350   6.968   5.230   0.486
 8151SOL     OW25351   0.375   2.494   2.838
 8151SOL    HW125352   0.443   2.448   2.895
 8151SOL    HW225353   0.421   2.561   2.779
 8152SOL     OW25354   0.547   2.220   2.432
 8152SOL    HW125355   0.584   2.313   2.440
 8152SOL    HW225356   0.448   2.223   2.440
 8153SOL     OW25357   3.545   0.078   3.365
 8153SOL    HW125358   3.638   0.042   3.363
 8153SOL    HW225359   3.533   0.144   3.291
 8154SOL     OW25360   1.789   5.889   3.646
 8154SOL    HW125361   1.871   5.913   3.594
 8154SOL    HW225362   1.804   5.803   3.695
 8155SOL     OW25363   2.787   3.575   1.830
 8155SOL    HW125364   2.829   3.507   1.890
 8155SOL    HW225365   2.689   3.556   1.822
 8156SOL     OW25366   5.942   0.226   5.824
 8156SOL    HW125367   5.991   0.313   5.829
 8156SOL    HW225368   5.898   0.208   5.912
 8157SOL     OW25369   5.816   5.888   6.056
 8157SOL    HW125370   5.814   5.797   6.014
 8157SOL    HW225371   5.908   5.908   6.088
 8158SOL     OW25372   0.750   5.665   0.515
 8158SOL    HW125373   0.676   5.712   0.562
 8158SOL    HW225374   0.807   5.618   0.581
 8159SOL     OW25375   2.301   5.547   2.206
 8159SOL    HW125376   2.289   5.491   2.124
 8159SOL    HW225377   2.378   5.610   2.191
 8160SOL     OW25378   4.409   1.232   1.628
 8160SOL    HW125379   4.476   1.306   1.629
 8160SOL    HW225380   4.318   1.271   1.643
 8161SOL     OW25381   4.999   0.602   1.129
 8161SOL    HW125382   5.007   0.636   1.223
 8161SOL    HW225383   4.925   0.535   1.124
 8162SOL     OW25384   6.337   6.796   6.370
 8162SOL    HW125385   6.318   6.861   6.444
 8162SOL    HW225386   6.432   6.765   6.376
 8163SOL     OW25387   2.518   4.415   5.696
 8163SOL    HW125388   2.430   4.378   5.666
 8163SOL    HW225389   2.534   4.389   5.792
 8164SOL     OW25390   5.575   3.444   0.545
 8164SOL    HW125391   5.631   3.362   0.554
 8164SOL    HW225392   5.625   3.513   0.493
 8165SOL     OW25393   1.480   4.646   0.480
 8165SOL    HW125394   1.436   4.557   0.467
 8165SOL    HW225395   1.438   4.693   0.558
 8166SOL     OW25396   2.105   1.205   1.757
 8166SOL    HW125397   2.011   1.223   1.784
 8166SOL    HW225398   2.124   1.246   1.668
 8167SOL     OW25399   5.402   1.490   4.174
 8167SOL    HW125400   5.502   1.477   4.176
 8167SOL    HW225401   5.380   1.559   4.104
 8168SOL     OW25402   3.271   2.080   2.688
 8168SOL    HW125403   3.270   2.089   2.788
 8168SOL    HW225404   3.315   1.993   2.663
 8169SOL     OW25405   4.592   3.389   0.954
 8169SOL    HW125406   4.603   3.306   1.009
 8169SOL    HW225407   4.611   3.367   0.858
 8170SOL     OW25408   1.774   5.761   3.310
 8170SOL    HW125409   1.760   5.857   3.335
 8170SOL    HW225410   1.751   5.703   3.389
 8171SOL     OW25411   0.652   1.958   6.565
 8171SOL    HW125412   0.729   1.996   6.513
 8171SOL    HW225413   0.584   2.030   6.582
 8172SOL     OW25414   0.257   0.960   0.858
 8172SOL    HW125415   0.220   0.913   0.938
 8172SOL    HW225416   0.279   0.893   0.787
 8173SOL     OW25417   3.163   2.111   0.063
 8173SOL    HW125418   3.202   2.083   7.001
 8173SOL    HW225419   3.163   2.033   0.126
 8174SOL     OW25420   5.425   2.055   1.010
 8174SOL    HW125421   5.415   1.971   1.063
 8174SOL    HW225422   5.335   2.088   0.981
 8175SOL     OW25423   0.278   2.874   6.418
 8175SOL    HW125424   0.334   2.840   6.342
 8175SOL    HW225425   0.327   2.948   6.464
 8176SOL     OW25426   2.692   5.744   2.151
 8176SOL    HW125427   2.691   5.655   2.196
 8176SOL    HW225428   2.599   5.774   2.134
 8177SOL     OW25429   1.688   6.053   3.381
 8177SOL    HW125430   1.655   6.132   3.433
 8177SOL    HW225431   1.611   6.011   3.332
 8178SOL     OW25432   1.472   0.209   5.832
 8178SOL    HW125433   1.419   0.187   5.914
 8178SOL    HW225434   1.436   0.158   5.754
 8179SOL     OW25435   3.863   3.605   0.093
 8179SOL    HW125436   3.895   3.510   0.089
 8179SOL    HW225437   3.938   3.666   0.067
 8180SOL     OW25438   6.391   6.871   4.032
 8180SOL    HW125439   6.468   6.927   4.063
 8180SOL    HW225440   6.353   6.911   3.948
 8181SOL     OW25441   2.540   2.007   2.638
 8181SOL    HW125442   2.527   2.094   2.590
 8181SOL    HW225443   2.544   1.933   2.571
 8182SOL     OW25444   3.305   2.140   6.299
 8182SOL    HW125445   3.225   2.162   6.244
 8182SOL    HW225446   3.372   2.091   6.243
 8183SOL     OW25447   0.802   3.018   5.279
 8183SOL    HW125448   0.804   3.099   5.221
 8183SOL    HW225449   0.741   3.034   5.357
 8184SOL     OW25450   6.250   1.290   5.623
 8184SOL    HW125451   6.337   1.318   5.583
 8184SOL    HW225452   6.250   1.311   5.721
 8185SOL     OW25453   3.000   0.456   0.554
 8185SOL    HW125454   3.029   0.535   0.608
 8185SOL    HW225455   2.938   0.400   0.608
 8186SOL     OW25456   3.227   6.269   5.820
 8186SOL    HW125457   3.259   6.196   5.759
 8186SOL    HW225458   3.294   6.283   5.893
 8187SOL     OW25459   1.350   1.748   5.215
 8187SOL    HW125460   1.349   1.789   5.124
 8187SOL    HW225461   1.408   1.803   5.276
 8188SOL     OW25462   4.914   1.793   2.772
 8188SOL    HW125463   4.963   1.801   2.685
 8188SOL    HW225464   4.935   1.871   2.830
 8189SOL     OW25465   5.009   4.298   2.381
 8189SOL    HW125466   5.044   4.204   2.382
 8189SOL    HW225467   4.911   4.297   2.403
 8190SOL     OW25468   5.576   4.654   4.203
 8190SOL    HW125469   5.643   4.702   4.146
 8190SOL    HW225470   5.607   4.561   4.219
 8191SOL     OW25471   1.718   5.287   3.660
 8191SOL    HW125472   1.803   5.319   3.618
 8191SOL    HW225473   1.738   5.246   3.749
 8192SOL     OW25474   3.039   5.418   0.538
 8192SOL    HW125475   2.945   5.412   0.572
 8192SOL    HW225476   3.041   5.388   0.443
 8193SOL     OW25477   6.252   6.287   5.029
 8193SOL    HW125478   6.337   6.292   4.977
 8193SOL    HW225479   6.212   6.378   5.037
 8194SOL     OW25480   6.363   2.464   0.081
 8194SOL    HW125481   6.340   2.514   0.165
 8194SOL    HW225482   6.438   2.511   0.034
 8195SOL     OW25483   0.316   0.518   0.949
 8195SOL    HW125484   0.411   0.547   0.961
 8195SOL    HW225485   0.290   0.531   0.853
 8196SOL     OW25486   4.118   6.453   5.488
 8196SOL    HW125487   4.042   6.400   5.450
 8196SOL    HW225488   4.149   6.519   5.419
 8197SOL     OW25489   6.147   1.180   6.287
 8197SOL    HW125490   6.174   1.275   6.269
 8197SOL    HW225491   6.189   1.121   6.218
 8198SOL     OW25492   2.680   6.719   2.714
 8198SOL    HW125493   2.769   6.763   2.707
 8198SOL    HW225494   2.620   6.754   2.642
 8199SOL     OW25495   0.008   3.708   6.982
 8199SOL    HW125496   0.064   3.755   6.913
 8199SOL    HW225497   0.016   3.756   0.044
 8200SOL     OW25498   4.508   5.245   1.188
 8200SOL    HW125499   4.533   5.165   1.133
 8200SOL    HW225500   4.499   5.217   1.284
 8201SOL     OW25501   5.057   1.098   4.548
 8201SOL    HW125502   5.151   1.070   4.568
 8201SOL    HW225503   4.995   1.021   4.562
 8202SOL     OW25504   1.816   5.418   3.997
 8202SOL    HW125505   1.805   5.323   3.967
 8202SOL    HW225506   1.888   5.423   4.066
 8203SOL     OW25507   4.535   3.675   0.735
 8203SOL    HW125508   4.524   3.635   0.644
 8203SOL    HW225509   4.606   3.745   0.733
 8204SOL     OW25510   3.439   6.544   1.652
 8204SOL    HW125511   3.465   6.514   1.744
 8204SOL    HW225512   3.411   6.464   1.598
 8205SOL     OW25513   5.809   5.196   1.584
 8205SOL    HW125514   5.839   5.189   1.679
 8205SOL    HW225515   5.742   5.125   1.565
 8206SOL     OW25516   3.472   2.688   6.091
 8206SOL    HW125517   3.380   2.661   6.120
 8206SOL    HW225518   3.481   2.787   6.095
 8207SOL     OW25519   2.859   4.879   5.482
 8207SOL    HW125520   2.773   4.832   5.466
 8207SOL    HW225521   2.927   4.814   5.518
 8208SOL     OW25522   2.422   5.826   2.103
 8208SOL    HW125523   2.437   5.830   2.201
 8208SOL    HW225524   2.417   5.918   2.065
 8209SOL     OW25525   1.647   0.898   5.587
 8209SOL    HW125526   1.697   0.938   5.664
 8209SOL    HW225527   1.554   0.875   5.616
 8210SOL     OW25528   2.797   0.606   0.450
 8210SOL    HW125529   2.704   0.586   0.482
 8210SOL    HW225530   2.863   0.560   0.510
 8211SOL     OW25531   3.628   4.147   4.560
 8211SOL    HW125532   3.591   4.176   4.648
 8211SOL    HW225533   3.561   4.165   4.488
 8212SOL     OW25534   2.400   0.202   0.917
 8212SOL    HW125535   2.316   0.252   0.933
 8212SOL    HW225536   2.458   0.206   0.998
 8213SOL     OW25537   4.291   5.209   2.935
 8213SOL    HW125538   4.316   5.271   3.008
 8213SOL    HW225539   4.362   5.138   2.926
 8214SOL     OW25540   2.589   5.684   3.805
 8214SOL    HW125541   2.553   5.766   3.848
 8214SOL    HW225542   2.677   5.704   3.763
 8215SOL     OW25543   4.079   6.423   6.908
 8215SOL    HW125544   4.159   6.476   6.881
 8215SOL    HW225545   4.007   6.485   6.938
 8216SOL     OW25546   4.908   6.295   3.064
 8216SOL    HW125547   4.974   6.303   2.989
 8216SOL    HW225548   4.838   6.228   3.040
 8217SOL     OW25549   2.165   4.014   3.082
 8217SOL    HW125550   2.158   4.106   3.042
 8217SOL    HW225551   2.144   3.945   3.013
 8218SOL     OW25552   1.990   0.313   4.785
 8218SOL    HW125553   1.962   0.292   4.879
 8218SOL    HW225554   1.919   0.367   4.741
 8219SOL     OW25555   3.388   4.024   1.885
 8219SOL    HW125556   3.398   3.936   1.931
 8219SOL    HW225557   3.294   4.034   1.853
 8220SOL     OW25558   3.307   4.219   5.238
 8220SOL    HW125559   3.213   4.252   5.250
 8220SOL    HW225560   3.322   4.138   5.296
 8221SOL     OW25561   5.908   3.804   3.211
 8221SOL    HW125562   5.915   3.829   3.114
 8221SOL    HW225563   5.964   3.723   3.229
 8222SOL     OW25564   6.286   3.077   1.424
 8222SOL    HW125565   6.254   3.037   1.338
 8222SOL    HW225566   6.255   3.019   1.500
 8223SOL     OW25567   7.001   5.757   5.116
 8223SOL    HW125568   6.945   5.677   5.136
 8223SOL    HW225569   6.990   5.782   5.020
 8224SOL     OW25570   5.158   1.818   0.775
 8224SOL    HW125571   5.183   1.840   0.681
 8224SOL    HW225572   5.218   1.746   0.809
 8225SOL     OW25573   4.248   0.594   6.882
 8225SOL    HW125574   4.199   0.654   6.946
 8225SOL    HW225575   4.201   0.506   6.876
 8226SOL     OW25576   3.736   0.339   6.978
 8226SOL    HW125577   3.706   0.417   0.007
 8226SOL    HW225578   3.811   0.367   6.918
 8227SOL     OW25579   5.278   1.390   3.207
 8227SOL    HW125580   5.189   1.360   3.243
 8227SOL    HW225581   5.323   1.313   3.163
 8228SOL     OW25582   0.476   1.382   5.119
 8228SOL    HW125583   0.420   1.342   5.047
 8228SOL    HW225584   0.563   1.332   5.125
 8229SOL     OW25585   3.829   4.857   1.292
 8229SOL    HW125586   3.797   4.771   1.331
 8229SOL    HW225587   3.880   4.908   1.361
 8230SOL     OW25588   4.261   0.390   5.692
 8230SOL    HW125589   4.300   0.472   5.734
 8230SOL    HW225590   4.335   0.332   5.658
 8231SOL     OW25591   3.165   0.913   1.958
 8231SOL    HW125592   3.199   0.932   1.866
 8231SOL    HW225593   3.161   0.998   2.011
 8232SOL     OW25594   4.450   0.746   2.315
 8232SOL    HW125595   4.506   0.786   2.388
 8232SOL    HW225596   4.356   0.736   2.346
 8233SOL     OW25597   0.667   0.991   5.170
 8233SOL    HW125598   0.672   1.089   5.147
 8233SOL    HW225599   0.572   0.961   5.166
 8234SOL     OW25600   2.599   3.889   0.099
 8234SOL    HW125601   2.647   3.954   0.158
 8234SOL    HW225602   2.658   3.811   0.080
 8235SOL     OW25603   0.009   5.080   6.785
 8235SOL    HW125604   0.092   5.119   6.747
 8235SOL    HW225605   0.029   5.035   6.871
 8236SOL     OW25606   0.201   6.104   5.956
 8236SOL    HW125607   0.249   6.094   5.869
 8236SOL    HW225608   0.260   6.071   6.030
 8237SOL     OW25609   4.735   5.562   6.249
 8237SOL    HW125610   4.680   5.565   6.332
 8237SOL    HW225611   4.809   5.629   6.255
 8238SOL     OW25612   2.751   5.154   0.401
 8238SOL    HW125613   2.767   5.164   0.499
 8238SOL    HW225614   2.788   5.234   0.352
 8239SOL     OW25615   0.885   1.610   4.914
 8239SOL    HW125616   0.959   1.651   4.968
 8239SOL    HW225617   0.804   1.668   4.920
 8240SOL     OW25618   3.955   3.089   4.376
 8240SOL    HW125619   4.008   3.114   4.457
 8240SOL    HW225620   3.893   3.014   4.397
 8241SOL     OW25621   1.244   3.003   6.638
 8241SOL    HW125622   1.255   3.091   6.685
 8241SOL    HW225623   1.215   2.934   6.704
 8242SOL     OW25624   1.160   3.720   4.532
 8242SOL    HW125625   1.071   3.754   4.561
 8242SOL    HW225626   1.155   3.621   4.518
 8243SOL     OW25627   0.826   4.789   5.957
 8243SOL    HW125628   0.896   4.747   5.900
 8243SOL    HW225629   0.736   4.751   5.932
 8244SOL     OW25630   0.638   0.387   3.742
 8244SOL    HW125631   0.653   0.305   3.799
 8244SOL    HW225632   0.721   0.405   3.690
 8245SOL     OW25633   5.035   1.335   4.383
 8245SOL    HW125634   5.023   1.242   4.417
 8245SOL    HW225635   5.133   1.358   4.383
 8246SOL     OW25636   1.165   3.981   6.452
 8246SOL    HW125637   1.205   3.914   6.390
 8246SOL    HW225638   1.220   3.987   6.535
 8247SOL     OW25639   2.911   5.030   3.535
 8247SOL    HW125640   2.880   5.109   3.483
 8247SOL    HW225641   2.989   4.987   3.489
 8248SOL     OW25642   0.467   5.486   2.923
 8248SOL    HW125643   0.499   5.581   2.929
 8248SOL    HW225644   0.546   5.424   2.921
 8249SOL     OW25645   2.003   1.992   5.638
 8249SOL    HW125646   1.972   1.993   5.543
 8249SOL    HW225647   2.029   1.899   5.663
 8250SOL     OW25648   2.047   1.665   6.877
 8250SOL    HW125649   1.962   1.716   6.886
 8250SOL    HW225650   2.092   1.658   6.966
 8251SOL     OW25651   0.119   3.019   5.077
 8251SOL    HW125652   0.179   3.024   4.997
 8251SOL    HW225653   0.160   3.070   5.153
 8252SOL     OW25654   2.431   2.942   6.404
 8252SOL    HW125655   2.520   2.897   6.399
 8252SOL    HW225656   2.393   2.951   6.312
 8253SOL     OW25657   3.879   5.653   6.690
 8253SOL    HW125658   3.940   5.648   6.770
 8253SOL    HW225659   3.876   5.746   6.656
 8254SOL     OW25660   5.668   5.299   0.608
 8254SOL    HW125661   5.690   5.203   0.589
 8254SOL    HW225662   5.569   5.311   0.607
 8255SOL     OW25663   0.367   0.589   5.848
 8255SOL    HW125664   0.439   0.521   5.862
 8255SOL    HW225665   0.386   0.670   5.903
 8256SOL     OW25666   1.216   6.570   2.522
 8256SOL    HW125667   1.314   6.556   2.534
 8256SOL    HW225668   1.165   6.497   2.568
 8257SOL     OW25669   5.181   4.214   4.131
 8257SOL    HW125670   5.251   4.251   4.070
 8257SOL    HW225671   5.142   4.131   4.091
 8258SOL     OW25672   5.714   3.087   1.431
 8258SOL    HW125673   5.717   3.094   1.331
 8258SOL    HW225674   5.653   3.013   1.458
 8259SOL     OW25675   4.531   2.533   4.489
 8259SOL    HW125676   4.608   2.469   4.493
 8259SOL    HW225677   4.531   2.591   4.571
 8260SOL     OW25678   2.620   0.222   0.479
 8260SOL    HW125679   2.558   0.160   0.527
 8260SOL    HW225680   2.703   0.235   0.534
 8261SOL     OW25681   5.686   6.411   2.923
 8261SOL    HW125682   5.705   6.397   3.020
 8261SOL    HW225683   5.760   6.370   2.868
 8262SOL     OW25684   0.698   4.474   0.535
 8262SOL    HW125685   0.701   4.565   0.575
 8262SOL    HW225686   0.724   4.406   0.604
 8263SOL     OW25687   6.933   2.129   6.766
 8263SOL    HW125688   6.899   2.083   6.848
 8263SOL    HW225689   6.976   2.062   6.705
 8264SOL     OW25690   1.742   0.180   2.238
 8264SOL    HW125691   1.819   0.224   2.284
 8264SOL    HW225692   1.774   0.098   2.190
 8265SOL     OW25693   4.696   0.285   1.070
 8265SOL    HW125694   4.613   0.247   1.111
 8265SOL    HW225695   4.776   0.243   1.112
 8266SOL     OW25696   2.524   6.749   3.515
 8266SOL    HW125697   2.592   6.795   3.457
 8266SOL    HW225698   2.553   6.752   3.610
 8267SOL     OW25699   1.040   4.480   2.583
 8267SOL    HW125700   1.090   4.564   2.566
 8267SOL    HW225701   0.999   4.482   2.674
 8268SOL     OW25702   3.432   3.626   6.753
 8268SOL    HW125703   3.439   3.705   6.814
 8268SOL    HW225704   3.351   3.636   6.695
 8269SOL     OW25705   4.434   2.460   2.978
 8269SOL    HW125706   4.501   2.525   3.015
 8269SOL    HW225707   4.455   2.442   2.882
 8270SOL     OW25708   3.926   6.956   5.310
 8270SOL    HW125709   3.914   6.998   5.399
 8270SOL    HW225710   3.848   6.895   5.291
 8271SOL     OW25711   5.301   6.223   4.472
 8271SOL    HW125712   5.272   6.316   4.495
 8271SOL    HW225713   5.221   6.167   4.449
 8272SOL     OW25714   0.492   0.412   2.085
 8272SOL    HW125715   0.573   0.368   2.123
 8272SOL    HW225716   0.418   0.409   2.152
 8273SOL     OW25717   2.357   6.481   6.999
 8273SOL    HW125718   2.384   6.567   6.956
 8273SOL    HW225719   2.436   6.421   7.006
 8274SOL     OW25720   4.979   5.390   6.966
 8274SOL    HW125721   5.065   5.424   6.927
 8274SOL    HW225722   4.982   5.398   0.040
 8275SOL     OW25723   6.852   0.413   4.149
 8275SOL    HW125724   6.833   0.381   4.242
 8275SOL    HW225725   6.767   0.447   4.108
 8276SOL     OW25726   6.926   2.777   6.235
 8276SOL    HW125727   6.863   2.724   6.179
 8276SOL    HW225728   6.993   2.716   6.277
 8277SOL     OW25729   1.245   5.999   5.792
 8277SOL    HW125730   1.205   5.922   5.743
 8277SOL    HW225731   1.330   5.971   5.837
 8278SOL     OW25732   3.584   2.474   6.466
 8278SOL    HW125733   3.489   2.452   6.443
 8278SOL    HW225734   3.646   2.415   6.415
 8279SOL     OW25735   4.643   6.201   6.436
 8279SOL    HW125736   4.650   6.282   6.378
 8279SOL    HW225737   4.669   6.120   6.384
 8280SOL     OW25738   5.329   2.631   0.974
 8280SOL    HW125739   5.285   2.718   0.991
 8280SOL    HW225740   5.306   2.598   0.882
 8281SOL     OW25741   1.361   5.142   0.438
 8281SOL    HW125742   1.270   5.128   0.478
 8281SOL    HW225743   1.408   5.054   0.429
 8282SOL     OW25744   3.028   2.828   1.125
 8282SOL    HW125745   3.087   2.815   1.205
 8282SOL    HW225746   3.083   2.833   1.042
 8283SOL     OW25747   0.441   4.663   3.764
 8283SOL    HW125748   0.407   4.722   3.838
 8283SOL    HW225749   0.410   4.570   3.779
 8284SOL     OW25750   2.426   2.298   2.186
 8284SOL    HW125751   2.490   2.276   2.112
 8284SOL    HW225752   2.334   2.310   2.148
 8285SOL     OW25753   3.209   4.431   5.985
 8285SOL    HW125754   3.154   4.418   5.902
 8285SOL    HW225755   3.306   4.427   5.962
 8286SOL     OW25756   5.314   1.098   4.647
 8286SOL    HW125757   5.336   1.160   4.722
 8286SOL    HW225758   5.324   1.003   4.678
 8287SOL     OW25759   1.207   0.208   3.637
 8287SOL    HW125760   1.112   0.240   3.644
 8287SOL    HW225761   1.268   0.280   3.671
 8288SOL     OW25762   1.939   1.765   2.211
 8288SOL    HW125763   1.931   1.819   2.295
 8288SOL    HW225764   2.003   1.809   2.149
 8289SOL     OW25765   6.456   2.101   5.378
 8289SOL    HW125766   6.378   2.159   5.355
 8289SOL    HW225767   6.541   2.153   5.367
 8290SOL     OW25768   3.693   2.575   1.738
 8290SOL    HW125769   3.702   2.477   1.759
 8290SOL    HW225770   3.783   2.616   1.735
 8291SOL     OW25771   5.910   6.840   6.473
 8291SOL    HW125772   5.913   6.762   6.411
 8291SOL    HW225773   6.003   6.864   6.501
 8292SOL     OW25774   0.861   4.726   5.522
 8292SOL    HW125775   0.801   4.792   5.566
 8292SOL    HW225776   0.914   4.677   5.592
 8293SOL     OW25777   2.598   5.275   2.461
 8293SOL    HW125778   2.590   5.219   2.379
 8293SOL    HW225779   2.619   5.216   2.539
 8294SOL     OW25780   6.773   3.827   6.259
 8294SOL    HW125781   6.833   3.817   6.180
 8294SOL    HW225782   6.828   3.830   6.342
 8295SOL     OW25783   5.177   4.078   2.945
 8295SOL    HW125784   5.131   3.989   2.953
 8295SOL    HW225785   5.253   4.069   2.880
 8296SOL     OW25786   3.222   5.407   0.756
 8296SOL    HW125787   3.149   5.426   0.690
 8296SOL    HW225788   3.310   5.406   0.709
 8297SOL     OW25789   6.352   4.250   2.866
 8297SOL    HW125790   6.388   4.308   2.940
 8297SOL    HW225791   6.252   4.258   2.863
 8298SOL     OW25792   0.567   0.816   0.061
 8298SOL    HW125793   0.558   0.796   0.159
 8298SOL    HW225794   0.663   0.810   0.034
 8299SOL     OW25795   0.364   3.555   1.770
 8299SOL    HW125796   0.412   3.584   1.687
 8299SOL    HW225797   0.431   3.538   1.843
 8300SOL     OW25798   6.398   4.973   3.651
 8300SOL    HW125799   6.314   5.025   3.642
 8300SOL    HW225800   6.410   4.943   3.746
 8301SOL     OW25801   3.615   6.668   0.489
 8301SOL    HW125802   3.634   6.764   0.512
 8301SOL    HW225803   3.574   6.664   0.398
 8302SOL     OW25804   3.814   6.391   4.094
 8302SOL    HW125805   3.731   6.421   4.047
 8302SOL    HW225806   3.885   6.460   4.084
 8303SOL     OW25807   6.229   0.020   2.087
 8303SOL    HW125808   6.310   7.016   2.139
 8303SOL    HW225809   6.209   6.978   2.016
 8304SOL     OW25810   5.757   3.604   3.561
 8304SOL    HW125811   5.726   3.694   3.530
 8304SOL    HW225812   5.831   3.615   3.628
 8305SOL     OW25813   4.619   5.511   3.931
 8305SOL    HW125814   4.704   5.491   3.883
 8305SOL    HW225815   4.639   5.559   4.016
 8306SOL     OW25816   6.051   1.015   2.448
 8306SOL    HW125817   6.087   0.922   2.458
 8306SOL    HW225818   6.125   1.077   2.424
 8307SOL     OW25819   1.767   5.070   1.951
 8307SOL    HW125820   1.710   5.109   1.879
 8307SOL    HW225821   1.819   4.992   1.914
 8308SOL     OW25822   0.954   4.885   6.971
 8308SOL    HW125823   1.039   4.937   6.961
 8308SOL    HW225824   0.962   4.823   0.024
 8309SOL     OW25825   6.716   4.275   4.905
 8309SOL    HW125826   6.802   4.264   4.856
 8309SOL    HW225827   6.726   4.241   4.999
 8310SOL     OW25828   0.532   6.951   0.558
 8310SOL    HW125829   0.577   6.961   0.646
 8310SOL    HW225830   0.572   6.873   0.509
 8311SOL     OW25831   5.975   6.427   3.951
 8311SOL    HW125832   6.068   6.442   3.916
 8311SOL    HW225833   5.955   6.329   3.949
 8312SOL     OW25834   4.812   0.295   6.912
 8312SOL    HW125835   4.778   0.340   6.830
 8312SOL    HW225836   4.878   0.355   6.958
 8313SOL     OW25837   4.637   0.794   4.905
 8313SOL    HW125838   4.575   0.862   4.943
 8313SOL    HW225839   4.591   0.706   4.898
 8314SOL     OW25840   5.516   6.486   5.763
 8314SOL    HW125841   5.516   6.473   5.862
 8314SOL    HW225842   5.422   6.484   5.729
 8315SOL     OW25843   3.519   3.046   4.714
 8315SOL    HW125844   3.433   3.051   4.764
 8315SOL    HW225845   3.570   2.965   4.743
 8316SOL     OW25846   0.787   2.642   0.491
 8316SOL    HW125847   0.806   2.546   0.514
 8316SOL    HW225848   0.784   2.652   0.391
 8317SOL     OW25849   1.912   1.700   4.305
 8317SOL    HW125850   1.890   1.783   4.357
 8317SOL    HW225851   1.987   1.719   4.241
 8318SOL     OW25852   3.839   0.236   6.525
 8318SOL    HW125853   3.833   0.297   6.604
 8318SOL    HW225854   3.791   0.277   6.448
 8319SOL     OW25855   1.508   6.909   5.915
 8319SOL    HW125856   1.463   6.854   5.985
 8319SOL    HW225857   1.448   6.983   5.887
 8320SOL     OW25858   3.649   3.786   4.531
 8320SOL    HW125859   3.604   3.819   4.614
 8320SOL    HW225860   3.631   3.850   4.456
 8321SOL     OW25861   0.290   0.075   0.314
 8321SOL    HW125862   0.289   0.058   0.413
 8321SOL    HW225863   0.233   0.154   0.293
 8322SOL     OW25864   6.695   1.095   0.406
 8322SOL    HW125865   6.609   1.046   0.392
 8322SOL    HW225866   6.692   1.143   0.494
 8323SOL     OW25867   4.967   4.931   0.860
 8323SOL    HW125868   5.047   4.875   0.883
 8323SOL    HW225869   4.886   4.893   0.904
 8324SOL     OW25870   6.744   0.025   6.644
 8324SOL    HW125871   6.774   7.009   6.558
 8324SOL    HW225872   6.721   0.121   6.629
 8325SOL     OW25873   1.647   5.921   4.765
 8325SOL    HW125874   1.598   5.960   4.688
 8325SOL    HW225875   1.662   5.823   4.749
 8326SOL     OW25876   2.564   3.878   0.445
 8326SOL    HW125877   2.531   3.838   0.531
 8326SOL    HW225878   2.613   3.809   0.393
 8327SOL     OW25879   0.416   0.679   5.132
 8327SOL    HW125880   0.400   0.740   5.210
 8327SOL    HW225881   0.397   0.727   5.047
 8328SOL     OW25882   0.736   6.558   5.714
 8328SOL    HW125883   0.790   6.506   5.780
 8328SOL    HW225884   0.765   6.654   5.714
 8329SOL     OW25885   0.714   2.884   5.050
 8329SOL    HW125886   0.751   2.805   5.002
 8329SOL    HW225887   0.777   2.912   5.123
 8330SOL     OW25888   3.696   0.759   6.880
 8330SOL    HW125889   3.787   0.728   6.852
 8330SOL    HW225890   3.655   0.812   6.805
 8331SOL     OW25891   1.968   2.127   0.188
 8331SOL    HW125892   1.895   2.099   0.250
 8331SOL    HW225893   1.959   2.077   0.102
 8332SOL     OW25894   5.559   4.816   1.881
 8332SOL    HW125895   5.534   4.719   1.883
 8332SOL    HW225896   5.482   4.871   1.911
 8333SOL     OW25897   2.106   4.863   1.041
 8333SOL    HW125898   2.069   4.932   1.103
 8333SOL    HW225899   2.191   4.826   1.078
 8334SOL     OW25900   2.711   2.339   6.591
 8334SOL    HW125901   2.756   2.267   6.643
 8334SOL    HW225902   2.757   2.426   6.608
 8335SOL     OW25903   4.958   3.062   6.526
 8335SOL    HW125904   4.949   2.987   6.592
 8335SOL    HW225905   4.946   3.026   6.434
 8336SOL     OW25906   1.460   3.623   3.099
 8336SOL    HW125907   1.502   3.642   3.010
 8336SOL    HW225908   1.374   3.673   3.107
 8337SOL     OW25909   0.984   1.261   4.643
 8337SOL    HW125910   0.934   1.296   4.722
 8337SOL    HW225911   1.072   1.307   4.636
 8338SOL     OW25912   3.807   4.841   2.178
 8338SOL    HW125913   3.745   4.899   2.230
 8338SOL    HW225914   3.756   4.786   2.113
 8339SOL     OW25915   0.124   0.565   0.736
 8339SOL    HW125916   0.087   0.658   0.745
 8339SOL    HW225917   0.153   0.551   0.641
 8340SOL     OW25918   4.863   2.172   0.946
 8340SOL    HW125919   4.836   2.240   0.878
 8340SOL    HW225920   4.791   2.103   0.954
 8341SOL     OW25921   3.593   0.122   0.034
 8341SOL    HW125922   3.623   0.030   0.009
 8341SOL    HW225923   3.655   0.190   7.019
 8342SOL     OW25924   3.838   6.232   6.715
 8342SOL    HW125925   3.869   6.208   6.807
 8342SOL    HW225926   3.760   6.175   6.690
 8343SOL     OW25927   6.807   4.239   3.853
 8343SOL    HW125928   6.876   4.167   3.853
 8343SOL    HW225929   6.719   4.201   3.884
 8344SOL     OW25930   0.646   5.410   4.354
 8344SOL    HW125931   0.738   5.420   4.318
 8344SOL    HW225932   0.580   5.448   4.288
 8345SOL     OW25933   5.027   0.869   2.863
 8345SOL    HW125934   5.086   0.939   2.903
 8345SOL    HW225935   4.941   0.864   2.913
 8346SOL     OW25936   4.277   3.305   5.770
 8346SOL    HW125937   4.221   3.382   5.740
 8346SOL    HW225938   4.218   3.229   5.797
 8347SOL     OW25939   2.360   6.953   5.897
 8347SOL    HW125940   2.456   6.925   5.900
 8347SOL    HW225941   2.344   7.011   5.817
 8348SOL     OW25942   3.866   6.523   1.466
 8348SOL    HW125943   3.910   6.434   1.467
 8348SOL    HW225944   3.922   6.588   1.518
 8349SOL     OW25945   0.910   6.456   2.216
 8349SOL    HW125946   0.937   6.363   2.240
 8349SOL    HW225947   0.877   6.504   2.298
 8350SOL     OW25948   2.773   0.095   5.956
 8350SOL    HW125949   2.741   0.032   6.027
 8350SOL    HW225950   2.700   0.109   5.889
 8351SOL     OW25951   6.650   4.409   4.445
 8351SOL    HW125952   6.680   4.374   4.356
 8351SOL    HW225953   6.569   4.467   4.431
 8352SOL     OW25954   2.635   5.985   1.864
 8352SOL    HW125955   2.657   5.982   1.766
 8352SOL    HW225956   2.548   6.032   1.876
 8353SOL     OW25957   1.034   3.952   2.088
 8353SOL    HW125958   1.036   3.853   2.086
 8353SOL    HW225959   1.127   3.988   2.091
 8354SOL     OW25960   3.556   6.710   4.038
 8354SOL    HW125961   3.599   6.740   4.122
 8354SOL    HW225962   3.474   6.765   4.021
 8355SOL     OW25963   1.236   6.585   6.013
 8355SOL    HW125964   1.318   6.568   6.067
 8355SOL    HW225965   1.156   6.545   6.059
 8356SOL     OW25966   1.863   5.543   1.591
 8356SOL    HW125967   1.874   5.549   1.492
 8356SOL    HW225968   1.952   5.555   1.636
 8357SOL     OW25969   4.065   5.628   5.817
 8357SOL    HW125970   3.995   5.559   5.798
 8357SOL    HW225971   4.096   5.618   5.912
 8358SOL     OW25972   1.275   2.337   5.186
 8358SOL    HW125973   1.215   2.405   5.143
 8358SOL    HW225974   1.254   2.332   5.284
 8359SOL     OW25975   3.073   0.761   5.055
 8359SOL    HW125976   2.984   0.784   5.017
 8359SOL    HW225977   3.103   0.834   5.117
 8360SOL     OW25978   5.035   6.388   0.645
 8360SOL    HW125979   5.077   6.478   0.653
 8360SOL    HW225980   4.936   6.397   0.634
 8361SOL     OW25981   2.418   6.872   6.681
 8361SOL    HW125982   2.431   6.971   6.688
 8361SOL    HW225983   2.369   6.850   6.597
 8362SOL     OW25984   6.556   2.840   0.586
 8362SOL    HW125985   6.481   2.776   0.570
 8362SOL    HW225986   6.555   2.869   0.682
 8363SOL     OW25987   4.108   1.986   0.765
 8363SOL    HW125988   4.082   2.056   0.698
 8363SOL    HW225989   4.055   1.999   0.849
 8364SOL     OW25990   0.550   2.537   3.450
 8364SOL    HW125991   0.593   2.623   3.423
 8364SOL    HW225992   0.467   2.556   3.503
 8365SOL     OW25993   2.021   2.593   2.016
 8365SOL    HW125994   1.988   2.566   2.107
 8365SOL    HW225995   2.111   2.635   2.025
 8366SOL     OW25996   4.536   5.720   0.930
 8366SOL    HW125997   4.564   5.635   0.884
 8366SOL    HW225998   4.474   5.771   0.871
 8367SOL     OW25999   3.948   5.427   5.141
 8367SOL    HW126000   4.030   5.397   5.191
 8367SOL    HW226001   3.925   5.358   5.071
 8368SOL     OW26002   1.133   6.181   0.314
 8368SOL    HW126003   1.204   6.234   0.268
 8368SOL    HW226004   1.128   6.089   0.274
 8369SOL     OW26005   1.040   1.666   0.545
 8369SOL    HW126006   0.961   1.696   0.598
 8369SOL    HW226007   1.028   1.570   0.518
 8370SOL     OW26008   3.060   1.705   6.942
 8370SOL    HW126009   3.048   1.758   7.025
 8370SOL    HW226010   3.130   1.748   6.884
 8371SOL     OW26011   1.380   3.110   5.539
 8371SOL    HW126012   1.359   3.013   5.526
 8371SOL    HW226013   1.418   3.124   5.630
 8372SOL     OW26014   2.106   6.755   2.463
 8372SOL    HW126015   2.016   6.783   2.498
 8372SOL    HW226016   2.124   6.660   2.491
 8373SOL     OW26017   0.820   1.605   4.511
 8373SOL    HW126018   0.815   1.536   4.584
 8373SOL    HW226019   0.884   1.574   4.441
 8374SOL     OW26020   1.215   1.019   4.522
 8374SOL    HW126021   1.197   1.032   4.620
 8374SOL    HW226022   1.198   1.104   4.473
 8375SOL     OW26023   4.345   0.662   5.654
 8375SOL    HW126024   4.306   0.722   5.724
 8375SOL    HW226025   4.445   0.660   5.663
 8376SOL     OW26026   1.481   1.052   3.505
 8376SOL    HW126027   1.561   0.991   3.502
 8376SOL    HW226028   1.505   1.140   3.464
 8377SOL     OW26029   5.569   5.422   6.939
 8377SOL    HW126030   5.659   5.422   6.896
 8377SOL    HW226031   5.500   5.391   6.873
 8378SOL     OW26032   5.375   5.585   3.513
 8378SOL    HW126033   5.445   5.513   3.514
 8378SOL    HW226034   5.393   5.647   3.437
 8379SOL     OW26035   5.314   1.958   2.125
 8379SOL    HW126036   5.365   1.984   2.207
 8379SOL    HW226037   5.344   2.014   2.048
 8380SOL     OW26038   0.197   5.843   6.420
 8380SOL    HW126039   0.111   5.884   6.450
 8380SOL    HW226040   0.231   5.890   6.339
 8381SOL     OW26041   6.580   2.347   2.851
 8381SOL    HW126042   6.542   2.323   2.761
 8381SOL    HW226043   6.633   2.431   2.844
 8382SOL     OW26044   2.582   0.344   6.980
 8382SOL    HW126045   2.592   0.402   6.898
 8382SOL    HW226046   2.647   0.373   0.024
 8383SOL     OW26047   2.657   0.054   4.472
 8383SOL    HW126048   2.621   0.138   4.431
 8383SOL    HW226049   2.651   7.005   4.406
 8384SOL     OW26050   6.851   1.987   1.286
 8384SOL    HW126051   6.781   2.015   1.220
 8384SOL    HW226052   6.817   2.003   1.378
 8385SOL     OW26053   4.653   3.327   0.392
 8385SOL    HW126054   4.653   3.237   0.436
 8385SOL    HW226055   4.675   3.397   0.460
 8386SOL     OW26056   2.051   6.715   1.707
 8386SOL    HW126057   1.976   6.777   1.682
 8386SOL    HW226058   2.013   6.635   1.753
 8387SOL     OW26059   2.596   1.524   1.025
 8387SOL    HW126060   2.625   1.594   0.960
 8387SOL    HW226061   2.527   1.561   1.087
 8388SOL     OW26062   2.062   6.707   0.467
 8388SOL    HW126063   2.048   6.720   0.565
 8388SOL    HW226064   2.144   6.757   0.437
 8389SOL     OW26065   1.509   3.386   4.434
 8389SOL    HW126066   1.431   3.408   4.375
 8389SOL    HW226067   1.594   3.394   4.382
 8390SOL     OW26068   2.610   0.599   5.850
 8390SOL    HW126069   2.628   0.643   5.938
 8390SOL    HW226070   2.513   0.612   5.826
 8391SOL     OW26071   5.266   5.666   2.105
 8391SOL    HW126072   5.187   5.727   2.099
 8391SOL    HW226073   5.320   5.672   2.020
 8392SOL     OW26074   6.259   5.727   4.763
 8392SOL    HW126075   6.347   5.716   4.717
 8392SOL    HW226076   6.267   5.697   4.858
 8393SOL     OW26077   6.443   6.989   3.775
 8393SOL    HW126078   6.474   6.938   3.695
 8393SOL    HW226079   6.502   0.043   3.789
 8394SOL     OW26080   0.591   1.634   2.760
 8394SOL    HW126081   0.587   1.598   2.854
 8394SOL    HW226082   0.562   1.563   2.696
 8395SOL     OW26083   0.685   6.252   4.331
 8395SOL    HW126084   0.727   6.167   4.362
 8395SOL    HW226085   0.589   6.236   4.309
 8396SOL     OW26086   4.462   4.610   2.268
 8396SOL    HW126087   4.494   4.596   2.175
 8396SOL    HW226088   4.408   4.694   2.273
 8397SOL     OW26089   1.810   6.842   2.807
 8397SOL    HW126090   1.787   6.745   2.799
 8397SOL    HW226091   1.761   6.894   2.737
 8398SOL     OW26092   4.071   1.625   0.163
 8398SOL    HW126093   4.111   1.684   0.093
 8398SOL    HW226094   4.084   1.667   0.253
 8399SOL     OW26095   5.789   5.906   1.172
 8399SOL    HW126096   5.706   5.882   1.224
 8399SOL    HW226097   5.814   6.001   1.191
 8400SOL     OW26098   0.165   0.341   2.679
 8400SOL    HW126099   0.123   0.327   2.769
 8400SOL    HW226100   0.157   0.257   2.625
 8401SOL     OW26101   4.409   2.895   6.105
 8401SOL    HW126102   4.311   2.880   6.117
 8401SOL    HW226103   4.439   2.855   6.018
 8402SOL     OW26104   3.719   1.966   5.998
 8402SOL    HW126105   3.678   1.930   5.914
 8402SOL    HW226106   3.810   2.002   5.978
 8403SOL     OW26107   0.991   1.616   3.752
 8403SOL    HW126108   0.969   1.557   3.674
 8403SOL    HW226109   1.079   1.661   3.736
 8404SOL     OW26110   5.361   6.388   6.110
 8404SOL    HW126111   5.367   6.302   6.060
 8404SOL    HW226112   5.302   6.376   6.190
 8405SOL     OW26113   1.525   1.985   6.695
 8405SOL    HW126114   1.447   2.024   6.744
 8405SOL    HW226115   1.594   2.056   6.679
 8406SOL     OW26116   4.412   1.589   0.595
 8406SOL    HW126117   4.509   1.606   0.580
 8406SOL    HW226118   4.363   1.676   0.603
 8407SOL     OW26119   5.466   4.614   4.701
 8407SOL    HW126120   5.539   4.635   4.767
 8407SOL    HW226121   5.377   4.633   4.743
 8408SOL     OW26122   5.172   0.231   4.083
 8408SOL    HW126123   5.223   0.174   4.018
 8408SOL    HW226124   5.089   0.266   4.039
 8409SOL     OW26125   0.688   1.844   3.805
 8409SOL    HW126126   0.720   1.807   3.718
 8409SOL    HW226127   0.639   1.773   3.856
 8410SOL     OW26128   5.423   0.481   1.861
 8410SOL    HW126129   5.425   0.461   1.959
 8410SOL    HW226130   5.452   0.576   1.846
 8411SOL     OW26131   1.299   4.969   3.905
 8411SOL    HW126132   1.317   5.064   3.879
 8411SOL    HW226133   1.228   4.966   3.975
 8412SOL     OW26134   4.516   2.370   1.207
 8412SOL    HW126135   4.593   2.421   1.168
 8412SOL    HW226136   4.531   2.356   1.305
 8413SOL     OW26137   3.969   4.827   0.869
 8413SOL    HW126138   3.949   4.852   0.774
 8413SOL    HW226139   3.909   4.879   0.930
 8414SOL     OW26140   3.843   0.000   2.481
 8414SOL    HW126141   3.814   0.017   2.387
 8414SOL    HW226142   3.763   0.000   2.541
 8415SOL     OW26143   6.846   4.818   3.700
 8415SOL    HW126144   6.798   4.905   3.703
 8415SOL    HW226145   6.827   4.766   3.783
 8416SOL     OW26146   5.150   4.290   2.752
 8416SOL    HW126147   5.141   4.207   2.808
 8416SOL    HW226148   5.089   4.361   2.788
 8417SOL     OW26149   2.927   6.425   5.362
 8417SOL    HW126150   2.908   6.515   5.323
 8417SOL    HW226151   3.007   6.385   5.317
 8418SOL     OW26152   5.502   5.685   2.273
 8418SOL    HW126153   5.437   5.671   2.198
 8418SOL    HW226154   5.593   5.700   2.235
 8419SOL     OW26155   5.129   0.533   1.828
 8419SOL    HW126156   5.089   0.489   1.748
 8419SOL    HW226157   5.204   0.478   1.863
 8420SOL     OW26158   4.387   0.070   0.150
 8420SOL    HW126159   4.451   0.128   0.099
 8420SOL    HW226160   4.433   7.011   0.179
 8421SOL     OW26161   1.966   6.972   1.631
 8421SOL    HW126162   1.934   6.932   1.545
 8421SOL    HW226163   2.026   0.024   1.611
 8422SOL     OW26164   5.508   5.973   1.037
 8422SOL    HW126165   5.409   5.967   1.052
 8422SOL    HW226166   5.553   5.896   1.081
 8423SOL     OW26167   4.214   5.003   6.902
 8423SOL    HW126168   4.238   5.064   6.826
 8423SOL    HW226169   4.295   4.956   6.935
 8424SOL     OW26170   3.379   2.039   2.404
 8424SOL    HW126171   3.418   2.076   2.488
 8424SOL    HW226172   3.295   2.087   2.381
 8425SOL     OW26173   6.808   5.345   1.190
 8425SOL    HW126174   6.874   5.379   1.257
 8425SOL    HW226175   6.830   5.250   1.167
 8426SOL     OW26176   3.999   3.173   3.484
 8426SOL    HW126177   4.069   3.204   3.548
 8426SOL    HW226178   4.020   3.209   3.393
 8427SOL     OW26179   1.615   4.281   5.760
 8427SOL    HW126180   1.658   4.190   5.753
 8427SOL    HW226181   1.659   4.333   5.833
 8428SOL     OW26182   6.723   4.562   1.659
 8428SOL    HW126183   6.718   4.489   1.727
 8428SOL    HW226184   6.658   4.634   1.683
 8429SOL     OW26185   3.096   4.860   4.711
 8429SOL    HW126186   3.179   4.828   4.667
 8429SOL    HW226187   3.016   4.819   4.667
 8430SOL     OW26188   4.548   5.481   2.457
 8430SOL    HW126189   4.543   5.521   2.549
 8430SOL    HW226190   4.544   5.554   2.389
 8431SOL     OW26191   2.908   5.056   1.563
 8431SOL    HW126192   2.872   5.075   1.471
 8431SOL    HW226193   2.875   4.967   1.593
 8432SOL     OW26194   4.486   5.288   6.001
 8432SOL    HW126195   4.506   5.376   5.956
 8432SOL    HW226196   4.518   5.291   6.095
 8433SOL     OW26197   0.933   2.837   6.999
 8433SOL    HW126198   0.896   2.903   6.934
 8433SOL    HW226199   1.008   2.786   6.956
 8434SOL     OW26200   3.954   6.721   4.901
 8434SOL    HW126201   3.881   6.685   4.842
 8434SOL    HW226202   3.928   6.811   4.935
 8435SOL     OW26203   4.699   1.647   1.751
 8435SOL    HW126204   4.745   1.609   1.831
 8435SOL    HW226205   4.712   1.747   1.751
 8436SOL     OW26206   3.948   5.496   3.219
 8436SOL    HW126207   3.976   5.442   3.139
 8436SOL    HW226208   3.854   5.473   3.244
 8437SOL     OW26209   0.528   0.636   1.572
 8437SOL    HW126210   0.623   0.616   1.551
 8437SOL    HW226211   0.494   0.570   1.640
 8438SOL     OW26212   2.879   4.888   2.786
 8438SOL    HW126213   2.839   4.917   2.699
 8438SOL    HW226214   2.829   4.809   2.821
 8439SOL     OW26215   6.278   5.606   1.760
 8439SOL    HW126216   6.367   5.642   1.787
 8439SOL    HW226217   6.210   5.628   1.829
 8440SOL     OW26218   7.013   1.078   2.282
 8440SOL    HW126219   0.016   1.095   2.376
 8440SOL    HW226220   0.020   0.988   2.253
 8441SOL     OW26221   5.735   6.465   0.441
 8441SOL    HW126222   5.792   6.396   0.397
 8441SOL    HW226223   5.723   6.442   0.537
 8442SOL     OW26224   3.499   3.426   6.942
 8442SOL    HW126225   3.486   3.481   6.860
 8442SOL    HW226226   3.411   3.413   6.987
 8443SOL     OW26227   0.961   0.556   3.270
 8443SOL    HW126228   1.054   0.519   3.270
 8443SOL    HW226229   0.910   0.518   3.192
 8444SOL     OW26230   3.408   6.156   3.687
 8444SOL    HW126231   3.352   6.236   3.707
 8444SOL    HW226232   3.388   6.124   3.594
 8445SOL     OW26233   3.195   4.882   2.691
 8445SOL    HW126234   3.122   4.866   2.757
 8445SOL    HW226235   3.168   4.844   2.602
 8446SOL     OW26236   5.106   5.932   2.946
 8446SOL    HW126237   5.066   5.972   2.864
 8446SOL    HW226238   5.195   5.974   2.964
 8447SOL     OW26239   5.678   2.291   2.469
 8447SOL    HW126240   5.637   2.272   2.380
 8447SOL    HW226241   5.689   2.390   2.480
 8448SOL     OW26242   0.441   4.087   6.167
 8448SOL    HW126243   0.372   4.050   6.106
 8448SOL    HW226244   0.530   4.088   6.121
 8449SOL     OW26245   0.711   3.233   4.788
 8449SOL    HW126246   0.658   3.215   4.871
 8449SOL    HW226247   0.732   3.146   4.743
 8450SOL     OW26248   1.854   6.079   2.707
 8450SOL    HW126249   1.893   6.128   2.785
 8450SOL    HW226250   1.764   6.044   2.731
 8451SOL     OW26251   3.945   2.512   0.961
 8451SOL    HW126252   4.028   2.510   0.905
 8451SOL    HW226253   3.943   2.432   1.021
 8452SOL     OW26254   6.685   0.060   1.370
 8452SOL    HW126255   6.600   0.029   1.329
 8452SOL    HW226256   6.699   0.015   1.458
 8453SOL     OW26257   0.253   4.834   6.230
 8453SOL    HW126258   0.313   4.801   6.303
 8453SOL    HW226259   0.289   4.920   6.193
 8454SOL     OW26260   1.658   6.360   2.133
 8454SOL    HW126261   1.646   6.458   2.123
 8454SOL    HW226262   1.748   6.333   2.097
 8455SOL     OW26263   5.003   1.623   1.674
 8455SOL    HW126264   5.062   1.701   1.696
 8455SOL    HW226265   4.914   1.657   1.645
 8456SOL     OW26266   6.038   5.516   3.717
 8456SOL    HW126267   6.102   5.440   3.723
 8456SOL    HW226268   6.032   5.546   3.621
 8457SOL     OW26269   6.789   6.858   5.791
 8457SOL    HW126270   6.860   6.788   5.787
 8457SOL    HW226271   6.712   6.832   5.732
 8458SOL     OW26272   1.999   1.085   6.655
 8458SOL    HW126273   1.938   1.115   6.581
 8458SOL    HW226274   2.048   1.164   6.691
 8459SOL     OW26275   3.999   6.694   1.634
 8459SOL    HW126276   3.997   6.763   1.562
 8459SOL    HW226277   4.072   6.714   1.699
 8460SOL     OW26278   4.116   3.123   6.800
 8460SOL    HW126279   4.091   3.217   6.823
 8460SOL    HW226280   4.209   3.105   6.831
 8461SOL     OW26281   0.492   3.373   1.520
 8461SOL    HW126282   0.491   3.273   1.524
 8461SOL    HW226283   0.403   3.406   1.486
 8462SOL     OW26284   3.965   3.346   0.149
 8462SOL    HW126285   3.906   3.320   0.225
 8462SOL    HW226286   4.024   3.269   0.125
 8463SOL     OW26287   0.235   2.073   0.492
 8463SOL    HW126288   0.136   2.057   0.494
 8463SOL    HW226289   0.253   2.167   0.462
 8464SOL     OW26290   6.772   3.945   5.681
 8464SOL    HW126291   6.820   3.858   5.686
 8464SOL    HW226292   6.713   3.956   5.761
 8465SOL     OW26293   2.797   2.185   0.884
 8465SOL    HW126294   2.805   2.277   0.921
 8465SOL    HW226295   2.711   2.177   0.833
 8466SOL     OW26296   6.163   0.618   5.685
 8466SOL    HW126297   6.147   0.717   5.693
 8466SOL    HW226298   6.219   0.600   5.604
 8467SOL     OW26299   3.805   0.560   0.915
 8467SOL    HW126300   3.813   0.527   0.821
 8467SOL    HW226301   3.800   0.660   0.915
 8468SOL     OW26302   5.949   3.771   6.267
 8468SOL    HW126303   5.875   3.807   6.324
 8468SOL    HW226304   6.015   3.723   6.326
 8469SOL     OW26305   3.289   2.751   5.760
 8469SOL    HW126306   3.374   2.769   5.710
 8469SOL    HW226307   3.215   2.735   5.695
 8470SOL     OW26308   1.142   4.971   0.568
 8470SOL    HW126309   1.054   5.017   0.574
 8470SOL    HW226310   1.151   4.927   0.479
 8471SOL     OW26311   3.960   6.955   5.018
 8471SOL    HW126312   3.889   7.017   4.985
 8471SOL    HW226313   3.966   6.960   5.117
 8472SOL     OW26314   5.926   2.032   5.653
 8472SOL    HW126315   5.895   2.126   5.665
 8472SOL    HW226316   5.848   1.970   5.658
 8473SOL     OW26317   4.198   4.565   0.317
 8473SOL    HW126318   4.218   4.493   0.384
 8473SOL    HW226319   4.283   4.593   0.273
 8474SOL     OW26320   3.221   3.944   2.778
 8474SOL    HW126321   3.209   3.985   2.868
 8474SOL    HW226322   3.141   3.887   2.756
 8475SOL     OW26323   0.454   3.112   1.541
 8475SOL    HW126324   0.481   3.027   1.495
 8475SOL    HW226325   0.452   3.097   1.640
 8476SOL     OW26326   6.886   0.962   1.266
 8476SOL    HW126327   6.806   1.016   1.293
 8476SOL    HW226328   6.955   1.023   1.227
 8477SOL     OW26329   5.576   6.043   2.215
 8477SOL    HW126330   5.634   5.983   2.160
 8477SOL    HW226331   5.610   6.137   2.208
 8478SOL     OW26332   1.200   1.283   5.954
 8478SOL    HW126333   1.141   1.337   5.894
 8478SOL    HW226334   1.264   1.230   5.899
 8479SOL     OW26335   1.439   2.404   1.612
 8479SOL    HW126336   1.352   2.354   1.606
 8479SOL    HW226337   1.484   2.381   1.698
 8480SOL     OW26338   5.099   2.731   6.541
 8480SOL    HW126339   5.018   2.754   6.594
 8480SOL    HW226340   5.175   2.791   6.567
 8481SOL     OW26341   4.105   2.168   4.793
 8481SOL    HW126342   4.086   2.088   4.850
 8481SOL    HW226343   4.175   2.225   4.836
 8482SOL     OW26344   4.429   0.564   0.754
 8482SOL    HW126345   4.475   0.648   0.782
 8482SOL    HW226346   4.405   0.570   0.657
 8483SOL     OW26347   2.788   5.558   3.516
 8483SOL    HW126348   2.692   5.538   3.532
 8483SOL    HW226349   2.798   5.614   3.434
 8484SOL     OW26350   6.728   5.991   4.868
 8484SOL    HW126351   6.635   5.961   4.887
 8484SOL    HW226352   6.741   6.084   4.901
 8485SOL     OW26353   4.173   2.424   0.132
 8485SOL    HW126354   4.100   2.364   0.101
 8485SOL    HW226355   4.254   2.370   0.153
 8486SOL     OW26356   1.783   1.034   2.538
 8486SOL    HW126357   1.725   0.970   2.589
 8486SOL    HW226358   1.734   1.065   2.457
 8487SOL     OW26359   5.596   1.679   6.310
 8487SOL    HW126360   5.540   1.616   6.257
 8487SOL    HW226361   5.674   1.709   6.255
 8488SOL     OW26362   5.145   5.352   3.294
 8488SOL    HW126363   5.183   5.394   3.377
 8488SOL    HW226364   5.101   5.422   3.238
 8489SOL     OW26365   6.327   0.466   1.551
 8489SOL    HW126366   6.320   0.448   1.453
 8489SOL    HW226367   6.386   0.397   1.594
 8490SOL     OW26368   3.677   6.603   5.115
 8490SOL    HW126369   3.742   6.528   5.130
 8490SOL    HW226370   3.583   6.568   5.124
 8491SOL     OW26371   2.294   5.601   2.866
 8491SOL    HW126372   2.352   5.682   2.849
 8491SOL    HW226373   2.323   5.527   2.806
 8492SOL     OW26374   6.023   4.783   3.868
 8492SOL    HW126375   5.997   4.718   3.797
 8492SOL    HW226376   5.987   4.874   3.845
 8493SOL     OW26377   2.578   1.363   0.225
 8493SOL    HW126378   2.479   1.378   0.221
 8493SOL    HW226379   2.621   1.437   0.277
 8494SOL     OW26380   5.194   5.401   2.088
 8494SOL    HW126381   5.201   5.500   2.099
 8494SOL    HW226382   5.248   5.355   2.159
 8495SOL     OW26383   0.105   5.655   0.436
 8495SOL    HW126384   0.181   5.696   0.385
 8495SOL    HW226385   0.130   5.649   0.533
 8496SOL     OW26386   5.083   1.170   2.304
 8496SOL    HW126387   5.039   1.173   2.393
 8496SOL    HW226388   5.036   1.233   2.242
 8497SOL     OW26389   0.733   0.172   3.905
 8497SOL    HW126390   0.821   0.209   3.933
 8497SOL    HW226391   0.745   0.079   3.870
 8498SOL     OW26392   5.756   6.764   3.285
 8498SOL    HW126393   5.763   6.756   3.385
 8498SOL    HW226394   5.662   6.745   3.257
 8499SOL     OW26395   0.568   5.186   0.566
 8499SOL    HW126396   0.568   5.125   0.486
 8499SOL    HW226397   0.642   5.253   0.557
 8500SOL     OW26398   1.772   6.587   6.177
 8500SOL    HW126399   1.769   6.532   6.260
 8500SOL    HW226400   1.737   6.533   6.100
 8501SOL     OW26401   0.682   2.244   0.201
 8501SOL    HW126402   0.629   2.168   0.163
 8501SOL    HW226403   0.623   2.297   0.263
 8502SOL     OW26404   0.597   2.811   0.619
 8502SOL    HW126405   0.671   2.762   0.573
 8502SOL    HW226406   0.595   2.906   0.588
 8503SOL     OW26407   6.443   5.791   5.024
 8503SOL    HW126408   6.388   5.708   5.034
 8503SOL    HW226409   6.517   5.791   5.092
 8504SOL     OW26410   1.907   5.486   2.203
 8504SOL    HW126411   1.845   5.466   2.128
 8504SOL    HW226412   1.949   5.575   2.189
 8505SOL     OW26413   5.360   3.985   2.751
 8505SOL    HW126414   5.452   4.010   2.780
 8505SOL    HW226415   5.364   3.902   2.695
 8506SOL     OW26416   1.486   0.969   6.763
 8506SOL    HW126417   1.481   1.050   6.821
 8506SOL    HW226418   1.395   0.930   6.752
 8507SOL     OW26419   4.734   0.400   4.550
 8507SOL    HW126420   4.752   0.415   4.647
 8507SOL    HW226421   4.718   0.489   4.505
 8508SOL     OW26422   3.962   1.761   5.971
 8508SOL    HW126423   3.943   1.835   5.906
 8508SOL    HW226424   4.056   1.729   5.960
 8509SOL     OW26425   5.765   6.585   3.911
 8509SOL    HW126426   5.848   6.529   3.921
 8509SOL    HW226427   5.763   6.624   3.819
 8510SOL     OW26428   5.157   3.022   3.692
 8510SOL    HW126429   5.147   2.984   3.784
 8510SOL    HW226430   5.144   2.949   3.624
 8511SOL     OW26431   6.383   3.129   2.291
 8511SOL    HW126432   6.396   3.093   2.383
 8511SOL    HW226433   6.286   3.125   2.267
 8512SOL     OW26434   2.454   0.046   2.635
 8512SOL    HW126435   2.417   0.136   2.660
 8512SOL    HW226436   2.416   7.002   2.697
 8513SOL     OW26437   6.819   6.177   0.516
 8513SOL    HW126438   6.899   6.136   0.560
 8513SOL    HW226439   6.850   6.247   0.452
 8514SOL     OW26440   3.505   6.821   3.195
 8514SOL    HW126441   3.598   6.806   3.164
 8514SOL    HW226442   3.499   6.800   3.293
 8515SOL     OW26443   4.828   2.249   1.194
 8515SOL    HW126444   4.797   2.344   1.194
 8515SOL    HW226445   4.839   2.217   1.100
 8516SOL     OW26446   6.628   1.650   2.916
 8516SOL    HW126447   6.645   1.564   2.965
 8516SOL    HW226448   6.587   1.717   2.978
 8517SOL     OW26449   1.082   2.702   6.681
 8517SOL    HW126450   1.113   2.720   6.775
 8517SOL    HW226451   1.000   2.645   6.684
 8518SOL     OW26452   4.240   4.882   0.623
 8518SOL    HW126453   4.160   4.850   0.573
 8518SOL    HW226454   4.295   4.941   0.564
 8519SOL     OW26455   2.060   6.005   2.323
 8519SOL    HW126456   1.972   6.018   2.369
 8519SOL    HW226457   2.121   5.954   2.382
 8520SOL     OW26458   3.616   1.026   0.376
 8520SOL    HW126459   3.571   1.039   0.288
 8520SOL    HW226460   3.705   1.072   0.376
 8521SOL     OW26461   1.260   6.159   6.030
 8521SOL    HW126462   1.325   6.086   6.049
 8521SOL    HW226463   1.199   6.131   5.956
 8522SOL     OW26464   1.548   6.326   2.420
 8522SOL    HW126465   1.600   6.249   2.457
 8522SOL    HW226466   1.478   6.291   2.358
 8523SOL     OW26467   2.141   7.011   5.735
 8523SOL    HW126468   2.082   0.057   5.774
 8523SOL    HW226469   2.221   0.029   5.692
 8524SOL     OW26470   1.195   3.403   4.786
 8524SOL    HW126471   1.187   3.498   4.817
 8524SOL    HW226472   1.274   3.360   4.830
 8525SOL     OW26473   6.026   3.543   3.219
 8525SOL    HW126474   6.056   3.480   3.147
 8525SOL    HW226475   6.059   3.512   3.307
 8526SOL     OW26476   2.678   3.241   1.615
 8526SOL    HW126477   2.687   3.142   1.631
 8526SOL    HW226478   2.751   3.271   1.554
 8527SOL     OW26479   3.931   0.935   4.264
 8527SOL    HW126480   3.956   1.008   4.201
 8527SOL    HW226481   3.846   0.892   4.236
 8528SOL     OW26482   5.032   4.090   6.663
 8528SOL    HW126483   5.023   4.066   6.759
 8528SOL    HW226484   5.085   4.174   6.654
 8529SOL     OW26485   1.497   5.520   0.270
 8529SOL    HW126486   1.493   5.452   0.343
 8529SOL    HW226487   1.530   5.607   0.307
 8530SOL     OW26488   1.514   5.129   5.151
 8530SOL    HW126489   1.540   5.032   5.151
 8530SOL    HW226490   1.524   5.165   5.058
 8531SOL     OW26491   5.645   3.528   2.973
 8531SOL    HW126492   5.713   3.583   2.926
 8531SOL    HW226493   5.558   3.577   2.975
 8532SOL     OW26494   3.867   4.984   4.744
 8532SOL    HW126495   3.842   4.973   4.840
 8532SOL    HW226496   3.790   4.955   4.686
 8533SOL     OW26497   2.169   1.057   5.157
 8533SOL    HW126498   2.242   1.104   5.206
 8533SOL    HW226499   2.172   1.082   5.060
 8534SOL     OW26500   0.605   4.262   2.697
 8534SOL    HW126501   0.700   4.232   2.711
 8534SOL    HW226502   0.603   4.334   2.628
 8535SOL     OW26503   1.158   2.220   4.375
 8535SOL    HW126504   1.231   2.255   4.317
 8535SOL    HW226505   1.075   2.274   4.362
 8536SOL     OW26506   6.551   2.569   5.084
 8536SOL    HW126507   6.562   2.601   4.989
 8536SOL    HW226508   6.506   2.480   5.084
 8537SOL     OW26509   5.562   0.907   0.712
 8537SOL    HW126510   5.510   0.971   0.655
 8537SOL    HW226511   5.561   0.940   0.807
 8538SOL     OW26512   0.143   0.485   5.104
 8538SOL    HW126513   0.238   0.453   5.098
 8538SOL    HW226514   0.099   0.444   5.184
 8539SOL     OW26515   6.381   2.523   2.529
 8539SOL    HW126516   6.366   2.567   2.618
 8539SOL    HW226517   6.294   2.489   2.493
 8540SOL     OW26518   3.088   0.879   0.617
 8540SOL    HW126519   2.999   0.887   0.573
 8540SOL    HW226520   3.098   0.952   0.685
 8541SOL     OW26521   2.830   1.323   4.969
 8541SOL    HW126522   2.885   1.240   4.973
 8541SOL    HW226523   2.888   1.400   4.942
 8542SOL     OW26524   2.805   4.404   6.526
 8542SOL    HW126525   2.827   4.469   6.599
 8542SOL    HW226526   2.725   4.350   6.554
 8543SOL     OW26527   2.514   1.691   5.549
 8543SOL    HW126528   2.554   1.775   5.587
 8543SOL    HW226529   2.586   1.625   5.532
 8544SOL     OW26530   4.747   3.794   5.304
 8544SOL    HW126531   4.735   3.777   5.402
 8544SOL    HW226532   4.713   3.715   5.252
 8545SOL     OW26533   3.584   6.677   4.441
 8545SOL    HW126534   3.650   6.675   4.517
 8545SOL    HW226535   3.584   6.588   4.395
 8546SOL     OW26536   5.875   0.358   1.438
 8546SOL    HW126537   5.845   0.442   1.394
 8546SOL    HW226538   5.974   0.353   1.438
 8547SOL     OW26539   6.865   0.332   5.848
 8547SOL    HW126540   6.919   0.302   5.927
 8547SOL    HW226541   6.918   0.400   5.796
 8548SOL     OW26542   0.549   2.967   5.776
 8548SOL    HW126543   0.638   2.997   5.742
 8548SOL    HW226544   0.507   2.905   5.709
 8549SOL     OW26545   1.310   1.578   3.691
 8549SOL    HW126546   1.395   1.608   3.734
 8549SOL    HW226547   1.287   1.641   3.616
 8550SOL     OW26548   0.617   4.544   7.001
 8550SOL    HW126549   0.684   4.601   6.953
 8550SOL    HW226550   0.657   4.454   7.018
 8551SOL     OW26551   1.689   2.438   6.462
 8551SOL    HW126552   1.773   2.486   6.487
 8551SOL    HW226553   1.702   2.392   6.374
 8552SOL     OW26554   3.269   0.671   2.062
 8552SOL    HW126555   3.247   0.767   2.044
 8552SOL    HW226556   3.270   0.655   2.161
 8553SOL     OW26557   4.091   3.112   1.061
 8553SOL    HW126558   4.033   3.043   1.019
 8553SOL    HW226559   4.040   3.160   1.133
 8554SOL     OW26560   0.926   6.966   1.060
 8554SOL    HW126561   0.940   6.873   1.027
 8554SOL    HW226562   0.928   0.005   0.982
 8555SOL     OW26563   4.251   1.737   3.992
 8555SOL    HW126564   4.214   1.727   3.899
 8555SOL    HW226565   4.211   1.668   4.051
 8556SOL     OW26566   1.910   6.179   6.177
 8556SOL    HW126567   1.867   6.179   6.087
 8556SOL    HW226568   1.954   6.267   6.193
 8557SOL     OW26569   6.364   1.030   0.434
 8557SOL    HW126570   6.297   1.074   0.494
 8557SOL    HW226571   6.324   1.021   0.342
 8558SOL     OW26572   2.246   4.740   3.136
 8558SOL    HW126573   2.303   4.783   3.066
 8558SOL    HW226574   2.206   4.657   3.099
 8559SOL     OW26575   0.585   6.259   2.058
 8559SOL    HW126576   0.588   6.302   1.968
 8559SOL    HW226577   0.679   6.243   2.091
 8560SOL     OW26578   2.079   5.076   1.206
 8560SOL    HW126579   2.006   5.125   1.160
 8560SOL    HW226580   2.164   5.129   1.201
 8561SOL     OW26581   3.470   0.600   3.007
 8561SOL    HW126582   3.434   0.612   2.914
 8561SOL    HW226583   3.396   0.572   3.068
 8562SOL     OW26584   3.533   1.143   0.112
 8562SOL    HW126585   3.463   1.191   0.166
 8562SOL    HW226586   3.602   1.208   0.081
 8563SOL     OW26587   1.660   5.647   2.544
 8563SOL    HW126588   1.622   5.739   2.546
 8563SOL    HW226589   1.678   5.620   2.449
 8564SOL     OW26590   3.618   6.175   0.068
 8564SOL    HW126591   3.699   6.164   0.125
 8564SOL    HW226592   3.608   6.271   0.042
 8565SOL     OW26593   3.606   5.618   1.402
 8565SOL    HW126594   3.679   5.556   1.428
 8565SOL    HW226595   3.536   5.620   1.473
 8566SOL     OW26596   2.535   1.047   2.359
 8566SOL    HW126597   2.583   1.025   2.274
 8566SOL    HW226598   2.513   0.963   2.408
 8567SOL     OW26599   1.128   1.795   1.168
 8567SOL    HW126600   1.209   1.755   1.210
 8567SOL    HW226601   1.145   1.891   1.147
 8568SOL     OW26602   6.910   1.278   0.358
 8568SOL    HW126603   6.937   1.257   0.452
 8568SOL    HW226604   6.838   1.216   0.329
 8569SOL     OW26605   5.674   2.671   6.068
 8569SOL    HW126606   5.595   2.633   6.020
 8569SOL    HW226607   5.712   2.747   6.015
 8570SOL     OW26608   1.279   1.783   4.704
 8570SOL    HW126609   1.269   1.864   4.645
 8570SOL    HW226610   1.349   1.723   4.667
 8571SOL     OW26611   1.611   1.266   4.076
 8571SOL    HW126612   1.588   1.347   4.021
 8571SOL    HW226613   1.550   1.261   4.155
 8572SOL     OW26614   2.977   4.024   5.466
 8572SOL    HW126615   2.888   4.066   5.481
 8572SOL    HW226616   3.010   3.985   5.552
 8573SOL     OW26617   2.900   6.138   0.175
 8573SOL    HW126618   2.844   6.058   0.157
 8573SOL    HW226619   2.970   6.147   0.104
 8574SOL     OW26620   0.048   6.866   6.237
 8574SOL    HW126621   0.129   6.884   6.294
 8574SOL    HW226622   0.068   6.791   6.174
 8575SOL     OW26623   3.626   0.336   2.234
 8575SOL    HW126624   3.565   0.412   2.212
 8575SOL    HW226625   3.717   0.371   2.255
 8576SOL     OW26626   0.591   3.935   4.303
 8576SOL    HW126627   0.493   3.920   4.286
 8576SOL    HW226628   0.639   3.847   4.303
 8577SOL     OW26629   2.314   0.974   5.976
 8577SOL    HW126630   2.262   0.913   6.036
 8577SOL    HW226631   2.407   0.938   5.964
 8578SOL     OW26632   6.688   6.427   5.630
 8578SOL    HW126633   6.706   6.472   5.543
 8578SOL    HW226634   6.600   6.458   5.666
 8579SOL     OW26635   2.347   6.303   2.138
 8579SOL    HW126636   2.411   6.378   2.148
 8579SOL    HW226637   2.282   6.304   2.214
 8580SOL     OW26638   0.883   6.122   1.398
 8580SOL    HW126639   0.980   6.100   1.384
 8580SOL    HW226640   0.859   6.106   1.493
 8581SOL     OW26641   3.453   5.322   1.521
 8581SOL    HW126642   3.418   5.337   1.429
 8581SOL    HW226643   3.544   5.280   1.516
 8582SOL     OW26644   4.108   4.615   5.544
 8582SOL    HW126645   4.065   4.702   5.519
 8582SOL    HW226646   4.084   4.593   5.639
 8583SOL     OW26647   4.328   0.559   3.296
 8583SOL    HW126648   4.321   0.478   3.239
 8583SOL    HW226649   4.267   0.630   3.262
 8584SOL     OW26650   6.606   1.152   4.838
 8584SOL    HW126651   6.543   1.164   4.914
 8584SOL    HW226652   6.599   1.230   4.776
 8585SOL     OW26653   5.811   1.747   1.067
 8585SOL    HW126654   5.838   1.843   1.063
 8585SOL    HW226655   5.878   1.695   1.120
 8586SOL     OW26656   5.599   6.306   1.473
 8586SOL    HW126657   5.598   6.208   1.452
 8586SOL    HW226658   5.528   6.326   1.541
 8587SOL     OW26659   0.790   1.891   4.864
 8587SOL    HW126660   0.818   1.957   4.793
 8587SOL    HW226661   0.869   1.870   4.922
 8588SOL     OW26662   3.697   1.353   7.015
 8588SOL    HW126663   3.718   1.446   0.020
 8588SOL    HW226664   3.725   1.342   6.919
 8589SOL     OW26665   6.898   3.152   5.187
 8589SOL    HW126666   6.898   3.168   5.088
 8589SOL    HW226667   6.825   3.089   5.211
 8590SOL     OW26668   6.975   0.428   2.984
 8590SOL    HW126669   6.895   0.464   2.935
 8590SOL    HW226670   6.965   0.328   2.993
 8591SOL     OW26671   6.362   4.802   0.740
 8591SOL    HW126672   6.403   4.733   0.800
 8591SOL    HW226673   6.264   4.807   0.758
 8592SOL     OW26674   0.538   2.528   6.911
 8592SOL    HW126675   0.490   2.556   6.993
 8592SOL    HW226676   0.543   2.604   6.847
 8593SOL     OW26677   3.180   0.581   6.708
 8593SOL    HW126678   3.166   0.534   6.621
 8593SOL    HW226679   3.092   0.588   6.756
 8594SOL     OW26680   6.321   2.698   6.172
 8594SOL    HW126681   6.274   2.670   6.256
 8594SOL    HW226682   6.389   2.630   6.147
 8595SOL     OW26683   5.482   0.200   2.818
 8595SOL    HW126684   5.412   0.269   2.839
 8595SOL    HW226685   5.543   0.189   2.896
 8596SOL     OW26686   1.296   3.513   3.452
 8596SOL    HW126687   1.313   3.608   3.480
 8596SOL    HW226688   1.293   3.455   3.533
 8597SOL     OW26689   6.470   2.410   0.717
 8597SOL    HW126690   6.441   2.329   0.768
 8597SOL    HW226691   6.428   2.410   0.626
 8598SOL     OW26692   5.611   0.995   4.957
 8598SOL    HW126693   5.621   1.080   5.009
 8598SOL    HW226694   5.699   0.971   4.916
 8599SOL     OW26695   1.505   2.924   3.565
 8599SOL    HW126696   1.406   2.905   3.565
 8599SOL    HW226697   1.520   3.021   3.548
 8600SOL     OW26698   4.746   3.865   0.791
 8600SOL    HW126699   4.820   3.798   0.781
 8600SOL    HW226700   4.696   3.848   0.876
 8601SOL     OW26701   0.491   1.130   3.540
 8601SOL    HW126702   0.403   1.083   3.548
 8601SOL    HW226703   0.527   1.118   3.448
 8602SOL     OW26704   2.618   6.479   3.546
 8602SOL    HW126705   2.574   6.498   3.633
 8602SOL    HW226706   2.620   6.562   3.491
 8603SOL     OW26707   5.794   1.313   7.018
 8603SOL    HW126708   5.724   1.257   0.037
 8603SOL    HW226709   5.810   1.280   6.925
 8604SOL     OW26710   0.546   3.172   6.198
 8604SOL    HW126711   0.589   3.262   6.194
 8604SOL    HW226712   0.448   3.181   6.184
 8605SOL     OW26713   0.352   4.758   4.477
 8605SOL    HW126714   0.254   4.740   4.477
 8605SOL    HW226715   0.392   4.726   4.391
 8606SOL     OW26716   2.610   2.140   6.401
 8606SOL    HW126717   2.596   2.172   6.307
 8606SOL    HW226718   2.655   2.212   6.454
 8607SOL     OW26719   2.238   4.816   0.630
 8607SOL    HW126720   2.204   4.748   0.694
 8607SOL    HW226721   2.161   4.856   0.581
 8608SOL     OW26722   2.236   4.602   2.756
 8608SOL    HW126723   2.148   4.630   2.715
 8608SOL    HW226724   2.304   4.593   2.683
 8609SOL     OW26725   5.155   0.988   3.753
 8609SOL    HW126726   5.223   1.055   3.786
 8609SOL    HW226727   5.198   0.898   3.747
 8610SOL     OW26728   0.025   6.400   3.044
 8610SOL    HW126729   6.957   6.404   3.007
 8610SOL    HW226730   0.046   6.486   3.090
 8611SOL     OW26731   2.752   1.014   4.167
 8611SOL    HW126732   2.782   1.108   4.153
 8611SOL    HW226733   2.662   1.013   4.210
 8612SOL     OW26734   2.966   3.401   2.681
 8612SOL    HW126735   2.954   3.327   2.614
 8612SOL    HW226736   3.054   3.390   2.727
 8613SOL     OW26737   2.765   2.741   1.410
 8613SOL    HW126738   2.820   2.741   1.493
 8613SOL    HW226739   2.758   2.835   1.374
 8614SOL     OW26740   0.768   2.677   2.425
 8614SOL    HW126741   0.841   2.637   2.480
 8614SOL    HW226742   0.807   2.740   2.358
 8615SOL     OW26743   5.140   2.122   4.760
 8615SOL    HW126744   5.088   2.040   4.782
 8615SOL    HW226745   5.232   2.115   4.798
 8616SOL     OW26746   3.096   4.822   2.431
 8616SOL    HW126747   3.157   4.861   2.362
 8616SOL    HW226748   3.005   4.811   2.392
 8617SOL     OW26749   5.637   0.126   4.135
 8617SOL    HW126750   5.576   0.160   4.063
 8617SOL    HW226751   5.730   0.120   4.100
 8618SOL     OW26752   6.435   3.710   0.831
 8618SOL    HW126753   6.497   3.648   0.880
 8618SOL    HW226754   6.481   3.797   0.816
 8619SOL     OW26755   4.636   5.049   2.269
 8619SOL    HW126756   4.638   4.949   2.277
 8619SOL    HW226757   4.584   5.076   2.189
 8620SOL     OW26758   1.955   0.184   4.296
 8620SOL    HW126759   2.053   0.188   4.315
 8620SOL    HW226760   1.937   0.111   4.231
 8621SOL     OW26761   4.705   2.757   2.161
 8621SOL    HW126762   4.730   2.790   2.252
 8621SOL    HW226763   4.710   2.833   2.095
 8622SOL     OW26764   6.311   5.268   2.200
 8622SOL    HW126765   6.402   5.252   2.238
 8622SOL    HW226766   6.256   5.321   2.265
 8623SOL     OW26767   0.109   3.300   4.740
 8623SOL    HW126768   0.144   3.376   4.795
 8623SOL    HW226769   0.012   3.286   4.761
 8624SOL     OW26770   3.477   3.485   5.966
 8624SOL    HW126771   3.474   3.395   5.923
 8624SOL    HW226772   3.570   3.502   6.000
 8625SOL     OW26773   4.143   1.290   5.418
 8625SOL    HW126774   4.095   1.377   5.403
 8625SOL    HW226775   4.084   1.228   5.468
 8626SOL     OW26776   3.892   2.643   0.649
 8626SOL    HW126777   3.901   2.645   0.549
 8626SOL    HW226778   3.828   2.571   0.676
 8627SOL     OW26779   1.773   1.582   2.102
 8627SOL    HW126780   1.742   1.617   2.013
 8627SOL    HW226781   1.834   1.648   2.145
 8628SOL     OW26782   6.905   6.911   0.273
 8628SOL    HW126783   6.805   6.916   0.277
 8628SOL    HW226784   6.934   6.919   0.177
 8629SOL     OW26785   0.947   7.023   4.712
 8629SOL    HW126786   0.913   0.070   4.651
 8629SOL    HW226787   0.916   6.934   4.679
 8630SOL     OW26788   4.930   3.260   3.577
 8630SOL    HW126789   4.875   3.187   3.618
 8630SOL    HW226790   5.010   3.219   3.532
 8631SOL     OW26791   2.308   5.741   6.731
 8631SOL    HW126792   2.232   5.682   6.702
 8631SOL    HW226793   2.384   5.684   6.762
 8632SOL     OW26794   3.987   4.461   5.317
 8632SOL    HW126795   4.012   4.505   5.403
 8632SOL    HW226796   4.048   4.384   5.301
 8633SOL     OW26797   5.447   3.768   5.949
 8633SOL    HW126798   5.387   3.691   5.928
 8633SOL    HW226799   5.541   3.734   5.963
 8634SOL     OW26800   4.847   4.958   0.361
 8634SOL    HW126801   4.840   4.993   0.455
 8634SOL    HW226802   4.932   4.906   0.351
 8635SOL     OW26803   6.165   2.827   6.876
 8635SOL    HW126804   6.106   2.749   6.898
 8635SOL    HW226805   6.178   2.883   6.959
 8636SOL     OW26806   4.184   5.710   0.575
 8636SOL    HW126807   4.174   5.618   0.536
 8636SOL    HW226808   4.161   5.708   0.672
 8637SOL     OW26809   2.165   1.222   6.355
 8637SOL    HW126810   2.078   1.236   6.403
 8637SOL    HW226811   2.205   1.311   6.333
 8638SOL     OW26812   4.093   2.827   5.318
 8638SOL    HW126813   4.093   2.729   5.335
 8638SOL    HW226814   4.186   2.863   5.329
 8639SOL     OW26815   5.005   3.444   6.912
 8639SOL    HW126816   5.004   3.541   6.887
 8639SOL    HW226817   5.023   3.389   6.831
 8640SOL     OW26818   3.881   3.322   1.794
 8640SOL    HW126819   3.940   3.316   1.714
 8640SOL    HW226820   3.900   3.246   1.856
 8641SOL     OW26821   4.443   5.419   3.724
 8641SOL    HW126822   4.437   5.477   3.805
 8641SOL    HW226823   4.530   5.370   3.724
 8642SOL     OW26824   0.591   6.454   3.608
 8642SOL    HW126825   0.531   6.533   3.612
 8642SOL    HW226826   0.662   6.469   3.538
 8643SOL     OW26827   2.214   6.936   0.666
 8643SOL    HW126828   2.147   7.008   0.646
 8643SOL    HW226829   2.304   6.978   0.677
 8644SOL     OW26830   6.090   2.324   6.317
 8644SOL    HW126831   6.054   2.401   6.265
 8644SOL    HW226832   6.089   2.346   6.414
 8645SOL     OW26833   5.304   4.800   1.501
 8645SOL    HW126834   5.392   4.778   1.461
 8645SOL    HW226835   5.284   4.897   1.487
 8646SOL     OW26836   0.024   2.019   6.100
 8646SOL    HW126837   0.025   2.055   6.193
 8646SOL    HW226838   0.111   2.036   6.056
 8647SOL     OW26839   3.009   5.393   1.234
 8647SOL    HW126840   2.971   5.315   1.183
 8647SOL    HW226841   2.934   5.448   1.270
 8648SOL     OW26842   5.615   6.376   1.053
 8648SOL    HW126843   5.713   6.396   1.047
 8648SOL    HW226844   5.568   6.451   1.100
 8649SOL     OW26845   4.690   6.402   6.891
 8649SOL    HW126846   4.639   6.357   6.817
 8649SOL    HW226847   4.731   6.486   6.856
 8650SOL     OW26848   1.614   6.976   4.288
 8650SOL    HW126849   1.557   0.031   4.272
 8650SOL    HW226850   1.616   6.956   4.386
 8651SOL     OW26851   2.978   1.510   0.928
 8651SOL    HW126852   3.022   1.444   0.990
 8651SOL    HW226853   3.019   1.502   0.837
 8652SOL     OW26854   0.726   4.949   4.282
 8652SOL    HW126855   0.708   4.854   4.255
 8652SOL    HW226856   0.812   4.953   4.334
 8653SOL     OW26857   6.429   1.668   5.670
 8653SOL    HW126858   6.484   1.745   5.638
 8653SOL    HW226859   6.429   1.666   5.770
 8654SOL     OW26860   0.788   4.962   1.719
 8654SOL    HW126861   0.702   4.989   1.676
 8654SOL    HW226862   0.865   4.991   1.662
 8655SOL     OW26863   6.467   1.216   5.068
 8655SOL    HW126864   6.473   1.290   5.135
 8655SOL    HW226865   6.493   1.130   5.112
 8656SOL     OW26866   5.354   0.316   2.116
 8656SOL    HW126867   5.296   0.387   2.158
 8656SOL    HW226868   5.377   0.247   2.184
 8657SOL     OW26869   5.880   6.246   0.379
 8657SOL    HW126870   5.833   6.164   0.413
 8657SOL    HW226871   5.979   6.230   0.380
 8658SOL     OW26872   5.856   5.599   1.030
 8658SOL    HW126873   5.825   5.656   1.106
 8658SOL    HW226874   5.782   5.538   1.002
 8659SOL     OW26875   4.676   2.603   3.106
 8659SOL    HW126876   4.698   2.701   3.113
 8659SOL    HW226877   4.701   2.557   3.191
 8660SOL     OW26878   0.258   2.672   1.919
 8660SOL    HW126879   0.202   2.754   1.909
 8660SOL    HW226880   0.278   2.657   2.016
 8661SOL     OW26881   6.183   3.338   3.075
 8661SOL    HW126882   6.187   3.305   2.981
 8661SOL    HW226883   6.253   3.409   3.089
 8662SOL     OW26884   3.343   6.087   2.132
 8662SOL    HW126885   3.256   6.061   2.174
 8662SOL    HW226886   3.355   6.186   2.138
 8663SOL     OW26887   2.481   5.476   3.197
 8663SOL    HW126888   2.500   5.453   3.292
 8663SOL    HW226889   2.562   5.460   3.141
 8664SOL     OW26890   1.925   5.374   3.288
 8664SOL    HW126891   1.826   5.371   3.299
 8664SOL    HW226892   1.948   5.439   3.215
 8665SOL     OW26893   6.571   4.986   5.886
 8665SOL    HW126894   6.624   5.069   5.904
 8665SOL    HW226895   6.497   5.007   5.823
 8666SOL     OW26896   5.485   6.980   4.256
 8666SOL    HW126897   5.552   0.004   4.201
 8666SOL    HW226898   5.528   6.951   4.342
 8667SOL     OW26899   5.021   1.174   4.808
 8667SOL    HW126900   4.983   1.264   4.830
 8667SOL    HW226901   5.033   1.166   4.710
 8668SOL     OW26902   5.200   3.014   4.887
 8668SOL    HW126903   5.178   2.947   4.957
 8668SOL    HW226904   5.295   3.044   4.897
 8669SOL     OW26905   6.966   6.610   6.565
 8669SOL    HW126906   6.956   6.596   6.467
 8669SOL    HW226907   7.022   6.536   6.604
 8670SOL     OW26908   5.540   5.193   5.732
 8670SOL    HW126909   5.503   5.143   5.811
 8670SOL    HW226910   5.601   5.133   5.680
 8671SOL     OW26911   0.427   1.702   2.121
 8671SOL    HW126912   0.524   1.723   2.127
 8671SOL    HW226913   0.392   1.727   2.031
 8672SOL     OW26914   0.373   0.201   3.354
 8672SOL    HW126915   0.386   0.259   3.435
 8672SOL    HW226916   0.280   0.165   3.353
 8673SOL     OW26917   6.544   1.442   0.132
 8673SOL    HW126918   6.535   1.365   0.195
 8673SOL    HW226919   6.528   1.410   0.039
 8674SOL     OW26920   6.850   3.932   3.281
 8674SOL    HW126921   6.757   3.964   3.265
 8674SOL    HW226922   6.899   3.928   3.193
 8675SOL     OW26923   3.832   1.247   5.816
 8675SOL    HW126924   3.858   1.316   5.748
 8675SOL    HW226925   3.823   1.158   5.771
 8676SOL     OW26926   5.524   1.103   1.254
 8676SOL    HW126927   5.624   1.108   1.256
 8676SOL    HW226928   5.494   1.073   1.164
 8677SOL     OW26929   2.104   5.990   5.342
 8677SOL    HW126930   2.010   5.959   5.336
 8677SOL    HW226931   2.140   5.972   5.433
 8678SOL     OW26932   1.169   6.865   0.270
 8678SOL    HW126933   1.189   6.863   0.368
 8678SOL    HW226934   1.101   6.935   0.250
 8679SOL     OW26935   2.099   1.075   3.788
 8679SOL    HW126936   2.115   1.119   3.877
 8679SOL    HW226937   2.180   1.023   3.762
 8680SOL     OW26938   6.535   2.896   6.543
 8680SOL    HW126939   6.455   2.931   6.496
 8680SOL    HW226940   6.507   2.829   6.612
 8681SOL     OW26941   4.458   6.024   1.525
 8681SOL    HW126942   4.360   6.027   1.546
 8681SOL    HW226943   4.470   6.023   1.426
 8682SOL     OW26944   6.615   0.404   1.230
 8682SOL    HW126945   6.623   0.393   1.131
 8682SOL    HW226946   6.588   0.317   1.271
 8683SOL     OW26947   1.443   3.295   4.916
 8683SOL    HW126948   1.474   3.333   5.003
 8683SOL    HW226949   1.502   3.328   4.842
 8684SOL     OW26950   0.213   3.423   4.494
 8684SOL    HW126951   0.166   3.411   4.582
 8684SOL    HW226952   0.295   3.478   4.508
 8685SOL     OW26953   5.185   2.466   6.687
 8685SOL    HW126954   5.141   2.550   6.652
 8685SOL    HW226955   5.273   2.489   6.727
 8686SOL     OW26956   6.405   6.612   3.149
 8686SOL    HW126957   6.400   6.558   3.065
 8686SOL    HW226958   6.499   6.644   3.162
 8687SOL     OW26959   6.073   4.269   2.875
 8687SOL    HW126960   6.042   4.222   2.958
 8687SOL    HW226961   6.080   4.204   2.800
 8688SOL     OW26962   1.837   4.099   6.519
 8688SOL    HW126963   1.868   4.120   6.426
 8688SOL    HW226964   1.898   4.142   6.585
 8689SOL     OW26965   4.694   3.072   0.506
 8689SOL    HW126966   4.721   2.976   0.499
 8689SOL    HW226967   4.638   3.085   0.588
 8690SOL     OW26968   0.881   2.445   2.882
 8690SOL    HW126969   0.876   2.539   2.913
 8690SOL    HW226970   0.939   2.392   2.944
 8691SOL     OW26971   3.524   1.664   5.185
 8691SOL    HW126972   3.448   1.599   5.185
 8691SOL    HW226973   3.490   1.756   5.165
 8692SOL     OW26974   3.954   2.000   5.811
 8692SOL    HW126975   3.906   2.086   5.789
 8692SOL    HW226976   4.005   1.969   5.731
 8693SOL     OW26977   6.763   1.351   6.398
 8693SOL    HW126978   6.849   1.391   6.431
 8693SOL    HW226979   6.776   1.253   6.384
 8694SOL     OW26980   6.003   2.215   4.585
 8694SOL    HW126981   6.001   2.115   4.580
 8694SOL    HW226982   6.065   2.244   4.658
 8695SOL     OW26983   3.965   3.296   6.252
 8695SOL    HW126984   3.898   3.369   6.240
 8695SOL    HW226985   3.973   3.274   6.350
 8696SOL     OW26986   2.351   6.071   4.776
 8696SOL    HW126987   2.348   5.997   4.709
 8696SOL    HW226988   2.258   6.101   4.799
 8697SOL     OW26989   1.487   4.561   5.729
 8697SOL    HW126990   1.553   4.622   5.775
 8697SOL    HW226991   1.433   4.514   5.798
 8698SOL     OW26992   5.116   5.936   5.983
 8698SOL    HW126993   5.160   5.945   6.072
 8698SOL    HW226994   5.038   5.997   5.977
 8699SOL     OW26995   2.417   3.282   6.226
 8699SOL    HW126996   2.381   3.366   6.185
 8699SOL    HW226997   2.497   3.303   6.281
 8700SOL     OW26998   1.193   0.652   5.218
 8700SOL    HW126999   1.159   0.651   5.124
 8700SOL    HW227000   1.118   0.634   5.281
 8701SOL     OW27001   1.876   1.448   6.863
 8701SOL    HW127002   1.953   1.472   6.804
 8701SOL    HW227003   1.828   1.531   6.891
 8702SOL     OW27004   5.165   5.462   1.519
 8702SOL    HW127005   5.139   5.551   1.482
 8702SOL    HW227006   5.255   5.436   1.484
 8703SOL     OW27007   2.852   4.551   6.769
 8703SOL    HW127008   2.856   4.459   6.806
 8703SOL    HW227009   2.922   4.608   6.812
 8704SOL     OW27010   0.059   2.690   4.250
 8704SOL    HW127011   0.145   2.666   4.205
 8704SOL    HW227012   0.074   2.695   4.349
 8705SOL     OW27013   4.710   2.065   6.632
 8705SOL    HW127014   4.798   2.078   6.679
 8705SOL    HW227015   4.663   1.986   6.671
 8706SOL     OW27016   5.914   2.848   0.299
 8706SOL    HW127017   5.829   2.890   0.332
 8706SOL    HW227018   5.921   2.859   0.200
 8707SOL     OW27019   1.300   2.077   4.091
 8707SOL    HW127020   1.381   2.109   4.139
 8707SOL    HW227021   1.245   2.020   4.152
 8708SOL     OW27022   5.136   2.211   4.212
 8708SOL    HW127023   5.127   2.212   4.113
 8708SOL    HW227024   5.106   2.299   4.250
 8709SOL     OW27025   6.925   0.299   0.109
 8709SOL    HW127026   6.859   0.225   0.098
 8709SOL    HW227027   6.926   0.356   0.026
 8710SOL     OW27028   2.068   1.915   3.642
 8710SOL    HW127029   2.039   1.996   3.592
 8710SOL    HW227030   2.167   1.904   3.634
 8711SOL     OW27031   0.961   0.877   1.750
 8711SOL    HW127032   0.919   0.794   1.713
 8711SOL    HW227033   0.952   0.952   1.685
 8712SOL     OW27034   2.740   1.790   5.344
 8712SOL    HW127035   2.650   1.747   5.331
 8712SOL    HW227036   2.758   1.799   5.442
 8713SOL     OW27037   1.001   3.879   1.618
 8713SOL    HW127038   0.978   3.872   1.715
 8713SOL    HW227039   0.983   3.972   1.586
 8714SOL     OW27040   0.413   6.626   0.770
 8714SOL    HW127041   0.373   6.717   0.778
 8714SOL    HW227042   0.351   6.567   0.719
 8715SOL     OW27043   2.802   1.845   0.036
 8715SOL    HW127044   2.857   1.843   0.119
 8715SOL    HW227045   2.807   1.936   7.020
 8716SOL     OW27046   0.110   6.153   1.643
 8716SOL    HW127047   0.039   6.210   1.684
 8716SOL    HW227048   0.104   6.060   1.680
 8717SOL     OW27049   2.575   3.607   6.457
 8717SOL    HW127050   2.613   3.650   6.539
 8717SOL    HW227051   2.559   3.678   6.388
 8718SOL     OW27052   1.331   2.933   6.399
 8718SOL    HW127053   1.302   2.953   6.493
 8718SOL    HW227054   1.354   3.019   6.353
 8719SOL     OW27055   4.038   1.007   0.024
 8719SOL    HW127056   4.044   1.099   0.064
 8719SOL    HW227057   3.950   0.997   7.002
 8720SOL     OW27058   6.826   4.915   5.382
 8720SOL    HW127059   6.889   4.987   5.353
 8720SOL    HW227060   6.847   4.831   5.332
 8721SOL     OW27061   6.683   6.496   6.603
 8721SOL    HW127062   6.646   6.442   6.527
 8721SOL    HW227063   6.771   6.534   6.577
 8722SOL     OW27064   3.093   0.641   0.737
 8722SOL    HW127065   3.173   0.631   0.797
 8722SOL    HW227066   3.090   0.735   0.702
 8723SOL     OW27067   5.706   0.079   2.429
 8723SOL    HW127068   5.635   0.147   2.444
 8723SOL    HW227069   5.773   0.082   2.503
 8724SOL     OW27070   4.821   7.015   4.720
 8724SOL    HW127071   4.764   0.038   4.654
 8724SOL    HW227072   4.898   0.048   4.747
 8725SOL     OW27073   0.296   6.463   4.923
 8725SOL    HW127074   0.203   6.494   4.943
 8725SOL    HW227075   0.352   6.541   4.894
 8726SOL     OW27076   6.796   1.517   0.230
 8726SOL    HW127077   6.713   1.482   0.187
 8726SOL    HW227078   6.823   1.456   0.305
 8727SOL     OW27079   6.485   0.102   6.794
 8727SOL    HW127080   6.571   0.053   6.781
 8727SOL    HW227081   6.437   0.065   6.873
 8728SOL     OW27082   5.405   1.131   3.064
 8728SOL    HW127083   5.488   1.145   3.010
 8728SOL    HW227084   5.426   1.078   3.146
 8729SOL     OW27085   3.032   5.029   5.313
 8729SOL    HW127086   3.092   5.093   5.361
 8729SOL    HW227087   2.975   4.980   5.380
 8730SOL     OW27088   5.360   4.237   3.172
 8730SOL    HW127089   5.299   4.173   3.219
 8730SOL    HW227090   5.320   4.262   3.084
 8731SOL     OW27091   0.113   2.425   2.829
 8731SOL    HW127092   0.211   2.430   2.846
 8731SOL    HW227093   0.085   2.329   2.828
 8732SOL     OW27094   5.299   4.817   1.165
 8732SOL    HW127095   5.267   4.895   1.218
 8732SOL    HW227096   5.350   4.755   1.225
 8733SOL     OW27097   0.678   5.569   1.148
 8733SOL    HW127098   0.772   5.584   1.180
 8733SOL    HW227099   0.679   5.516   1.064
 8734SOL     OW27100   6.703   3.692   1.916
 8734SOL    HW127101   6.646   3.708   1.835
 8734SOL    HW227102   6.788   3.648   1.889
 8735SOL     OW27103   1.390   3.604   5.041
 8735SOL    HW127104   1.354   3.588   5.133
 8735SOL    HW227105   1.315   3.609   4.975
 8736SOL     OW27106   0.516   5.567   2.199
 8736SOL    HW127107   0.587   5.505   2.169
 8736SOL    HW227108   0.450   5.581   2.125
 8737SOL     OW27109   2.629   5.913   6.371
 8737SOL    HW127110   2.599   6.003   6.404
 8737SOL    HW227111   2.727   5.914   6.355
 8738SOL     OW27112   1.269   3.738   3.696
 8738SOL    HW127113   1.270   3.830   3.735
 8738SOL    HW227114   1.340   3.730   3.626
 8739SOL     OW27115   5.546   3.834   5.235
 8739SOL    HW127116   5.621   3.792   5.185
 8739SOL    HW227117   5.487   3.763   5.274
 8740SOL     OW27118   3.776   2.146   3.256
 8740SOL    HW127119   3.812   2.159   3.163
 8740SOL    HW227120   3.849   2.162   3.322
 8741SOL     OW27121   2.150   0.006   2.563
 8741SOL    HW127122   2.230   0.052   2.525
 8741SOL    HW227123   2.170   6.934   2.574
 8742SOL     OW27124   3.716   0.637   2.503
 8742SOL    HW127125   3.647   0.630   2.432
 8742SOL    HW227126   3.722   0.731   2.536
 8743SOL     OW27127   1.585   0.880   1.659
 8743SOL    HW127128   1.647   0.824   1.605
 8743SOL    HW227129   1.630   0.910   1.743
 8744SOL     OW27130   4.445   2.830   6.776
 8744SOL    HW127131   4.502   2.758   6.816
 8744SOL    HW227132   4.445   2.821   6.676
 8745SOL     OW27133   6.610   2.349   6.555
 8745SOL    HW127134   6.651   2.344   6.646
 8745SOL    HW227135   6.650   2.425   6.504
 8746SOL     OW27136   4.734   4.633   3.974
 8746SOL    HW127137   4.756   4.685   3.892
 8746SOL    HW227138   4.798   4.556   3.982
 8747SOL     OW27139   6.650   0.824   2.542
 8747SOL    HW127140   6.608   0.852   2.456
 8747SOL    HW227141   6.699   0.902   2.582
 8748SOL     OW27142   1.189   1.303   4.024
 8748SOL    HW127143   1.263   1.363   4.055
 8748SOL    HW227144   1.163   1.328   3.931
 8749SOL     OW27145   2.292   1.197   5.387
 8749SOL    HW127146   2.268   1.212   5.483
 8749SOL    HW227147   2.343   1.275   5.352
 8750SOL     OW27148   3.794   2.763   5.907
 8750SOL    HW127149   3.770   2.754   5.810
 8750SOL    HW227150   3.849   2.684   5.935
 8751SOL     OW27151   6.783   6.973   0.575
 8751SOL    HW127152   6.873   7.013   0.554
 8751SOL    HW227153   6.727   6.972   0.492
 8752SOL     OW27154   5.171   2.843   0.252
 8752SOL    HW127155   5.120   2.857   0.337
 8752SOL    HW227156   5.116   2.787   0.189
 8753SOL     OW27157   1.829   3.186   6.819
 8753SOL    HW127158   1.889   3.266   6.806
 8753SOL    HW227159   1.868   3.108   6.770
 8754SOL     OW27160   2.772   5.172   6.237
 8754SOL    HW127161   2.792   5.212   6.148
 8754SOL    HW227162   2.849   5.186   6.299
 8755SOL     OW27163   0.966   1.322   0.688
 8755SOL    HW127164   0.878   1.370   0.694
 8755SOL    HW227165   1.009   1.343   0.600
 8756SOL     OW27166   2.256   3.044   4.050
 8756SOL    HW127167   2.280   2.979   4.122
 8756SOL    HW227168   2.220   2.993   3.971
 8757SOL     OW27169   5.417   6.194   5.584
 8757SOL    HW127170   5.386   6.178   5.490
 8757SOL    HW227171   5.362   6.267   5.625
 8758SOL     OW27172   4.221   0.140   3.277
 8758SOL    HW127173   4.159   0.087   3.219
 8758SOL    HW227174   4.169   0.208   3.328
 8759SOL     OW27175   6.293   1.624   6.931
 8759SOL    HW127176   6.322   1.682   6.855
 8759SOL    HW227177   6.361   1.627   7.004
 8760SOL     OW27178   2.342   1.854   3.661
 8760SOL    HW127179   2.440   1.868   3.647
 8760SOL    HW227180   2.328   1.803   3.746
 8761SOL     OW27181   5.201   1.426   2.173
 8761SOL    HW127182   5.127   1.387   2.118
 8761SOL    HW227183   5.285   1.426   2.119
 8762SOL     OW27184   1.649   6.077   3.826
 8762SOL    HW127185   1.736   6.068   3.778
 8762SOL    HW227186   1.588   6.003   3.797
 8763SOL     OW27187   6.865   0.762   4.997
 8763SOL    HW127188   6.961   0.756   5.026
 8763SOL    HW227189   6.858   0.826   4.921
 8764SOL     OW27190   4.523   5.778   5.872
 8764SOL    HW127191   4.430   5.792   5.840
 8764SOL    HW227192   4.576   5.862   5.859
 8765SOL     OW27193   5.851   1.183   5.372
 8765SOL    HW127194   5.903   1.205   5.455
 8765SOL    HW227195   5.914   1.170   5.296
 8766SOL     OW27196   4.490   4.187   5.646
 8766SOL    HW127197   4.534   4.274   5.670
 8766SOL    HW227198   4.435   4.199   5.564
 8767SOL     OW27199   3.264   0.260   3.472
 8767SOL    HW127200   3.351   0.297   3.504
 8767SOL    HW227201   3.212   0.223   3.549
 8768SOL     OW27202   0.462   2.165   6.565
 8768SOL    HW127203   0.363   2.151   6.573
 8768SOL    HW227204   0.497   2.207   6.648
 8769SOL     OW27205   6.019   1.286   1.710
 8769SOL    HW127206   5.951   1.264   1.780
 8769SOL    HW227207   6.097   1.223   1.719
 8770SOL     OW27208   5.351   4.149   2.124
 8770SOL    HW127209   5.298   4.091   2.185
 8770SOL    HW227210   5.292   4.186   2.053
 8771SOL     OW27211   0.376   3.623   6.579
 8771SOL    HW127212   0.366   3.713   6.536
 8771SOL    HW227213   0.352   3.552   6.514
 8772SOL     OW27214   5.385   0.896   4.853
 8772SOL    HW127215   5.461   0.951   4.888
 8772SOL    HW227216   5.408   0.799   4.858
 8773SOL     OW27217   5.855   2.520   4.216
 8773SOL    HW127218   5.819   2.466   4.292
 8773SOL    HW227219   5.934   2.572   4.246
 8774SOL     OW27220   0.544   6.762   0.138
 8774SOL    HW127221   0.466   6.822   0.120
 8774SOL    HW227222   0.552   6.746   0.236
 8775SOL     OW27223   5.620   1.603   4.851
 8775SOL    HW127224   5.716   1.599   4.826
 8775SOL    HW227225   5.568   1.537   4.796
 8776SOL     OW27226   4.254   3.269   0.900
 8776SOL    HW127227   4.340   3.287   0.947
 8776SOL    HW227228   4.215   3.184   0.934
 8777SOL     OW27229   0.787   3.618   2.775
 8777SOL    HW127230   0.788   3.528   2.731
 8777SOL    HW227231   0.878   3.640   2.810
 8778SOL     OW27232   4.195   3.918   5.960
 8778SOL    HW127233   4.285   3.962   5.957
 8778SOL    HW227234   4.129   3.980   6.002
 8779SOL     OW27235   3.028   5.140   2.501
 8779SOL    HW127236   3.088   5.137   2.581
 8779SOL    HW227237   2.935   5.162   2.530
 8780SOL     OW27238   0.210   5.401   2.408
 8780SOL    HW127239   0.122   5.360   2.434
 8780SOL    HW227240   0.277   5.328   2.392
 8781SOL     OW27241   4.520   0.109   2.988
 8781SOL    HW127242   4.468   0.095   2.904
 8781SOL    HW227243   4.590   0.179   2.974
 8782SOL     OW27244   5.727   1.299   1.734
 8782SOL    HW127245   5.646   1.285   1.676
 8782SOL    HW227246   5.710   1.376   1.796
 8783SOL     OW27247   5.412   3.195   4.947
 8783SOL    HW127248   5.397   3.212   5.045
 8783SOL    HW227249   5.378   3.273   4.895
 8784SOL     OW27250   6.332   6.338   0.744
 8784SOL    HW127251   6.374   6.428   0.741
 8784SOL    HW227252   6.379   6.277   0.681
 8785SOL     OW27253   0.268   5.396   6.263
 8785SOL    HW127254   0.322   5.454   6.324
 8785SOL    HW227255   0.193   5.449   6.224
 8786SOL     OW27256   4.105   1.978   2.550
 8786SOL    HW127257   4.204   1.985   2.532
 8786SOL    HW227258   4.055   2.016   2.472
 8787SOL     OW27259   3.562   0.440   1.417
 8787SOL    HW127260   3.651   0.483   1.404
 8787SOL    HW227261   3.493   0.489   1.363
 8788SOL     OW27262   0.203   0.667   5.375
 8788SOL    HW127263   0.119   0.621   5.346
 8788SOL    HW227264   0.239   0.624   5.457
 8789SOL     OW27265   0.142   3.862   5.323
 8789SOL    HW127266   0.055   3.885   5.369
 8789SOL    HW227267   0.127   3.858   5.225
 8790SOL     OW27268   6.246   2.113   0.460
 8790SOL    HW127269   6.175   2.152   0.518
 8790SOL    HW227270   6.288   2.035   0.506
 8791SOL     OW27271   4.771   6.288   5.374
 8791SOL    HW127272   4.705   6.221   5.410
 8791SOL    HW227273   4.788   6.270   5.277
 8792SOL     OW27274   3.906   5.582   1.732
 8792SOL    HW127275   3.842   5.558   1.805
 8792SOL    HW227276   3.933   5.678   1.743
 8793SOL     OW27277   1.220   5.188   4.168
 8793SOL    HW127278   1.305   5.210   4.120
 8793SOL    HW227279   1.174   5.112   4.121
 8794SOL     OW27280   5.927   1.374   3.230
 8794SOL    HW127281   5.960   1.281   3.246
 8794SOL    HW227282   6.005   1.434   3.214
 8795SOL     OW27283   1.049   5.159   5.527
 8795SOL    HW127284   1.109   5.194   5.455
 8795SOL    HW227285   0.972   5.111   5.485
 8796SOL     OW27286   5.926   4.031   3.340
 8796SOL    HW127287   5.934   3.950   3.282
 8796SOL    HW227288   5.884   4.006   3.427
 8797SOL     OW27289   0.330   6.795   3.830
 8797SOL    HW127290   0.270   6.716   3.840
 8797SOL    HW227291   0.379   6.811   3.916
 8798SOL     OW27292   5.042   6.632   5.267
 8798SOL    HW127293   4.987   6.591   5.339
 8798SOL    HW227294   4.982   6.681   5.203
 8799SOL     OW27295   2.279   4.696   1.927
 8799SOL    HW127296   2.360   4.723   1.979
 8799SOL    HW227297   2.246   4.774   1.874
 8800SOL     OW27298   7.011   6.172   5.514
 8800SOL    HW127299   0.006   6.145   5.420
 8800SOL    HW227300   6.936   6.116   5.549
 8801SOL     OW27301   5.941   2.004   5.292
 8801SOL    HW127302   5.871   2.059   5.339
 8801SOL    HW227303   6.007   2.065   5.248
 8802SOL     OW27304   1.107   5.921   5.485
 8802SOL    HW127305   1.031   5.864   5.515
 8802SOL    HW227306   1.096   6.013   5.523
 8803SOL     OW27307   6.579   1.020   0.009
 8803SOL    HW127308   6.480   1.012   0.019
 8803SOL    HW227309   6.605   0.993   6.941
 8804SOL     OW27310   1.741   5.867   1.044
 8804SOL    HW127311   1.732   5.886   1.141
 8804SOL    HW227312   1.691   5.936   0.992
 8805SOL     OW27313   4.604   5.716   3.614
 8805SOL    HW127314   4.563   5.786   3.555
 8805SOL    HW227315   4.536   5.646   3.635
 8806SOL     OW27316   2.261   6.375   0.650
 8806SOL    HW127317   2.181   6.316   0.662
 8806SOL    HW227318   2.270   6.399   0.553
 8807SOL     OW27319   4.321   2.147   0.534
 8807SOL    HW127320   4.316   2.048   0.542
 8807SOL    HW227321   4.370   2.171   0.450
 8808SOL     OW27322   1.923   2.395   0.575
 8808SOL    HW127323   1.862   2.345   0.514
 8808SOL    HW227324   1.880   2.481   0.602
 8809SOL     OW27325   2.212   3.951   3.599
 8809SOL    HW127326   2.196   3.931   3.503
 8809SOL    HW227327   2.273   4.030   3.607
 8810SOL     OW27328   6.113   1.832   5.427
 8810SOL    HW127329   6.031   1.881   5.396
 8810SOL    HW227330   6.169   1.808   5.348
 8811SOL     OW27331   4.377   6.994   2.473
 8811SOL    HW127332   4.455   0.009   2.426
 8811SOL    HW227333   4.384   6.894   2.469
 8812SOL     OW27334   3.580   0.534   6.770
 8812SOL    HW127335   3.614   0.609   6.827
 8812SOL    HW227336   3.563   0.454   6.826
 8813SOL     OW27337   1.921   4.083   2.842
 8813SOL    HW127338   1.827   4.100   2.870
 8813SOL    HW227339   1.978   4.162   2.866
 8814SOL     OW27340   5.758   6.953   0.348
 8814SOL    HW127341   5.833   6.947   0.282
 8814SOL    HW227342   5.761   6.875   0.410
 8815SOL     OW27343   5.609   0.621   0.669
 8815SOL    HW127344   5.609   0.721   0.675
 8815SOL    HW227345   5.688   0.590   0.616
 8816SOL     OW27346   0.113   6.423   6.610
 8816SOL    HW127347   0.125   6.367   6.528
 8816SOL    HW227348   0.094   6.364   6.688
 8817SOL     OW27349   0.762   3.449   4.576
 8817SOL    HW127350   0.712   3.372   4.615
 8817SOL    HW227351   0.739   3.458   4.479
 8818SOL     OW27352   1.635   6.771   3.747
 8818SOL    HW127353   1.678   6.720   3.672
 8818SOL    HW227354   1.555   6.721   3.780
 8819SOL     OW27355   5.552   4.346   5.592
 8819SOL    HW127356   5.513   4.437   5.574
 8819SOL    HW227357   5.510   4.307   5.674
 8820SOL     OW27358   3.717   1.031   4.808
 8820SOL    HW127359   3.700   1.057   4.903
 8820SOL    HW227360   3.759   1.107   4.760
 8821SOL     OW27361   0.988   5.235   0.559
 8821SOL    HW127362   1.063   5.298   0.579
 8821SOL    HW227363   0.911   5.286   0.522
 8822SOL     OW27364   6.697   6.551   3.829
 8822SOL    HW127365   6.677   6.454   3.819
 8822SOL    HW227366   6.738   6.567   3.919
 8823SOL     OW27367   2.906   1.151   2.248
 8823SOL    HW127368   2.878   1.086   2.318
 8823SOL    HW227369   2.827   1.205   2.218
 8824SOL     OW27370   1.501   0.591   1.023
 8824SOL    HW127371   1.403   0.580   1.043
 8824SOL    HW227372   1.545   0.501   1.022
 8825SOL     OW27373   0.309   0.670   1.255
 8825SOL    HW127374   0.285   0.671   1.352
 8825SOL    HW227375   0.343   0.580   1.230
 8826SOL     OW27376   1.130   3.410   0.886
 8826SOL    HW127377   1.148   3.333   0.825
 8826SOL    HW227378   1.033   3.431   0.885
 8827SOL     OW27379   3.928   0.338   2.243
 8827SOL    HW127380   3.925   0.316   2.341
 8827SOL    HW227381   3.951   0.256   2.191
 8828SOL     OW27382   3.925   4.317   6.102
 8828SOL    HW127383   3.880   4.353   6.183
 8828SOL    HW227384   4.010   4.368   6.085
 8829SOL     OW27385   6.636   1.603   2.082
 8829SOL    HW127386   6.713   1.540   2.075
 8829SOL    HW227387   6.638   1.667   2.005
 8830SOL     OW27388   2.480   1.550   1.847
 8830SOL    HW127389   2.418   1.519   1.919
 8830SOL    HW227390   2.575   1.533   1.874
 8831SOL     OW27391   0.238   2.854   2.315
 8831SOL    HW127392   0.192   2.817   2.395
 8831SOL    HW227393   0.193   2.938   2.286
 8832SOL     OW27394   6.260   6.545   4.076
 8832SOL    HW127395   6.201   6.622   4.052
 8832SOL    HW227396   6.321   6.570   4.151
 8833SOL     OW27397   3.933   3.083   1.309
 8833SOL    HW127398   3.887   3.024   1.243
 8833SOL    HW227399   3.864   3.133   1.362
 8834SOL     OW27400   5.789   3.474   5.436
 8834SOL    HW127401   5.792   3.573   5.450
 8834SOL    HW227402   5.856   3.448   5.367
 8835SOL     OW27403   6.088   0.852   5.900
 8835SOL    HW127404   5.988   0.857   5.894
 8835SOL    HW227405   6.128   0.871   5.811
 8836SOL     OW27406   5.649   2.641   0.224
 8836SOL    HW127407   5.663   2.714   0.157
 8836SOL    HW227408   5.569   2.665   0.281
 8837SOL     OW27409   6.989   6.514   2.045
 8837SOL    HW127410   6.954   6.588   2.103
 8837SOL    HW227411   0.049   6.480   2.083
 8838SOL     OW27412   0.778   4.048   2.790
 8838SOL    HW127413   0.691   4.014   2.827
 8838SOL    HW227414   0.816   3.980   2.727
 8839SOL     OW27415   5.306   5.533   2.457
 8839SOL    HW127416   5.371   5.597   2.416
 8839SOL    HW227417   5.307   5.447   2.407
 8840SOL     OW27418   6.250   0.447   2.135
 8840SOL    HW127419   6.192   0.497   2.071
 8840SOL    HW227420   6.201   0.432   2.220
 8841SOL     OW27421   4.180   0.731   2.431
 8841SOL    HW127422   4.103   0.669   2.451
 8841SOL    HW227423   4.146   0.825   2.427
 8842SOL     OW27424   3.320   4.043   4.171
 8842SOL    HW127425   3.306   4.113   4.102
 8842SOL    HW227426   3.399   4.067   4.228
 8843SOL     OW27427   1.924   2.955   5.002
 8843SOL    HW127428   1.840   2.985   5.048
 8843SOL    HW227429   2.003   2.999   5.045
 8844SOL     OW27430   6.496   2.254   4.971
 8844SOL    HW127431   6.587   2.254   5.011
 8844SOL    HW227432   6.455   2.163   4.981
 8845SOL     OW27433   2.093   5.333   1.008
 8845SOL    HW127434   2.089   5.300   0.914
 8845SOL    HW227435   2.011   5.303   1.057
 8846SOL     OW27436   5.405   4.715   3.983
 8846SOL    HW127437   5.492   4.692   4.027
 8846SOL    HW227438   5.342   4.639   3.994
 8847SOL     OW27439   1.644   1.810   2.462
 8847SOL    HW127440   1.595   1.760   2.390
 8847SOL    HW227441   1.706   1.747   2.509
 8848SOL     OW27442   3.306   1.866   1.585
 8848SOL    HW127443   3.271   1.910   1.667
 8848SOL    HW227444   3.242   1.795   1.555
 8849SOL     OW27445   2.686   5.287   4.112
 8849SOL    HW127446   2.608   5.224   4.116
 8849SOL    HW227447   2.771   5.235   4.100
 8850SOL     OW27448   2.632   1.593   0.369
 8850SOL    HW127449   2.700   1.571   0.439
 8850SOL    HW227450   2.548   1.624   0.414
 8851SOL     OW27451   0.822   4.381   3.056
 8851SOL    HW127452   0.749   4.343   3.000
 8851SOL    HW227453   0.808   4.480   3.067
 8852SOL     OW27454   5.321   2.771   6.282
 8852SOL    HW127455   5.399   2.805   6.334
 8852SOL    HW227456   5.239   2.772   6.339
 8853SOL     OW27457   3.505   1.322   5.357
 8853SOL    HW127458   3.514   1.223   5.370
 8853SOL    HW227459   3.439   1.359   5.422
 8854SOL     OW27460   1.795   6.944   5.848
 8854SOL    HW127461   1.704   6.971   5.878
 8854SOL    HW227462   1.863   6.970   5.916
 8855SOL     OW27463   5.900   5.793   6.819
 8855SOL    HW127464   5.844   5.820   6.898
 8855SOL    HW227465   5.882   5.856   6.743
 8856SOL     OW27466   6.423   0.448   4.793
 8856SOL    HW127467   6.392   0.402   4.710
 8856SOL    HW227468   6.521   0.466   4.787
 8857SOL     OW27469   6.110   2.186   3.242
 8857SOL    HW127470   6.188   2.144   3.194
 8857SOL    HW227471   6.073   2.121   3.308
 8858SOL     OW27472   1.195   3.731   5.695
 8858SOL    HW127473   1.225   3.826   5.690
 8858SOL    HW227474   1.178   3.706   5.790
 8859SOL     OW27475   0.878   6.972   5.134
 8859SOL    HW127476   0.936   6.930   5.204
 8859SOL    HW227477   0.792   7.001   5.175
 8860SOL     OW27478   1.338   3.473   2.405
 8860SOL    HW127479   1.239   3.475   2.418
 8860SOL    HW227480   1.362   3.517   2.319
 8861SOL     OW27481   3.379   3.166   6.555
 8861SOL    HW127482   3.358   3.075   6.519
 8861SOL    HW227483   3.352   3.235   6.488
 8862SOL     OW27484   5.886   1.597   4.761
 8862SOL    HW127485   5.936   1.511   4.755
 8862SOL    HW227486   5.883   1.641   4.671
 8863SOL     OW27487   2.271   5.736   4.415
 8863SOL    HW127488   2.297   5.692   4.329
 8863SOL    HW227489   2.173   5.724   4.429
 8864SOL     OW27490   2.006   2.986   6.277
 8864SOL    HW127491   1.999   3.052   6.202
 8864SOL    HW227492   1.940   2.912   6.263
 8865SOL     OW27493   3.127   1.303   4.679
 8865SOL    HW127494   3.155   1.363   4.755
 8865SOL    HW227495   3.038   1.263   4.699
 8866SOL     OW27496   4.140   6.692   3.195
 8866SOL    HW127497   4.125   6.609   3.141
 8866SOL    HW227498   4.228   6.685   3.243
 8867SOL     OW27499   5.669   2.375   2.780
 8867SOL    HW127500   5.698   2.281   2.761
 8867SOL    HW227501   5.719   2.438   2.721
 8868SOL     OW27502   5.334   3.195   0.231
 8868SOL    HW127503   5.239   3.219   0.210
 8868SOL    HW227504   5.367   3.128   0.165
 8869SOL     OW27505   4.751   4.233   3.010
 8869SOL    HW127506   4.837   4.242   3.060
 8869SOL    HW227507   4.768   4.190   2.921
 8870SOL     OW27508   3.684   0.391   1.111
 8870SOL    HW127509   3.712   0.295   1.105
 8870SOL    HW227510   3.738   0.446   1.047
 8871SOL     OW27511   2.558   1.566   3.848
 8871SOL    HW127512   2.628   1.542   3.780
 8871SOL    HW227513   2.478   1.509   3.833
 8872SOL     OW27514   1.960   4.149   4.419
 8872SOL    HW127515   2.007   4.061   4.423
 8872SOL    HW227516   1.973   4.189   4.328
 8873SOL     OW27517   6.888   5.718   2.740
 8873SOL    HW127518   6.861   5.733   2.645
 8873SOL    HW227519   6.896   5.806   2.787
 8874SOL     OW27520   1.894   0.231   1.073
 8874SOL    HW127521   1.968   0.295   1.091
 8874SOL    HW227522   1.928   0.156   1.016
 8875SOL     OW27523   1.321   2.771   4.394
 8875SOL    HW127524   1.253   2.731   4.456
 8875SOL    HW227525   1.314   2.871   4.398
 8876SOL     OW27526   6.830   0.435   4.448
 8876SOL    HW127527   6.817   0.530   4.419
 8876SOL    HW227528   6.742   0.390   4.457
 8877SOL     OW27529   2.907   0.452   4.347
 8877SOL    HW127530   2.983   0.389   4.365
 8877SOL    HW227531   2.871   0.486   4.434
 8878SOL     OW27532   0.508   5.012   1.103
 8878SOL    HW127533   0.537   4.962   1.022
 8878SOL    HW227534   0.414   4.987   1.126
 8879SOL     OW27535   5.233   5.495   0.798
 8879SOL    HW127536   5.313   5.449   0.838
 8879SOL    HW227537   5.150   5.447   0.826
 8880SOL     OW27538   0.345   5.549   4.836
 8880SOL    HW127539   0.259   5.513   4.800
 8880SOL    HW227540   0.418   5.535   4.769
 8881SOL     OW27541   6.280   0.639   3.340
 8881SOL    HW127542   6.184   0.628   3.367
 8881SOL    HW227543   6.316   0.722   3.383
 8882SOL     OW27544   5.353   0.924   0.111
 8882SOL    HW127545   5.451   0.935   0.091
 8882SOL    HW227546   5.325   0.831   0.086
 8883SOL     OW27547   0.387   1.024   6.010
 8883SOL    HW127548   0.454   1.031   5.937
 8883SOL    HW227549   0.398   1.100   6.074
 8884SOL     OW27550   6.047   6.698   6.774
 8884SOL    HW127551   5.965   6.741   6.810
 8884SOL    HW227552   6.097   6.763   6.716
 8885SOL     OW27553   6.545   3.687   1.696
 8885SOL    HW127554   6.464   3.630   1.678
 8885SOL    HW227555   6.584   3.715   1.609
 8886SOL     OW27556   2.589   5.901   5.453
 8886SOL    HW127557   2.655   5.954   5.399
 8886SOL    HW227558   2.512   5.960   5.479
 8887SOL     OW27559   3.038   1.095   0.874
 8887SOL    HW127560   2.950   1.137   0.850
 8887SOL    HW227561   3.023   1.022   0.940
 8888SOL     OW27562   1.035   1.927   0.884
 8888SOL    HW127563   0.984   1.842   0.871
 8888SOL    HW227564   1.128   1.915   0.849
 8889SOL     OW27565   5.646   6.734   5.116
 8889SOL    HW127566   5.716   6.798   5.146
 8889SOL    HW227567   5.557   6.762   5.152
 8890SOL     OW27568   6.375   6.032   4.850
 8890SOL    HW127569   6.416   5.970   4.917
 8890SOL    HW227570   6.275   6.029   4.859
 8891SOL     OW27571   5.918   3.053   6.557
 8891SOL    HW127572   6.001   3.059   6.613
 8891SOL    HW227573   5.905   2.959   6.526
 8892SOL     OW27574   3.151   6.736   3.260
 8892SOL    HW127575   3.205   6.688   3.192
 8892SOL    HW227576   3.136   6.831   3.231
 8893SOL     OW27577   0.430   0.953   1.850
 8893SOL    HW127578   0.503   0.889   1.872
 8893SOL    HW227579   0.359   0.906   1.796
 8894SOL     OW27580   3.967   3.030   6.143
 8894SOL    HW127581   3.965   3.044   6.044
 8894SOL    HW227582   3.959   3.119   6.189
 8895SOL     OW27583   0.106   0.581   1.948
 8895SOL    HW127584   0.075   0.655   1.889
 8895SOL    HW227585   0.198   0.602   1.982
 8896SOL     OW27586   0.746   3.519   5.181
 8896SOL    HW127587   0.707   3.484   5.266
 8896SOL    HW227588   0.677   3.574   5.133
 8897SOL     OW27589   1.670   1.717   1.884
 8897SOL    HW127590   1.601   1.788   1.897
 8897SOL    HW227591   1.686   1.704   1.786
 8898SOL     OW27592   6.328   3.013   4.888
 8898SOL    HW127593   6.315   2.998   4.790
 8898SOL    HW227594   6.242   3.047   4.928
 8899SOL     OW27595   2.223   4.170   6.697
 8899SOL    HW127596   2.172   4.091   6.663
 8899SOL    HW227597   2.198   4.188   6.793
 8900SOL     OW27598   5.485   3.274   2.957
 8900SOL    HW127599   5.537   3.355   2.929
 8900SOL    HW227600   5.537   3.192   2.935
 8901SOL     OW27601   2.269   0.903   3.096
 8901SOL    HW127602   2.274   0.863   3.188
 8901SOL    HW227603   2.254   1.002   3.105
 8902SOL     OW27604   2.971   5.929   6.312
 8902SOL    HW127605   3.067   5.948   6.334
 8902SOL    HW227606   2.938   5.997   6.246
 8903SOL     OW27607   2.380   1.415   3.574
 8903SOL    HW127608   2.469   1.385   3.539
 8903SOL    HW227609   2.373   1.391   3.670
 8904SOL     OW27610   0.014   4.930   3.527
 8904SOL    HW127611   0.089   4.966   3.583
 8904SOL    HW227612   6.978   4.877   3.585
 8905SOL     OW27613   2.146   3.429   5.316
 8905SOL    HW127614   2.181   3.514   5.356
 8905SOL    HW227615   2.047   3.438   5.301
 8906SOL     OW27616   6.783   0.271   6.871
 8906SOL    HW127617   6.872   0.284   6.827
 8906SOL    HW227618   6.711   0.289   6.804
 8907SOL     OW27619   3.356   2.291   5.387
 8907SOL    HW127620   3.276   2.274   5.444
 8907SOL    HW227621   3.333   2.358   5.316
 8908SOL     OW27622   1.642   2.927   0.516
 8908SOL    HW127623   1.627   3.012   0.465
 8908SOL    HW227624   1.554   2.889   0.545
 8909SOL     OW27625   2.613   0.611   5.064
 8909SOL    HW127626   2.525   0.657   5.060
 8909SOL    HW227627   2.613   0.533   5.003
 8910SOL     OW27628   2.279   3.148   5.935
 8910SOL    HW127629   2.369   3.189   5.925
 8910SOL    HW227630   2.284   3.050   5.917
 8911SOL     OW27631   3.713   1.961   4.771
 8911SOL    HW127632   3.721   2.012   4.685
 8911SOL    HW227633   3.640   2.000   4.827
 8912SOL     OW27634   4.055   1.254   6.609
 8912SOL    HW127635   4.132   1.315   6.589
 8912SOL    HW227636   3.973   1.288   6.562
 8913SOL     OW27637   5.321   4.183   1.725
 8913SOL    HW127638   5.329   4.181   1.626
 8913SOL    HW227639   5.237   4.232   1.751
 8914SOL     OW27640   4.344   1.508   5.642
 8914SOL    HW127641   4.270   1.460   5.689
 8914SOL    HW227642   4.390   1.570   5.706
 8915SOL     OW27643   1.530   2.541   3.914
 8915SOL    HW127644   1.594   2.524   3.989
 8915SOL    HW227645   1.576   2.597   3.844
 8916SOL     OW27646   0.119   3.508   1.618
 8916SOL    HW127647   0.176   3.548   1.691
 8916SOL    HW227648   0.144   3.412   1.605
 8917SOL     OW27649   6.022   5.259   6.652
 8917SOL    HW127650   6.056   5.315   6.576
 8917SOL    HW227651   6.091   5.257   6.725
 8918SOL     OW27652   6.534   6.181   6.964
 8918SOL    HW127653   6.478   6.199   0.019
 8918SOL    HW227654   6.545   6.082   6.953
 8919SOL     OW27655   4.120   3.723   0.583
 8919SOL    HW127656   4.170   3.753   0.664
 8919SOL    HW227657   4.064   3.643   0.607
 8920SOL     OW27658   6.596   6.014   6.431
 8920SOL    HW127659   6.673   5.971   6.382
 8920SOL    HW227660   6.547   6.074   6.368
 8921SOL     OW27661   1.302   1.422   2.839
 8921SOL    HW127662   1.278   1.336   2.795
 8921SOL    HW227663   1.399   1.420   2.864
 8922SOL     OW27664   2.133   5.199   0.773
 8922SOL    HW127665   2.210   5.136   0.770
 8922SOL    HW227666   2.138   5.263   0.696
 8923SOL     OW27667   2.106   3.989   6.490
 8923SOL    HW127668   2.180   3.923   6.479
 8923SOL    HW227669   2.027   3.961   6.436
 8924SOL     OW27670   2.765   5.672   5.336
 8924SOL    HW127671   2.739   5.751   5.393
 8924SOL    HW227672   2.708   5.594   5.360
 8925SOL     OW27673   0.640   0.600   2.648
 8925SOL    HW127674   0.620   0.512   2.605
 8925SOL    HW227675   0.709   0.588   2.720
 8926SOL     OW27676   5.675   2.386   1.822
 8926SOL    HW127677   5.651   2.413   1.915
 8926SOL    HW227678   5.738   2.307   1.826
 8927SOL     OW27679   2.705   2.142   4.851
 8927SOL    HW127680   2.664   2.228   4.882
 8927SOL    HW227681   2.795   2.131   4.895
 8928SOL     OW27682   6.950   1.080   5.354
 8928SOL    HW127683   6.895   1.163   5.358
 8928SOL    HW227684   6.980   1.065   5.260
 8929SOL     OW27685   0.103   3.260   3.700
 8929SOL    HW127686   0.169   3.228   3.766
 8929SOL    HW227687   0.139   3.341   3.653
 8930SOL     OW27688   1.678   5.304   5.294
 8930SOL    HW127689   1.690   5.401   5.275
 8930SOL    HW227690   1.601   5.268   5.241
 8931SOL     OW27691   4.242   2.695   0.888
 8931SOL    HW127692   4.223   2.598   0.878
 8931SOL    HW227693   4.215   2.743   0.804
 8932SOL     OW27694   5.238   0.030   6.595
 8932SOL    HW127695   5.148   0.053   6.631
 8932SOL    HW227696   5.309   0.061   6.658
 8933SOL     OW27697   1.039   1.343   5.348
 8933SOL    HW127698   1.041   1.253   5.305
 8933SOL    HW227699   1.047   1.332   5.447
 8934SOL     OW27700   3.399   5.172   2.698
 8934SOL    HW127701   3.378   5.114   2.776
 8934SOL    HW227702   3.440   5.258   2.730
 8935SOL     OW27703   4.888   3.303   2.334
 8935SOL    HW127704   4.898   3.211   2.296
 8935SOL    HW227705   4.841   3.297   2.422
 8936SOL     OW27706   0.844   3.452   0.881
 8936SOL    HW127707   0.806   3.381   0.823
 8936SOL    HW227708   0.770   3.507   0.920
 8937SOL     OW27709   0.424   0.663   4.025
 8937SOL    HW127710   0.495   0.681   3.958
 8937SOL    HW227711   0.465   0.652   4.116
 8938SOL     OW27712   6.031   0.634   0.508
 8938SOL    HW127713   6.063   0.725   0.533
 8938SOL    HW227714   6.103   0.567   0.523
 8939SOL     OW27715   6.547   2.939   5.006
 8939SOL    HW127716   6.453   2.958   4.977
 8939SOL    HW227717   6.610   2.955   4.930
 8940SOL     OW27718   6.279   2.601   0.329
 8940SOL    HW127719   6.276   2.501   0.331
 8940SOL    HW227720   6.315   2.635   0.416
 8941SOL     OW27721   4.893   2.169   2.126
 8941SOL    HW127722   4.833   2.214   2.060
 8941SOL    HW227723   4.957   2.109   2.078
 8942SOL     OW27724   6.861   4.673   3.957
 8942SOL    HW127725   6.875   4.758   4.007
 8942SOL    HW227726   6.907   4.598   4.006
 8943SOL     OW27727   4.286   4.268   0.371
 8943SOL    HW127728   4.274   4.176   0.335
 8943SOL    HW227729   4.331   4.262   0.461
 8944SOL     OW27730   4.780   4.727   4.501
 8944SOL    HW127731   4.730   4.798   4.551
 8944SOL    HW227732   4.736   4.638   4.518
 8945SOL     OW27733   6.295   3.289   5.282
 8945SOL    HW127734   6.292   3.200   5.326
 8945SOL    HW227735   6.263   3.281   5.187
 8946SOL     OW27736   4.491   0.664   4.568
 8946SOL    HW127737   4.439   0.652   4.653
 8946SOL    HW227738   4.523   0.574   4.535
 8947SOL     OW27739   1.317   4.655   6.776
 8947SOL    HW127740   1.252   4.661   6.851
 8947SOL    HW227741   1.371   4.739   6.771
 8948SOL     OW27742   6.704   5.910   4.128
 8948SOL    HW127743   6.682   5.981   4.196
 8948SOL    HW227744   6.775   5.943   4.067
 8949SOL     OW27745   3.851   6.209   0.237
 8949SOL    HW127746   3.927   6.145   0.247
 8949SOL    HW227747   3.813   6.230   0.327
 8950SOL     OW27748   4.887   4.019   1.122
 8950SOL    HW127749   4.799   3.975   1.107
 8950SOL    HW227750   4.873   4.116   1.140
 8951SOL     OW27751   2.326   0.900   3.780
 8951SOL    HW127752   2.310   0.803   3.799
 8951SOL    HW227753   2.406   0.931   3.832
 8952SOL     OW27754   2.303   4.716   3.594
 8952SOL    HW127755   2.317   4.680   3.502
 8952SOL    HW227756   2.298   4.816   3.591
 8953SOL     OW27757   2.447   5.193   2.056
 8953SOL    HW127758   2.456   5.135   1.975
 8953SOL    HW227759   2.507   5.272   2.047
 8954SOL     OW27760   1.086   5.802   4.159
 8954SOL    HW127761   1.177   5.761   4.165
 8954SOL    HW227762   1.066   5.825   4.063
 8955SOL     OW27763   6.327   3.034   2.713
 8955SOL    HW127764   6.315   3.014   2.811
 8955SOL    HW227765   6.401   2.977   2.677
 8956SOL     OW27766   0.344   6.793   6.738
 8956SOL    HW127767   0.392   6.880   6.738
 8956SOL    HW227768   0.250   6.807   6.770
 8957SOL     OW27769   1.679   5.599   2.293
 8957SOL    HW127770   1.699   5.662   2.219
 8957SOL    HW227771   1.733   5.515   2.280
 8958SOL     OW27772   1.480   3.258   5.275
 8958SOL    HW127773   1.438   3.348   5.264
 8958SOL    HW227774   1.448   3.217   5.360
 8959SOL     OW27775   0.852   3.499   2.188
 8959SOL    HW127776   0.787   3.542   2.250
 8959SOL    HW227777   0.823   3.514   2.093
 8960SOL     OW27778   6.506   3.887   4.052
 8960SOL    HW127779   6.520   3.831   3.970
 8960SOL    HW227780   6.555   3.973   4.042
 8961SOL     OW27781   3.143   6.907   4.220
 8961SOL    HW127782   3.073   6.973   4.196
 8961SOL    HW227783   3.228   6.930   4.173
 8962SOL     OW27784   1.165   6.122   1.370
 8962SOL    HW127785   1.225   6.053   1.410
 8962SOL    HW227786   1.162   6.111   1.271
 8963SOL     OW27787   3.580   5.643   4.401
 8963SOL    HW127788   3.595   5.661   4.499
 8963SOL    HW227789   3.491   5.601   4.388
 8964SOL     OW27790   5.593   4.070   3.075
 8964SOL    HW127791   5.496   4.092   3.088
 8964SOL    HW227792   5.620   4.001   3.141
 8965SOL     OW27793   3.793   4.643   0.554
 8965SOL    HW127794   3.733   4.568   0.583
 8965SOL    HW227795   3.759   4.729   0.592
 8966SOL     OW27796   6.255   5.299   5.952
 8966SOL    HW127797   6.328   5.289   5.884
 8966SOL    HW227798   6.255   5.392   5.987
 8967SOL     OW27799   3.769   1.016   3.026
 8967SOL    HW127800   3.678   1.055   3.009
 8967SOL    HW227801   3.761   0.917   3.037
 8968SOL     OW27802   2.240   4.561   1.605
 8968SOL    HW127803   2.329   4.582   1.565
 8968SOL    HW227804   2.251   4.545   1.703
 8969SOL     OW27805   0.363   6.772   3.324
 8969SOL    HW127806   0.387   6.753   3.419
 8969SOL    HW227807   0.297   6.847   3.321
 8970SOL     OW27808   1.226   1.949   5.835
 8970SOL    HW127809   1.273   1.881   5.779
 8970SOL    HW227810   1.140   1.973   5.791
 8971SOL     OW27811   4.362   6.594   1.111
 8971SOL    HW127812   4.442   6.654   1.105
 8971SOL    HW227813   4.280   6.645   1.086
 8972SOL     OW27814   5.607   5.371   0.342
 8972SOL    HW127815   5.589   5.319   0.259
 8972SOL    HW227816   5.703   5.362   0.368
 8973SOL     OW27817   0.555   2.778   2.109
 8973SOL    HW127818   0.540   2.761   2.011
 8973SOL    HW227819   0.652   2.766   2.130
 8974SOL     OW27820   2.105   3.887   4.411
 8974SOL    HW127821   2.101   3.800   4.361
 8974SOL    HW227822   2.180   3.883   4.477
 8975SOL     OW27823   0.474   0.386   6.685
 8975SOL    HW127824   0.513   0.472   6.719
 8975SOL    HW227825   0.540   0.341   6.624
 8976SOL     OW27826   5.826   6.174   1.257
 8976SOL    HW127827   5.923   6.158   1.277
 8976SOL    HW227828   5.817   6.211   1.165
 8977SOL     OW27829   6.887   5.241   6.236
 8977SOL    HW127830   6.906   5.320   6.295
 8977SOL    HW227831   6.862   5.162   6.292
 8978SOL     OW27832   6.056   6.123   5.104
 8978SOL    HW127833   6.107   6.041   5.129
 8978SOL    HW227834   6.119   6.192   5.068
 8979SOL     OW27835   0.747   5.242   6.155
 8979SOL    HW127836   0.690   5.248   6.073
 8979SOL    HW227837   0.843   5.235   6.129
 8980SOL     OW27838   4.253   1.945   5.901
 8980SOL    HW127839   4.205   1.977   5.820
 8980SOL    HW227840   4.269   1.846   5.893
 8981SOL     OW27841   4.308   1.950   6.164
 8981SOL    HW127842   4.225   1.901   6.188
 8981SOL    HW227843   4.293   2.002   6.080
 8982SOL     OW27844   6.557   0.859   2.282
 8982SOL    HW127845   6.473   0.913   2.277
 8982SOL    HW227846   6.551   0.783   2.217
 8983SOL     OW27847   1.142   4.974   2.186
 8983SOL    HW127848   1.222   4.920   2.159
 8983SOL    HW227849   1.059   4.919   2.174
 8984SOL     OW27850   5.926   0.427   4.310
 8984SOL    HW127851   5.863   0.479   4.253
 8984SOL    HW227852   5.884   0.339   4.334
 8985SOL     OW27853   4.697   1.955   0.663
 8985SOL    HW127854   4.759   1.891   0.708
 8985SOL    HW227855   4.691   1.933   0.566
 8986SOL     OW27856   6.055   4.345   1.886
 8986SOL    HW127857   5.960   4.314   1.888
 8986SOL    HW227858   6.085   4.354   1.791
 8987SOL     OW27859   2.430   0.343   1.367
 8987SOL    HW127860   2.499   0.401   1.409
 8987SOL    HW227861   2.359   0.322   1.435
 8988SOL     OW27862   2.173   5.771   0.944
 8988SOL    HW127863   2.251   5.710   0.961
 8988SOL    HW227864   2.114   5.731   0.873
 8989SOL     OW27865   5.067   2.724   2.916
 8989SOL    HW127866   5.132   2.796   2.942
 8989SOL    HW227867   5.066   2.653   2.986
 8990SOL     OW27868   3.225   6.080   0.632
 8990SOL    HW127869   3.138   6.093   0.679
 8990SOL    HW227870   3.216   6.111   0.537
 8991SOL     OW27871   2.264   2.591   0.902
 8991SOL    HW127872   2.266   2.691   0.909
 8991SOL    HW227873   2.313   2.563   0.819
 8992SOL     OW27874   0.350   2.886   0.280
 8992SOL    HW127875   0.378   2.951   0.351
 8992SOL    HW227876   0.253   2.866   0.290
 8993SOL     OW27877   5.126   1.880   3.896
 8993SOL    HW127878   5.036   1.841   3.873
 8993SOL    HW227879   5.142   1.961   3.840
 8994SOL     OW27880   1.597   5.577   4.216
 8994SOL    HW127881   1.604   5.515   4.138
 8994SOL    HW227882   1.687   5.615   4.237
 8995SOL     OW27883   1.256   2.878   4.971
 8995SOL    HW127884   1.172   2.846   4.926
 8995SOL    HW227885   1.235   2.959   5.026
 8996SOL     OW27886   0.357   3.791   1.170
 8996SOL    HW127887   0.395   3.711   1.215
 8996SOL    HW227888   0.293   3.762   1.098
 8997SOL     OW27889   5.115   1.139   6.313
 8997SOL    HW127890   5.063   1.156   6.397
 8997SOL    HW227891   5.104   1.044   6.285
 8998SOL     OW27892   1.140   2.612   5.399
 8998SOL    HW127893   1.190   2.651   5.322
 8998SOL    HW227894   1.063   2.671   5.422
 8999SOL     OW27895   4.728   1.469   6.402
 8999SOL    HW127896   4.788   1.389   6.407
 8999SOL    HW227897   4.704   1.499   6.494
 9000SOL     OW27898   3.164   3.855   6.793
 9000SOL    HW127899   3.170   3.800   6.877
 9000SOL    HW227900   3.194   3.800   6.715
 9001SOL     OW27901   1.845   4.724   3.361
 9001SOL    HW127902   1.815   4.777   3.282
 9001SOL    HW227903   1.812   4.768   3.445
 9002SOL     OW27904   6.335   5.085   5.712
 9002SOL    HW127905   6.240   5.060   5.728
 9002SOL    HW227906   6.347   5.113   5.617
 9003SOL     OW27907   6.319   2.322   0.314
 9003SOL    HW127908   6.284   2.262   0.385
 9003SOL    HW227909   6.354   2.268   0.238
 9004SOL     OW27910   5.299   6.695   1.267
 9004SOL    HW127911   5.256   6.740   1.189
 9004SOL    HW227912   5.393   6.671   1.244
 9005SOL     OW27913   4.815   2.008   4.019
 9005SOL    HW127914   4.849   1.972   4.106
 9005SOL    HW227915   4.821   1.937   3.949
 9006SOL     OW27916   1.743   5.295   1.394
 9006SOL    HW127917   1.737   5.365   1.322
 9006SOL    HW227918   1.709   5.208   1.359
 9007SOL     OW27919   2.782   5.050   3.770
 9007SOL    HW127920   2.769   4.952   3.785
 9007SOL    HW227921   2.849   5.065   3.697
 9008SOL     OW27922   0.015   4.301   2.108
 9008SOL    HW127923   0.054   4.248   2.032
 9008SOL    HW227924   6.971   4.246   2.155
 9009SOL     OW27925   2.579   0.246   1.139
 9009SOL    HW127926   2.524   0.273   1.219
 9009SOL    HW227927   2.611   0.152   1.152
 9010SOL     OW27928   0.802   6.768   4.660
 9010SOL    HW127929   0.870   6.747   4.590
 9010SOL    HW227930   0.736   6.693   4.666
 9011SOL     OW27931   3.950   2.293   1.122
 9011SOL    HW127932   3.943   2.199   1.090
 9011SOL    HW227933   3.907   2.300   1.212
 9012SOL     OW27934   1.009   4.838   1.305
 9012SOL    HW127935   0.970   4.808   1.218
 9012SOL    HW227936   1.094   4.888   1.289
 9013SOL     OW27937   6.729   5.724   4.344
 9013SOL    HW127938   6.707   5.782   4.423
 9013SOL    HW227939   6.710   5.775   4.260
 9014SOL     OW27940   1.182   1.412   0.099
 9014SOL    HW127941   1.194   1.404   7.025
 9014SOL    HW227942   1.145   1.502   0.121
 9015SOL     OW27943   0.433   1.001   6.599
 9015SOL    HW127944   0.463   1.018   6.693
 9015SOL    HW227945   0.458   1.078   6.541
 9016SOL     OW27946   6.907   6.430   5.844
 9016SOL    HW127947   6.843   6.435   5.768
 9016SOL    HW227948   6.963   6.348   5.836
 9017SOL     OW27949   5.771   1.840   3.868
 9017SOL    HW127950   5.736   1.751   3.838
 9017SOL    HW227951   5.704   1.882   3.929
 9018SOL     OW27952   3.805   0.559   4.927
 9018SOL    HW127953   3.771   0.650   4.901
 9018SOL    HW227954   3.903   0.565   4.949
 9019SOL     OW27955   2.720   6.431   6.562
 9019SOL    HW127956   2.792   6.437   6.631
 9019SOL    HW227957   2.669   6.517   6.559
 9020SOL     OW27958   1.679   4.348   2.596
 9020SOL    HW127959   1.763   4.368   2.646
 9020SOL    HW227960   1.612   4.420   2.613
 9021SOL     OW27961   6.969   6.044   4.115
 9021SOL    HW127962   0.002   6.055   4.195
 9021SOL    HW227963   6.993   5.961   4.066
 9022SOL     OW27964   2.759   0.430   0.151
 9022SOL    HW127965   2.751   0.530   0.145
 9022SOL    HW227966   2.849   0.406   0.187
 9023SOL     OW27967   3.342   3.298   3.782
 9023SOL    HW127968   3.333   3.199   3.778
 9023SOL    HW227969   3.439   3.322   3.789
 9024SOL     OW27970   1.446   5.966   6.017
 9024SOL    HW127971   1.543   5.984   6.037
 9024SOL    HW227972   1.429   5.868   6.024
 9025SOL     OW27973   6.367   5.160   1.555
 9025SOL    HW127974   6.368   5.060   1.547
 9025SOL    HW227975   6.445   5.198   1.505
 9026SOL     OW27976   3.719   2.933   4.476
 9026SOL    HW127977   3.643   2.984   4.437
 9026SOL    HW227978   3.692   2.838   4.491
 9027SOL     OW27979   2.715   2.380   2.964
 9027SOL    HW127980   2.623   2.413   2.989
 9027SOL    HW227981   2.774   2.383   3.044
 9028SOL     OW27982   2.268   4.326   6.031
 9028SOL    HW127983   2.260   4.233   5.996
 9028SOL    HW227984   2.257   4.325   6.131
 9029SOL     OW27985   4.318   5.223   4.341
 9029SOL    HW127986   4.381   5.156   4.379
 9029SOL    HW227987   4.367   5.283   4.278
 9030SOL     OW27988   2.272   1.007   2.535
 9030SOL    HW127989   2.329   1.052   2.604
 9030SOL    HW227990   2.252   1.071   2.461
 9031SOL     OW27991   2.611   6.111   5.958
 9031SOL    HW127992   2.655   6.133   6.045
 9031SOL    HW227993   2.624   6.186   5.894
 9032SOL     OW27994   2.625   2.514   1.537
 9032SOL    HW127995   2.655   2.526   1.632
 9032SOL    HW227996   2.669   2.583   1.480
 9033SOL     OW27997   2.019   3.634   4.549
 9033SOL    HW127998   2.072   3.572   4.491
 9033SOL    HW227999   2.039   3.614   4.645
 9034SOL     OW28000   3.130   6.840   5.013
 9034SOL    HW128001   3.046   6.822   4.963
 9034SOL    HW228002   3.111   6.839   5.112
 9035SOL     OW28003   7.012   0.104   4.929
 9035SOL    HW128004   6.919   0.072   4.943
 9035SOL    HW228005   7.014   0.204   4.929
 9036SOL     OW28006   1.671   2.448   5.140
 9036SOL    HW128007   1.713   2.525   5.188
 9036SOL    HW228008   1.588   2.478   5.093
 9037SOL     OW28009   2.331   3.840   6.013
 9037SOL    HW128010   2.332   3.758   5.956
 9037SOL    HW228011   2.248   3.840   6.070
 9038SOL     OW28012   5.134   0.581   5.980
 9038SOL    HW128013   5.170   0.496   5.941
 9038SOL    HW228014   5.119   0.647   5.906
 9039SOL     OW28015   1.635   4.523   5.495
 9039SOL    HW128016   1.562   4.525   5.426
 9039SOL    HW228017   1.594   4.519   5.586
 9040SOL     OW28018   3.132   1.219   2.396
 9040SOL    HW128019   3.062   1.169   2.344
 9040SOL    HW228020   3.099   1.311   2.416
 9041SOL     OW28021   0.478   1.959   1.842
 9041SOL    HW128022   0.430   2.038   1.881
 9041SOL    HW228023   0.415   1.881   1.837
 9042SOL     OW28024   2.303   5.696   3.196
 9042SOL    HW128025   2.252   5.691   3.281
 9042SOL    HW228026   2.334   5.604   3.170
 9043SOL     OW28027   1.418   2.289   6.132
 9043SOL    HW128028   1.408   2.249   6.041
 9043SOL    HW228029   1.430   2.388   6.124
 9044SOL     OW28030   6.085   0.461   0.725
 9044SOL    HW128031   6.069   0.522   0.804
 9044SOL    HW228032   6.002   0.455   0.671
 9045SOL     OW28033   3.530   0.305   3.189
 9045SOL    HW128034   3.540   0.402   3.211
 9045SOL    HW228035   3.436   0.286   3.161
 9046SOL     OW28036   3.430   4.492   5.310
 9046SOL    HW128037   3.351   4.547   5.339
 9046SOL    HW228038   3.398   4.409   5.265
 9047SOL     OW28039   1.791   4.414   5.299
 9047SOL    HW128040   1.728   4.446   5.370
 9047SOL    HW228041   1.741   4.356   5.234
 9048SOL     OW28042   1.355   3.944   5.649
 9048SOL    HW128043   1.271   3.988   5.616
 9048SOL    HW228044   1.393   3.998   5.725
 9049SOL     OW28045   5.199   6.302   6.332
 9049SOL    HW128046   5.247   6.237   6.392
 9049SOL    HW228047   5.101   6.299   6.350
 9050SOL     OW28048   0.716   5.327   7.002
 9050SOL    HW128049   0.717   5.249   0.039
 9050SOL    HW228050   0.691   5.409   0.028
 9051SOL     OW28051   4.630   6.346   0.819
 9051SOL    HW128052   4.546   6.378   0.775
 9051SOL    HW228053   4.612   6.323   0.914
 9052SOL     OW28054   2.874   4.765   4.612
 9052SOL    HW128055   2.806   4.694   4.632
 9052SOL    HW228056   2.846   4.851   4.654
 9053SOL     OW28057   2.117   2.919   3.851
 9053SOL    HW128058   2.147   2.934   3.757
 9053SOL    HW228059   2.120   2.822   3.872
 9054SOL     OW28060   1.764   0.578   1.748
 9054SOL    HW128061   1.819   0.653   1.784
 9054SOL    HW228062   1.722   0.528   1.823
 9055SOL     OW28063   0.512   3.004   3.863
 9055SOL    HW128064   0.550   3.018   3.954
 9055SOL    HW228065   0.513   2.907   3.841
 9056SOL     OW28066   5.703   0.321   1.801
 9056SOL    HW128067   5.658   0.266   1.873
 9056SOL    HW228068   5.634   0.370   1.749
 9057SOL     OW28069   5.874   5.045   0.028
 9057SOL    HW128070   5.950   5.002   0.078
 9057SOL    HW228071   5.887   5.031   6.955
 9058SOL     OW28072   1.915   2.373   4.476
 9058SOL    HW128073   1.855   2.334   4.545
 9058SOL    HW228074   1.884   2.466   4.453
 9059SOL     OW28075   6.096   1.226   3.549
 9059SOL    HW128076   6.102   1.202   3.646
 9059SOL    HW228077   6.005   1.204   3.515
 9060SOL     OW28078   6.557   3.507   2.069
 9060SOL    HW128079   6.616   3.545   1.998
 9060SOL    HW228080   6.506   3.581   2.113
 9061SOL     OW28081   4.675   5.458   3.209
 9061SOL    HW128082   4.614   5.502   3.274
 9061SOL    HW228083   4.738   5.397   3.258
 9062SOL     OW28084   1.365   4.806   2.118
 9062SOL    HW128085   1.413   4.827   2.034
 9062SOL    HW228086   1.416   4.738   2.170
 9063SOL     OW28087   2.898   1.895   2.652
 9063SOL    HW128088   2.964   1.821   2.663
 9063SOL    HW228089   2.812   1.871   2.696
 9064SOL     OW28090   6.468   4.330   3.798
 9064SOL    HW128091   6.398   4.344   3.869
 9064SOL    HW228092   6.530   4.408   3.798
 9065SOL     OW28093   2.691   6.184   5.150
 9065SOL    HW128094   2.606   6.132   5.157
 9065SOL    HW228095   2.670   6.281   5.133
 9066SOL     OW28096   6.579   6.642   6.357
 9066SOL    HW128097   6.672   6.670   6.383
 9066SOL    HW228098   6.575   6.542   6.352
 9067SOL     OW28099   6.570   6.353   4.619
 9067SOL    HW128100   6.593   6.398   4.532
 9067SOL    HW228101   6.577   6.254   4.608
 9068SOL     OW28102   4.393   0.165   5.010
 9068SOL    HW128103   4.332   0.096   4.971
 9068SOL    HW228104   4.339   0.234   5.058
 9069SOL     OW28105   4.792   2.590   1.948
 9069SOL    HW128106   4.889   2.583   1.926
 9069SOL    HW228107   4.779   2.648   2.028
 9070SOL     OW28108   1.614   2.167   6.272
 9070SOL    HW128109   1.697   2.181   6.217
 9070SOL    HW228110   1.536   2.211   6.227
 9071SOL     OW28111   4.630   0.948   5.904
 9071SOL    HW128112   4.700   1.004   5.948
 9071SOL    HW228113   4.575   1.005   5.844
 9072SOL     OW28114   5.164   6.758   1.917
 9072SOL    HW128115   5.173   6.685   1.849
 9072SOL    HW228116   5.214   6.839   1.886
 9073SOL     OW28117   4.379   7.014   0.456
 9073SOL    HW128118   4.296   6.971   0.490
 9073SOL    HW228119   4.408   6.968   0.371
 9074SOL     OW28120   1.593   0.452   1.348
 9074SOL    HW128121   1.579   0.395   1.267
 9074SOL    HW228122   1.513   0.445   1.408
 9075SOL     OW28123   0.089   0.787   2.463
 9075SOL    HW128124   0.165   0.789   2.398
 9075SOL    HW228125   0.085   0.698   2.507
 9076SOL     OW28126   4.861   1.409   3.947
 9076SOL    HW128127   4.820   1.492   3.911
 9076SOL    HW228128   4.957   1.426   3.970
 9077SOL     OW28129   5.045   1.591   6.135
 9077SOL    HW128130   5.089   1.541   6.210
 9077SOL    HW228131   5.045   1.689   6.156
 9078SOL     OW28132   5.615   5.213   6.206
 9078SOL    HW128133   5.657   5.208   6.297
 9078SOL    HW228134   5.641   5.298   6.162
 9079SOL     OW28135   1.466   0.237   4.979
 9079SOL    HW128136   1.456   0.201   4.886
 9079SOL    HW228137   1.457   0.337   4.977
 9080SOL     OW28138   6.016   2.975   0.047
 9080SOL    HW128139   5.963   2.997   6.991
 9080SOL    HW228140   6.099   3.032   0.049
 9081SOL     OW28141   3.968   1.798   1.442
 9081SOL    HW128142   3.913   1.727   1.487
 9081SOL    HW228143   3.942   1.805   1.346
 9082SOL     OW28144   2.294   6.647   5.294
 9082SOL    HW128145   2.302   6.580   5.220
 9082SOL    HW228146   2.313   6.603   5.381
 9083SOL     OW28147   4.886   4.425   6.381
 9083SOL    HW128148   4.828   4.506   6.393
 9083SOL    HW228149   4.957   4.445   6.313
 9084SOL     OW28150   0.462   2.508   5.605
 9084SOL    HW128151   0.378   2.465   5.573
 9084SOL    HW228152   0.480   2.480   5.699
 9085SOL     OW28153   2.908   5.414   0.933
 9085SOL    HW128154   2.886   5.511   0.936
 9085SOL    HW228155   3.007   5.402   0.926
 9086SOL     OW28156   6.025   4.168   1.005
 9086SOL    HW128157   5.931   4.194   0.980
 9086SOL    HW228158   6.039   4.071   0.984
 9087SOL     OW28159   5.910   3.093   2.909
 9087SOL    HW128160   5.957   3.112   2.996
 9087SOL    HW228161   5.812   3.092   2.924
 9088SOL     OW28162   5.771   6.603   2.002
 9088SOL    HW128163   5.805   6.511   2.022
 9088SOL    HW228164   5.847   6.667   2.004
 9089SOL     OW28165   4.425   5.501   4.545
 9089SOL    HW128166   4.473   5.423   4.586
 9089SOL    HW228167   4.359   5.468   4.478
 9090SOL     OW28168   5.057   6.051   4.987
 9090SOL    HW128169   5.032   6.098   4.902
 9090SOL    HW228170   5.065   5.953   4.970
 9091SOL     OW28171   3.129   2.782   0.317
 9091SOL    HW128172   3.086   2.699   0.282
 9091SOL    HW228173   3.103   2.795   0.413
 9092SOL     OW28174   1.623   0.590   6.189
 9092SOL    HW128175   1.617   0.520   6.117
 9092SOL    HW228176   1.643   0.545   6.277
 9093SOL     OW28177   1.535   6.135   6.611
 9093SOL    HW128178   1.585   6.096   6.535
 9093SOL    HW228179   1.509   6.063   6.675
 9094SOL     OW28180   0.448   5.794   2.693
 9094SOL    HW128181   0.453   5.883   2.648
 9094SOL    HW228182   0.464   5.721   2.627
 9095SOL     OW28183   5.554   3.920   6.621
 9095SOL    HW128184   5.517   4.009   6.597
 9095SOL    HW228185   5.632   3.932   6.684
 9096SOL     OW28186   5.369   3.220   2.471
 9096SOL    HW128187   5.336   3.139   2.422
 9096SOL    HW228188   5.468   3.214   2.483
 9097SOL     OW28189   6.927   3.349   0.146
 9097SOL    HW128190   6.937   3.252   0.165
 9097SOL    HW228191   6.982   3.374   0.066
 9098SOL     OW28192   3.610   3.114   0.880
 9098SOL    HW128193   3.664   3.194   0.905
 9098SOL    HW228194   3.629   3.040   0.945
 9099SOL     OW28195   3.202   3.368   0.647
 9099SOL    HW128196   3.179   3.277   0.614
 9099SOL    HW228197   3.166   3.380   0.739
 9100SOL     OW28198   0.641   2.325   2.152
 9100SOL    HW128199   0.619   2.231   2.177
 9100SOL    HW228200   0.674   2.328   2.058
 9101SOL     OW28201   2.115   3.143   2.574
 9101SOL    HW128202   2.027   3.140   2.622
 9101SOL    HW228203   2.136   3.238   2.549
 9102SOL     OW28204   3.668   6.378   1.919
 9102SOL    HW128205   3.591   6.321   1.890
 9102SOL    HW228206   3.706   6.342   2.004
 9103SOL     OW28207   6.919   3.564   0.374
 9103SOL    HW128208   6.892   3.524   0.286
 9103SOL    HW228209   7.003   3.616   0.363
 9104SOL     OW28210   3.994   6.118   2.253
 9104SOL    HW128211   4.054   6.084   2.325
 9104SOL    HW228212   4.027   6.085   2.164
 9105SOL     OW28213   1.495   0.768   0.017
 9105SOL    HW128214   1.417   0.793   0.075
 9105SOL    HW228215   1.463   0.717   6.963
 9106SOL     OW28216   5.788   3.882   0.191
 9106SOL    HW128217   5.863   3.904   0.128
 9106SOL    HW228218   5.786   3.949   0.265
 9107SOL     OW28219   4.283   0.256   6.222
 9107SOL    HW128220   4.286   0.315   6.141
 9107SOL    HW228221   4.215   0.291   6.286
 9108SOL     OW28222   4.701   4.403   5.889
 9108SOL    HW128223   4.699   4.360   5.979
 9108SOL    HW228224   4.624   4.467   5.881
 9109SOL     OW28225   1.390   2.446   2.777
 9109SOL    HW128226   1.403   2.540   2.746
 9109SOL    HW228227   1.348   2.392   2.704
 9110SOL     OW28228   1.975   4.398   4.189
 9110SOL    HW128229   1.993   4.465   4.261
 9110SOL    HW228230   2.062   4.361   4.156
 9111SOL     OW28231   4.365   3.408   0.362
 9111SOL    HW128232   4.305   3.452   0.296
 9111SOL    HW228233   4.452   3.385   0.318
 9112SOL     OW28234   0.001   4.463   4.680
 9112SOL    HW128235   0.077   4.505   4.729
 9112SOL    HW228236   6.942   4.475   4.733
 9113SOL     OW28237   4.458   6.497   0.656
 9113SOL    HW128238   4.371   6.533   0.689
 9113SOL    HW228239   4.474   6.527   0.562
 9114SOL     OW28240   1.421   5.157   1.952
 9114SOL    HW128241   1.489   5.110   1.895
 9114SOL    HW228242   1.330   5.125   1.929
 9115SOL     OW28243   1.105   5.791   5.243
 9115SOL    HW128244   1.112   5.832   5.334
 9115SOL    HW228245   1.175   5.831   5.183
 9116SOL     OW28246   6.367   1.893   0.612
 9116SOL    HW128247   6.390   1.795   0.607
 9116SOL    HW228248   6.450   1.947   0.597
 9117SOL     OW28249   5.701   2.829   0.054
 9117SOL    HW128250   5.661   2.805   6.991
 9117SOL    HW228251   5.744   2.919   0.048
 9118SOL     OW28252   6.172   5.881   0.641
 9118SOL    HW128253   6.126   5.863   0.728
 9118SOL    HW228254   6.241   5.811   0.625
 9119SOL     OW28255   5.157   1.215   2.720
 9119SOL    HW128256   5.168   1.140   2.784
 9119SOL    HW228257   5.211   1.294   2.751
 9120SOL     OW28258   5.509   3.049   5.807
 9120SOL    HW128259   5.414   3.022   5.817
 9120SOL    HW228260   5.525   3.085   5.715
 9121SOL     OW28261   1.368   2.617   6.752
 9121SOL    HW128262   1.358   2.648   6.658
 9121SOL    HW228263   1.429   2.537   6.754
 9122SOL     OW28264   1.882   3.177   1.792
 9122SOL    HW128265   1.970   3.200   1.835
 9122SOL    HW228266   1.856   3.250   1.729
 9123SOL     OW28267   3.987   0.199   4.527
 9123SOL    HW128268   3.888   0.192   4.518
 9123SOL    HW228269   4.009   0.262   4.601
 9124SOL     OW28270   5.708   6.734   5.649
 9124SOL    HW128271   5.755   6.729   5.561
 9124SOL    HW228272   5.660   6.648   5.666
 9125SOL     OW28273   4.846   3.672   2.660
 9125SOL    HW128274   4.880   3.706   2.747
 9125SOL    HW228275   4.885   3.726   2.585
 9126SOL     OW28276   5.660   2.480   2.142
 9126SOL    HW128277   5.685   2.383   2.154
 9126SOL    HW228278   5.741   2.531   2.114
 9127SOL     OW28279   6.204   0.888   5.643
 9127SOL    HW128280   6.150   0.941   5.577
 9127SOL    HW228281   6.296   0.926   5.650
 9128SOL     OW28282   4.210   1.991   5.051
 9128SOL    HW128283   4.148   1.995   5.129
 9128SOL    HW228284   4.230   2.084   5.019
 9129SOL     OW28285   1.088   2.852   1.349
 9129SOL    HW128286   1.151   2.927   1.372
 9129SOL    HW228287   1.129   2.765   1.375
 9130SOL     OW28288   6.936   3.305   0.492
 9130SOL    HW128289   6.861   3.253   0.451
 9130SOL    HW228290   6.941   3.396   0.449
 9131SOL     OW28291   0.315   3.746   5.983
 9131SOL    HW128292   0.365   3.820   5.938
 9131SOL    HW228293   0.372   3.664   5.986
 9132SOL     OW28294   0.490   4.887   4.693
 9132SOL    HW128295   0.478   4.806   4.635
 9132SOL    HW228296   0.549   4.952   4.646
 9133SOL     OW28297   3.088   5.975   1.382
 9133SOL    HW128298   3.105   6.012   1.474
 9133SOL    HW228299   3.173   5.934   1.347
 9134SOL     OW28300   3.438   5.972   0.125
 9134SOL    HW128301   3.423   5.933   0.216
 9134SOL    HW228302   3.507   6.044   0.131
 9135SOL     OW28303   6.479   6.365   2.136
 9135SOL    HW128304   6.534   6.363   2.053
 9135SOL    HW228305   6.537   6.346   2.215
 9136SOL     OW28306   5.377   4.958   5.609
 9136SOL    HW128307   5.454   4.958   5.546
 9136SOL    HW228308   5.350   5.052   5.629
 9137SOL     OW28309   5.004   2.027   1.298
 9137SOL    HW128310   4.945   2.069   1.230
 9137SOL    HW228311   4.960   1.945   1.335
 9138SOL     OW28312   6.325   5.211   5.462
 9138SOL    HW128313   6.236   5.169   5.446
 9138SOL    HW228314   6.362   5.245   5.375
 9139SOL     OW28315   2.276   1.786   4.613
 9139SOL    HW128316   2.361   1.742   4.641
 9139SOL    HW228317   2.239   1.740   4.532
 9140SOL     OW28318   6.166   3.111   2.524
 9140SOL    HW128319   6.238   3.103   2.594
 9140SOL    HW228320   6.077   3.099   2.567
 9141SOL     OW28321   5.690   0.560   6.596
 9141SOL    HW128322   5.694   0.460   6.600
 9141SOL    HW228323   5.596   0.590   6.581
 9142SOL     OW28324   0.519   2.379   0.347
 9142SOL    HW128325   0.526   2.476   0.325
 9142SOL    HW228326   0.423   2.355   0.358
 9143SOL     OW28327   5.125   3.192   1.242
 9143SOL    HW128328   5.126   3.218   1.146
 9143SOL    HW228329   5.129   3.274   1.299
 9144SOL     OW28330   2.602   5.478   5.368
 9144SOL    HW128331   2.520   5.460   5.313
 9144SOL    HW228332   2.584   5.454   5.463
 9145SOL     OW28333   6.413   5.421   7.002
 9145SOL    HW128334   6.508   5.415   0.006
 9145SOL    HW228335   6.353   5.392   0.051
 9146SOL     OW28336   5.466   2.549   2.833
 9146SOL    HW128337   5.541   2.483   2.831
 9146SOL    HW228338   5.405   2.534   2.755
 9147SOL     OW28339   5.829   0.414   3.767
 9147SOL    HW128340   5.907   0.362   3.801
 9147SOL    HW228341   5.800   0.377   3.678
 9148SOL     OW28342   4.782   6.470   0.605
 9148SOL    HW128343   4.686   6.495   0.615
 9148SOL    HW228344   4.816   6.504   0.517
 9149SOL     OW28345   5.166   3.163   3.364
 9149SOL    HW128346   5.206   3.074   3.344
 9149SOL    HW228347   5.232   3.219   3.416
 9150SOL     OW28348   3.094   5.490   2.590
 9150SOL    HW128349   3.003   5.497   2.549
 9150SOL    HW228350   3.132   5.399   2.571
 9151SOL     OW28351   1.447   4.475   3.783
 9151SOL    HW128352   1.443   4.519   3.693
 9151SOL    HW228353   1.491   4.537   3.847
 9152SOL     OW28354   2.393   4.628   4.933
 9152SOL    HW128355   2.434   4.556   4.990
 9152SOL    HW228356   2.446   4.712   4.943
 9153SOL     OW28357   1.090   2.985   1.089
 9153SOL    HW128358   1.088   2.940   1.179
 9153SOL    HW228359   1.095   3.084   1.102
 9154SOL     OW28360   4.592   5.176   6.263
 9154SOL    HW128361   4.667   5.196   6.326
 9154SOL    HW228362   4.624   5.113   6.193
 9155SOL     OW28363   1.153   3.192   1.453
 9155SOL    HW128364   1.084   3.244   1.403
 9155SOL    HW228365   1.217   3.150   1.389
 9156SOL     OW28366   1.508   2.645   0.690
 9156SOL    HW128367   1.420   2.640   0.644
 9156SOL    HW228368   1.497   2.689   0.779
 9157SOL     OW28369   6.243   4.594   6.695
 9157SOL    HW128370   6.235   4.503   6.734
 9157SOL    HW228371   6.339   4.613   6.673
 9158SOL     OW28372   5.740   3.680   4.339
 9158SOL    HW128373   5.666   3.747   4.350
 9158SOL    HW228374   5.714   3.610   4.273
 9159SOL     OW28375   1.499   0.265   2.707
 9159SOL    HW128376   1.596   0.244   2.726
 9159SOL    HW228377   1.490   0.361   2.681
 9160SOL     OW28378   6.207   0.550   4.974
 9160SOL    HW128379   6.128   0.531   4.916
 9160SOL    HW228380   6.291   0.545   4.920
 9161SOL     OW28381   4.679   4.409   4.922
 9161SOL    HW128382   4.693   4.506   4.942
 9161SOL    HW228383   4.733   4.383   4.842
 9162SOL     OW28384   4.890   0.909   4.548
 9162SOL    HW128385   4.798   0.902   4.589
 9162SOL    HW228386   4.882   0.903   4.449
 9163SOL     OW28387   1.903   3.306   4.488
 9163SOL    HW128388   1.878   3.210   4.497
 9163SOL    HW228389   1.890   3.352   4.576
 9164SOL     OW28390   2.545   0.977   6.736
 9164SOL    HW128391   2.526   1.075   6.746
 9164SOL    HW228392   2.633   0.965   6.690
 9165SOL     OW28393   5.660   1.890   4.981
 9165SOL    HW128394   5.745   1.850   5.016
 9165SOL    HW228395   5.585   1.825   4.994
 9166SOL     OW28396   4.090   6.173   0.992
 9166SOL    HW128397   4.105   6.235   1.069
 9166SOL    HW228398   4.010   6.116   1.011
 9167SOL     OW28399   2.258   2.770   6.811
 9167SOL    HW128400   2.341   2.815   6.843
 9167SOL    HW228401   2.268   2.746   6.715
 9168SOL     OW28402   0.237   0.523   6.614
 9168SOL    HW128403   0.315   0.504   6.673
 9168SOL    HW228404   0.261   0.504   6.519
 9169SOL     OW28405   6.295   1.536   4.979
 9169SOL    HW128406   6.354   1.590   5.039
 9169SOL    HW228407   6.227   1.487   5.034
 9170SOL     OW28408   1.239   5.230   7.002
 9170SOL    HW128409   1.205   5.315   6.962
 9170SOL    HW228410   1.331   5.245   0.013
 9171SOL     OW28411   4.044   5.369   0.653
 9171SOL    HW128412   4.024   5.326   0.741
 9171SOL    HW228413   4.106   5.310   0.601
 9172SOL     OW28414   3.322   0.584   4.203
 9172SOL    HW128415   3.360   0.621   4.119
 9172SOL    HW228416   3.377   0.615   4.281
 9173SOL     OW28417   6.432   3.663   4.883
 9173SOL    HW128418   6.410   3.568   4.861
 9173SOL    HW228419   6.513   3.665   4.942
 9174SOL     OW28420   5.816   4.007   1.894
 9174SOL    HW128421   5.907   4.044   1.914
 9174SOL    HW228422   5.774   4.060   1.820
 9175SOL     OW28423   0.419   0.131   4.602
 9175SOL    HW128424   0.319   0.121   4.595
 9175SOL    HW228425   0.462   0.077   4.530
 9176SOL     OW28426   2.901   1.205   5.308
 9176SOL    HW128427   2.985   1.192   5.362
 9176SOL    HW228428   2.864   1.116   5.283
 9177SOL     OW28429   0.398   5.017   4.942
 9177SOL    HW128430   0.360   5.097   4.987
 9177SOL    HW228431   0.451   5.046   4.862
 9178SOL     OW28432   1.862   5.490   0.480
 9178SOL    HW128433   1.848   5.466   0.384
 9178SOL    HW228434   1.885   5.587   0.487
 9179SOL     OW28435   3.005   5.410   4.677
 9179SOL    HW128436   3.038   5.316   4.671
 9179SOL    HW228437   3.005   5.440   4.773
 9180SOL     OW28438   6.182   2.469   3.017
 9180SOL    HW128439   6.261   2.436   3.069
 9180SOL    HW228440   6.204   2.469   2.920
 9181SOL     OW28441   4.308   2.129   4.638
 9181SOL    HW128442   4.294   2.195   4.564
 9181SOL    HW228443   4.229   2.128   4.698
 9182SOL     OW28444   2.151   6.983   2.290
 9182SOL    HW128445   2.235   6.973   2.236
 9182SOL    HW228446   2.134   6.899   2.341
 9183SOL     OW28447   4.897   5.756   0.846
 9183SOL    HW128448   4.971   5.806   0.800
 9183SOL    HW228449   4.825   5.821   0.873
 9184SOL     OW28450   4.928   1.700   0.681
 9184SOL    HW128451   5.008   1.750   0.714
 9184SOL    HW228452   4.948   1.658   0.593
 9185SOL     OW28453   4.285   6.779   4.511
 9185SOL    HW128454   4.223   6.832   4.452
 9185SOL    HW228455   4.232   6.732   4.581
 9186SOL     OW28456   6.048   6.297   4.469
 9186SOL    HW128457   6.125   6.360   4.459
 9186SOL    HW228458   6.083   6.205   4.486
 9187SOL     OW28459   2.753   1.639   0.807
 9187SOL    HW128460   2.797   1.579   0.873
 9187SOL    HW228461   2.724   1.586   0.727
 9188SOL     OW28462   1.309   6.758   1.426
 9188SOL    HW128463   1.333   6.842   1.476
 9188SOL    HW228464   1.384   6.734   1.364
 9189SOL     OW28465   4.663   6.096   1.711
 9189SOL    HW128466   4.746   6.092   1.656
 9189SOL    HW228467   4.583   6.075   1.654
 9190SOL     OW28468   2.731   4.627   6.115
 9190SOL    HW128469   2.664   4.583   6.174
 9190SOL    HW228470   2.699   4.719   6.091
 9191SOL     OW28471   6.742   2.614   5.305
 9191SOL    HW128472   6.825   2.598   5.252
 9191SOL    HW228473   6.662   2.596   5.247
 9192SOL     OW28474   0.887   3.332   6.367
 9192SOL    HW128475   0.865   3.359   6.461
 9192SOL    HW228476   0.828   3.381   6.303
 9193SOL     OW28477   4.816   4.267   6.833
 9193SOL    HW128478   4.842   4.354   6.791
 9193SOL    HW228479   4.894   4.232   6.886
 9194SOL     OW28480   2.901   0.521   3.698
 9194SOL    HW128481   2.895   0.428   3.662
 9194SOL    HW228482   2.846   0.583   3.642
 9195SOL     OW28483   1.846   1.519   3.623
 9195SOL    HW128484   1.841   1.591   3.693
 9195SOL    HW228485   1.923   1.539   3.561
 9196SOL     OW28486   4.576   6.895   2.737
 9196SOL    HW128487   4.486   6.934   2.755
 9196SOL    HW228488   4.616   6.862   2.822
 9197SOL     OW28489   1.603   5.086   1.733
 9197SOL    HW128490   1.693   5.101   1.692
 9197SOL    HW228491   1.536   5.145   1.688
 9198SOL     OW28492   6.648   4.840   6.807
 9198SOL    HW128493   6.550   4.832   6.825
 9198SOL    HW228494   6.666   4.925   6.758
 9199SOL     OW28495   0.987   4.465   6.141
 9199SOL    HW128496   1.054   4.422   6.202
 9199SOL    HW228497   0.991   4.564   6.151
 9200SOL     OW28498   2.684   6.839   6.973
 9200SOL    HW128499   2.748   6.795   6.910
 9200SOL    HW228500   2.712   6.822   0.041
 9201SOL     OW28501   0.385   2.588   0.839
 9201SOL    HW128502   0.335   2.501   0.840
 9201SOL    HW228503   0.480   2.571   0.815
 9202SOL     OW28504   1.143   6.983   2.338
 9202SOL    HW128505   1.171   6.954   2.247
 9202SOL    HW228506   1.071   6.921   2.372
 9203SOL     OW28507   0.944   4.006   6.651
 9203SOL    HW128508   0.904   3.915   6.662
 9203SOL    HW228509   1.028   3.999   6.597
 9204SOL     OW28510   4.890   2.743   6.061
 9204SOL    HW128511   4.854   2.651   6.044
 9204SOL    HW228512   4.825   2.811   6.029
 9205SOL     OW28513   6.125   4.732   3.103
 9205SOL    HW128514   6.216   4.691   3.094
 9205SOL    HW228515   6.134   4.824   3.142
 9206SOL     OW28516   3.758   5.490   2.778
 9206SOL    HW128517   3.832   5.468   2.843
 9206SOL    HW228518   3.762   5.588   2.755
 9207SOL     OW28519   5.183   4.161   6.259
 9207SOL    HW128520   5.177   4.063   6.240
 9207SOL    HW228521   5.095   4.195   6.292
 9208SOL     OW28522   5.913   4.270   4.011
 9208SOL    HW128523   5.936   4.367   4.022
 9208SOL    HW228524   5.894   4.251   3.915
 9209SOL     OW28525   3.890   0.436   6.722
 9209SOL    HW128526   3.980   0.429   6.766
 9209SOL    HW228527   3.879   0.528   6.684
 9210SOL     OW28528   0.090   0.850   2.927
 9210SOL    HW128529   0.086   0.750   2.926
 9210SOL    HW228530   0.050   0.886   2.842
 9211SOL     OW28531   0.562   2.464   5.885
 9211SOL    HW128532   0.484   2.439   5.941
 9211SOL    HW228533   0.627   2.516   5.940
 9212SOL     OW28534   5.291   5.388   4.127
 9212SOL    HW128535   5.347   5.444   4.187
 9212SOL    HW228536   5.321   5.400   4.032
 9213SOL     OW28537   5.045   3.623   5.717
 9213SOL    HW128538   5.046   3.561   5.795
 9213SOL    HW228539   5.135   3.666   5.707
 9214SOL     OW28540   6.698   3.416   6.884
 9214SOL    HW128541   6.705   3.429   6.983
 9214SOL    HW228542   6.741   3.493   6.837
 9215SOL     OW28543   0.961   2.300   1.463
 9215SOL    HW128544   0.874   2.331   1.500
 9215SOL    HW228545   0.949   2.272   1.368
 9216SOL     OW28546   2.861   0.526   2.097
 9216SOL    HW128547   2.850   0.616   2.139
 9216SOL    HW228548   2.928   0.473   2.149
 9217SOL     OW28549   0.776   2.464   0.013
 9217SOL    HW128550   0.692   2.494   6.992
 9217SOL    HW228551   0.760   2.376   0.057
 9218SOL     OW28552   2.005   0.107   0.602
 9218SOL    HW128553   2.030   0.196   0.564
 9218SOL    HW228554   1.953   0.055   0.533
 9219SOL     OW28555   6.517   2.870   1.376
 9219SOL    HW128556   6.552   2.951   1.328
 9219SOL    HW228557   6.472   2.810   1.310
 9220SOL     OW28558   1.549   6.647   1.352
 9220SOL    HW128559   1.604   6.579   1.400
 9220SOL    HW228560   1.609   6.714   1.309
 9221SOL     OW28561   3.182   0.813   3.311
 9221SOL    HW128562   3.198   0.721   3.348
 9221SOL    HW228563   3.267   0.864   3.310
 9222SOL     OW28564   2.008   6.757   6.179
 9222SOL    HW128565   1.925   6.702   6.172
 9222SOL    HW228566   2.005   6.811   6.264
 9223SOL     OW28567   0.985   1.204   4.176
 9223SOL    HW128568   1.047   1.245   4.109
 9223SOL    HW228569   0.891   1.230   4.155
 9224SOL     OW28570   1.466   4.596   5.293
 9224SOL    HW128571   1.498   4.509   5.257
 9224SOL    HW228572   1.436   4.655   5.217
 9225SOL     OW28573   3.128   6.647   5.578
 9225SOL    HW128574   3.082   6.558   5.586
 9225SOL    HW228575   3.222   6.633   5.545
 9226SOL     OW28576   6.043   6.603   1.127
 9226SOL    HW128577   6.065   6.600   1.030
 9226SOL    HW228578   6.020   6.696   1.154
 9227SOL     OW28579   0.761   5.356   0.423
 9227SOL    HW128580   0.728   5.449   0.442
 9227SOL    HW228581   0.825   5.359   0.347
 9228SOL     OW28582   1.405   1.555   5.435
 9228SOL    HW128583   1.399   1.457   5.420
 9228SOL    HW228584   1.373   1.604   5.354
 9229SOL     OW28585   0.817   5.649   4.731
 9229SOL    HW128586   0.774   5.710   4.797
 9229SOL    HW228587   0.908   5.623   4.764
 9230SOL     OW28588   4.659   1.572   3.568
 9230SOL    HW128589   4.685   1.649   3.510
 9230SOL    HW228590   4.560   1.556   3.561
 9231SOL     OW28591   0.392   4.276   4.583
 9231SOL    HW128592   0.460   4.203   4.585
 9231SOL    HW228593   0.432   4.361   4.618
 9232SOL     OW28594   3.519   5.244   0.206
 9232SOL    HW128595   3.585   5.281   0.140
 9232SOL    HW228596   3.528   5.144   0.208
 9233SOL     OW28597   5.676   5.460   1.898
 9233SOL    HW128598   5.745   5.508   1.843
 9233SOL    HW228599   5.585   5.477   1.861
 9234SOL     OW28600   3.672   5.759   5.784
 9234SOL    HW128601   3.752   5.792   5.734
 9234SOL    HW228602   3.697   5.741   5.879
 9235SOL     OW28603   1.742   3.115   3.200
 9235SOL    HW128604   1.743   3.182   3.274
 9235SOL    HW228605   1.837   3.095   3.172
 9236SOL     OW28606   2.742   4.129   5.521
 9236SOL    HW128607   2.664   4.066   5.509
 9236SOL    HW228608   2.722   4.215   5.474
 9237SOL     OW28609   2.014   5.718   4.519
 9237SOL    HW128610   1.992   5.660   4.598
 9237SOL    HW228611   2.041   5.808   4.551
 9238SOL     OW28612   3.785   1.608   0.112
 9238SOL    HW128613   3.884   1.621   0.105
 9238SOL    HW228614   3.739   1.697   0.108
 9239SOL     OW28615   6.679   4.547   0.762
 9239SOL    HW128616   6.738   4.515   0.688
 9239SOL    HW228617   6.691   4.646   0.774
 9240SOL     OW28618   4.865   1.479   1.320
 9240SOL    HW128619   4.803   1.540   1.270
 9240SOL    HW228620   4.830   1.466   1.413
 9241SOL     OW28621   0.510   4.660   5.625
 9241SOL    HW128622   0.469   4.623   5.542
 9241SOL    HW228623   0.544   4.753   5.607
 9242SOL     OW28624   0.226   5.349   0.376
 9242SOL    HW128625   0.246   5.408   0.455
 9242SOL    HW228626   0.295   5.363   0.306
 9243SOL     OW28627   5.930   6.387   2.036
 9243SOL    HW128628   6.021   6.348   2.022
 9243SOL    HW228629   5.868   6.355   1.963
 9244SOL     OW28630   4.261   5.435   6.637
 9244SOL    HW128631   4.291   5.528   6.615
 9244SOL    HW228632   4.197   5.403   6.568
 9245SOL     OW28633   1.454   4.932   3.112
 9245SOL    HW128634   1.471   4.989   3.032
 9245SOL    HW228635   1.364   4.953   3.149
 9246SOL     OW28636   0.102   4.825   2.756
 9246SOL    HW128637   0.039   4.902   2.756
 9246SOL    HW228638   0.152   4.823   2.670
 9247SOL     OW28639   1.234   6.911   2.935
 9247SOL    HW128640   1.211   6.824   2.891
 9247SOL    HW228641   1.173   6.927   3.013
 9248SOL     OW28642   1.438   2.459   4.991
 9248SOL    HW128643   1.414   2.555   5.002
 9248SOL    HW228644   1.375   2.402   5.043
 9249SOL     OW28645   4.956   3.955   6.903
 9249SOL    HW128646   4.968   4.045   6.944
 9249SOL    HW228647   4.867   3.918   6.930
 9250SOL     OW28648   5.817   3.138   4.698
 9250SOL    HW128649   5.721   3.131   4.726
 9250SOL    HW228650   5.829   3.220   4.641
 9251SOL     OW28651   4.152   2.293   3.297
 9251SOL    HW128652   4.216   2.362   3.329
 9251SOL    HW228653   4.149   2.294   3.197
 9252SOL     OW28654   5.800   0.195   4.371
 9252SOL    HW128655   5.798   0.149   4.460
 9252SOL    HW228656   5.725   0.162   4.314
 9253SOL     OW28657   6.043   6.350   5.809
 9253SOL    HW128658   5.964   6.382   5.756
 9253SOL    HW228659   6.031   6.253   5.831
 9254SOL     OW28660   6.085   4.551   2.867
 9254SOL    HW128661   6.049   4.459   2.850
 9254SOL    HW228662   6.072   4.574   2.963
 9255SOL     OW28663   4.777   4.331   0.624
 9255SOL    HW128664   4.685   4.338   0.663
 9255SOL    HW228665   4.845   4.354   0.693
 9256SOL     OW28666   4.309   6.549   2.645
 9256SOL    HW128667   4.271   6.573   2.734
 9256SOL    HW228668   4.235   6.536   2.580
 9257SOL     OW28669   0.825   3.965   3.067
 9257SOL    HW128670   0.880   3.882   3.078
 9257SOL    HW228671   0.857   4.017   2.988
 9258SOL     OW28672   2.941   3.414   3.876
 9258SOL    HW128673   2.910   3.465   3.956
 9258SOL    HW228674   2.897   3.324   3.875
 9259SOL     OW28675   1.264   2.423   0.428
 9259SOL    HW128676   1.181   2.426   0.371
 9259SOL    HW228677   1.276   2.512   0.472
 9260SOL     OW28678   5.081   1.595   5.615
 9260SOL    HW128679   5.083   1.676   5.556
 9260SOL    HW228680   5.174   1.575   5.648
 9261SOL     OW28681   4.488   0.567   6.189
 9261SOL    HW128682   4.434   0.584   6.107
 9261SOL    HW228683   4.428   0.542   6.265
 9262SOL     OW28684   6.974   3.261   5.697
 9262SOL    HW128685   6.876   3.276   5.682
 9262SOL    HW228686   6.996   3.165   5.682
 9263SOL     OW28687   6.014   5.367   1.726
 9263SOL    HW128688   5.954   5.446   1.730
 9263SOL    HW228689   6.015   5.329   1.634
 9264SOL     OW28690   5.759   4.256   0.190
 9264SOL    HW128691   5.745   4.212   0.278
 9264SOL    HW228692   5.671   4.264   0.142
 9265SOL     OW28693   3.246   1.778   6.765
 9265SOL    HW128694   3.252   1.698   6.705
 9265SOL    HW228695   3.231   1.860   6.710
 9266SOL     OW28696   1.929   6.696   2.171
 9266SOL    HW128697   1.863   6.743   2.230
 9266SOL    HW228698   1.951   6.607   2.209
 9267SOL     OW28699   0.610   3.692   5.794
 9267SOL    HW128700   0.650   3.773   5.837
 9267SOL    HW228701   0.538   3.721   5.731
 9268SOL     OW28702   1.442   4.870   1.487
 9268SOL    HW128703   1.494   4.828   1.562
 9268SOL    HW228704   1.361   4.815   1.467
 9269SOL     OW28705   3.283   1.720   6.052
 9269SOL    HW128706   3.239   1.644   6.004
 9269SOL    HW228707   3.229   1.745   6.132
 9270SOL     OW28708   4.902   6.718   6.152
 9270SOL    HW128709   4.861   6.809   6.147
 9270SOL    HW228710   4.960   6.712   6.233
 9271SOL     OW28711   1.400   5.951   6.807
 9271SOL    HW128712   1.448   5.931   6.892
 9271SOL    HW228713   1.303   5.969   6.826
 9272SOL     OW28714   1.794   5.291   5.545
 9272SOL    HW128715   1.755   5.259   5.459
 9272SOL    HW228716   1.784   5.391   5.551
 9273SOL     OW28717   5.435   5.843   3.755
 9273SOL    HW128718   5.445   5.864   3.852
 9273SOL    HW228719   5.339   5.827   3.733
 9274SOL     OW28720   6.693   2.496   0.403
 9274SOL    HW128721   6.651   2.409   0.380
 9274SOL    HW228722   6.792   2.489   0.389
 9275SOL     OW28723   7.006   2.174   0.202
 9275SOL    HW128724   0.028   2.256   0.168
 9275SOL    HW228725   0.042   2.122   0.261
 9276SOL     OW28726   1.946   4.418   2.589
 9276SOL    HW128727   2.003   4.351   2.636
 9276SOL    HW228728   1.956   4.406   2.490
 9277SOL     OW28729   5.528   2.884   0.523
 9277SOL    HW128730   5.568   2.846   0.606
 9277SOL    HW228731   5.488   2.810   0.468
 9278SOL     OW28732   1.459   0.190   5.304
 9278SOL    HW128733   1.466   0.207   5.205
 9278SOL    HW228734   1.379   0.239   5.340
 9279SOL     OW28735   4.640   0.567   1.955
 9279SOL    HW128736   4.634   0.626   1.874
 9279SOL    HW228737   4.734   0.566   1.989
 9280SOL     OW28738   1.506   1.225   2.591
 9280SOL    HW128739   1.508   1.319   2.557
 9280SOL    HW228740   1.442   1.171   2.535
 9281SOL     OW28741   3.021   4.623   0.918
 9281SOL    HW128742   2.957   4.694   0.887
 9281SOL    HW228743   3.047   4.641   1.013
 9282SOL     OW28744   5.129   1.446   5.217
 9282SOL    HW128745   5.178   1.498   5.287
 9282SOL    HW228746   5.032   1.444   5.239
 9283SOL     OW28747   5.742   0.339   3.511
 9283SOL    HW128748   5.812   0.337   3.440
 9283SOL    HW228749   5.688   0.254   3.507
 9284SOL     OW28750   3.109   4.759   5.738
 9284SOL    HW128751   3.118   4.741   5.836
 9284SOL    HW228752   3.152   4.846   5.716
 9285SOL     OW28753   5.396   2.691   1.310
 9285SOL    HW128754   5.399   2.604   1.261
 9285SOL    HW228755   5.325   2.687   1.381
 9286SOL     OW28756   5.293   6.780   6.559
 9286SOL    HW128757   5.375   6.746   6.606
 9286SOL    HW228758   5.294   6.880   6.559
 9287SOL     OW28759   3.252   5.413   6.963
 9287SOL    HW128760   3.270   5.319   6.933
 9287SOL    HW228761   3.337   5.465   6.958
 9288SOL     OW28762   3.935   1.458   3.963
 9288SOL    HW128763   3.921   1.396   4.040
 9288SOL    HW228764   4.019   1.435   3.916
 9289SOL     OW28765   3.388   1.841   2.570
 9289SOL    HW128766   3.389   1.893   2.485
 9289SOL    HW228767   3.481   1.812   2.592
 9290SOL     OW28768   4.717   1.605   3.836
 9290SOL    HW128769   4.625   1.589   3.872
 9290SOL    HW228770   4.710   1.630   3.739
 9291SOL     OW28771   2.241   0.004   4.234
 9291SOL    HW128772   2.188   6.981   4.303
 9291SOL    HW228773   2.292   0.078   4.278
 9292SOL     OW28774   0.815   3.385   6.649
 9292SOL    HW128775   0.880   3.395   6.724
 9292SOL    HW228776   0.763   3.470   6.639
 9293SOL     OW28777   5.842   4.217   6.924
 9293SOL    HW128778   5.884   4.307   6.933
 9293SOL    HW228779   5.851   4.167   7.010
 9294SOL     OW28780   3.380   6.798   4.967
 9294SOL    HW128781   3.395   6.832   4.874
 9294SOL    HW228782   3.282   6.803   4.988
 9295SOL     OW28783   5.348   2.539   4.623
 9295SOL    HW128784   5.309   2.477   4.554
 9295SOL    HW228785   5.364   2.628   4.583
 9296SOL     OW28786   0.664   6.755   6.392
 9296SOL    HW128787   0.650   6.844   6.350
 9296SOL    HW228788   0.748   6.714   6.354
 9297SOL     OW28789   6.158   1.123   0.591
 9297SOL    HW128790   6.125   1.167   0.674
 9297SOL    HW228791   6.101   1.151   0.514
 9298SOL     OW28792   1.833   0.448   4.594
 9298SOL    HW128793   1.749   0.479   4.550
 9298SOL    HW228794   1.910   0.504   4.562
 9299SOL     OW28795   0.494   2.318   4.252
 9299SOL    HW128796   0.442   2.251   4.200
 9299SOL    HW228797   0.555   2.271   4.316
 9300SOL     OW28798   0.916   4.416   5.645
 9300SOL    HW128799   0.817   4.406   5.648
 9300SOL    HW228800   0.948   4.404   5.551
 9301SOL     OW28801   5.145   4.185   3.602
 9301SOL    HW128802   5.064   4.240   3.619
 9301SOL    HW228803   5.181   4.206   3.511
 9302SOL     OW28804   2.178   2.965   4.555
 9302SOL    HW128805   2.129   3.052   4.553
 9302SOL    HW228806   2.242   2.964   4.632
 9303SOL     OW28807   4.012   5.823   0.417
 9303SOL    HW128808   3.944   5.863   0.478
 9303SOL    HW228809   4.087   5.786   0.471
 9304SOL     OW28810   4.841   4.522   1.928
 9304SOL    HW128811   4.923   4.475   1.961
 9304SOL    HW228812   4.790   4.461   1.867
 9305SOL     OW28813   3.615   1.356   1.938
 9305SOL    HW128814   3.600   1.258   1.927
 9305SOL    HW228815   3.658   1.373   2.027
 9306SOL     OW28816   0.208   4.519   4.866
 9306SOL    HW128817   0.246   4.608   4.891
 9306SOL    HW228818   0.238   4.450   4.932
 9307SOL     OW28819   1.335   3.714   1.052
 9307SOL    HW128820   1.360   3.625   1.090
 9307SOL    HW228821   1.375   3.786   1.108
 9308SOL     OW28822   1.622   4.124   0.988
 9308SOL    HW128823   1.611   4.049   0.923
 9308SOL    HW228824   1.704   4.110   1.043
 9309SOL     OW28825   3.677   4.872   5.546
 9309SOL    HW128826   3.591   4.830   5.575
 9309SOL    HW228827   3.701   4.839   5.455
 9310SOL     OW28828   4.627   5.533   5.764
 9310SOL    HW128829   4.604   5.623   5.800
 9310SOL    HW228830   4.707   5.497   5.811
 9311SOL     OW28831   4.441   5.218   1.742
 9311SOL    HW128832   4.374   5.222   1.668
 9311SOL    HW228833   4.527   5.182   1.708
 9312SOL     OW28834   1.345   3.045   1.355
 9312SOL    HW128835   1.393   2.990   1.423
 9312SOL    HW228836   1.392   3.040   1.267
 9313SOL     OW28837   0.001   0.530   1.115
 9313SOL    HW128838   6.959   0.604   1.120
 9313SOL    HW228839   0.029   0.517   1.020
 9314SOL     OW28840   4.512   6.124   6.037
 9314SOL    HW128841   4.532   6.222   6.028
 9314SOL    HW228842   4.563   6.073   5.967
 9315SOL     OW28843   6.553   1.008   5.202
 9315SOL    HW128844   6.511   1.000   5.292
 9315SOL    HW228845   6.553   0.918   5.157
 9316SOL     OW28846   4.710   5.935   5.161
 9316SOL    HW128847   4.632   5.991   5.188
 9316SOL    HW228848   4.729   5.946   5.064
 9317SOL     OW28849   6.524   4.843   3.223
 9317SOL    HW128850   6.498   4.929   3.267
 9317SOL    HW228851   6.482   4.767   3.273
 9318SOL     OW28852   6.089   0.455   5.893
 9318SOL    HW128853   6.003   0.491   5.929
 9318SOL    HW228854   6.124   0.517   5.823
 9319SOL     OW28855   1.055   2.971   0.265
 9319SOL    HW128856   0.979   3.034   0.250
 9319SOL    HW228857   1.083   2.931   0.177
 9320SOL     OW28858   3.773   1.274   6.071
 9320SOL    HW128859   3.800   1.186   6.110
 9320SOL    HW228860   3.802   1.279   5.975
 9321SOL     OW28861   5.980   6.914   3.294
 9321SOL    HW128862   5.900   6.856   3.276
 9321SOL    HW228863   6.057   6.883   3.238
 9322SOL     OW28864   1.093   5.032   6.669
 9322SOL    HW128865   1.080   4.935   6.647
 9322SOL    HW228866   1.004   5.075   6.683
 9323SOL     OW28867   1.397   0.483   5.147
 9323SOL    HW128868   1.329   0.545   5.185
 9323SOL    HW228869   1.430   0.520   5.060
 9324SOL     OW28870   1.366   4.837   0.702
 9324SOL    HW128871   1.297   4.906   0.681
 9324SOL    HW228872   1.428   4.872   0.772
 9325SOL     OW28873   4.899   0.861   6.926
 9325SOL    HW128874   4.816   0.824   6.885
 9325SOL    HW228875   4.956   0.786   6.959
 9326SOL     OW28876   2.055   6.659   1.021
 9326SOL    HW128877   2.090   6.667   0.927
 9326SOL    HW228878   2.011   6.745   1.047
 9327SOL     OW28879   5.087   6.751   2.731
 9327SOL    HW128880   5.067   6.819   2.802
 9327SOL    HW228881   5.007   6.740   2.673
 9328SOL     OW28882   3.553   0.540   5.502
 9328SOL    HW128883   3.494   0.469   5.464
 9328SOL    HW228884   3.617   0.572   5.431
 9329SOL     OW28885   6.256   4.059   1.796
 9329SOL    HW128886   6.353   4.053   1.772
 9329SOL    HW228887   6.247   4.102   1.886
 9330SOL     OW28888   6.575   6.666   6.793
 9330SOL    HW128889   6.621   6.611   6.724
 9330SOL    HW228890   6.476   6.656   6.782
 9331SOL     OW28891   1.671   1.024   6.565
 9331SOL    HW128892   1.607   1.013   6.641
 9331SOL    HW228893   1.688   1.121   6.549
 9332SOL     OW28894   4.134   4.097   1.725
 9332SOL    HW128895   4.223   4.132   1.752
 9332SOL    HW228896   4.075   4.089   1.806
 9333SOL     OW28897   4.212   3.938   1.505
 9333SOL    HW128898   4.145   3.913   1.435
 9333SOL    HW228899   4.169   4.000   1.571
 9334SOL     OW28900   5.284   5.592   3.944
 9334SOL    HW128901   5.189   5.620   3.961
 9334SOL    HW228902   5.338   5.609   4.026
 9335SOL     OW28903   0.795   1.348   5.973
 9335SOL    HW128904   0.773   1.423   6.036
 9335SOL    HW228905   0.785   1.261   6.020
 9336SOL     OW28906   2.501   5.145   5.511
 9336SOL    HW128907   2.478   5.051   5.486
 9336SOL    HW228908   2.420   5.190   5.549
 9337SOL     OW28909   5.278   1.660   3.981
 9337SOL    HW128910   5.248   1.753   3.958
 9337SOL    HW228911   5.338   1.626   3.908
 9338SOL     OW28912   4.188   0.337   1.943
 9338SOL    HW128913   4.203   0.387   1.858
 9338SOL    HW228914   4.091   0.342   1.967
 9339SOL     OW28915   5.682   0.174   1.523
 9339SOL    HW128916   5.597   0.215   1.556
 9339SOL    HW228917   5.752   0.245   1.514
 9340SOL     OW28918   5.357   3.584   4.153
 9340SOL    HW128919   5.358   3.684   4.143
 9340SOL    HW228920   5.450   3.548   4.145
 9341SOL     OW28921   7.022   5.982   0.598
 9341SOL    HW128922   0.033   5.996   0.506
 9341SOL    HW228923   0.048   5.909   0.643
 9342SOL     OW28924   1.464   6.967   3.609
 9342SOL    HW128925   1.538   6.921   3.659
 9342SOL    HW228926   1.378   6.956   3.659
 9343SOL     OW28927   6.054   4.155   2.628
 9343SOL    HW128928   6.001   4.071   2.613
 9343SOL    HW228929   6.001   4.233   2.595
 9344SOL     OW28930   4.636   6.302   2.166
 9344SOL    HW128931   4.632   6.401   2.152
 9344SOL    HW228932   4.732   6.272   2.161
 9345SOL     OW28933   6.583   4.186   2.457
 9345SOL    HW128934   6.488   4.162   2.477
 9345SOL    HW228935   6.586   4.269   2.402
 9346SOL     OW28936   6.216   0.894   1.200
 9346SOL    HW128937   6.138   0.836   1.177
 9346SOL    HW228938   6.203   0.931   1.292
 9347SOL     OW28939   1.046   3.880   0.479
 9347SOL    HW128940   0.966   3.888   0.420
 9347SOL    HW228941   1.129   3.898   0.426
 9348SOL     OW28942   3.684   6.021   2.170
 9348SOL    HW128943   3.709   6.113   2.198
 9348SOL    HW228944   3.688   6.014   2.070
 9349SOL     OW28945   0.831   6.412   2.870
 9349SOL    HW128946   0.761   6.404   2.799
 9349SOL    HW228947   0.824   6.335   2.932
 9350SOL     OW28948   7.018   3.531   5.500
 9350SOL    HW128949   0.037   3.533   5.410
 9350SOL    HW228950   0.050   3.480   5.563
 9351SOL     OW28951   2.659   0.536   6.787
 9351SOL    HW128952   2.584   0.594   6.756
 9351SOL    HW228953   2.724   0.523   6.713
 9352SOL     OW28954   3.329   2.112   6.823
 9352SOL    HW128955   3.314   2.191   6.762
 9352SOL    HW228956   3.390   2.047   6.777
 9353SOL     OW28957   0.269   4.718   0.770
 9353SOL    HW128958   0.313   4.807   0.784
 9353SOL    HW228959   0.288   4.686   0.677
 9354SOL     OW28960   6.563   1.930   6.273
 9354SOL    HW128961   6.499   1.856   6.251
 9354SOL    HW228962   6.531   2.015   6.231
 9355SOL     OW28963   0.486   2.321   4.718
 9355SOL    HW128964   0.497   2.387   4.644
 9355SOL    HW228965   0.575   2.300   4.759
 9356SOL     OW28966   4.646   0.419   2.209
 9356SOL    HW128967   4.567   0.363   2.186
 9356SOL    HW228968   4.629   0.514   2.183
 9357SOL     OW28969   1.342   3.452   6.288
 9357SOL    HW128970   1.314   3.394   6.212
 9357SOL    HW228971   1.322   3.406   6.374
 9358SOL     OW28972   0.134   4.065   2.536
 9358SOL    HW128973   0.076   4.143   2.517
 9358SOL    HW228974   0.096   4.012   2.612
 9359SOL     OW28975   1.341   4.570   0.143
 9359SOL    HW128976   1.375   4.662   0.122
 9359SOL    HW228977   1.411   4.503   0.121
 9360SOL     OW28978   1.791   5.239   6.366
 9360SOL    HW128979   1.792   5.205   6.272
 9360SOL    HW228980   1.831   5.331   6.368
 9361SOL     OW28981   1.493   4.640   3.490
 9361SOL    HW128982   1.403   4.624   3.529
 9361SOL    HW228983   1.503   4.738   3.468
 9362SOL     OW28984   0.688   1.076   2.716
 9362SOL    HW128985   0.589   1.062   2.709
 9362SOL    HW228986   0.720   1.123   2.633
 9363SOL     OW28987   3.508   5.203   1.896
 9363SOL    HW128988   3.431   5.238   1.843
 9363SOL    HW228989   3.536   5.272   1.964
 9364SOL     OW28990   2.334   2.352   6.880
 9364SOL    HW128991   2.357   2.418   6.952
 9364SOL    HW228992   2.406   2.283   6.874
 9365SOL     OW28993   3.087   1.714   3.541
 9365SOL    HW128994   3.047   1.790   3.592
 9365SOL    HW228995   3.072   1.629   3.592
 9366SOL     OW28996   3.126   5.392   0.191
 9366SOL    HW128997   3.171   5.413   0.105
 9366SOL    HW228998   3.165   5.309   0.230
 9367SOL     OW28999   6.388   0.165   1.360
 9367SOL    HW129000   6.369   0.068   1.345
 9367SOL    HW229001   6.328   0.220   1.302
 9368SOL     OW29002   3.483   6.613   2.080
 9368SOL    HW129003   3.552   6.542   2.080
 9368SOL    HW229004   3.500   6.678   2.005
 9369SOL     OW29005   6.962   6.534   4.416
 9369SOL    HW129006   6.940   6.604   4.349
 9369SOL    HW229007   7.013   6.460   4.373
 9370SOL     OW29008   5.372   6.890   4.023
 9370SOL    HW129009   5.387   6.939   4.110
 9370SOL    HW229010   5.460   6.861   3.986
 9371SOL     OW29011   2.585   5.932   0.682
 9371SOL    HW129012   2.637   5.955   0.764
 9371SOL    HW229013   2.626   5.977   0.603
 9372SOL     OW29014   5.266   0.209   1.534
 9372SOL    HW129015   5.328   0.285   1.551
 9372SOL    HW229016   5.250   0.159   1.618
 9373SOL     OW29017   5.463   2.190   0.740
 9373SOL    HW129018   5.426   2.124   0.805
 9373SOL    HW229019   5.448   2.283   0.775
 9374SOL     OW29020   0.083   3.426   5.851
 9374SOL    HW129021   0.030   3.372   5.786
 9374SOL    HW229022   0.023   3.457   5.925
 9375SOL     OW29023   6.945   1.485   0.670
 9375SOL    HW129024   7.024   1.531   0.712
 9375SOL    HW229025   6.962   1.387   0.667
 9376SOL     OW29026   2.489   3.900   1.717
 9376SOL    HW129027   2.428   3.927   1.791
 9376SOL    HW229028   2.448   3.925   1.629
 9377SOL     OW29029   1.752   4.866   3.160
 9377SOL    HW129030   1.672   4.875   3.100
 9377SOL    HW229031   1.760   4.948   3.216
 9378SOL     OW29032   3.598   0.984   3.774
 9378SOL    HW129033   3.590   0.896   3.727
 9378SOL    HW229034   3.519   0.997   3.833
 9379SOL     OW29035   5.295   0.031   4.664
 9379SOL    HW129036   5.221   0.089   4.699
 9379SOL    HW229037   5.256   6.984   4.607
 9380SOL     OW29038   3.377   5.709   5.818
 9380SOL    HW129039   3.470   5.745   5.829
 9380SOL    HW229040   3.363   5.682   5.723
 9381SOL     OW29041   5.284   2.973   5.341
 9381SOL    HW129042   5.303   2.921   5.425
 9381SOL    HW229043   5.337   3.057   5.341
 9382SOL     OW29044   3.855   1.053   3.920
 9382SOL    HW129045   3.761   1.056   3.887
 9382SOL    HW229046   3.917   1.080   3.847
 9383SOL     OW29047   4.989   4.369   4.619
 9383SOL    HW129048   4.974   4.435   4.546
 9383SOL    HW229049   4.903   4.323   4.640
 9384SOL     OW29050   3.578   6.787   1.894
 9384SOL    HW129051   3.672   6.785   1.860
 9384SOL    HW229052   3.526   6.855   1.843
 9385SOL     OW29053   4.546   1.577   4.428
 9385SOL    HW129054   4.587   1.503   4.482
 9385SOL    HW229055   4.575   1.569   4.333
 9386SOL     OW29056   2.990   5.676   5.146
 9386SOL    HW129057   3.086   5.703   5.149
 9386SOL    HW229058   2.965   5.631   5.232
 9387SOL     OW29059   3.258   2.225   0.546
 9387SOL    HW129060   3.177   2.167   0.533
 9387SOL    HW229061   3.230   2.321   0.541
 9388SOL     OW29062   1.796   6.516   3.021
 9388SOL    HW129063   1.747   6.429   3.024
 9388SOL    HW229064   1.737   6.588   3.059
 9389SOL     OW29065   3.580   6.118   3.077
 9389SOL    HW129066   3.487   6.086   3.094
 9389SOL    HW229067   3.597   6.203   3.126
 9390SOL     OW29068   6.038   5.138   5.858
 9390SOL    HW129069   5.995   5.157   5.770
 9390SOL    HW229070   6.082   5.221   5.893
 9391SOL     OW29071   0.376   0.857   4.944
 9391SOL    HW129072   0.452   0.874   4.882
 9391SOL    HW229073   0.326   0.942   4.961
 9392SOL     OW29074   4.678   4.199   3.769
 9392SOL    HW129075   4.704   4.118   3.716
 9392SOL    HW229076   4.706   4.188   3.864
 9393SOL     OW29077   3.051   0.082   5.871
 9393SOL    HW129078   3.096   7.022   5.846
 9393SOL    HW229079   2.961   0.061   5.910
 9394SOL     OW29080   5.819   0.596   1.304
 9394SOL    HW129081   5.834   0.550   1.216
 9394SOL    HW229082   5.721   0.612   1.316
 9395SOL     OW29083   2.488   1.242   0.663
 9395SOL    HW129084   2.558   1.196   0.608
 9395SOL    HW229085   2.507   1.227   0.760
 9396SOL     OW29086   2.188   4.599   5.229
 9396SOL    HW129087   2.176   4.600   5.328
 9396SOL    HW229088   2.111   4.552   5.187
 9397SOL     OW29089   2.945   6.822   5.470
 9397SOL    HW129090   3.019   6.769   5.509
 9397SOL    HW229091   2.979   6.912   5.441
 9398SOL     OW29092   5.956   1.548   5.805
 9398SOL    HW129093   5.903   1.465   5.823
 9398SOL    HW229094   6.013   1.534   5.724
 9399SOL     OW29095   1.050   2.466   4.032
 9399SOL    HW129096   1.125   2.507   4.083
 9399SOL    HW229097   0.963   2.503   4.064
 9400SOL     OW29098   4.836   0.317   0.250
 9400SOL    HW129099   4.863   0.333   0.156
 9400SOL    HW229100   4.741   0.284   0.253
 9401SOL     OW29101   0.267   2.481   1.704
 9401SOL    HW129102   0.274   2.535   1.788
 9401SOL    HW229103   0.211   2.400   1.721
 9402SOL     OW29104   1.132   4.482   3.367
 9402SOL    HW129105   1.054   4.420   3.356
 9402SOL    HW229106   1.217   4.429   3.371
 9403SOL     OW29107   0.009   1.541   2.364
 9403SOL    HW129108   0.073   1.476   2.405
 9403SOL    HW229109   0.060   1.614   2.319
 9404SOL     OW29110   0.427   1.891   1.285
 9404SOL    HW129111   0.385   1.814   1.333
 9404SOL    HW229112   0.367   1.921   1.210
 9405SOL     OW29113   0.754   4.324   4.498
 9405SOL    HW129114   0.802   4.325   4.411
 9405SOL    HW229115   0.745   4.417   4.532
 9406SOL     OW29116   1.201   2.756   6.932
 9406SOL    HW129117   1.189   2.717   7.023
 9406SOL    HW229118   1.267   2.701   6.881
 9407SOL     OW29119   2.785   5.020   4.734
 9407SOL    HW129120   2.825   4.986   4.819
 9407SOL    HW229121   2.691   5.050   4.751
 9408SOL     OW29122   0.231   2.402   5.950
 9408SOL    HW129123   0.240   2.481   5.889
 9408SOL    HW229124   0.135   2.388   5.973
 9409SOL     OW29125   6.727   5.387   2.421
 9409SOL    HW129126   6.764   5.463   2.367
 9409SOL    HW229127   6.711   5.309   2.361
 9410SOL     OW29128   4.881   1.076   1.728
 9410SOL    HW129129   4.848   1.045   1.818
 9410SOL    HW229130   4.902   1.173   1.733
 9411SOL     OW29131   3.248   3.640   2.862
 9411SOL    HW129132   3.309   3.719   2.866
 9411SOL    HW229133   3.162   3.667   2.818
 9412SOL     OW29134   1.132   0.326   1.576
 9412SOL    HW129135   1.064   0.294   1.511
 9412SOL    HW229136   1.113   0.422   1.600
 9413SOL     OW29137   4.725   4.658   4.795
 9413SOL    HW129138   4.634   4.618   4.788
 9413SOL    HW229139   4.729   4.742   4.742
 9414SOL     OW29140   2.865   2.210   4.407
 9414SOL    HW129141   2.843   2.258   4.491
 9414SOL    HW229142   2.842   2.267   4.328
 9415SOL     OW29143   2.925   0.050   1.959
 9415SOL    HW129144   2.884   0.124   1.907
 9415SOL    HW229145   2.983   7.020   1.899
 9416SOL     OW29146   0.105   0.757   5.058
 9416SOL    HW129147   0.122   0.674   5.110
 9416SOL    HW229148   0.191   0.793   5.023
 9417SOL     OW29149   3.189   6.230   1.648
 9417SOL    HW129150   3.282   6.248   1.617
 9417SOL    HW229151   3.132   6.310   1.629
 9418SOL     OW29152   2.705   1.714   2.720
 9418SOL    HW129153   2.722   1.681   2.812
 9418SOL    HW229154   2.631   1.660   2.678
 9419SOL     OW29155   2.786   3.117   6.530
 9419SOL    HW129156   2.724   3.148   6.459
 9419SOL    HW229157   2.792   3.187   6.602
 9420SOL     OW29158   5.984   4.704   0.546
 9420SOL    HW129159   6.052   4.632   0.542
 9420SOL    HW229160   5.951   4.714   0.640
 9421SOL     OW29161   2.940   5.388   4.296
 9421SOL    HW129162   2.913   5.435   4.213
 9421SOL    HW229163   2.859   5.349   4.341
 9422SOL     OW29164   2.654   6.409   4.219
 9422SOL    HW129165   2.726   6.346   4.189
 9422SOL    HW229166   2.659   6.421   4.318
 9423SOL     OW29167   4.075   6.305   2.750
 9423SOL    HW129168   3.980   6.301   2.718
 9423SOL    HW229169   4.134   6.259   2.683
 9424SOL     OW29170   5.287   1.624   4.737
 9424SOL    HW129171   5.288   1.698   4.803
 9424SOL    HW229172   5.241   1.655   4.653
 9425SOL     OW29173   6.114   4.978   1.561
 9425SOL    HW129174   6.110   5.068   1.519
 9425SOL    HW229175   6.047   4.972   1.634
 9426SOL     OW29176   1.814   1.497   6.043
 9426SOL    HW129177   1.759   1.505   5.960
 9426SOL    HW229178   1.827   1.401   6.066
 9427SOL     OW29179   2.210   5.942   3.107
 9427SOL    HW129180   2.246   5.852   3.131
 9427SOL    HW229181   2.250   5.971   3.020
 9428SOL     OW29182   6.624   6.582   0.344
 9428SOL    HW129183   6.571   6.578   0.259
 9428SOL    HW229184   6.675   6.668   0.347
 9429SOL     OW29185   1.591   2.021   3.764
 9429SOL    HW129186   1.610   2.054   3.671
 9429SOL    HW229187   1.605   2.095   3.829
 9430SOL     OW29188   0.526   2.576   4.145
 9430SOL    HW129189   0.502   2.483   4.173
 9430SOL    HW229190   0.446   2.619   4.103
 9431SOL     OW29191   6.662   4.339   0.922
 9431SOL    HW129192   6.664   4.423   0.869
 9431SOL    HW229193   6.753   4.295   0.919
 9432SOL     OW29194   6.418   1.757   4.166
 9432SOL    HW129195   6.445   1.706   4.084
 9432SOL    HW229196   6.443   1.854   4.154
 9433SOL     OW29197   4.119   5.728   3.192
 9433SOL    HW129198   4.034   5.677   3.207
 9433SOL    HW229199   4.165   5.692   3.111
 9434SOL     OW29200   5.729   5.383   3.602
 9434SOL    HW129201   5.635   5.350   3.591
 9434SOL    HW229202   5.735   5.478   3.572
 9435SOL     OW29203   0.345   1.969   2.199
 9435SOL    HW129204   0.369   1.875   2.222
 9435SOL    HW229205   0.255   1.990   2.236
 9436SOL     OW29206   1.363   0.927   2.205
 9436SOL    HW129207   1.342   0.878   2.120
 9436SOL    HW229208   1.449   0.977   2.194
 9437SOL     OW29209   0.957   5.242   3.704
 9437SOL    HW129210   0.908   5.273   3.785
 9437SOL    HW229211   0.944   5.308   3.630
 9438SOL     OW29212   1.222   7.011   1.940
 9438SOL    HW129213   1.202   6.914   1.958
 9438SOL    HW229214   1.176   0.014   1.856
 9439SOL     OW29215   0.221   3.034   0.932
 9439SOL    HW129216   0.277   3.095   0.875
 9439SOL    HW229217   0.281   2.979   0.990
 9440SOL     OW29218   2.581   4.547   3.344
 9440SOL    HW129219   2.633   4.631   3.328
 9440SOL    HW229220   2.486   4.561   3.316
 9441SOL     OW29221   6.699   5.736   5.474
 9441SOL    HW129222   6.635   5.807   5.503
 9441SOL    HW229223   6.652   5.672   5.413
 9442SOL     OW29224   4.394   3.598   1.291
 9442SOL    HW129225   4.416   3.695   1.281
 9442SOL    HW229226   4.381   3.558   1.200
 9443SOL     OW29227   2.655   5.852   1.371
 9443SOL    HW129228   2.672   5.901   1.456
 9443SOL    HW229229   2.563   5.812   1.374
 9444SOL     OW29230   1.887   3.808   0.827
 9444SOL    HW129231   1.813   3.741   0.814
 9444SOL    HW229232   1.848   3.897   0.850
 9445SOL     OW29233   6.559   2.109   3.632
 9445SOL    HW129234   6.571   2.208   3.636
 9445SOL    HW229235   6.639   2.068   3.588
 9446SOL     OW29236   6.903   4.920   4.128
 9446SOL    HW129237   6.869   5.011   4.102
 9446SOL    HW229238   6.854   4.888   4.208
 9447SOL     OW29239   4.682   5.191   2.728
 9447SOL    HW129240   4.752   5.122   2.747
 9447SOL    HW229241   4.678   5.208   2.629
 9448SOL     OW29242   6.367   6.783   5.945
 9448SOL    HW129243   6.382   6.852   5.874
 9448SOL    HW229244   6.444   6.783   6.008
 9449SOL     OW29245   5.304   6.506   0.465
 9449SOL    HW129246   5.275   6.431   0.406
 9449SOL    HW229247   5.373   6.473   0.530
 9450SOL     OW29248   1.669   5.183   4.240
 9450SOL    HW129249   1.746   5.244   4.253
 9450SOL    HW229250   1.701   5.088   4.240
 9451SOL     OW29251   4.048   5.851   5.994
 9451SOL    HW129252   4.052   5.804   5.906
 9451SOL    HW229253   3.995   5.935   5.984
 9452SOL     OW29254   0.396   3.961   0.471
 9452SOL    HW129255   0.463   4.027   0.502
 9452SOL    HW229256   0.425   3.869   0.498
 9453SOL     OW29257   2.675   5.017   2.965
 9453SOL    HW129258   2.723   4.965   2.895
 9453SOL    HW229259   2.586   4.975   2.983
 9454SOL     OW29260   4.676   4.052   0.490
 9454SOL    HW129261   4.676   4.135   0.546
 9454SOL    HW229262   4.639   3.976   0.543
 9455SOL     OW29263   2.525   1.943   2.200
 9455SOL    HW129264   2.538   1.954   2.299
 9455SOL    HW229265   2.599   1.888   2.163
 9456SOL     OW29266   6.230   4.031   2.320
 9456SOL    HW129267   6.135   4.005   2.303
 9456SOL    HW229268   6.233   4.114   2.375
 9457SOL     OW29269   1.073   5.188   4.406
 9457SOL    HW129270   1.075   5.286   4.428
 9457SOL    HW229271   1.140   5.170   4.334
 9458SOL     OW29272   0.076   4.225   0.376
 9458SOL    HW129273   0.133   4.215   0.295
 9458SOL    HW229274   0.078   4.141   0.429
 9459SOL     OW29275   5.307   4.295   3.839
 9459SOL    HW129276   5.294   4.394   3.837
 9459SOL    HW229277   5.263   4.254   3.759
 9460SOL     OW29278   1.913   3.369   4.734
 9460SOL    HW129279   1.916   3.303   4.809
 9460SOL    HW229280   1.963   3.451   4.759
 9461SOL     OW29281   1.013   1.227   0.944
 9461SOL    HW129282   1.000   1.260   0.850
 9461SOL    HW229283   1.012   1.304   1.007
 9462SOL     OW29284   1.774   2.859   3.490
 9462SOL    HW129285   1.845   2.929   3.488
 9462SOL    HW229286   1.689   2.899   3.523
 9463SOL     OW29287   5.568   6.661   1.466
 9463SOL    HW129288   5.493   6.624   1.521
 9463SOL    HW229289   5.598   6.748   1.505
 9464SOL     OW29290   6.114   0.308   1.581
 9464SOL    HW129291   6.061   0.333   1.662
 9464SOL    HW229292   6.202   0.354   1.584
 9465SOL     OW29293   0.323   4.107   1.585
 9465SOL    HW129294   0.310   4.203   1.611
 9465SOL    HW229295   0.237   4.070   1.550
 9466SOL     OW29296   4.464   5.650   6.448
 9466SOL    HW129297   4.486   5.552   6.443
 9466SOL    HW229298   4.371   5.665   6.414
 9467SOL     OW29299   1.805   2.644   0.634
 9467SOL    HW129300   1.705   2.642   0.627
 9467SOL    HW229301   1.841   2.720   0.579
 9468SOL     OW29302   6.640   3.270   6.401
 9468SOL    HW129303   6.593   3.238   6.483
 9468SOL    HW229304   6.607   3.362   6.378
 9469SOL     OW29305   0.258   6.454   0.590
 9469SOL    HW129306   0.162   6.448   0.562
 9469SOL    HW229307   0.288   6.366   0.626
 9470SOL     OW29308   4.699   3.861   6.966
 9470SOL    HW129309   4.623   3.892   7.024
 9470SOL    HW229310   4.664   3.834   6.877
 9471SOL     OW29311   5.932   2.377   5.382
 9471SOL    HW129312   5.856   2.319   5.353
 9471SOL    HW229313   5.929   2.463   5.331
 9472SOL     OW29314   1.217   4.437   6.297
 9472SOL    HW129315   1.282   4.492   6.246
 9472SOL    HW229316   1.222   4.460   6.394
 9473SOL     OW29317   3.229   3.683   6.573
 9473SOL    HW129318   3.290   3.650   6.501
 9473SOL    HW229319   3.150   3.623   6.582
 9474SOL     OW29320   6.158   2.907   1.647
 9474SOL    HW129321   6.233   2.918   1.712
 9474SOL    HW229322   6.077   2.953   1.682
 9475SOL     OW29323   4.161   3.435   6.641
 9475SOL    HW129324   4.248   3.408   6.683
 9475SOL    HW229325   4.161   3.534   6.625
 9476SOL     OW29326   3.576   4.054   5.740
 9476SOL    HW129327   3.543   4.001   5.662
 9476SOL    HW229328   3.651   4.004   5.784
 9477SOL     OW29329   1.424   3.543   0.706
 9477SOL    HW129330   1.338   3.593   0.711
 9477SOL    HW229331   1.406   3.447   0.688
 9478SOL     OW29332   4.509   2.975   0.986
 9478SOL    HW129333   4.437   2.949   1.050
 9478SOL    HW229334   4.562   3.050   1.025
 9479SOL     OW29335   3.902   0.509   1.442
 9479SOL    HW129336   3.939   0.532   1.532
 9479SOL    HW229337   3.888   0.593   1.389
 9480SOL     OW29338   5.656   5.674   0.022
 9480SOL    HW129339   5.633   5.583   7.013
 9480SOL    HW229340   5.588   5.703   0.089
 9481SOL     OW29341   5.125   2.311   3.138
 9481SOL    HW129342   5.168   2.222   3.155
 9481SOL    HW229343   5.192   2.373   3.098
 9482SOL     OW29344   6.283   6.925   1.406
 9482SOL    HW129345   6.210   6.974   1.454
 9482SOL    HW229346   6.339   6.875   1.473
 9483SOL     OW29347   1.796   0.578   6.415
 9483SOL    HW129348   1.846   0.537   6.491
 9483SOL    HW229349   1.813   0.676   6.413
 9484SOL     OW29350   2.429   0.450   4.210
 9484SOL    HW129351   2.408   0.543   4.239
 9484SOL    HW229352   2.436   0.447   4.110
 9485SOL     OW29353   5.976   1.763   1.290
 9485SOL    HW129354   5.976   1.746   1.389
 9485SOL    HW229355   5.964   1.860   1.272
 9486SOL     OW29356   5.122   5.661   1.084
 9486SOL    HW129357   5.048   5.715   1.126
 9486SOL    HW229358   5.165   5.714   1.011
 9487SOL     OW29359   3.158   3.472   4.656
 9487SOL    HW129360   3.066   3.479   4.617
 9487SOL    HW229361   3.189   3.377   4.650
 9488SOL     OW29362   2.286   1.426   0.906
 9488SOL    HW129363   2.243   1.458   0.991
 9488SOL    HW229364   2.330   1.503   0.860
 9489SOL     OW29365   5.263   4.289   1.464
 9489SOL    HW129366   5.346   4.345   1.467
 9489SOL    HW229367   5.257   4.244   1.375
 9490SOL     OW29368   6.935   5.767   3.692
 9490SOL    HW129369   6.994   5.829   3.640
 9490SOL    HW229370   6.853   5.815   3.721
 9491SOL     OW29371   5.936   5.600   4.350
 9491SOL    HW129372   5.967   5.682   4.300
 9491SOL    HW229373   5.975   5.601   4.442
 9492SOL     OW29374   4.448   3.442   5.575
 9492SOL    HW129375   4.459   3.352   5.616
 9492SOL    HW229376   4.429   3.509   5.647
 9493SOL     OW29377   3.008   5.622   3.651
 9493SOL    HW129378   2.977   5.644   3.744
 9493SOL    HW229379   2.929   5.606   3.592
 9494SOL     OW29380   5.879   3.072   2.361
 9494SOL    HW129381   5.895   3.052   2.458
 9494SOL    HW229382   5.817   3.003   2.323
 9495SOL     OW29383   6.939   1.324   2.532
 9495SOL    HW129384   6.889   1.352   2.614
 9495SOL    HW229385   6.945   1.401   2.468
 9496SOL     OW29386   4.508   2.094   2.135
 9496SOL    HW129387   4.470   2.186   2.142
 9496SOL    HW229388   4.438   2.027   2.156
 9497SOL     OW29389   6.054   5.992   5.523
 9497SOL    HW129390   6.040   5.893   5.512
 9497SOL    HW229391   5.986   6.042   5.471
 9498SOL     OW29392   6.749   4.704   5.206
 9498SOL    HW129393   6.776   4.671   5.297
 9498SOL    HW229394   6.821   4.681   5.140
 9499SOL     OW29395   0.086   6.023   4.938
 9499SOL    HW129396   0.007   6.072   4.975
 9499SOL    HW229397   0.100   6.050   4.843
 9500SOL     OW29398   3.736   6.346   1.094
 9500SOL    HW129399   3.823   6.348   1.142
 9500SOL    HW229400   3.706   6.252   1.082
 9501SOL     OW29401   1.487   1.222   4.317
 9501SOL    HW129402   1.387   1.212   4.312
 9501SOL    HW229403   1.519   1.195   4.408
 9502SOL     OW29404   6.239   4.171   4.375
 9502SOL    HW129405   6.323   4.117   4.364
 9502SOL    HW229406   6.180   4.157   4.296
 9503SOL     OW29407   0.271   2.345   0.828
 9503SOL    HW129408   0.185   2.303   0.858
 9503SOL    HW229409   0.337   2.273   0.807
 9504SOL     OW29410   6.931   4.198   1.687
 9504SOL    HW129411   7.002   4.223   1.621
 9504SOL    HW229412   6.874   4.126   1.648
 9505SOL     OW29413   4.921   4.675   5.568
 9505SOL    HW129414   4.918   4.750   5.634
 9505SOL    HW229415   4.900   4.710   5.477
 9506SOL     OW29416   2.322   2.673   0.251
 9506SOL    HW129417   2.341   2.729   0.331
 9506SOL    HW229418   2.397   2.607   0.237
 9507SOL     OW29419   6.428   0.605   1.003
 9507SOL    HW129420   6.479   0.682   0.963
 9507SOL    HW229421   6.486   0.523   1.002
 9508SOL     OW29422   5.855   1.883   2.576
 9508SOL    HW129423   5.939   1.895   2.523
 9508SOL    HW229424   5.841   1.785   2.593
 9509SOL     OW29425   6.439   7.021   3.410
 9509SOL    HW129426   6.449   0.039   3.320
 9509SOL    HW229427   6.521   6.968   3.430
 9510SOL     OW29428   0.949   3.609   3.416
 9510SOL    HW129429   1.002   3.606   3.501
 9510SOL    HW229430   0.870   3.669   3.429
 9511SOL     OW29431   0.857   0.924   2.022
 9511SOL    HW129432   0.912   0.912   1.940
 9511SOL    HW229433   0.887   1.006   2.070
 9512SOL     OW29434   6.866   2.377   1.413
 9512SOL    HW129435   6.949   2.323   1.426
 9512SOL    HW229436   6.809   2.371   1.495
 9513SOL     OW29437   3.101   4.866   6.012
 9513SOL    HW129438   3.092   4.898   5.918
 9513SOL    HW229439   3.124   4.942   6.071
 9514SOL     OW29440   2.879   3.881   6.889
 9514SOL    HW129441   2.972   3.860   6.857
 9514SOL    HW229442   2.853   3.814   6.959
 9515SOL     OW29443   1.980   5.342   3.577
 9515SOL    HW129444   2.052   5.273   3.569
 9515SOL    HW229445   1.955   5.375   3.486
 9516SOL     OW29446   5.372   4.592   0.838
 9516SOL    HW129447   5.337   4.504   0.806
 9516SOL    HW229448   5.437   4.577   0.913
 9517SOL     OW29449   1.405   4.288   0.939
 9517SOL    HW129450   1.395   4.305   0.841
 9517SOL    HW229451   1.494   4.245   0.956
 9518SOL     OW29452   2.577   1.681   0.099
 9518SOL    HW129453   2.648   1.752   0.103
 9518SOL    HW229454   2.570   1.636   0.188
 9519SOL     OW29455   2.012   2.336   5.617
 9519SOL    HW129456   2.092   2.297   5.661
 9519SOL    HW229457   1.936   2.341   5.682
 9520SOL     OW29458   2.891   0.454   2.601
 9520SOL    HW129459   2.982   0.413   2.599
 9520SOL    HW229460   2.823   0.384   2.578
 9521SOL     OW29461   5.594   5.895   3.167
 9521SOL    HW129462   5.689   5.879   3.140
 9521SOL    HW229463   5.591   5.954   3.248
 9522SOL     OW29464   3.650   6.050   1.176
 9522SOL    HW129465   3.553   6.072   1.180
 9522SOL    HW229466   3.674   5.990   1.253
 9523SOL     OW29467   3.163   5.234   4.217
 9523SOL    HW129468   3.152   5.213   4.120
 9523SOL    HW229469   3.088   5.292   4.248
 9524SOL     OW29470   4.204   3.115   1.342
 9524SOL    HW129471   4.106   3.114   1.325
 9524SOL    HW229472   4.234   3.024   1.370
 9525SOL     OW29473   2.054   1.601   5.979
 9525SOL    HW129474   2.094   1.676   6.032
 9525SOL    HW229475   1.970   1.570   6.023
 9526SOL     OW29476   5.843   5.826   3.108
 9526SOL    HW129477   5.831   5.821   3.009
 9526SOL    HW229478   5.819   5.738   3.149
 9527SOL     OW29479   1.138   1.078   1.850
 9527SOL    HW129480   1.109   1.003   1.791
 9527SOL    HW229481   1.108   1.165   1.809
 9528SOL     OW29482   6.585   0.643   0.512
 9528SOL    HW129483   6.556   0.608   0.423
 9528SOL    HW229484   6.509   0.639   0.576
 9529SOL     OW29485   1.172   2.593   6.069
 9529SOL    HW129486   1.270   2.578   6.078
 9529SOL    HW229487   1.128   2.511   6.034
 9530SOL     OW29488   1.474   3.147   3.057
 9530SOL    HW129489   1.574   3.140   3.067
 9530SOL    HW229490   1.451   3.140   2.960
 9531SOL     OW29491   4.114   6.009   3.119
 9531SOL    HW129492   4.126   5.911   3.136
 9531SOL    HW229493   4.083   6.023   3.025
 9532SOL     OW29494   1.543   5.755   1.680
 9532SOL    HW129495   1.621   5.816   1.695
 9532SOL    HW229496   1.576   5.661   1.673
 9533SOL     OW29497   0.292   1.592   5.154
 9533SOL    HW129498   0.255   1.611   5.063
 9533SOL    HW229499   0.366   1.525   5.147
 9534SOL     OW29500   5.111   3.384   5.375
 9534SOL    HW129501   5.111   3.289   5.408
 9534SOL    HW229502   5.064   3.388   5.287
 9535SOL     OW29503   2.543   1.064   5.372
 9535SOL    HW129504   2.449   1.099   5.378
 9535SOL    HW229505   2.542   0.964   5.376
 9536SOL     OW29506   2.150   6.004   5.651
 9536SOL    HW129507   2.113   5.911   5.655
 9536SOL    HW229508   2.227   6.012   5.714
 9537SOL     OW29509   3.115   0.724   2.754
 9537SOL    HW129510   3.031   0.718   2.701
 9537SOL    HW229511   3.108   0.799   2.821
 9538SOL     OW29512   6.597   1.064   4.253
 9538SOL    HW129513   6.658   1.016   4.190
 9538SOL    HW229514   6.642   1.076   4.341
 9539SOL     OW29515   2.205   4.686   6.191
 9539SOL    HW129516   2.210   4.771   6.244
 9539SOL    HW229517   2.297   4.654   6.171
 9540SOL     OW29518   4.611   4.436   5.503
 9540SOL    HW129519   4.705   4.405   5.495
 9540SOL    HW229520   4.610   4.533   5.528
 9541SOL     OW29521   1.621   1.945   5.116
 9541SOL    HW129522   1.660   1.889   5.043
 9541SOL    HW229523   1.691   2.006   5.152
 9542SOL     OW29524   5.019   3.442   5.105
 9542SOL    HW129525   4.953   3.514   5.086
 9542SOL    HW229526   4.973   3.353   5.106
 9543SOL     OW29527   4.630   0.906   4.657
 9543SOL    HW129528   4.586   0.827   4.615
 9543SOL    HW229529   4.636   0.893   4.756
 9544SOL     OW29530   5.811   0.064   2.171
 9544SOL    HW129531   5.789   0.075   2.268
 9544SOL    HW229532   5.731   0.086   2.115
 9545SOL     OW29533   6.739   6.467   3.301
 9545SOL    HW129534   6.752   6.393   3.234
 9545SOL    HW229535   6.755   6.555   3.257
 9546SOL     OW29536   3.225   4.026   6.387
 9546SOL    HW129537   3.171   3.943   6.377
 9546SOL    HW229538   3.300   4.026   6.322
 9547SOL     OW29539   2.251   6.631   4.278
 9547SOL    HW129540   2.269   6.606   4.373
 9547SOL    HW229541   2.310   6.577   4.218
 9548SOL     OW29542   6.161   5.105   4.910
 9548SOL    HW129543   6.107   5.057   4.840
 9548SOL    HW229544   6.207   5.039   4.968
 9549SOL     OW29545   3.667   5.658   1.137
 9549SOL    HW129546   3.641   5.747   1.100
 9549SOL    HW229547   3.619   5.644   1.224
 9550SOL     OW29548   0.012   1.317   6.693
 9550SOL    HW129549   6.999   1.330   6.785
 9550SOL    HW229550   0.103   1.276   6.701
 9551SOL     OW29551   0.183   0.050   5.130
 9551SOL    HW129552   0.181   0.129   5.191
 9551SOL    HW229553   0.096   0.043   5.082
 9552SOL     OW29554   1.371   6.561   3.245
 9552SOL    HW129555   1.288   6.550   3.192
 9552SOL    HW229556   1.356   6.630   3.316
 9553SOL     OW29557   6.269   4.574   6.993
 9553SOL    HW129558   6.215   4.599   6.913
 9553SOL    HW229559   6.263   4.647   0.036
 9554SOL     OW29560   2.757   0.496   1.852
 9554SOL    HW129561   2.669   0.543   1.843
 9554SOL    HW229562   2.787   0.499   1.947
 9555SOL     OW29563   6.459   2.263   1.294
 9555SOL    HW129564   6.460   2.326   1.372
 9555SOL    HW229565   6.388   2.290   1.230
 9556SOL     OW29566   2.958   1.624   1.321
 9556SOL    HW129567   2.870   1.665   1.296
 9556SOL    HW229568   2.961   1.530   1.289
 9557SOL     OW29569   6.191   0.386   2.856
 9557SOL    HW129570   6.128   0.355   2.927
 9557SOL    HW229571   6.224   0.477   2.879
 9558SOL     OW29572   0.082   4.993   3.076
 9558SOL    HW129573   0.075   4.932   3.155
 9558SOL    HW229574   0.169   4.978   3.029
 9559SOL     OW29575   0.547   3.894   1.795
 9559SOL    HW129576   0.518   3.894   1.699
 9559SOL    HW229577   0.612   3.968   1.810
 9560SOL     OW29578   2.437   1.394   2.589
 9560SOL    HW129579   2.451   1.491   2.569
 9560SOL    HW229580   2.521   1.343   2.566
 9561SOL     OW29581   3.215   6.356   0.872
 9561SOL    HW129582   3.151   6.298   0.921
 9561SOL    HW229583   3.240   6.435   0.928
 9562SOL     OW29584   4.153   5.469   3.890
 9562SOL    HW129585   4.171   5.371   3.875
 9562SOL    HW229586   4.114   5.482   3.981
 9563SOL     OW29587   6.926   6.672   6.861
 9563SOL    HW129588   6.933   6.660   6.762
 9563SOL    HW229589   6.893   6.763   6.882
 9564SOL     OW29590   2.839   6.719   6.281
 9564SOL    HW129591   2.888   6.639   6.247
 9564SOL    HW229592   2.891   6.761   6.355
 9565SOL     OW29593   4.112   5.728   4.467
 9565SOL    HW129594   4.090   5.633   4.447
 9565SOL    HW229595   4.182   5.760   4.404
 9566SOL     OW29596   3.315   4.812   6.608
 9566SOL    HW129597   3.303   4.867   6.526
 9566SOL    HW229598   3.292   4.717   6.589
 9567SOL     OW29599   5.876   5.934   6.584
 9567SOL    HW129600   5.776   5.927   6.579
 9567SOL    HW229601   5.905   6.024   6.550
 9568SOL     OW29602   5.238   3.722   6.409
 9568SOL    HW129603   5.291   3.760   6.333
 9568SOL    HW229604   5.159   3.780   6.427
 9569SOL     OW29605   6.490   1.311   6.917
 9569SOL    HW129606   6.537   1.227   6.944
 9569SOL    HW229607   6.533   1.349   6.835
 9570SOL     OW29608   0.118   1.587   0.793
 9570SOL    HW129609   0.150   1.677   0.762
 9570SOL    HW229610   0.193   1.538   0.836
 9571SOL     OW29611   2.309   4.023   0.367
 9571SOL    HW129612   2.330   4.121   0.357
 9571SOL    HW229613   2.383   3.978   0.416
 9572SOL     OW29614   1.149   4.450   0.934
 9572SOL    HW129615   1.210   4.503   0.876
 9572SOL    HW229616   1.192   4.363   0.958
 9573SOL     OW29617   0.831   1.021   6.817
 9573SOL    HW129618   0.738   1.036   6.782
 9573SOL    HW229619   0.827   0.961   6.897
 9574SOL     OW29620   3.780   3.756   5.581
 9574SOL    HW129621   3.697   3.809   5.564
 9574SOL    HW229622   3.849   3.814   5.624
 9575SOL     OW29623   5.612   1.037   1.821
 9575SOL    HW129624   5.649   1.127   1.800
 9575SOL    HW229625   5.597   0.986   1.736
 9576SOL     OW29626   3.468   1.322   3.933
 9576SOL    HW129627   3.542   1.374   3.889
 9576SOL    HW229628   3.422   1.379   4.000
 9577SOL     OW29629   0.109   6.809   2.384
 9577SOL    HW129630   0.080   6.904   2.389
 9577SOL    HW229631   0.173   6.798   2.307
 9578SOL     OW29632   6.197   2.620   2.135
 9578SOL    HW129633   6.226   2.685   2.064
 9578SOL    HW229634   6.228   2.653   2.224
 9579SOL     OW29635   1.336   7.024   1.560
 9579SOL    HW129636   1.275   0.054   1.617
 9579SOL    HW229637   1.348   0.042   1.471
 9580SOL     OW29638   4.808   3.699   0.173
 9580SOL    HW129639   4.825   3.713   0.076
 9580SOL    HW229640   4.818   3.785   0.222
 9581SOL     OW29641   1.327   5.495   5.838
 9581SOL    HW129642   1.368   5.416   5.793
 9581SOL    HW229643   1.281   5.465   5.922
 9582SOL     OW29644   4.399   4.584   4.382
 9582SOL    HW129645   4.386   4.683   4.385
 9582SOL    HW229646   4.314   4.541   4.350
 9583SOL     OW29647   2.263   3.722   1.798
 9583SOL    HW129648   2.297   3.641   1.845
 9583SOL    HW229649   2.202   3.695   1.724
 9584SOL     OW29650   6.405   4.912   6.721
 9584SOL    HW129651   6.456   4.996   6.700
 9584SOL    HW229652   6.355   4.882   6.640
 9585SOL     OW29653   5.769   6.829   2.773
 9585SOL    HW129654   5.695   6.880   2.728
 9585SOL    HW229655   5.729   6.763   2.837
 9586SOL     OW29656   5.391   3.135   3.660
 9586SOL    HW129657   5.305   3.090   3.684
 9586SOL    HW229658   5.374   3.207   3.593
 9587SOL     OW29659   5.861   0.071   1.807
 9587SOL    HW129660   5.904   0.107   1.890
 9587SOL    HW229661   5.789   0.133   1.776
 9588SOL     OW29662   6.977   0.749   1.389
 9588SOL    HW129663   6.919   0.823   1.356
 9588SOL    HW229664   6.920   0.676   1.427
 9589SOL     OW29665   2.182   6.654   5.616
 9589SOL    HW129666   2.108   6.678   5.680
 9589SOL    HW229667   2.183   6.555   5.604
 9590SOL     OW29668   0.430   4.050   2.740
 9590SOL    HW129669   0.479   4.137   2.727
 9590SOL    HW229670   0.494   3.974   2.732
 9591SOL     OW29671   2.510   6.560   1.143
 9591SOL    HW129672   2.504   6.461   1.133
 9591SOL    HW229673   2.581   6.583   1.209
 9592SOL     OW29674   4.248   5.483   2.576
 9592SOL    HW129675   4.311   5.409   2.599
 9592SOL    HW229676   4.262   5.560   2.638
 9593SOL     OW29677   6.250   3.050   4.445
 9593SOL    HW129678   6.344   3.038   4.475
 9593SOL    HW229679   6.220   3.143   4.468
 9594SOL     OW29680   6.613   6.812   2.574
 9594SOL    HW129681   6.528   6.766   2.598
 9594SOL    HW229682   6.612   6.905   2.611
 9595SOL     OW29683   1.325   5.562   4.116
 9595SOL    HW129684   1.272   5.567   4.201
 9595SOL    HW229685   1.422   5.562   4.137
 9596SOL     OW29686   6.540   6.152   5.248
 9596SOL    HW129687   6.599   6.193   5.318
 9596SOL    HW229688   6.456   6.206   5.239
 9597SOL     OW29689   0.686   4.348   1.681
 9597SOL    HW129690   0.607   4.376   1.627
 9597SOL    HW229691   0.729   4.429   1.721
 9598SOL     OW29692   0.370   4.486   6.076
 9598SOL    HW129693   0.432   4.527   6.142
 9598SOL    HW229694   0.422   4.430   6.012
 9599SOL     OW29695   3.852   0.268   5.234
 9599SOL    HW129696   3.778   0.238   5.174
 9599SOL    HW229697   3.871   0.197   5.302
 9600SOL     OW29698   0.981   0.600   5.644
 9600SOL    HW129699   1.061   0.541   5.652
 9600SOL    HW229700   0.976   0.639   5.552
 9601SOL     OW29701   0.659   4.968   6.174
 9601SOL    HW129702   0.697   5.060   6.168
 9601SOL    HW229703   0.683   4.916   6.093
 9602SOL     OW29704   0.250   4.968   6.498
 9602SOL    HW129705   0.182   5.017   6.444
 9602SOL    HW229706   0.265   5.016   6.585
 9603SOL     OW29707   2.285   5.961   4.175
 9603SOL    HW129708   2.281   6.059   4.197
 9603SOL    HW229709   2.247   5.908   4.251
 9604SOL     OW29710   4.733   1.239   6.778
 9604SOL    HW129711   4.681   1.223   6.862
 9604SOL    HW229712   4.812   1.178   6.775
 9605SOL     OW29713   2.094   5.770   6.146
 9605SOL    HW129714   2.144   5.717   6.076
 9605SOL    HW229715   2.073   5.861   6.110
 9606SOL     OW29716   0.262   5.848   3.406
 9606SOL    HW129717   0.254   5.877   3.501
 9606SOL    HW229718   0.170   5.828   3.370
 9607SOL     OW29719   0.856   1.208   2.492
 9607SOL    HW129720   0.914   1.127   2.492
 9607SOL    HW229721   0.913   1.290   2.503
 9608SOL     OW29722   6.987   0.010   2.728
 9608SOL    HW129723   0.062   0.018   2.725
 9608SOL    HW229724   6.948   0.053   2.646
 9609SOL     OW29725   2.249   4.284   4.977
 9609SOL    HW129726   2.158   4.297   4.937
 9609SOL    HW229727   2.262   4.187   5.000
 9610SOL     OW29728   2.113   1.847   6.061
 9610SOL    HW129729   2.055   1.901   6.122
 9610SOL    HW229730   2.092   1.869   5.966
 9611SOL     OW29731   6.848   0.702   0.941
 9611SOL    HW129732   6.909   0.757   0.884
 9611SOL    HW229733   6.754   0.735   0.930
 9612SOL     OW29734   5.693   3.260   0.858
 9612SOL    HW129735   5.634   3.180   0.863
 9612SOL    HW229736   5.639   3.343   0.874
 9613SOL     OW29737   6.142   6.612   5.488
 9613SOL    HW129738   6.225   6.607   5.433
 9613SOL    HW229739   6.165   6.607   5.585
 9614SOL     OW29740   3.585   3.827   2.293
 9614SOL    HW129741   3.562   3.844   2.389
 9614SOL    HW229742   3.644   3.747   2.286
 9615SOL     OW29743   1.083   6.103   2.718
 9615SOL    HW129744   0.983   6.095   2.714
 9615SOL    HW229745   1.119   6.029   2.775
 9616SOL     OW29746   3.273   2.348   0.956
 9616SOL    HW129747   3.197   2.302   0.909
 9616SOL    HW229748   3.238   2.428   1.005
 9617SOL     OW29749   1.242   2.861   3.578
 9617SOL    HW129750   1.200   2.801   3.647
 9617SOL    HW229751   1.193   2.948   3.575
 9618SOL     OW29752   3.804   6.291   6.305
 9618SOL    HW129753   3.827   6.234   6.226
 9618SOL    HW229754   3.708   6.316   6.301
 9619SOL     OW29755   2.194   5.722   0.251
 9619SOL    HW129756   2.113   5.779   0.270
 9619SOL    HW229757   2.274   5.780   0.238
 9620SOL     OW29758   3.294   0.654   6.939
 9620SOL    HW129759   3.269   0.619   6.849
 9620SOL    HW229760   3.355   0.732   6.929
 9621SOL     OW29761   0.274   1.148   2.470
 9621SOL    HW129762   0.339   1.086   2.427
 9621SOL    HW229763   0.275   1.236   2.421
 9622SOL     OW29764   5.539   0.578   6.867
 9622SOL    HW129765   5.592   0.508   6.818
 9622SOL    HW229766   5.575   0.669   6.844
 9623SOL     OW29767   5.213   5.899   6.225
 9623SOL    HW129768   5.120   5.874   6.249
 9623SOL    HW229769   5.268   5.912   6.308
 9624SOL     OW29770   4.815   5.855   4.784
 9624SOL    HW129771   4.838   5.902   4.699
 9624SOL    HW229772   4.718   5.869   4.806
 9625SOL     OW29773   5.230   4.628   6.696
 9625SOL    HW129774   5.281   4.601   6.777
 9625SOL    HW229775   5.182   4.549   6.659
 9626SOL     OW29776   1.878   4.605   5.568
 9626SOL    HW129777   1.895   4.646   5.658
 9626SOL    HW229778   1.794   4.550   5.571
 9627SOL     OW29779   1.527   5.309   6.133
 9627SOL    HW129780   1.434   5.308   6.096
 9627SOL    HW229781   1.532   5.374   6.209
 9628SOL     OW29782   5.835   4.105   6.640
 9628SOL    HW129783   5.868   4.157   6.719
 9628SOL    HW229784   5.766   4.159   6.591
 9629SOL     OW29785   0.130   6.131   2.724
 9629SOL    HW129786   0.168   6.222   2.740
 9629SOL    HW229787   0.170   6.066   2.789
 9630SOL     OW29788   6.485   6.648   5.690
 9630SOL    HW129789   6.389   6.629   5.670
 9630SOL    HW229790   6.508   6.741   5.662
 9631SOL     OW29791   4.102   1.085   0.708
 9631SOL    HW129792   4.191   1.046   0.732
 9631SOL    HW229793   4.100   1.182   0.731
 9632SOL     OW29794   3.229   5.545   1.173
 9632SOL    HW129795   3.266   5.553   1.081
 9632SOL    HW229796   3.137   5.507   1.169
 9633SOL     OW29797   4.116   3.202   2.095
 9633SOL    HW129798   4.145   3.231   2.004
 9633SOL    HW229799   4.185   3.142   2.135
 9634SOL     OW29800   5.211   4.771   2.710
 9634SOL    HW129801   5.195   4.745   2.615
 9634SOL    HW229802   5.298   4.735   2.741
 9635SOL     OW29803   1.220   3.817   4.245
 9635SOL    HW129804   1.284   3.893   4.256
 9635SOL    HW229805   1.165   3.808   4.328
 9636SOL     OW29806   4.399   2.059   5.552
 9636SOL    HW129807   4.345   2.127   5.601
 9636SOL    HW229808   4.496   2.074   5.570
 9637SOL     OW29809   2.113   3.332   1.088
 9637SOL    HW129810   2.137   3.401   1.020
 9637SOL    HW229811   2.067   3.376   1.165
 9638SOL     OW29812   0.343   4.169   6.407
 9638SOL    HW129813   0.373   4.144   6.315
 9638SOL    HW229814   0.411   4.229   6.449
 9639SOL     OW29815   4.416   1.928   1.725
 9639SOL    HW129816   4.484   1.982   1.774
 9639SOL    HW229817   4.458   1.887   1.644
 9640SOL     OW29818   4.028   1.005   2.444
 9640SOL    HW129819   3.996   1.051   2.361
 9640SOL    HW229820   4.085   1.067   2.497
 9641SOL     OW29821   5.692   4.929   2.450
 9641SOL    HW129822   5.664   4.870   2.374
 9641SOL    HW229823   5.631   5.008   2.455
 9642SOL     OW29824   1.478   0.050   3.956
 9642SOL    HW129825   1.457   6.995   3.901
 9642SOL    HW229826   1.419   0.053   4.036
 9643SOL     OW29827   4.881   3.669   4.095
 9643SOL    HW129828   4.811   3.599   4.109
 9643SOL    HW229829   4.866   3.716   4.009
 9644SOL     OW29830   1.455   6.334   5.233
 9644SOL    HW129831   1.486   6.332   5.137
 9644SOL    HW229832   1.475   6.424   5.272
 9645SOL     OW29833   1.561   5.639   5.888
 9645SOL    HW129834   1.624   5.582   5.940
 9645SOL    HW229835   1.475   5.590   5.875
 9646SOL     OW29836   2.930   6.742   4.857
 9646SOL    HW129837   2.830   6.746   4.854
 9646SOL    HW229838   2.967   6.774   4.770
 9647SOL     OW29839   6.518   6.391   3.428
 9647SOL    HW129840   6.605   6.412   3.384
 9647SOL    HW229841   6.509   6.444   3.512
 9648SOL     OW29842   5.273   2.140   1.652
 9648SOL    HW129843   5.181   2.128   1.614
 9648SOL    HW229844   5.321   2.211   1.600
 9649SOL     OW29845   2.360   3.790   0.195
 9649SOL    HW129846   2.435   3.836   0.148
 9649SOL    HW229847   2.337   3.840   0.278
 9650SOL     OW29848   6.300   4.315   4.030
 9650SOL    HW129849   6.250   4.242   4.076
 9650SOL    HW229850   6.238   4.390   4.009
 9651SOL     OW29851   2.688   1.474   6.960
 9651SOL    HW129852   2.627   1.534   7.011
 9651SOL    HW229853   2.675   1.379   6.991
 9652SOL     OW29854   0.502   4.131   0.817
 9652SOL    HW129855   0.457   4.181   0.743
 9652SOL    HW229856   0.528   4.040   0.784
 9653SOL     OW29857   4.726   4.167   6.072
 9653SOL    HW129858   4.762   4.166   5.979
 9653SOL    HW229859   4.644   4.111   6.077
 9654SOL     OW29860   4.078   3.509   3.421
 9654SOL    HW129861   4.083   3.458   3.507
 9654SOL    HW229862   4.072   3.446   3.344
 9655SOL     OW29863   5.825   0.828   1.548
 9655SOL    HW129864   5.857   0.790   1.635
 9655SOL    HW229865   5.798   0.754   1.487
 9656SOL     OW29866   5.371   3.311   0.701
 9656SOL    HW129867   5.357   3.246   0.625
 9656SOL    HW229868   5.454   3.365   0.684
 9657SOL     OW29869   5.416   3.662   3.535
 9657SOL    HW129870   5.431   3.641   3.632
 9657SOL    HW229871   5.332   3.617   3.504
 9658SOL     OW29872   4.381   1.687   2.817
 9658SOL    HW129873   4.404   1.780   2.846
 9658SOL    HW229874   4.460   1.628   2.832
 9659SOL     OW29875   3.476   2.312   0.770
 9659SOL    HW129876   3.415   2.256   0.714
 9659SOL    HW229877   3.438   2.322   0.862
 9660SOL     OW29878   0.592   5.878   0.624
 9660SOL    HW129879   0.553   5.931   0.549
 9660SOL    HW229880   0.611   5.939   0.701
 9661SOL     OW29881   5.093   5.329   1.293
 9661SOL    HW129882   5.005   5.328   1.247
 9661SOL    HW229883   5.084   5.377   1.380
 9662SOL     OW29884   5.507   4.906   0.421
 9662SOL    HW129885   5.570   4.830   0.436
 9662SOL    HW229886   5.513   4.970   0.498
 9663SOL     OW29887   1.047   4.411   3.698
 9663SOL    HW129888   0.980   4.399   3.625
 9663SOL    HW229889   1.067   4.509   3.708
 9664SOL     OW29890   5.188   3.573   3.398
 9664SOL    HW129891   5.214   3.514   3.321
 9664SOL    HW229892   5.109   3.628   3.372
 9665SOL     OW29893   6.570   6.737   6.110
 9665SOL    HW129894   6.641   6.807   6.094
 9665SOL    HW229895   6.565   6.717   6.208
 9666SOL     OW29896   6.167   4.426   1.646
 9666SOL    HW129897   6.138   4.351   1.586
 9666SOL    HW229898   6.242   4.476   1.604
 9667SOL     OW29899   3.990   5.707   0.810
 9667SOL    HW129900   3.950   5.640   0.748
 9667SOL    HW229901   3.925   5.783   0.823
 9668SOL     OW29902   1.105   6.576   5.641
 9668SOL    HW129903   1.034   6.550   5.576
 9668SOL    HW229904   1.189   6.599   5.591
 9669SOL     OW29905   2.694   7.017   1.070
 9669SOL    HW129906   2.736   6.952   1.134
 9669SOL    HW229907   2.623   6.970   1.018
 9670SOL     OW29908   0.526   0.362   5.935
 9670SOL    HW129909   0.478   0.274   5.930
 9670SOL    HW229910   0.621   0.346   5.962
 9671SOL     OW29911   1.125   4.957   0.208
 9671SOL    HW129912   1.212   4.975   0.162
 9671SOL    HW229913   1.130   4.869   0.255
 9672SOL     OW29914   0.641   4.288   3.302
 9672SOL    HW129915   0.651   4.189   3.311
 9672SOL    HW229916   0.643   4.312   3.205
 9673SOL     OW29917   3.281   4.364   1.645
 9673SOL    HW129918   3.229   4.327   1.569
 9673SOL    HW229919   3.304   4.290   1.709
 9674SOL     OW29920   3.735   6.620   2.661
 9674SOL    HW129921   3.802   6.662   2.599
 9674SOL    HW229922   3.649   6.670   2.655
 9675SOL     OW29923   5.024   4.053   0.739
 9675SOL    HW129924   5.016   4.080   0.643
 9675SOL    HW229925   4.956   3.983   0.760
 9676SOL     OW29926   1.270   2.241   6.371
 9676SOL    HW129927   1.300   2.258   6.278
 9676SOL    HW229928   1.338   2.277   6.435
 9677SOL     OW29929   6.060   5.226   0.151
 9677SOL    HW129930   5.960   5.224   0.148
 9677SOL    HW229931   6.096   5.133   0.144
 9678SOL     OW29932   3.240   3.726   4.628
 9678SOL    HW129933   3.156   3.767   4.594
 9678SOL    HW229934   3.228   3.628   4.639
 9679SOL     OW29935   3.013   1.952   4.412
 9679SOL    HW129936   3.042   1.987   4.323
 9679SOL    HW229937   2.946   2.015   4.453
 9680SOL     OW29938   5.015   6.535   4.512
 9680SOL    HW129939   4.929   6.492   4.487
 9680SOL    HW229940   5.046   6.594   4.437
 9681SOL     OW29941   2.631   1.107   1.317
 9681SOL    HW129942   2.708   1.043   1.307
 9681SOL    HW229943   2.560   1.085   1.250
 9682SOL     OW29944   5.652   5.261   4.276
 9682SOL    HW129945   5.593   5.313   4.338
 9682SOL    HW229946   5.747   5.289   4.290
 9683SOL     OW29947   1.679   6.336   1.016
 9683SOL    HW129948   1.603   6.359   1.077
 9683SOL    HW229949   1.663   6.376   0.926
 9684SOL     OW29950   1.093   3.804   5.203
 9684SOL    HW129951   1.044   3.734   5.150
 9684SOL    HW229952   1.131   3.763   5.286
 9685SOL     OW29953   4.508   3.617   0.480
 9685SOL    HW129954   4.549   3.621   0.389
 9685SOL    HW229955   4.445   3.539   0.484
 9686SOL     OW29956   6.792   2.366   6.774
 9686SOL    HW129957   6.833   2.277   6.754
 9686SOL    HW229958   6.864   2.434   6.787
 9687SOL     OW29959   6.410   6.683   0.951
 9687SOL    HW129960   6.336   6.747   0.973
 9687SOL    HW229961   6.476   6.682   1.026
 9688SOL     OW29962   1.241   4.707   1.084
 9688SOL    HW129963   1.331   4.663   1.096
 9688SOL    HW229964   1.190   4.661   1.012
 9689SOL     OW29965   1.198   5.555   6.320
 9689SOL    HW129966   1.163   5.649   6.321
 9689SOL    HW229967   1.146   5.499   6.384
 9690SOL     OW29968   4.477   5.278   5.216
 9690SOL    HW129969   4.549   5.343   5.194
 9690SOL    HW229970   4.472   5.208   5.144
 9691SOL     OW29971   3.433   4.116   2.268
 9691SOL    HW129972   3.478   4.184   2.326
 9691SOL    HW229973   3.336   4.112   2.291
 9692SOL     OW29974   4.914   5.223   0.267
 9692SOL    HW129975   4.903   5.277   0.351
 9692SOL    HW229976   4.902   5.126   0.288
 9693SOL     OW29977   5.545   4.057   4.269
 9693SOL    HW129978   5.486   4.022   4.342
 9693SOL    HW229979   5.638   4.067   4.303
 9694SOL     OW29980   2.803   0.249   1.807
 9694SOL    HW129981   2.801   0.349   1.806
 9694SOL    HW229982   2.716   0.213   1.774
 9695SOL     OW29983   0.312   3.933   3.139
 9695SOL    HW129984   0.398   3.907   3.093
 9695SOL    HW229985   0.332   3.999   3.211
 9696SOL     OW29986   6.054   1.728   3.144
 9696SOL    HW129987   5.965   1.751   3.104
 9696SOL    HW229988   6.118   1.703   3.072
 9697SOL     OW29989   6.867   6.160   0.054
 9697SOL    HW129990   6.864   6.061   0.062
 9697SOL    HW229991   6.825   6.188   6.993
 9698SOL     OW29992   5.796   3.462   6.507
 9698SOL    HW129993   5.731   3.538   6.511
 9698SOL    HW229994   5.815   3.439   6.411
 9699SOL     OW29995   0.903   5.738   0.088
 9699SOL    HW129996   0.920   5.801   0.012
 9699SOL    HW229997   0.933   5.647   0.063
 9700SOL     OW29998   6.540   6.319   3.752
 9700SOL    HW129999   6.560   6.235   3.701
 9700SOL    HW230000   6.458   6.306   3.807
 9701SOL     OW30001   4.933   3.290   6.696
 9701SOL    HW130002   4.994   3.226   6.648
 9701SOL    HW230003   4.838   3.262   6.682
 9702SOL     OW30004   3.542   2.840   0.500
 9702SOL    HW130005   3.617   2.880   0.447
 9702SOL    HW230006   3.577   2.763   0.554
 9703SOL     OW30007   6.017   4.081   4.538
 9703SOL    HW130008   6.027   4.111   4.633
 9703SOL    HW230009   6.095   4.114   4.485
 9704SOL     OW30010   3.069   4.847   2.965
 9704SOL    HW130011   2.987   4.852   2.909
 9704SOL    HW230012   3.045   4.815   3.057
 9705SOL     OW30013   6.108   4.244   5.138
 9705SOL    HW130014   6.163   4.289   5.068
 9705SOL    HW230015   6.052   4.173   5.095
 9706SOL     OW30016   1.555   1.929   1.540
 9706SOL    HW130017   1.648   1.940   1.576
 9706SOL    HW230018   1.490   1.921   1.616
 9707SOL     OW30019   5.821   4.770   1.940
 9707SOL    HW130020   5.723   4.784   1.936
 9707SOL    HW230021   5.845   4.724   2.026
 9708SOL     OW30022   1.708   1.357   2.255
 9708SOL    HW130023   1.640   1.382   2.324
 9708SOL    HW230024   1.748   1.439   2.217
 9709SOL     OW30025   5.629   3.708   2.093
 9709SOL    HW130026   5.572   3.723   2.012
 9709SOL    HW230027   5.722   3.686   2.063
 9710SOL     OW30028   6.437   0.365   6.796
 9710SOL    HW130029   6.463   0.268   6.801
 9710SOL    HW230030   6.338   0.373   6.804
 9711SOL     OW30031   4.144   6.245   5.722
 9711SOL    HW130032   4.158   6.328   5.667
 9711SOL    HW230033   4.092   6.267   5.804
 9712SOL     OW30034   5.992   3.334   0.500
 9712SOL    HW130035   5.968   3.300   0.409
 9712SOL    HW230036   6.072   3.285   0.534
 9713SOL     OW30037   2.373   6.578   2.973
 9713SOL    HW130038   2.298   6.547   2.915
 9713SOL    HW230039   2.412   6.500   3.021
 9714SOL     OW30040   4.070   5.385   4.690
 9714SOL    HW130041   3.970   5.377   4.687
 9714SOL    HW230042   4.107   5.313   4.748
 9715SOL     OW30043   6.589   4.727   1.336
 9715SOL    HW130044   6.587   4.666   1.257
 9715SOL    HW230045   6.679   4.772   1.340
 9716SOL     OW30046   3.934   4.350   6.546
 9716SOL    HW130047   4.023   4.308   6.566
 9716SOL    HW230048   3.913   4.418   6.616
 9717SOL     OW30049   5.020   6.479   6.546
 9717SOL    HW130050   5.100   6.469   6.606
 9717SOL    HW230051   4.982   6.389   6.526
 9718SOL     OW30052   3.975   1.742   0.676
 9718SOL    HW130053   3.883   1.708   0.659
 9718SOL    HW230054   3.971   1.834   0.715
 9719SOL     OW30055   5.120   6.873   5.710
 9719SOL    HW130056   5.197   6.872   5.774
 9719SOL    HW230057   5.067   6.957   5.723
 9720SOL     OW30058   1.559   3.656   2.860
 9720SOL    HW130059   1.654   3.683   2.845
 9720SOL    HW230060   1.532   3.590   2.790
 9721SOL     OW30061   0.689   1.403   0.363
 9721SOL    HW130062   0.651   1.456   0.438
 9721SOL    HW230063   0.626   1.403   0.286
 9722SOL     OW30064   3.566   2.159   5.256
 9722SOL    HW130065   3.495   2.202   5.312
 9722SOL    HW230066   3.640   2.223   5.242
 9723SOL     OW30067   6.016   4.792   4.771
 9723SOL    HW130068   5.971   4.723   4.827
 9723SOL    HW230069   5.979   4.882   4.793
 9724SOL     OW30070   2.155   5.370   6.435
 9724SOL    HW130071   2.070   5.420   6.420
 9724SOL    HW230072   2.150   5.321   6.522
 9725SOL     OW30073   3.912   5.594   4.897
 9725SOL    HW130074   3.907   5.494   4.892
 9725SOL    HW230075   3.993   5.626   4.849
 9726SOL     OW30076   5.031   0.986   4.119
 9726SOL    HW130077   5.077   1.070   4.146
 9726SOL    HW230078   4.986   0.999   4.030
 9727SOL     OW30079   0.790   2.675   0.180
 9727SOL    HW130080   0.820   2.752   0.124
 9727SOL    HW230081   0.805   2.590   0.130
 9728SOL     OW30082   6.414   1.726   6.207
 9728SOL    HW130083   6.396   1.692   6.114
 9728SOL    HW230084   6.468   1.658   6.257
 9729SOL     OW30085   1.627   3.824   4.086
 9729SOL    HW130086   1.705   3.830   4.024
 9729SOL    HW230087   1.654   3.854   4.178
 9730SOL     OW30088   1.040   4.084   4.160
 9730SOL    HW130089   1.033   4.153   4.088
 9730SOL    HW230090   1.094   4.007   4.128
 9731SOL     OW30091   5.188   4.580   1.991
 9731SOL    HW130092   5.168   4.492   2.036
 9731SOL    HW230093   5.229   4.563   1.902
 9732SOL     OW30094   0.633   3.287   1.922
 9732SOL    HW130095   0.674   3.211   1.973
 9732SOL    HW230096   0.573   3.339   1.982
 9733SOL     OW30097   6.179   5.641   2.037
 9733SOL    HW130098   6.134   5.718   2.082
 9733SOL    HW230099   6.262   5.616   2.086
 9734SOL     OW30100   6.511   6.615   0.068
 9734SOL    HW130101   6.559   6.662   7.019
 9734SOL    HW230102   6.416   6.600   0.041
 9735SOL     OW30103   1.344   2.249   3.518
 9735SOL    HW130104   1.385   2.339   3.499
 9735SOL    HW230105   1.408   2.177   3.490
 9736SOL     OW30106   4.849   1.976   6.193
 9736SOL    HW130107   4.769   1.986   6.252
 9736SOL    HW230108   4.884   2.066   6.169
 9737SOL     OW30109   5.557   2.195   3.008
 9737SOL    HW130110   5.577   2.264   2.939
 9737SOL    HW230111   5.642   2.153   3.039
 9738SOL     OW30112   2.146   6.704   0.758
 9738SOL    HW130113   2.167   6.799   0.735
 9738SOL    HW230114   2.199   6.643   0.698
 9739SOL     OW30115   4.526   6.045   6.884
 9739SOL    HW130116   4.516   5.957   6.838
 9739SOL    HW230117   4.493   6.118   6.825
 9740SOL     OW30118   5.467   0.286   2.565
 9740SOL    HW130119   5.384   0.336   2.541
 9740SOL    HW230120   5.459   0.252   2.659
 9741SOL     OW30121   2.573   0.937   3.913
 9741SOL    HW130122   2.579   0.843   3.947
 9741SOL    HW230123   2.640   0.951   3.840
 9742SOL     OW30124   4.527   0.918   0.049
 9742SOL    HW130125   4.445   0.971   0.028
 9742SOL    HW230126   4.606   0.979   0.053
 9743SOL     OW30127   0.562   3.478   3.429
 9743SOL    HW130128   0.501   3.420   3.482
 9743SOL    HW230129   0.642   3.425   3.400
 9744SOL     OW30130   2.339   6.973   2.856
 9744SOL    HW130131   2.361   6.959   2.952
 9744SOL    HW230132   2.240   6.963   2.842
 9745SOL     OW30133   5.422   2.510   6.190
 9745SOL    HW130134   5.469   2.464   6.266
 9745SOL    HW230135   5.385   2.597   6.222
 9746SOL     OW30136   5.233   6.675   0.179
 9746SOL    HW130137   5.305   6.730   0.219
 9746SOL    HW230138   5.228   6.691   0.080
 9747SOL     OW30139   2.531   2.140   1.666
 9747SOL    HW130140   2.525   2.170   1.762
 9747SOL    HW230141   2.568   2.048   1.662
 9748SOL     OW30142   0.308   0.280   3.088
 9748SOL    HW130143   0.347   0.229   3.165
 9748SOL    HW230144   0.326   0.378   3.101
 9749SOL     OW30145   0.617   2.017   2.257
 9749SOL    HW130146   0.621   2.048   2.352
 9749SOL    HW230147   0.523   2.027   2.222
 9750SOL     OW30148   5.916   4.581   4.061
 9750SOL    HW130149   5.947   4.606   4.153
 9750SOL    HW230150   5.886   4.664   4.013
 9751SOL     OW30151   2.664   0.320   0.852
 9751SOL    HW130152   2.654   0.419   0.861
 9751SOL    HW230153   2.577   0.276   0.871
 9752SOL     OW30154   3.906   2.538   6.878
 9752SOL    HW130155   3.911   2.536   6.778
 9752SOL    HW230156   3.895   2.632   6.909
 9753SOL     OW30157   1.079   5.612   6.030
 9753SOL    HW130158   1.017   5.674   6.079
 9753SOL    HW230159   1.077   5.633   5.932
 9754SOL     OW30160   4.040   0.002   0.449
 9754SOL    HW130161   4.042   0.095   0.485
 9754SOL    HW230162   4.057   6.963   0.524
 9755SOL     OW30163   2.993   4.084   5.207
 9755SOL    HW130164   3.005   4.183   5.204
 9755SOL    HW230165   2.999   4.052   5.301
 9756SOL     OW30166   5.714   2.054   6.148
 9756SOL    HW130167   5.751   2.147   6.147
 9756SOL    HW230168   5.637   2.049   6.084
 9757SOL     OW30169   5.168   4.733   4.199
 9757SOL    HW130170   5.203   4.699   4.286
 9757SOL    HW230171   5.210   4.822   4.179
 9758SOL     OW30172   1.112   1.321   6.741
 9758SOL    HW130173   1.188   1.360   6.794
 9758SOL    HW230174   1.110   1.362   6.650
 9759SOL     OW30175   0.782   1.601   6.819
 9759SOL    HW130176   0.808   1.505   6.830
 9759SOL    HW230177   0.863   1.658   6.831
 9760SOL     OW30178   4.953   2.467   0.175
 9760SOL    HW130179   4.903   2.445   0.258
 9760SOL    HW230180   4.949   2.566   0.159
 9761SOL     OW30181   1.191   1.606   1.783
 9761SOL    HW130182   1.155   1.543   1.714
 9761SOL    HW230183   1.124   1.678   1.801
 9762SOL     OW30184   3.173   1.803   4.801
 9762SOL    HW130185   3.181   1.895   4.763
 9762SOL    HW230186   3.155   1.738   4.727
 9763SOL     OW30187   6.421   1.024   3.363
 9763SOL    HW130188   6.351   1.052   3.297
 9763SOL    HW230189   6.506   1.073   3.343
 9764SOL     OW30190   6.322   2.072   3.114
 9764SOL    HW130191   6.302   2.064   3.016
 9764SOL    HW230192   6.410   2.029   3.133
 9765SOL     OW30193   6.478   1.204   3.042
 9765SOL    HW130194   6.475   1.161   2.952
 9765SOL    HW230195   6.542   1.154   3.101
 9766SOL     OW30196   1.985   0.074   3.174
 9766SOL    HW130197   1.964   0.169   3.151
 9766SOL    HW230198   2.009   0.024   3.092
 9767SOL     OW30199   1.980   2.708   5.107
 9767SOL    HW130200   1.949   2.781   5.045
 9767SOL    HW230201   2.076   2.725   5.132
 9768SOL     OW30202   5.641   2.208   1.043
 9768SOL    HW130203   5.570   2.141   1.019
 9768SOL    HW230204   5.616   2.298   1.006
 9769SOL     OW30205   3.552   0.471   4.992
 9769SOL    HW130206   3.650   0.489   4.998
 9769SOL    HW230207   3.502   0.557   4.981
 9770SOL     OW30208   3.522   1.923   5.496
 9770SOL    HW130209   3.587   1.991   5.462
 9770SOL    HW230210   3.558   1.831   5.479
 9771SOL     OW30211   2.261   0.047   1.659
 9771SOL    HW130212   2.260   0.049   1.759
 9771SOL    HW230213   2.268   6.978   1.628
 9772SOL     OW30214   1.851   6.615   1.912
 9772SOL    HW130215   1.754   6.626   1.893
 9772SOL    HW230216   1.872   6.651   2.003
 9773SOL     OW30217   5.813   4.757   3.486
 9773SOL    HW130218   5.800   4.690   3.412
 9773SOL    HW230219   5.780   4.846   3.456
 9774SOL     OW30220   0.623   4.389   3.709
 9774SOL    HW130221   0.618   4.397   3.609
 9774SOL    HW230222   0.675   4.308   3.733
 9775SOL     OW30223   2.887   0.428   3.103
 9775SOL    HW130224   2.791   0.402   3.114
 9775SOL    HW230225   2.905   0.511   3.157
 9776SOL     OW30226   1.164   4.899   6.301
 9776SOL    HW130227   1.260   4.873   6.290
 9776SOL    HW230228   1.135   4.881   6.395
 9777SOL     OW30229   5.126   6.263   0.327
 9777SOL    HW130230   5.143   6.165   0.336
 9777SOL    HW230231   5.060   6.292   0.396
 9778SOL     OW30232   0.286   2.143   4.630
 9778SOL    HW130233   0.364   2.200   4.655
 9778SOL    HW230234   0.228   2.130   4.711
 9779SOL     OW30235   0.781   2.306   3.867
 9779SOL    HW130236   0.775   2.290   3.769
 9779SOL    HW230237   0.851   2.247   3.907
 9780SOL     OW30238   2.037   1.518   1.034
 9780SOL    HW130239   1.978   1.451   0.991
 9780SOL    HW230240   2.015   1.609   1.000
 9781SOL     OW30241   2.125   3.550   4.817
 9781SOL    HW130242   2.193   3.613   4.854
 9781SOL    HW230243   2.091   3.491   4.891
 9782SOL     OW30244   0.567   1.883   0.919
 9782SOL    HW130245   0.599   1.844   1.005
 9782SOL    HW230246   0.636   1.944   0.882
 9783SOL     OW30247   4.404   1.773   3.591
 9783SOL    HW130248   4.377   1.740   3.500
 9783SOL    HW230249   4.402   1.697   3.656
 9784SOL     OW30250   3.406   1.043   6.064
 9784SOL    HW130251   3.446   1.134   6.055
 9784SOL    HW230252   3.405   0.997   5.975
 9785SOL     OW30253   6.190   2.268   5.381
 9785SOL    HW130254   6.117   2.333   5.404
 9785SOL    HW230255   6.226   2.227   5.465
 9786SOL     OW30256   2.821   4.237   0.553
 9786SOL    HW130257   2.741   4.290   0.526
 9786SOL    HW230258   2.818   4.219   0.652
 9787SOL     OW30259   4.055   3.660   4.422
 9787SOL    HW130260   4.070   3.759   4.414
 9787SOL    HW230261   4.065   3.617   4.333
 9788SOL     OW30262   1.243   6.171   1.962
 9788SOL    HW130263   1.297   6.141   1.884
 9788SOL    HW230264   1.175   6.100   1.984
 9789SOL     OW30265   2.733   0.114   0.053
 9789SOL    HW130266   2.655   0.062   0.019
 9789SOL    HW230267   2.703   0.205   0.081
 9790SOL     OW30268   6.317   4.491   6.347
 9790SOL    HW130269   6.244   4.457   6.406
 9790SOL    HW230270   6.283   4.500   6.254
 9791SOL     OW30271   0.991   0.395   0.422
 9791SOL    HW130272   1.058   0.329   0.458
 9791SOL    HW230273   0.936   0.431   0.498
 9792SOL     OW30274   3.834   4.977   1.048
 9792SOL    HW130275   3.851   5.076   1.045
 9792SOL    HW230276   3.841   4.945   1.142
 9793SOL     OW30277   4.072   0.116   1.651
 9793SOL    HW130278   3.991   0.166   1.682
 9793SOL    HW230279   4.044   0.039   1.595
 9794SOL     OW30280   5.191   4.182   5.135
 9794SOL    HW130281   5.249   4.148   5.210
 9794SOL    HW230282   5.203   4.123   5.055
 9795SOL     OW30283   1.208   3.107   4.120
 9795SOL    HW130284   1.216   3.200   4.156
 9795SOL    HW230285   1.281   3.050   4.157
 9796SOL     OW30286   3.559   4.064   3.680
 9796SOL    HW130287   3.558   4.098   3.774
 9796SOL    HW230288   3.581   3.966   3.681
 9797SOL     OW30289   2.164   6.132   0.410
 9797SOL    HW130290   2.122   6.125   0.501
 9797SOL    HW230291   2.183   6.228   0.389
 9798SOL     OW30292   2.087   1.761   0.879
 9798SOL    HW130293   2.079   1.861   0.878
 9798SOL    HW230294   2.047   1.724   0.795
 9799SOL     OW30295   3.472   4.181   6.067
 9799SOL    HW130296   3.415   4.145   5.993
 9799SOL    HW230297   3.474   4.116   6.142
 9800SOL     OW30298   5.641   4.004   3.969
 9800SOL    HW130299   5.602   4.061   3.896
 9800SOL    HW230300   5.598   4.029   4.056
 9801SOL     OW30301   5.130   4.872   0.357
 9801SOL    HW130302   5.198   4.874   0.283
 9801SOL    HW230303   5.168   4.917   0.438
 9802SOL     OW30304   4.032   4.753   0.504
 9802SOL    HW130305   3.944   4.708   0.522
 9802SOL    HW230306   4.098   4.685   0.474
 9803SOL     OW30307   1.878   3.529   6.265
 9803SOL    HW130308   1.953   3.480   6.309
 9803SOL    HW230309   1.799   3.468   6.254
 9804SOL     OW30310   0.192   6.139   3.294
 9804SOL    HW130311   0.147   6.076   3.230
 9804SOL    HW230312   0.132   6.218   3.310
 9805SOL     OW30313   1.144   6.943   3.202
 9805SOL    HW130314   1.207   6.894   3.262
 9805SOL    HW230315   1.059   6.891   3.193
 9806SOL     OW30316   2.305   2.430   6.326
 9806SOL    HW130317   2.227   2.488   6.302
 9806SOL    HW230318   2.302   2.410   6.424
 9807SOL     OW30319   3.185   3.307   2.240
 9807SOL    HW130320   3.245   3.333   2.164
 9807SOL    HW230321   3.220   3.347   2.325
 9808SOL     OW30322   3.778   5.575   3.953
 9808SOL    HW130323   3.708   5.583   4.024
 9808SOL    HW230324   3.737   5.537   3.870
 9809SOL     OW30325   1.251   3.626   0.465
 9809SOL    HW130326   1.348   3.620   0.489
 9809SOL    HW230327   1.196   3.625   0.549
 9810SOL     OW30328   2.951   2.134   4.992
 9810SOL    HW130329   2.997   2.098   4.911
 9810SOL    HW230330   3.012   2.199   5.038
 9811SOL     OW30331   5.870   3.972   3.637
 9811SOL    HW130332   5.786   3.925   3.610
 9811SOL    HW230333   5.847   4.051   3.694
 9812SOL     OW30334   2.932   1.094   4.553
 9812SOL    HW130335   2.865   1.162   4.524
 9812SOL    HW230336   2.968   1.046   4.473
 9813SOL     OW30337   5.870   2.004   1.051
 9813SOL    HW130338   5.788   2.057   1.075
 9813SOL    HW230339   5.931   2.061   0.995
 9814SOL     OW30340   5.213   1.326   6.985
 9814SOL    HW130341   5.228   1.320   6.887
 9814SOL    HW230342   5.295   1.363   0.004
 9815SOL     OW30343   4.734   2.371   4.323
 9815SOL    HW130344   4.712   2.462   4.288
 9815SOL    HW230345   4.832   2.366   4.343
 9816SOL     OW30346   0.920   0.645   6.404
 9816SOL    HW130347   0.912   0.722   6.341
 9816SOL    HW230348   1.017   0.624   6.417
 9817SOL     OW30349   0.640   6.997   3.098
 9817SOL    HW130350   0.700   6.942   3.039
 9817SOL    HW230351   0.643   6.961   3.191
 9818SOL     OW30352   6.411   2.086   4.659
 9818SOL    HW130353   6.406   2.004   4.602
 9818SOL    HW230354   6.326   2.097   4.710
 9819SOL     OW30355   4.742   2.448   3.322
 9819SOL    HW130356   4.693   2.454   3.409
 9819SOL    HW230357   4.813   2.379   3.328
 9820SOL     OW30358   3.617   3.181   6.305
 9820SOL    HW130359   3.523   3.215   6.301
 9820SOL    HW230360   3.670   3.236   6.369
 9821SOL     OW30361   5.431   0.619   6.542
 9821SOL    HW130362   5.340   0.658   6.549
 9821SOL    HW230363   5.461   0.620   6.447
 9822SOL     OW30364   0.924   6.783   3.193
 9822SOL    HW130365   0.875   6.820   3.272
 9822SOL    HW230366   0.944   6.686   3.210
 9823SOL     OW30367   3.906   0.046   1.189
 9823SOL    HW130368   3.910   0.115   1.262
 9823SOL    HW230369   3.949   0.082   1.107
 9824SOL     OW30370   2.198   4.094   5.890
 9824SOL    HW130371   2.246   4.017   5.931
 9824SOL    HW230372   2.180   4.074   5.793
 9825SOL     OW30373   3.269   5.544   5.077
 9825SOL    HW130374   3.304   5.583   5.163
 9825SOL    HW230375   3.217   5.461   5.097
 9826SOL     OW30376   5.006   5.665   6.220
 9826SOL    HW130377   4.988   5.696   6.126
 9826SOL    HW230378   5.054   5.578   6.218
 9827SOL     OW30379   2.057   3.948   4.132
 9827SOL    HW130380   2.094   4.004   4.058
 9827SOL    HW230381   2.127   3.935   4.202
 9828SOL     OW30382   2.854   2.853   6.523
 9828SOL    HW130383   2.778   2.810   6.475
 9828SOL    HW230384   2.833   2.949   6.539
 9829SOL     OW30385   2.876   6.668   0.834
 9829SOL    HW130386   2.777   6.655   0.833
 9829SOL    HW230387   2.911   6.668   0.740
 9830SOL     OW30388   5.371   2.498   1.679
 9830SOL    HW130389   5.349   2.468   1.772
 9830SOL    HW230390   5.390   2.418   1.622
 9831SOL     OW30391   1.643   6.093   0.904
 9831SOL    HW130392   1.674   6.185   0.927
 9831SOL    HW230393   1.545   6.095   0.884
 9832SOL     OW30394   5.079   5.117   2.324
 9832SOL    HW130395   5.028   5.175   2.261
 9832SOL    HW230396   5.067   5.149   2.417
 9833SOL     OW30397   3.259   3.004   4.812
 9833SOL    HW130398   3.295   2.918   4.849
 9833SOL    HW230399   3.175   2.986   4.762
 9834SOL     OW30400   3.039   3.936   5.710
 9834SOL    HW130401   3.113   3.983   5.760
 9834SOL    HW230402   2.951   3.972   5.740
 9835SOL     OW30403   3.734   2.397   5.855
 9835SOL    HW130404   3.655   2.424   5.909
 9835SOL    HW230405   3.764   2.474   5.799
 9836SOL     OW30406   6.038   4.330   3.735
 9836SOL    HW130407   6.096   4.316   3.654
 9836SOL    HW230408   6.095   4.335   3.817
 9837SOL     OW30409   2.343   0.290   2.745
 9837SOL    HW130410   2.350   0.371   2.803
 9837SOL    HW230411   2.345   0.318   2.648
 9838SOL     OW30412   0.737   0.007   6.324
 9838SOL    HW130413   0.716   7.005   6.418
 9838SOL    HW230414   0.814   0.071   6.324
 9839SOL     OW30415   5.919   1.329   2.934
 9839SOL    HW130416   6.013   1.295   2.923
 9839SOL    HW230417   5.895   1.329   3.031
 9840SOL     OW30418   0.477   1.109   1.396
 9840SOL    HW130419   0.500   1.018   1.431
 9840SOL    HW230420   0.463   1.104   1.297
 9841SOL     OW30421   1.029   4.509   4.729
 9841SOL    HW130422   1.128   4.493   4.739
 9841SOL    HW230423   0.982   4.420   4.723
 9842SOL     OW30424   3.634   4.177   3.407
 9842SOL    HW130425   3.554   4.213   3.358
 9842SOL    HW230426   3.608   4.153   3.500
 9843SOL     OW30427   6.605   2.088   1.968
 9843SOL    HW130428   6.625   2.127   2.058
 9843SOL    HW230429   6.507   2.091   1.951
 9844SOL     OW30430   5.239   0.398   2.437
 9844SOL    HW130431   5.156   0.418   2.489
 9844SOL    HW230432   5.248   0.463   2.362
 9845SOL     OW30433   2.784   1.660   4.692
 9845SOL    HW130434   2.686   1.661   4.711
 9845SOL    HW230435   2.805   1.583   4.632
 9846SOL     OW30436   4.096   3.403   2.451
 9846SOL    HW130437   4.138   3.358   2.372
 9846SOL    HW230438   4.100   3.502   2.440
 9847SOL     OW30439   3.587   2.660   5.337
 9847SOL    HW130440   3.674   2.689   5.297
 9847SOL    HW230441   3.600   2.574   5.386
 9848SOL     OW30442   3.339   2.431   6.338
 9848SOL    HW130443   3.294   2.475   6.260
 9848SOL    HW230444   3.312   2.335   6.342
 9849SOL     OW30445   6.175   0.489   0.210
 9849SOL    HW130446   6.161   0.502   0.309
 9849SOL    HW230447   6.217   0.571   0.172
 9850SOL     OW30448   5.797   5.740   2.834
 9850SOL    HW130449   5.784   5.653   2.785
 9850SOL    HW230450   5.870   5.792   2.790
 9851SOL     OW30451   4.645   2.079   5.689
 9851SOL    HW130452   4.714   2.015   5.656
 9851SOL    HW230453   4.601   2.040   5.771
 9852SOL     OW30454   4.319   2.074   2.891
 9852SOL    HW130455   4.259   2.012   2.941
 9852SOL    HW230456   4.414   2.054   2.914
 9853SOL     OW30457   5.070   3.877   3.104
 9853SOL    HW130458   5.016   3.893   3.187
 9853SOL    HW230459   5.164   3.856   3.130
 9854SOL     OW30460   6.823   5.503   4.844
 9854SOL    HW130461   6.855   5.502   4.749
 9854SOL    HW230462   6.858   5.422   4.891
 9855SOL     OW30463   2.317   4.204   2.012
 9855SOL    HW130464   2.238   4.235   2.064
 9855SOL    HW230465   2.291   4.129   1.951
 9856SOL     OW30466   5.048   4.213   6.988
 9856SOL    HW130467   5.063   4.311   6.976
 9856SOL    HW230468   5.092   4.183   0.048
 9857SOL     OW30469   4.389   1.746   4.570
 9857SOL    HW130470   4.406   1.826   4.513
 9857SOL    HW230471   4.427   1.665   4.526
 9858SOL     OW30472   0.072   1.105   1.204
 9858SOL    HW130473   0.057   1.197   1.166
 9858SOL    HW230474   0.132   1.053   1.143
 9859SOL     OW30475   6.128   0.190   1.243
 9859SOL    HW130476   6.064   0.146   1.180
 9859SOL    HW230477   6.109   0.160   1.336
 9860SOL     OW30478   6.709   1.168   2.875
 9860SOL    HW130479   6.780   1.115   2.922
 9860SOL    HW230480   6.673   1.114   2.799
 9861SOL     OW30481   3.069   6.992   3.190
 9861SOL    HW130482   2.980   6.947   3.186
 9861SOL    HW230483   3.065   0.054   3.140
 9862SOL     OW30484   2.623   4.886   0.409
 9862SOL    HW130485   2.646   4.980   0.382
 9862SOL    HW230486   2.697   4.848   0.463
 9863SOL     OW30487   2.889   0.258   3.617
 9863SOL    HW130488   2.913   0.242   3.521
 9863SOL    HW230489   2.950   0.204   3.676
 9864SOL     OW30490   3.861   6.116   3.906
 9864SOL    HW130491   3.818   6.047   3.964
 9864SOL    HW230492   3.892   6.192   3.962
 9865SOL     OW30493   1.681   1.032   3.910
 9865SOL    HW130494   1.732   0.958   3.953
 9865SOL    HW230495   1.648   1.095   3.981
 9866SOL     OW30496   5.526   4.207   5.334
 9866SOL    HW130497   5.560   4.282   5.389
 9866SOL    HW230498   5.603   4.160   5.291
 9867SOL     OW30499   5.867   0.457   1.082
 9867SOL    HW130500   5.840   0.462   0.986
 9867SOL    HW230501   5.845   0.366   1.118
 9868SOL     OW30502   1.090   4.056   5.289
 9868SOL    HW130503   1.106   4.123   5.217
 9868SOL    HW230504   1.076   3.966   5.248
 9869SOL     OW30505   1.580   3.356   2.098
 9869SOL    HW130506   1.649   3.377   2.029
 9869SOL    HW230507   1.623   3.347   2.187
 9870SOL     OW30508   4.574   5.822   2.863
 9870SOL    HW130509   4.557   5.890   2.934
 9870SOL    HW230510   4.671   5.799   2.861
 9871SOL     OW30511   0.994   0.013   5.636
 9871SOL    HW130512   0.954   0.000   5.546
 9871SOL    HW230513   1.094   0.022   5.628
 9872SOL     OW30514   3.277   4.992   4.327
 9872SOL    HW130515   3.200   4.928   4.319
 9872SOL    HW230516   3.248   5.082   4.295
 9873SOL     OW30517   2.840   2.496   1.218
 9873SOL    HW130518   2.924   2.454   1.250
 9873SOL    HW230519   2.819   2.575   1.275
 9874SOL     OW30520   0.801   3.699   3.993
 9874SOL    HW130521   0.704   3.710   3.970
 9874SOL    HW230522   0.856   3.754   3.930
 9875SOL     OW30523   6.849   6.733   2.154
 9875SOL    HW130524   6.842   6.832   2.168
 9875SOL    HW230525   6.837   6.686   2.242
 9876SOL     OW30526   6.186   0.782   2.481
 9876SOL    HW130527   6.166   0.685   2.495
 9876SOL    HW230528   6.231   0.820   2.562
 9877SOL     OW30529   0.333   5.618   3.290
 9877SOL    HW130530   0.270   5.605   3.214
 9877SOL    HW230531   0.320   5.709   3.330
 9878SOL     OW30532   2.763   5.257   4.955
 9878SOL    HW130533   2.818   5.332   4.993
 9878SOL    HW230534   2.797   5.170   4.989
 9879SOL     OW30535   5.831   5.403   3.869
 9879SOL    HW130536   5.918   5.435   3.832
 9879SOL    HW230537   5.775   5.368   3.794
 9880SOL     OW30538   2.737   1.519   5.516
 9880SOL    HW130539   2.769   1.579   5.590
 9880SOL    HW230540   2.808   1.511   5.446
 9881SOL     OW30541   1.790   1.162   4.882
 9881SOL    HW130542   1.787   1.074   4.929
 9881SOL    HW230543   1.717   1.165   4.813
 9882SOL     OW30544   1.095   2.228   3.926
 9882SOL    HW130545   1.081   2.319   3.964
 9882SOL    HW230546   1.162   2.179   3.981
 9883SOL     OW30547   1.810   5.474   0.193
 9883SOL    HW130548   1.783   5.570   0.183
 9883SOL    HW230549   1.812   5.431   0.103
 9884SOL     OW30550   4.173   1.896   3.030
 9884SOL    HW130551   4.194   1.798   3.035
 9884SOL    HW230552   4.163   1.933   3.122
 9885SOL     OW30553   6.942   3.001   5.629
 9885SOL    HW130554   6.962   2.915   5.675
 9885SOL    HW230555   6.918   2.983   5.534
 9886SOL     OW30556   0.717   3.949   1.436
 9886SOL    HW130557   0.776   4.006   1.492
 9886SOL    HW230558   0.752   3.855   1.435
 9887SOL     OW30559   3.752   0.591   6.099
 9887SOL    HW130560   3.806   0.511   6.071
 9887SOL    HW230561   3.669   0.560   6.146
 9888SOL     OW30562   6.243   4.189   2.032
 9888SOL    HW130563   6.218   4.205   2.127
 9888SOL    HW230564   6.180   4.237   1.971
 9889SOL     OW30565   0.286   5.517   1.673
 9889SOL    HW130566   0.231   5.439   1.703
 9889SOL    HW230567   0.383   5.496   1.688
 9890SOL     OW30568   1.515   1.896   0.434
 9890SOL    HW130569   1.439   1.893   0.369
 9890SOL    HW230570   1.487   1.945   0.516
 9891SOL     OW30571   5.487   2.876   1.946
 9891SOL    HW130572   5.574   2.905   1.986
 9891SOL    HW230573   5.451   2.799   1.999
 9892SOL     OW30574   6.924   4.929   0.727
 9892SOL    HW130575   6.952   4.987   0.651
 9892SOL    HW230576   6.972   4.958   0.810
 9893SOL     OW30577   1.008   6.880   1.318
 9893SOL    HW130578   1.103   6.849   1.320
 9893SOL    HW230579   0.986   6.917   1.229
 9894SOL     OW30580   2.678   2.973   1.691
 9894SOL    HW130581   2.603   2.928   1.739
 9894SOL    HW230582   2.754   2.908   1.679
 9895SOL     OW30583   6.752   3.833   5.171
 9895SOL    HW130584   6.764   3.928   5.144
 9895SOL    HW230585   6.734   3.828   5.269
 9896SOL     OW30586   6.216   0.750   6.917
 9896SOL    HW130587   6.127   0.793   6.931
 9896SOL    HW230588   6.208   0.681   6.844
 9897SOL     OW30589   6.150   5.727   2.964
 9897SOL    HW130590   6.149   5.824   2.986
 9897SOL    HW230591   6.144   5.716   2.864
 9898SOL     OW30592   1.606   6.208   4.065
 9898SOL    HW130593   1.627   6.158   3.981
 9898SOL    HW230594   1.542   6.282   4.045
 9899SOL     OW30595   0.982   5.895   6.919
 9899SOL    HW130596   0.958   5.837   6.842
 9899SOL    HW230597   0.973   5.991   6.893
 9900SOL     OW30598   2.022   3.532   3.683
 9900SOL    HW130599   2.083   3.508   3.759
 9900SOL    HW230600   2.077   3.561   3.604
 9901SOL     OW30601   2.887   0.302   6.114
 9901SOL    HW130602   2.975   0.338   6.083
 9901SOL    HW230603   2.849   0.241   6.044
 9902SOL     OW30604   3.323   4.859   0.676
 9902SOL    HW130605   3.334   4.833   0.772
 9902SOL    HW230606   3.352   4.954   0.664
 9903SOL     OW30607   5.210   1.468   2.433
 9903SOL    HW130608   5.215   1.465   2.333
 9903SOL    HW230609   5.115   1.472   2.462
 9904SOL     OW30610   1.293   4.065   6.692
 9904SOL    HW130611   1.376   4.085   6.744
 9904SOL    HW230612   1.240   4.149   6.680
 9905SOL     OW30613   2.363   6.910   6.250
 9905SOL    HW130614   2.431   6.841   6.274
 9905SOL    HW230615   2.328   6.893   6.158
 9906SOL     OW30616   2.516   3.633   1.682
 9906SOL    HW130617   2.437   3.599   1.732
 9906SOL    HW230618   2.511   3.732   1.674
 9907SOL     OW30619   6.365   0.486   1.270
 9907SOL    HW130620   6.304   0.495   1.192
 9907SOL    HW230621   6.456   0.458   1.238
 9908SOL     OW30622   5.874   1.783   5.107
 9908SOL    HW130623   5.928   1.755   5.028
 9908SOL    HW230624   5.919   1.859   5.154
 9909SOL     OW30625   4.376   0.644   3.547
 9909SOL    HW130626   4.321   0.604   3.620
 9909SOL    HW230627   4.350   0.603   3.460
 9910SOL     OW30628   1.341   4.617   2.811
 9910SOL    HW130629   1.333   4.630   2.712
 9910SOL    HW230630   1.289   4.688   2.858
 9911SOL     OW30631   2.861   5.930   2.283
 9911SOL    HW130632   2.792   5.867   2.319
 9911SOL    HW230633   2.838   5.955   2.190
 9912SOL     OW30634   4.305   0.733   1.394
 9912SOL    HW130635   4.360   0.763   1.472
 9912SOL    HW230636   4.363   0.731   1.312
 9913SOL     OW30637   5.914   4.001   1.313
 9913SOL    HW130638   5.914   3.952   1.225
 9913SOL    HW230639   5.991   3.967   1.368
 9914SOL     OW30640   5.444   1.434   4.690
 9914SOL    HW130641   5.434   1.361   4.757
 9914SOL    HW230642   5.381   1.509   4.711
 9915SOL     OW30643   4.911   0.280   3.466
 9915SOL    HW130644   4.845   0.228   3.520
 9915SOL    HW230645   4.939   0.362   3.517
 9916SOL     OW30646   2.216   2.604   2.709
 9916SOL    HW130647   2.206   2.634   2.804
 9916SOL    HW230648   2.313   2.593   2.688
 9917SOL     OW30649   5.625   4.417   6.691
 9917SOL    HW130650   5.544   4.372   6.730
 9917SOL    HW230651   5.641   4.503   6.739
 9918SOL     OW30652   3.601   1.390   3.428
 9918SOL    HW130653   3.567   1.446   3.504
 9918SOL    HW230654   3.641   1.450   3.358
 9919SOL     OW30655   6.832   5.237   1.558
 9919SOL    HW130656   6.786   5.167   1.503
 9919SOL    HW230657   6.877   5.302   1.497
 9920SOL     OW30658   4.731   1.449   2.286
 9920SOL    HW130659   4.642   1.452   2.330
 9920SOL    HW230660   4.732   1.375   2.218
 9921SOL     OW30661   4.288   6.835   5.373
 9921SOL    HW130662   4.326   6.928   5.371
 9921SOL    HW230663   4.260   6.813   5.467
 9922SOL     OW30664   2.957   4.192   0.312
 9922SOL    HW130665   3.044   4.143   0.318
 9922SOL    HW230666   2.925   4.214   0.404
 9923SOL     OW30667   5.074   5.097   6.547
 9923SOL    HW130668   4.991   5.150   6.564
 9923SOL    HW230669   5.107   5.057   6.632
 9924SOL     OW30670   6.408   1.911   4.459
 9924SOL    HW130671   6.446   1.901   4.367
 9924SOL    HW230672   6.320   1.864   4.464
 9925SOL     OW30673   6.728   3.378   4.398
 9925SOL    HW130674   6.697   3.361   4.305
 9925SOL    HW230675   6.813   3.430   4.396
 9926SOL     OW30676   4.142   2.417   0.797
 9926SOL    HW130677   4.187   2.340   0.842
 9926SOL    HW230678   4.085   2.382   0.722
 9927SOL     OW30679   6.987   6.681   0.499
 9927SOL    HW130680   0.040   6.731   0.534
 9927SOL    HW230681   6.924   6.744   0.453
 9928SOL     OW30682   4.781   4.208   2.695
 9928SOL    HW130683   4.751   4.195   2.601
 9928SOL    HW230684   4.791   4.306   2.714
 9929SOL     OW30685   3.001   4.603   5.538
 9929SOL    HW130686   3.038   4.662   5.610
 9929SOL    HW230687   2.943   4.533   5.578
 9930SOL     OW30688   6.554   6.493   5.058
 9930SOL    HW130689   6.505   6.510   5.143
 9930SOL    HW230690   6.507   6.420   5.007
 9931SOL     OW30691   0.462   5.566   4.192
 9931SOL    HW130692   0.445   5.577   4.095
 9931SOL    HW230693   0.408   5.632   4.244
 9932SOL     OW30694   3.107   4.150   6.833
 9932SOL    HW130695   3.119   4.051   6.827
 9932SOL    HW230696   3.188   4.190   6.878
 9933SOL     OW30697   0.049   5.977   3.087
 9933SOL    HW130698   6.993   6.011   3.040
 9933SOL    HW230699   0.122   5.964   3.021
 9934SOL     OW30700   6.245   2.206   5.645
 9934SOL    HW130701   6.321   2.220   5.708
 9934SOL    HW230702   6.207   2.115   5.657
 9935SOL     OW30703   2.575   6.659   6.603
 9935SOL    HW130704   2.562   6.679   6.506
 9935SOL    HW230705   2.518   6.721   6.657
 9936SOL     OW30706   6.666   5.330   0.037
 9936SOL    HW130707   6.684   5.271   0.116
 9936SOL    HW230708   6.700   5.286   6.980
 9937SOL     OW30709   6.490   1.516   1.266
 9937SOL    HW130710   6.469   1.607   1.303
 9937SOL    HW230711   6.427   1.449   1.305
 9938SOL     OW30712   6.617   4.423   2.934
 9938SOL    HW130713   6.715   4.435   2.918
 9938SOL    HW230714   6.570   4.510   2.918
 9939SOL     OW30715   4.363   2.171   1.068
 9939SOL    HW130716   4.348   2.183   0.969
 9939SOL    HW230717   4.430   2.238   1.100
 9940SOL     OW30718   1.290   0.680   1.266
 9940SOL    HW130719   1.323   0.588   1.243
 9940SOL    HW230720   1.239   0.717   1.189
 9941SOL     OW30721   3.016   3.557   5.387
 9941SOL    HW130722   3.049   3.619   5.458
 9941SOL    HW230723   3.051   3.586   5.298
 9942SOL     OW30724   2.553   5.219   2.775
 9942SOL    HW130725   2.577   5.249   2.868
 9942SOL    HW230726   2.511   5.128   2.779
 9943SOL     OW30727   0.636   4.382   5.626
 9943SOL    HW130728   0.614   4.352   5.533
 9943SOL    HW230729   0.599   4.474   5.640
 9944SOL     OW30730   1.561   4.452   6.430
 9944SOL    HW130731   1.605   4.385   6.490
 9944SOL    HW230732   1.572   4.543   6.468
 9945SOL     OW30733   5.847   5.620   6.641
 9945SOL    HW130734   5.855   5.694   6.707
 9945SOL    HW230735   5.937   5.600   6.602
 9946SOL     OW30736   5.311   0.762   3.704
 9946SOL    HW130737   5.376   0.838   3.708
 9946SOL    HW230738   5.291   0.740   3.609
 9947SOL     OW30739   1.758   2.293   4.675
 9947SOL    HW130740   1.728   2.210   4.722
 9947SOL    HW230741   1.717   2.373   4.719
 9948SOL     OW30742   5.848   4.421   4.642
 9948SOL    HW130743   5.824   4.506   4.689
 9948SOL    HW230744   5.765   4.367   4.627
 9949SOL     OW30745   6.535   4.370   4.728
 9949SOL    HW130746   6.592   4.343   4.805
 9949SOL    HW230747   6.593   4.392   4.649
 9950SOL     OW30748   5.714   5.900   5.430
 9950SOL    HW130749   5.640   5.914   5.364
 9950SOL    HW230750   5.754   5.988   5.454
 9951SOL     OW30751   0.060   1.028   4.028
 9951SOL    HW130752   0.093   0.944   3.985
 9951SOL    HW230753   0.001   1.006   4.105
 9952SOL     OW30754   1.027   3.888   0.760
 9952SOL    HW130755   0.957   3.946   0.803
 9952SOL    HW230756   1.002   3.871   0.665
 9953SOL     OW30757   5.630   2.565   4.675
 9953SOL    HW130758   5.662   2.499   4.607
 9953SOL    HW230759   5.533   2.585   4.659
 9954SOL     OW30760   6.496   1.063   6.494
 9954SOL    HW130761   6.475   1.160   6.480
 9954SOL    HW230762   6.497   1.016   6.406
 9955SOL     OW30763   6.420   3.527   5.300
 9955SOL    HW130764   6.404   3.562   5.392
 9955SOL    HW230765   6.393   3.431   5.295
 9956SOL     OW30766   1.367   6.875   2.584
 9956SOL    HW130767   1.449   6.881   2.528
 9956SOL    HW230768   1.287   6.899   2.528
 9957SOL     OW30769   5.147   5.784   2.620
 9957SOL    HW130770   5.127   5.880   2.643
 9957SOL    HW230771   5.243   5.765   2.637
 9958SOL     OW30772   3.561   5.645   0.011
 9958SOL    HW130773   3.492   5.663   0.080
 9958SOL    HW230774   3.647   5.617   0.055
 9959SOL     OW30775   4.127   3.671   5.180
 9959SOL    HW130776   4.162   3.620   5.101
 9959SOL    HW230777   4.168   3.762   5.181
 9960SOL     OW30778   6.835   0.629   1.905
 9960SOL    HW130779   6.853   0.626   2.004
 9960SOL    HW230780   6.915   0.665   1.858
 9961SOL     OW30781   1.382   5.031   4.695
 9961SOL    HW130782   1.445   4.979   4.752
 9961SOL    HW230783   1.377   5.125   4.728
 9962SOL     OW30784   6.260   6.051   2.794
 9962SOL    HW130785   6.352   6.017   2.773
 9962SOL    HW230786   6.230   6.013   2.882
 9963SOL     OW30787   3.092   3.394   6.449
 9963SOL    HW130788   3.083   3.296   6.436
 9963SOL    HW230789   3.111   3.438   6.361
 9964SOL     OW30790   5.173   4.525   5.497
 9964SOL    HW130791   5.134   4.434   5.509
 9964SOL    HW230792   5.104   4.594   5.517
 9965SOL     OW30793   3.739   6.652   5.922
 9965SOL    HW130794   3.690   6.653   6.009
 9965SOL    HW230795   3.831   6.688   5.935
 9966SOL     OW30796   2.031   6.009   2.047
 9966SOL    HW130797   2.016   5.993   2.144
 9966SOL    HW230798   2.050   6.106   2.032
 9967SOL     OW30799   0.130   0.182   2.147
 9967SOL    HW130800   0.107   0.277   2.165
 9967SOL    HW230801   0.219   0.176   2.102
 9968SOL     OW30802   3.565   3.837   0.899
 9968SOL    HW130803   3.594   3.881   0.984
 9968SOL    HW230804   3.465   3.836   0.894
 9969SOL     OW30805   1.572   3.207   2.718
 9969SOL    HW130806   1.570   3.125   2.661
 9969SOL    HW230807   1.661   3.214   2.763
 9970SOL     OW30808   5.190   4.132   2.519
 9970SOL    HW130809   5.278   4.092   2.544
 9970SOL    HW230810   5.171   4.211   2.578
 9971SOL     OW30811   2.221   5.518   1.446
 9971SOL    HW130812   2.241   5.423   1.470
 9971SOL    HW230813   2.154   5.520   1.372
 9972SOL     OW30814   4.501   5.226   1.455
 9972SOL    HW130815   4.414   5.274   1.461
 9972SOL    HW230816   4.575   5.287   1.483
 9973SOL     OW30817   4.926   1.928   4.261
 9973SOL    HW130818   4.966   1.999   4.319
 9973SOL    HW230819   4.837   1.901   4.298
 9974SOL     OW30820   0.533   3.069   3.005
 9974SOL    HW130821   0.457   3.028   2.956
 9974SOL    HW230822   0.551   3.160   2.968
 9975SOL     OW30823   6.464   4.396   6.984
 9975SOL    HW130824   6.496   4.390   0.053
 9975SOL    HW230825   6.395   4.468   6.977
 9976SOL     OW30826   0.296   6.421   5.740
 9976SOL    HW130827   0.389   6.419   5.776
 9976SOL    HW230828   0.273   6.333   5.699
 9977SOL     OW30829   6.781   5.252   5.681
 9977SOL    HW130830   6.799   5.157   5.657
 9977SOL    HW230831   6.786   5.264   5.780
 9978SOL     OW30832   0.175   2.207   3.932
 9978SOL    HW130833   0.209   2.186   3.840
 9978SOL    HW230834   0.252   2.207   3.996
 9979SOL     OW30835   6.446   5.310   5.239
 9979SOL    HW130836   6.471   5.389   5.182
 9979SOL    HW230837   6.509   5.235   5.221
 9980SOL     OW30838   1.814   0.987   5.779
 9980SOL    HW130839   1.836   1.074   5.736
 9980SOL    HW230840   1.897   0.945   5.816
 9981SOL     OW30841   2.242   1.892   2.194
 9981SOL    HW130842   2.341   1.906   2.208
 9981SOL    HW230843   2.228   1.846   2.107
 9982SOL     OW30844   6.716   6.418   4.131
 9982SOL    HW130845   6.705   6.517   4.136
 9982SOL    HW230846   6.809   6.393   4.157
 9983SOL     OW30847   6.669   2.617   2.854
 9983SOL    HW130848   6.737   2.570   2.911
 9983SOL    HW230849   6.707   2.634   2.764
 9984SOL     OW30850   2.174   0.868   6.975
 9984SOL    HW130851   2.098   0.833   6.921
 9984SOL    HW230852   2.141   0.905   0.036
 9985SOL     OW30853   1.540   1.185   0.775
 9985SOL    HW130854   1.450   1.224   0.796
 9985SOL    HW230855   1.604   1.258   0.754
 9986SOL     OW30856   5.452   4.187   5.859
 9986SOL    HW130857   5.552   4.184   5.870
 9986SOL    HW230858   5.409   4.198   5.949
 9987SOL     OW30859   6.937   3.339   4.044
 9987SOL    HW130860   7.020   3.284   4.049
 9987SOL    HW230861   6.962   3.434   4.022
 9988SOL     OW30862   6.929   5.573   4.236
 9988SOL    HW130863   6.871   5.626   4.299
 9988SOL    HW230864   6.872   5.527   4.169
 9989SOL     OW30865   6.298   3.764   3.431
 9989SOL    HW130866   6.340   3.769   3.340
 9989SOL    HW230867   6.224   3.697   3.430
 9990SOL     OW30868   2.459   5.449   1.801
 9990SOL    HW130869   2.453   5.390   1.721
 9990SOL    HW230870   2.490   5.540   1.773
 9991SOL     OW30871   2.028   2.259   3.234
 9991SOL    HW130872   2.068   2.335   3.184
 9991SOL    HW230873   2.025   2.178   3.176
 9992SOL     OW30874   5.675   5.221   0.112
 9992SOL    HW130875   5.644   5.273   0.033
 9992SOL    HW230876   5.751   5.162   0.085
 9993SOL     OW30877   3.000   0.379   0.260
 9993SOL    HW130878   2.995   0.430   0.346
 9993SOL    HW230879   3.079   0.410   0.207
 9994SOL     OW30880   6.012   4.483   3.195
 9994SOL    HW130881   6.059   4.412   3.247
 9994SOL    HW230882   6.067   4.566   3.192
 9995SOL     OW30883   4.826   0.885   3.068
 9995SOL    HW130884   4.805   0.969   3.119
 9995SOL    HW230885   4.825   0.807   3.130
 9996SOL     OW30886   3.104   3.191   1.073
 9996SOL    HW130887   3.198   3.185   1.040
 9996SOL    HW230888   3.042   3.154   1.003
 9997SOL     OW30889   3.477   1.561   0.180
 9997SOL    HW130890   3.568   1.527   0.201
 9997SOL    HW230891   3.441   1.514   0.099
 9998SOL     OW30892   5.704   4.781   6.122
 9998SOL    HW130893   5.763   4.712   6.164
 9998SOL    HW230894   5.760   4.853   6.081
 9999SOL     OW30895   6.285   3.465   5.787
 9999SOL    HW130896   6.189   3.460   5.761
 9999SOL    HW230897   6.334   3.387   5.748
10000SOL     OW30898   0.322   4.388   6.773
10000SOL    HW130899   0.304   4.418   6.866
10000SOL    HW230900   0.355   4.293   6.774
10001SOL     OW30901   4.891   6.812   1.871
10001SOL    HW130902   4.967   6.767   1.919
10001SOL    HW230903   4.828   6.851   1.939
10002SOL     OW30904   1.448   0.630   3.237
10002SOL    HW130905   1.467   0.654   3.142
10002SOL    HW230906   1.404   0.708   3.283
10003SOL     OW30907   3.790   1.307   3.631
10003SOL    HW130908   3.742   1.351   3.706
10003SOL    HW230909   3.725   1.285   3.558
10004SOL     OW30910   6.363   2.498   4.498
10004SOL    HW130911   6.294   2.437   4.459
10004SOL    HW230912   6.358   2.587   4.453
10005SOL     OW30913   5.141   0.409   4.794
10005SOL    HW130914   5.103   0.480   4.734
10005SOL    HW230915   5.128   0.436   4.889
10006SOL     OW30916   5.008   5.695   4.017
10006SOL    HW130917   5.017   5.609   4.067
10006SOL    HW230918   4.915   5.703   3.982
10007SOL     OW30919   6.760   4.484   6.006
10007SOL    HW130920   6.748   4.583   6.010
10007SOL    HW230921   6.826   4.455   6.074
10008SOL     OW30922   4.008   1.485   4.552
10008SOL    HW130923   3.965   1.437   4.476
10008SOL    HW230924   4.020   1.581   4.528
10009SOL     OW30925   2.052   4.086   1.626
10009SOL    HW130926   2.063   4.034   1.542
10009SOL    HW230927   1.968   4.057   1.672
10010SOL     OW30928   1.963   0.725   5.792
10010SOL    HW130929   1.882   0.737   5.850
10010SOL    HW230930   2.015   0.646   5.825
10011SOL     OW30931   5.920   1.239   5.869
10011SOL    HW130932   5.881   1.149   5.848
10011SOL    HW230933   5.891   1.267   5.961
10012SOL     OW30934   5.762   1.236   3.485
10012SOL    HW130935   5.748   1.200   3.393
10012SOL    HW230936   5.674   1.247   3.531
10013SOL     OW30937   0.115   1.277   3.382
10013SOL    HW130938   0.136   1.242   3.474
10013SOL    HW230939   0.189   1.253   3.319
10014SOL     OW30940   6.551   3.970   0.784
10014SOL    HW130941   6.645   3.939   0.800
10014SOL    HW230942   6.539   4.061   0.823
10015SOL     OW30943   2.024   4.930   0.482
10015SOL    HW130944   1.978   4.970   0.402
10015SOL    HW230945   2.017   4.993   0.559
10016SOL     OW30946   1.478   1.030   6.367
10016SOL    HW130947   1.545   1.014   6.440
10016SOL    HW230948   1.387   1.008   6.401
10017SOL     OW30949   2.981   1.767   2.984
10017SOL    HW130950   2.970   1.867   2.977
10017SOL    HW230951   2.892   1.724   2.982
10018SOL     OW30952   4.845   0.211   6.551
10018SOL    HW130953   4.930   0.259   6.529
10018SOL    HW230954   4.773   0.277   6.570
10019SOL     OW30955   0.319   1.323   3.206
10019SOL    HW130956   0.281   1.276   3.127
10019SOL    HW230957   0.351   1.414   3.179
10020SOL     OW30958   2.025   2.440   0.959
10020SOL    HW130959   2.041   2.388   0.875
10020SOL    HW230960   2.105   2.497   0.979
10021SOL     OW30961   0.675   2.153   1.616
10021SOL    HW130962   0.687   2.245   1.580
10021SOL    HW230963   0.764   2.107   1.620
10022SOL     OW30964   2.620   1.201   6.050
10022SOL    HW130965   2.611   1.257   6.132
10022SOL    HW230966   2.559   1.235   5.979
10023SOL     OW30967   0.211   4.995   1.174
10023SOL    HW130968   0.145   4.933   1.132
10023SOL    HW230969   0.169   5.042   1.251
10024SOL     OW30970   1.913   6.400   2.369
10024SOL    HW130971   1.886   6.303   2.373
10024SOL    HW230972   1.940   6.431   2.460
10025SOL     OW30973   1.377   0.980   0.150
10025SOL    HW130974   1.469   0.968   0.111
10025SOL    HW230975   1.383   0.978   0.249
10026SOL     OW30976   5.340   6.519   3.844
10026SOL    HW130977   5.350   6.518   3.745
10026SOL    HW230978   5.331   6.613   3.876
10027SOL     OW30979   6.826   3.996   4.041
10027SOL    HW130980   6.747   4.056   4.044
10027SOL    HW230981   6.862   3.983   4.133
10028SOL     OW30982   0.835   0.202   2.389
10028SOL    HW130983   0.926   0.234   2.414
10028SOL    HW230984   0.818   0.113   2.431
10029SOL     OW30985   4.691   1.779   4.741
10029SOL    HW130986   4.651   1.870   4.739
10029SOL    HW230987   4.623   1.712   4.709
10030SOL     OW30988   1.701   0.669   3.323
10030SOL    HW130989   1.738   0.584   3.361
10030SOL    HW230990   1.612   0.650   3.282
10031SOL     OW30991   5.392   4.578   5.072
10031SOL    HW130992   5.320   4.523   5.114
10031SOL    HW230993   5.457   4.518   5.025
10032SOL     OW30994   3.279   0.987   5.160
10032SOL    HW130995   3.317   1.015   5.248
10032SOL    HW230996   3.305   1.053   5.089
10033SOL     OW30997   6.686   2.958   4.765
10033SOL    HW130998   6.617   2.988   4.699
10033SOL    HW230999   6.764   2.918   4.716
10034SOL     OW31000   3.301   0.366   4.518
10034SOL    HW131001   3.383   0.341   4.467
10034SOL    HW231002   3.315   0.453   4.564
10035SOL     OW31003   6.767   5.572   1.626
10035SOL    HW131004   6.753   5.500   1.693
10035SOL    HW231005   6.696   5.565   1.555
10036SOL     OW31006   6.371   2.198   0.853
10036SOL    HW131007   6.421   2.116   0.824
10036SOL    HW231008   6.275   2.174   0.871
10037SOL     OW31009   6.757   1.812   6.861
10037SOL    HW131010   6.726   1.744   6.794
10037SOL    HW231011   6.680   1.866   6.892
10038SOL     OW31012   5.989   0.123   0.248
10038SOL    HW131013   5.966   0.164   0.336
10038SOL    HW231014   5.963   0.186   0.175
10039SOL     OW31015   3.511   0.761   3.610
10039SOL    HW131016   3.556   0.780   3.523
10039SOL    HW231017   3.413   0.746   3.594
10040SOL     OW31018   5.778   5.272   6.479
10040SOL    HW131019   5.877   5.264   6.490
10040SOL    HW231020   5.732   5.208   6.541
10041SOL     OW31021   3.423   6.111   6.665
10041SOL    HW131022   3.407   6.200   6.706
10041SOL    HW231023   3.365   6.042   6.709
10042SOL     OW31024   6.898   1.609   4.018
10042SOL    HW131025   6.979   1.594   4.075
10042SOL    HW231026   6.922   1.601   3.922
10043SOL     OW31027   6.229   1.865   5.131
10043SOL    HW131028   6.183   1.806   5.064
10043SOL    HW231029   6.317   1.894   5.095
10044SOL     OW31030   2.476   2.865   5.689
10044SOL    HW131031   2.561   2.818   5.715
10044SOL    HW231032   2.487   2.963   5.700
10045SOL     OW31033   4.110   0.919   1.466
10045SOL    HW131034   4.027   0.884   1.424
10045SOL    HW231035   4.188   0.862   1.441
10046SOL     OW31036   2.082   3.736   1.161
10046SOL    HW131037   2.138   3.690   1.092
10046SOL    HW231038   1.986   3.730   1.136
10047SOL     OW31039   0.965   3.084   6.018
10047SOL    HW131040   1.006   3.049   6.102
10047SOL    HW231041   0.904   3.161   6.039
10048SOL     OW31042   0.093   6.625   3.156
10048SOL    HW131043   0.131   6.708   3.115
10048SOL    HW231044   0.028   6.650   3.228
10049SOL     OW31045   1.005   1.714   5.946
10049SOL    HW131046   1.073   1.782   5.920
10049SOL    HW231047   0.993   1.715   6.046
10050SOL     OW31048   5.413   3.656   5.394
10050SOL    HW131049   5.326   3.608   5.384
10050SOL    HW231050   5.457   3.627   5.479
10051SOL     OW31051   0.595   4.375   4.910
10051SOL    HW131052   0.563   4.426   4.830
10051SOL    HW231053   0.576   4.278   4.898
10052SOL     OW31054   1.713   1.218   3.049
10052SOL    HW131055   1.678   1.179   2.964
10052SOL    HW231056   1.735   1.144   3.113
10053SOL     OW31057   5.055   5.031   4.044
10053SOL    HW131058   5.050   4.933   4.025
10053SOL    HW231059   4.965   5.073   4.030
10054SOL     OW31060   5.471   4.069   4.950
10054SOL    HW131061   5.374   4.053   4.934
10054SOL    HW231062   5.516   3.983   4.973
10055SOL     OW31063   6.699   2.643   6.717
10055SOL    HW131064   6.601   2.656   6.730
10055SOL    HW231065   6.727   2.557   6.758
10056SOL     OW31066   5.141   3.593   2.933
10056SOL    HW131067   5.064   3.648   2.901
10056SOL    HW231068   5.108   3.520   2.993
10057SOL     OW31069   5.879   3.928   5.810
10057SOL    HW131070   5.898   3.987   5.731
10057SOL    HW231071   5.944   3.852   5.812
10058SOL     OW31072   6.701   3.047   4.308
10058SOL    HW131073   6.790   3.029   4.266
10058SOL    HW231074   6.690   3.146   4.321
10059SOL     OW31075   6.143   1.492   0.873
10059SOL    HW131076   6.140   1.583   0.916
10059SOL    HW231077   6.220   1.488   0.810
10060SOL     OW31078   2.507   1.663   2.515
10060SOL    HW131079   2.435   1.733   2.521
10060SOL    HW231080   2.585   1.700   2.464
10061SOL     OW31081   4.147   1.407   3.802
10061SOL    HW131082   4.215   1.368   3.864
10061SOL    HW231083   4.190   1.479   3.747
10062SOL     OW31084   0.354   0.014   4.220
10062SOL    HW131085   0.262   0.052   4.214
10062SOL    HW231086   0.407   0.040   4.139
10063SOL     OW31087   2.202   2.100   4.236
10063SOL    HW131088   2.113   2.098   4.282
10063SOL    HW231089   2.259   2.171   4.277
10064SOL     OW31090   3.781   5.940   7.019
10064SOL    HW131091   3.695   5.989   0.010
10064SOL    HW231092   3.856   6.006   7.014
10065SOL     OW31093   1.577   0.958   1.359
10065SOL    HW131094   1.532   1.007   1.434
10065SOL    HW231095   1.631   0.883   1.396
10066SOL     OW31096   0.028   3.535   5.190
10066SOL    HW131097   0.126   3.524   5.172
10066SOL    HW231098   0.010   3.628   5.222
10067SOL     OW31099   0.605   3.217   6.708
10067SOL    HW131100   0.623   3.315   6.705
10067SOL    HW231101   0.643   3.173   6.627
10068SOL     OW31102   1.891   3.364   2.837
10068SOL    HW131103   1.859   3.427   2.908
10068SOL    HW231104   1.875   3.404   2.747
10069SOL     OW31105   3.727   5.083   1.835
10069SOL    HW131106   3.786   5.076   1.916
10069SOL    HW231107   3.644   5.133   1.860
10070SOL     OW31108   2.664   5.882   4.476
10070SOL    HW131109   2.734   5.854   4.541
10070SOL    HW231110   2.586   5.919   4.526
10071SOL     OW31111   0.475   6.270   3.752
10071SOL    HW131112   0.519   6.328   3.684
10071SOL    HW231113   0.394   6.227   3.712
10072SOL     OW31114   0.515   1.405   2.605
10072SOL    HW131115   0.551   1.369   2.519
10072SOL    HW231116   0.523   1.335   2.676
10073SOL     OW31117   6.139   2.850   3.800
10073SOL    HW131118   6.113   2.767   3.849
10073SOL    HW231119   6.229   2.837   3.757
10074SOL     OW31120   1.646   5.004   0.543
10074SOL    HW131121   1.690   4.916   0.526
10074SOL    HW231122   1.715   5.077   0.542
10075SOL     OW31123   2.079   1.511   2.180
10075SOL    HW131124   2.164   1.508   2.232
10075SOL    HW231125   2.032   1.597   2.198
10076SOL     OW31126   4.883   5.058   2.988
10076SOL    HW131127   4.945   5.120   3.037
10076SOL    HW231128   4.828   5.007   3.054
10077SOL     OW31129   6.253   3.353   0.114
10077SOL    HW131130   6.321   3.343   0.187
10077SOL    HW231131   6.246   3.268   0.062
10078SOL     OW31132   6.736   6.552   4.863
10078SOL    HW131133   6.683   6.602   4.795
10078SOL    HW231134   6.675   6.518   4.935
10079SOL     OW31135   5.770   2.859   3.401
10079SOL    HW131136   5.706   2.926   3.364
10079SOL    HW231137   5.818   2.898   3.480
10080SOL     OW31138   5.704   0.955   6.102
10080SOL    HW131139   5.785   0.930   6.155
10080SOL    HW231140   5.682   0.881   6.038
10081SOL     OW31141   1.630   1.534   6.543
10081SOL    HW131142   1.692   1.513   6.467
10081SOL    HW231143   1.590   1.449   6.577
10082SOL     OW31144   1.206   4.860   2.843
10082SOL    HW131145   1.129   4.862   2.906
10082SOL    HW231146   1.223   4.952   2.809
10083SOL     OW31147   3.371   4.912   3.754
10083SOL    HW131148   3.296   4.977   3.743
10083SOL    HW231149   3.374   4.881   3.849
10084SOL     OW31150   0.566   0.436   5.623
10084SOL    HW131151   0.592   0.532   5.625
10084SOL    HW231152   0.628   0.383   5.681
10085SOL     OW31153   3.804   6.542   0.068
10085SOL    HW131154   3.736   6.504   0.005
10085SOL    HW231155   3.779   6.635   0.094
10086SOL     OW31156   6.517   6.742   2.010
10086SOL    HW131157   6.427   6.704   1.987
10086SOL    HW231158   6.541   6.718   2.104
10087SOL     OW31159   0.647   6.765   4.199
10087SOL    HW131160   0.695   6.845   4.234
10087SOL    HW231161   0.665   6.687   4.259
10088SOL     OW31162   0.344   2.630   0.077
10088SOL    HW131163   0.301   2.717   0.054
10088SOL    HW231164   0.393   2.639   0.164
10089SOL     OW31165   4.095   1.841   2.050
10089SOL    HW131166   4.031   1.913   2.076
10089SOL    HW231167   4.055   1.752   2.073
10090SOL     OW31168   0.939   5.013   1.494
10090SOL    HW131169   0.960   5.102   1.453
10090SOL    HW231170   0.967   4.940   1.431
10091SOL     OW31171   6.619   5.358   6.286
10091SOL    HW131172   6.715   5.331   6.294
10091SOL    HW231173   6.600   5.432   6.351
10092SOL     OW31174   0.784   3.376   5.640
10092SOL    HW131175   0.720   3.405   5.569
10092SOL    HW231176   0.856   3.444   5.650
10093SOL     OW31177   5.282   3.753   5.687
10093SOL    HW131178   5.269   3.847   5.720
10093SOL    HW231179   5.377   3.743   5.655
10094SOL     OW31180   3.062   6.946   1.257
10094SOL    HW131181   3.061   6.849   1.284
10094SOL    HW231182   3.021   6.955   1.167
10095SOL     OW31183   5.120   2.391   5.208
10095SOL    HW131184   5.173   2.461   5.257
10095SOL    HW231185   5.181   2.337   5.151
10096SOL     OW31186   5.003   0.759   2.601
10096SOL    HW131187   4.978   0.805   2.687
10096SOL    HW231188   5.079   0.808   2.559
10097SOL     OW31189   2.249   1.446   5.885
10097SOL    HW131190   2.265   1.382   5.961
10097SOL    HW231191   2.161   1.492   5.898
10098SOL     OW31192   3.119   5.532   4.448
10098SOL    HW131193   3.089   5.501   4.538
10098SOL    HW231194   3.056   5.497   4.378
10099SOL     OW31195   6.513   3.934   1.805
10099SOL    HW131196   6.610   3.949   1.826
10099SOL    HW231197   6.503   3.849   1.753
10100SOL     OW31198   5.342   5.381   5.158
10100SOL    HW131199   5.291   5.321   5.220
10100SOL    HW231200   5.325   5.476   5.183
10101SOL     OW31201   0.702   2.412   1.540
10101SOL    HW131202   0.681   2.470   1.618
10101SOL    HW231203   0.706   2.468   1.457
10102SOL     OW31204   5.883   6.801   0.817
10102SOL    HW131205   5.923   6.718   0.856
10102SOL    HW231206   5.956   6.861   0.784
10103SOL     OW31207   0.799   0.729   5.804
10103SOL    HW131208   0.863   0.678   5.746
10103SOL    HW231209   0.817   0.708   5.900
10104SOL     OW31210   2.133   0.479   5.887
10104SOL    HW131211   2.044   0.441   5.865
10104SOL    HW231212   2.204   0.428   5.839
10105SOL     OW31213   3.130   1.570   5.841
10105SOL    HW131214   3.118   1.646   5.778
10105SOL    HW231215   3.040   1.539   5.872
10106SOL     OW31216   4.924   6.265   1.222
10106SOL    HW131217   4.948   6.186   1.167
10106SOL    HW231218   4.986   6.341   1.202
10107SOL     OW31219   5.411   4.796   6.576
10107SOL    HW131220   5.363   4.732   6.635
10107SOL    HW231221   5.345   4.847   6.520
10108SOL     OW31222   1.420   3.253   0.672
10108SOL    HW131223   1.459   3.209   0.592
10108SOL    HW231224   1.332   3.212   0.694
10109SOL     OW31225   0.920   1.270   0.062
10109SOL    HW131226   0.898   1.194   0.123
10109SOL    HW231227   1.009   1.308   0.088
10110SOL     OW31228   4.744   5.538   2.696
10110SOL    HW131229   4.789   5.596   2.764
10110SOL    HW231230   4.780   5.445   2.704
10111SOL     OW31231   1.271   2.120   1.959
10111SOL    HW131232   1.171   2.125   1.958
10111SOL    HW231233   1.302   2.097   2.051
10112SOL     OW31234   6.381   2.806   3.739
10112SOL    HW131235   6.443   2.759   3.676
10112SOL    HW231236   6.434   2.858   3.806
10113SOL     OW31237   4.975   1.109   6.798
10113SOL    HW131238   4.977   1.011   6.820
10113SOL    HW231239   5.067   1.147   6.806
10114SOL     OW31240   4.182   1.490   3.327
10114SOL    HW131241   4.093   1.511   3.368
10114SOL    HW231242   4.178   1.510   3.229
10115SOL     OW31243   3.355   1.153   4.927
10115SOL    HW131244   3.371   1.181   4.832
10115SOL    HW231245   3.408   1.212   4.988
10116SOL     OW31246   6.449   0.762   5.054
10116SOL    HW131247   6.376   0.743   5.120
10116SOL    HW231248   6.518   0.689   5.059
10117SOL     OW31249   6.379   5.426   4.784
10117SOL    HW131250   6.300   5.400   4.839
10117SOL    HW231251   6.415   5.345   4.737
10118SOL     OW31252   3.343   4.908   5.166
10118SOL    HW131253   3.340   4.896   5.067
10118SOL    HW231254   3.265   4.863   5.207
10119SOL     OW31255   0.383   5.006   4.366
10119SOL    HW131256   0.290   4.973   4.348
10119SOL    HW231257   0.434   4.937   4.416
10120SOL     OW31258   1.660   3.088   2.119
10120SOL    HW131259   1.573   3.136   2.130
10120SOL    HW231260   1.735   3.154   2.128
10121SOL     OW31261   6.217   4.349   0.936
10121SOL    HW131262   6.136   4.291   0.935
10121SOL    HW231263   6.196   4.436   0.982
10122SOL     OW31264   0.299   1.951   3.363
10122SOL    HW131265   0.332   2.022   3.426
10122SOL    HW231266   0.359   1.872   3.368
10123SOL     OW31267   5.550   6.126   1.260
10123SOL    HW131268   5.638   6.174   1.256
10123SOL    HW231269   5.545   6.060   1.186
10124SOL     OW31270   1.038   4.495   2.894
10124SOL    HW131271   0.987   4.449   2.968
10124SOL    HW231272   1.104   4.558   2.934
10125SOL     OW31273   1.493   2.259   0.185
10125SOL    HW131274   1.565   2.242   0.118
10125SOL    HW231275   1.493   2.356   0.211
10126SOL     OW31276   6.026   0.522   6.807
10126SOL    HW131277   5.941   0.492   6.764
10126SOL    HW231278   6.067   0.445   6.856
10127SOL     OW31279   2.061   5.020   6.205
10127SOL    HW131280   1.985   5.085   6.201
10127SOL    HW231281   2.118   5.030   6.123
10128SOL     OW31282   3.375   0.453   0.388
10128SOL    HW131283   3.289   0.468   0.339
10128SOL    HW231284   3.426   0.378   0.346
10129SOL     OW31285   6.178   1.564   3.813
10129SOL    HW131286   6.148   1.646   3.861
10129SOL    HW231287   6.268   1.580   3.773
10130SOL     OW31288   1.685   2.375   2.287
10130SOL    HW131289   1.624   2.310   2.331
10130SOL    HW231290   1.760   2.398   2.349
10131SOL     OW31291   1.998   0.637   4.483
10131SOL    HW131292   2.013   0.712   4.420
10131SOL    HW231293   2.082   0.583   4.492
10132SOL     OW31294   6.855   0.969   2.968
10132SOL    HW131295   6.787   0.899   2.988
10132SOL    HW231296   6.947   0.933   2.987
10133SOL     OW31297   4.705   5.929   0.985
10133SOL    HW131298   4.640   5.855   0.969
10133SOL    HW231299   4.657   6.017   0.982
10134SOL     OW31300   5.921   0.665   2.229
10134SOL    HW131301   5.923   0.751   2.279
10134SOL    HW231302   5.951   0.680   2.135
10135SOL     OW31303   5.682   0.063   3.552
10135SOL    HW131304   5.597   0.058   3.606
10135SOL    HW231305   5.659   0.075   3.456
10136SOL     OW31306   4.602   1.926   2.649
10136SOL    HW131307   4.596   1.828   2.628
10136SOL    HW231308   4.679   1.966   2.600
10137SOL     OW31309   0.009   5.841   5.821
10137SOL    HW131310   6.998   5.785   5.747
10137SOL    HW231311   6.981   5.826   5.904
10138SOL     OW31312   5.513   1.302   6.837
10138SOL    HW131313   5.535   1.398   6.856
10138SOL    HW231314   5.429   1.297   6.783
10139SOL     OW31315   3.408   3.666   5.385
10139SOL    HW131316   3.311   3.650   5.372
10139SOL    HW231317   3.460   3.590   5.346
10140SOL     OW31318   6.827   5.273   5.967
10140SOL    HW131319   6.858   5.261   6.061
10140SOL    HW231320   6.738   5.318   5.967
10141SOL     OW31321   2.715   1.513   4.072
10141SOL    HW131322   2.650   1.537   3.999
10141SOL    HW231323   2.776   1.591   4.088
10142SOL     OW31324   6.239   6.142   4.161
10142SOL    HW131325   6.140   6.152   4.155
10142SOL    HW231326   6.262   6.085   4.240
10143SOL     OW31327   5.712   3.028   0.366
10143SOL    HW131328   5.621   2.988   0.375
10143SOL    HW231329   5.745   3.055   0.457
10144SOL     OW31330   3.656   6.111   5.170
10144SOL    HW131331   3.583   6.162   5.126
10144SOL    HW231332   3.736   6.109   5.111
10145SOL     OW31333   5.116   5.861   0.702
10145SOL    HW131334   5.175   5.798   0.652
10145SOL    HW231335   5.126   5.953   0.664
10146SOL     OW31336   0.484   3.314   4.107
10146SOL    HW131337   0.582   3.310   4.123
10146SOL    HW231338   0.436   3.270   4.183
10147SOL     OW31339   4.631   5.881   6.376
10147SOL    HW131340   4.553   5.820   6.393
10147SOL    HW231341   4.689   5.885   6.457
10148SOL     OW31342   0.790   5.045   6.644
10148SOL    HW131343   0.835   5.097   6.572
10148SOL    HW231344   0.824   5.074   6.733
10149SOL     OW31345   4.571   4.347   0.800
10149SOL    HW131346   4.581   4.262   0.852
10149SOL    HW231347   4.490   4.396   0.831
10150SOL     OW31348   5.074   4.113   0.255
10150SOL    HW131349   5.027   4.030   0.224
10150SOL    HW231350   5.008   4.172   0.303
10151SOL     OW31351   6.488   0.340   5.496
10151SOL    HW131352   6.405   0.324   5.551
10151SOL    HW231353   6.464   0.339   5.399
10152SOL     OW31354   5.506   6.494   2.726
10152SOL    HW131355   5.567   6.476   2.803
10152SOL    HW231356   5.556   6.478   2.641
10153SOL     OW31357   5.602   4.780   3.714
10153SOL    HW131358   5.667   4.712   3.682
10153SOL    HW231359   5.510   4.740   3.717
10154SOL     OW31360   4.440   5.283   5.495
10154SOL    HW131361   4.358   5.234   5.522
10154SOL    HW231362   4.444   5.291   5.395
10155SOL     OW31363   4.181   2.243   5.724
10155SOL    HW131364   4.251   2.301   5.767
10155SOL    HW231365   4.105   2.230   5.787
10156SOL     OW31366   4.775   0.787   0.967
10156SOL    HW131367   4.819   0.725   1.031
10156SOL    HW231368   4.808   0.880   0.982
10157SOL     OW31369   0.235   3.181   1.319
10157SOL    HW131370   0.315   3.223   1.275
10157SOL    HW231371   0.232   3.084   1.297
10158SOL     OW31372   5.758   6.310   1.826
10158SOL    HW131373   5.697   6.234   1.805
10158SOL    HW231374   5.799   6.344   1.741
10159SOL     OW31375   3.317   3.232   3.082
10159SOL    HW131376   3.262   3.314   3.071
10159SOL    HW231377   3.398   3.252   3.136
10160SOL     OW31378   2.227   4.237   3.306
10160SOL    HW131379   2.138   4.261   3.344
10160SOL    HW231380   2.219   4.153   3.253
10161SOL     OW31381   4.299   4.551   6.335
10161SOL    HW131382   4.220   4.585   6.284
10161SOL    HW231383   4.291   4.452   6.348
10162SOL     OW31384   1.678   3.853   2.517
10162SOL    HW131385   1.626   3.907   2.582
10162SOL    HW231386   1.619   3.827   2.440
10163SOL     OW31387   0.648   6.031   5.152
10163SOL    HW131388   0.701   6.032   5.237
10163SOL    HW231389   0.638   5.936   5.121
10164SOL     OW31390   6.959   3.011   3.165
10164SOL    HW131391   6.885   3.025   3.231
10164SOL    HW231392   0.020   2.996   3.214
10165SOL     OW31393   6.307   3.570   4.155
10165SOL    HW131394   6.372   3.547   4.084
10165SOL    HW231395   6.291   3.669   4.156
10166SOL     OW31396   1.355   1.879   0.828
10166SOL    HW131397   1.393   1.872   0.920
10166SOL    HW231398   1.424   1.913   0.765
10167SOL     OW31399   1.021   6.545   6.615
10167SOL    HW131400   0.930   6.512   6.590
10167SOL    HW231401   1.067   6.580   6.534
10168SOL     OW31402   5.434   1.094   0.552
10168SOL    HW131403   5.487   1.164   0.504
10168SOL    HW231404   5.376   1.046   0.487
10169SOL     OW31405   6.612   3.283   3.230
10169SOL    HW131406   6.539   3.217   3.216
10169SOL    HW231407   6.694   3.235   3.261
10170SOL     OW31408   6.254   6.045   6.775
10170SOL    HW131409   6.278   6.088   6.862
10170SOL    HW231410   6.235   5.948   6.790
10171SOL     OW31411   1.853   3.153   5.470
10171SOL    HW131412   1.952   3.136   5.467
10171SOL    HW231413   1.836   3.250   5.483
10172SOL     OW31414   6.268   0.122   3.579
10172SOL    HW131415   6.342   0.075   3.531
10172SOL    HW231416   6.242   0.069   3.659
10173SOL     OW31417   3.481   5.217   6.887
10173SOL    HW131418   3.465   5.119   6.888
10173SOL    HW231419   3.537   5.243   6.966
10174SOL     OW31420   4.522   6.262   2.415
10174SOL    HW131421   4.428   6.290   2.435
10174SOL    HW231422   4.545   6.286   2.320
10175SOL     OW31423   6.959   2.075   3.858
10175SOL    HW131424   7.017   2.128   3.919
10175SOL    HW231425   6.863   2.100   3.873
10176SOL     OW31426   6.254   3.078   5.676
10176SOL    HW131427   6.171   3.093   5.730
10176SOL    HW231428   6.313   3.159   5.681
10177SOL     OW31429   2.062   0.882   2.091
10177SOL    HW131430   2.086   0.801   2.145
10177SOL    HW231431   2.123   0.958   2.114
10178SOL     OW31432   1.535   1.442   0.005
10178SOL    HW131433   1.609   1.490   6.985
10178SOL    HW231434   1.568   1.402   0.090
10179SOL     OW31435   0.112   4.231   0.948
10179SOL    HW131436   0.136   4.317   0.903
10179SOL    HW231437   0.195   4.177   0.964
10180SOL     OW31438   3.408   6.964   5.678
10180SOL    HW131439   3.449   0.029   5.665
10180SOL    HW231440   3.449   6.899   5.614
10181SOL     OW31441   6.981   3.873   1.300
10181SOL    HW131442   0.000   3.795   1.256
10181SOL    HW231443   6.895   3.892   1.254
10182SOL     OW31444   5.074   1.108   0.140
10182SOL    HW131445   5.173   1.092   0.141
10182SOL    HW231446   5.052   1.173   0.067
10183SOL     OW31447   6.405   2.057   6.054
10183SOL    HW131448   6.362   1.972   6.024
10183SOL    HW231449   6.406   2.123   5.979
10184SOL     OW31450   5.890   3.595   6.061
10184SOL    HW131451   5.872   3.506   6.103
10184SOL    HW231452   5.921   3.660   6.131
10185SOL     OW31453   3.712   5.742   2.647
10185SOL    HW131454   3.700   5.768   2.551
10185SOL    HW231455   3.625   5.753   2.696
10186SOL     OW31456   4.791   3.804   6.090
10186SOL    HW131457   4.847   3.884   6.110
10186SOL    HW231458   4.837   3.722   6.125
10187SOL     OW31459   2.629   4.871   6.066
10187SOL    HW131460   2.578   4.906   6.144
10187SOL    HW231461   2.680   4.946   6.023
10188SOL     OW31462   2.813   6.951   0.224
10188SOL    HW131463   2.805   0.004   0.163
10188SOL    HW231464   2.736   6.951   0.288
10189SOL     OW31465   1.190   1.431   6.495
10189SOL    HW131466   1.226   1.524   6.498
10189SOL    HW231467   1.203   1.392   6.404
10190SOL     OW31468   3.223   4.804   1.595
10190SOL    HW131469   3.300   4.748   1.563
10190SOL    HW231470   3.171   4.752   1.663
10191SOL     OW31471   5.620   5.963   6.551
10191SOL    HW131472   5.615   6.031   6.624
10191SOL    HW231473   5.540   5.902   6.557
10192SOL     OW31474   2.221   1.723   4.891
10192SOL    HW131475   2.228   1.757   4.797
10192SOL    HW231476   2.268   1.786   4.952
10193SOL     OW31477   4.032   3.757   2.953
10193SOL    HW131478   4.047   3.855   2.944
10193SOL    HW231479   4.032   3.714   2.863
10194SOL     OW31480   3.734   0.308   4.218
10194SOL    HW131481   3.764   0.215   4.197
10194SOL    HW231482   3.636   0.315   4.201
10195SOL     OW31483   5.218   0.137   2.371
10195SOL    HW131484   5.129   0.162   2.333
10195SOL    HW231485   5.263   0.218   2.408
10196SOL     OW31486   5.594   1.555   2.986
10196SOL    HW131487   5.604   1.630   3.050
10196SOL    HW231488   5.499   1.523   2.986
10197SOL     OW31489   6.374   0.479   2.498
10197SOL    HW131490   6.462   0.518   2.468
10197SOL    HW231491   6.350   0.402   2.439
10198SOL     OW31492   3.065   6.470   1.614
10198SOL    HW131493   2.969   6.469   1.641
10198SOL    HW231494   3.112   6.544   1.662
10199SOL     OW31495   0.932   1.836   6.762
10199SOL    HW131496   0.921   1.865   6.667
10199SOL    HW231497   0.887   1.901   6.823
10200SOL     OW31498   4.880   4.350   5.417
10200SOL    HW131499   4.893   4.380   5.512
10200SOL    HW231500   4.897   4.251   5.411
10201SOL     OW31501   0.941   5.648   2.167
10201SOL    HW131502   0.956   5.561   2.120
10201SOL    HW231503   0.873   5.702   2.118
10202SOL     OW31504   0.997   3.731   1.859
10202SOL    HW131505   0.920   3.680   1.896
10202SOL    HW231506   1.077   3.718   1.916
10203SOL     OW31507   1.980   3.074   2.351
10203SOL    HW131508   2.026   3.086   2.439
10203SOL    HW231509   2.044   3.038   2.284
10204SOL     OW31510   3.103   4.780   5.232
10204SOL    HW131511   3.049   4.864   5.238
10204SOL    HW231512   3.044   4.704   5.203
10205SOL     OW31513   5.631   1.839   3.607
10205SOL    HW131514   5.593   1.751   3.578
10205SOL    HW231515   5.708   1.863   3.549
10206SOL     OW31516   5.839   6.625   6.307
10206SOL    HW131517   5.810   6.648   6.214
10206SOL    HW231518   5.873   6.531   6.309
10207SOL     OW31519   2.736   1.136   2.791
10207SOL    HW131520   2.738   1.207   2.862
10207SOL    HW231521   2.789   1.057   2.822
10208SOL     OW31522   5.614   4.973   5.495
10208SOL    HW131523   5.607   4.912   5.416
10208SOL    HW231524   5.677   5.048   5.475
10209SOL     OW31525   6.922   0.550   6.205
10209SOL    HW131526   7.012   0.585   6.233
10209SOL    HW231527   6.859   0.558   6.282
10210SOL     OW31528   6.031   6.792   2.376
10210SOL    HW131529   6.014   6.774   2.280
10210SOL    HW231530   5.993   6.718   2.432
10211SOL     OW31531   3.894   6.289   5.377
10211SOL    HW131532   3.831   6.244   5.440
10211SOL    HW231533   3.972   6.228   5.359
10212SOL     OW31534   0.707   1.257   4.047
10212SOL    HW131535   0.627   1.302   4.087
10212SOL    HW231536   0.697   1.254   3.948
10213SOL     OW31537   5.740   1.866   3.274
10213SOL    HW131538   5.793   1.930   3.330
10213SOL    HW231539   5.760   1.773   3.303
10214SOL     OW31540   6.282   0.918   2.233
10214SOL    HW131541   6.266   0.890   2.327
10214SOL    HW231542   6.233   0.857   2.171
10215SOL     OW31543   3.741   3.492   6.055
10215SOL    HW131544   3.737   3.392   6.062
10215SOL    HW231545   3.782   3.530   6.138
10216SOL     OW31546   5.944   0.090   1.053
10216SOL    HW131547   5.939   0.124   0.959
10216SOL    HW231548   5.861   0.117   1.103
10217SOL     OW31549   2.882   2.253   3.981
10217SOL    HW131550   2.933   2.296   3.907
10217SOL    HW231551   2.843   2.167   3.949
10218SOL     OW31552   2.295   0.843   0.860
10218SOL    HW131553   2.380   0.871   0.903
10218SOL    HW231554   2.309   0.756   0.811
10219SOL     OW31555   0.386   2.185   2.003
10219SOL    HW131556   0.369   2.132   2.086
10219SOL    HW231557   0.407   2.280   2.027
10220SOL     OW31558   4.403   1.852   1.400
10220SOL    HW131559   4.391   1.891   1.309
10220SOL    HW231560   4.313   1.833   1.440
10221SOL     OW31561   2.953   0.698   5.376
10221SOL    HW131562   3.036   0.689   5.431
10221SOL    HW231563   2.940   0.793   5.350
10222SOL     OW31564   1.651   4.255   5.148
10222SOL    HW131565   1.599   4.188   5.201
10222SOL    HW231566   1.599   4.281   5.067
10223SOL     OW31567   1.725   4.868   6.827
10223SOL    HW131568   1.706   4.858   6.925
10223SOL    HW231569   1.787   4.945   6.813
10224SOL     OW31570   0.799   0.246   4.347
10224SOL    HW131571   0.888   0.283   4.318
10224SOL    HW231572   0.743   0.320   4.384
10225SOL     OW31573   6.919   6.040   4.541
10225SOL    HW131574   6.967   5.972   4.598
10225SOL    HW231575   6.928   6.130   4.582
10226SOL     OW31576   2.761   1.212   6.775
10226SOL    HW131577   2.726   1.256   6.692
10226SOL    HW231578   2.702   1.235   6.853
10227SOL     OW31579   4.753   4.506   0.209
10227SOL    HW131580   4.766   4.421   0.260
10227SOL    HW231581   4.711   4.485   0.121
10228SOL     OW31582   0.481   5.288   2.595
10228SOL    HW131583   0.464   5.273   2.498
10228SOL    HW231584   0.404   5.254   2.649
10229SOL     OW31585   0.959   0.349   3.662
10229SOL    HW131586   0.923   0.303   3.581
10229SOL    HW231587   1.012   0.429   3.635
10230SOL     OW31588   6.151   6.799   3.671
10230SOL    HW131589   6.156   6.880   3.729
10230SOL    HW231590   6.199   6.816   3.585
10231SOL     OW31591   6.139   6.892   4.853
10231SOL    HW131592   6.193   6.808   4.860
10231SOL    HW231593   6.196   6.970   4.879
10232SOL     OW31594   3.424   0.999   4.266
10232SOL    HW131595   3.480   1.014   4.184
10232SOL    HW231596   3.328   1.008   4.243
10233SOL     OW31597   4.153   2.849   6.162
10233SOL    HW131598   4.099   2.931   6.143
10233SOL    HW231599   4.093   2.770   6.167
10234SOL     OW31600   5.129   0.150   0.849
10234SOL    HW131601   5.053   0.155   0.785
10234SOL    HW231602   5.210   0.195   0.810
10235SOL     OW31603   4.727   1.500   6.962
10235SOL    HW131604   4.673   1.419   6.983
10235SOL    HW231605   4.794   1.478   6.891
10236SOL     OW31606   2.282   6.796   1.589
10236SOL    HW131607   2.261   6.818   1.494
10236SOL    HW231608   2.197   6.773   1.637
10237SOL     OW31609   6.413   4.555   2.029
10237SOL    HW131610   6.440   4.465   1.993
10237SOL    HW231611   6.318   4.551   2.060
10238SOL     OW31612   3.716   4.613   5.314
10238SOL    HW131613   3.627   4.582   5.280
10238SOL    HW231614   3.774   4.533   5.331
10239SOL     OW31615   0.318   4.188   5.252
10239SOL    HW131616   0.323   4.140   5.164
10239SOL    HW231617   0.390   4.257   5.256
10240SOL     OW31618   1.187   4.644   3.073
10240SOL    HW131619   1.129   4.694   3.138
10240SOL    HW231620   1.283   4.662   3.093
10241SOL     OW31621   0.569   1.275   2.338
10241SOL    HW131622   0.667   1.255   2.345
10241SOL    HW231623   0.524   1.202   2.288
10242SOL     OW31624   0.104   1.359   5.688
10242SOL    HW131625   0.055   1.274   5.667
10242SOL    HW231626   0.115   1.412   5.604
10243SOL     OW31627   0.569   5.316   1.421
10243SOL    HW131628   0.539   5.394   1.367
10243SOL    HW231629   0.635   5.346   1.490
10244SOL     OW31630   2.487   4.944   6.747
10244SOL    HW131631   2.537   4.858   6.745
10244SOL    HW231632   2.532   5.007   6.811
10245SOL     OW31633   1.575   3.113   6.895
10245SOL    HW131634   1.559   3.024   6.938
10245SOL    HW231635   1.671   3.120   6.868
10246SOL     OW31636   2.941   3.805   4.284
10246SOL    HW131637   2.941   3.782   4.381
10246SOL    HW231638   3.006   3.879   4.267
10247SOL     OW31639   0.163   5.280   5.697
10247SOL    HW131640   0.119   5.317   5.779
10247SOL    HW231641   0.093   5.263   5.627
10248SOL     OW31642   3.062   0.389   2.216
10248SOL    HW131643   3.025   0.297   2.225
10248SOL    HW231644   3.135   0.402   2.283
10249SOL     OW31645   4.343   0.091   5.355
10249SOL    HW131646   4.435   0.103   5.393
10249SOL    HW231647   4.286   0.170   5.380
10250SOL     OW31648   6.121   1.067   1.415
10250SOL    HW131649   6.030   1.098   1.444
10250SOL    HW231650   6.154   0.997   1.478
10251SOL     OW31651   2.651   2.770   6.379
10251SOL    HW131652   2.690   2.803   6.293
10251SOL    HW231653   2.615   2.678   6.366
10252SOL     OW31654   6.102   6.597   0.857
10252SOL    HW131655   6.194   6.585   0.894
10252SOL    HW231656   6.077   6.517   0.802
10253SOL     OW31657   4.593   4.830   0.303
10253SOL    HW131658   4.684   4.871   0.308
10253SOL    HW231659   4.526   4.890   0.347
10254SOL     OW31660   2.970   1.813   4.971
10254SOL    HW131661   2.998   1.835   5.064
10254SOL    HW231662   3.051   1.810   4.912
10255SOL     OW31663   1.876   6.355   1.933
10255SOL    HW131664   1.961   6.319   1.972
10255SOL    HW231665   1.887   6.453   1.916
10256SOL     OW31666   5.041   0.229   0.407
10256SOL    HW131667   5.111   0.298   0.421
10256SOL    HW231668   4.955   0.273   0.382
10257SOL     OW31669   1.221   5.143   5.297
10257SOL    HW131670   1.173   5.224   5.262
10257SOL    HW231671   1.303   5.127   5.242
10258SOL     OW31672   4.892   6.365   3.459
10258SOL    HW131673   4.859   6.444   3.407
10258SOL    HW231674   4.889   6.386   3.556
10259SOL     OW31675   0.111   4.806   3.880
10259SOL    HW131676   0.109   4.706   3.877
10259SOL    HW231677   0.047   4.839   3.949
10260SOL     OW31678   0.681   6.531   3.086
10260SOL    HW131679   0.656   6.460   3.152
10260SOL    HW231680   0.713   6.489   3.001
10261SOL     OW31681   6.944   5.757   2.476
10261SOL    HW131682   7.025   5.697   2.480
10261SOL    HW231683   6.885   5.728   2.400
10262SOL     OW31684   3.341   5.078   4.600
10262SOL    HW131685   3.281   5.073   4.520
10262SOL    HW231686   3.297   5.133   4.671
10263SOL     OW31687   5.039   2.019   0.067
10263SOL    HW131688   5.128   2.061   0.085
10263SOL    HW231689   5.045   1.962   7.010
10264SOL     OW31690   5.890   1.515   6.349
10264SOL    HW131691   5.866   1.418   6.354
10264SOL    HW231692   5.876   1.557   6.439
10265SOL     OW31693   3.348   1.552   3.142
10265SOL    HW131694   3.320   1.472   3.194
10265SOL    HW231695   3.410   1.524   3.069
10266SOL     OW31696   3.872   3.936   6.341
10266SOL    HW131697   3.800   3.871   6.319
10266SOL    HW231698   3.833   4.015   6.388
10267SOL     OW31699   6.776   1.736   0.459
10267SOL    HW131700   6.824   1.666   0.405
10267SOL    HW231701   6.691   1.761   0.412
10268SOL     OW31702   5.460   5.960   1.538
10268SOL    HW131703   5.452   6.024   1.462
10268SOL    HW231704   5.371   5.922   1.559
10269SOL     OW31705   2.319   2.029   5.650
10269SOL    HW131706   2.359   2.112   5.688
10269SOL    HW231707   2.268   2.051   5.567
10270SOL     OW31708   2.018   6.210   0.625
10270SOL    HW131709   1.980   6.150   0.696
10270SOL    HW231710   1.943   6.254   0.575
10271SOL     OW31711   3.454   3.542   0.617
10271SOL    HW131712   3.405   3.601   0.552
10271SOL    HW231713   3.391   3.474   0.654
10272SOL     OW31714   1.361   0.811   4.409
10272SOL    HW131715   1.415   0.840   4.330
10272SOL    HW231716   1.317   0.891   4.450
10273SOL     OW31717   3.532   5.711   4.066
10273SOL    HW131718   3.459   5.646   4.044
10273SOL    HW231719   3.496   5.783   4.125
10274SOL     OW31720   1.482   5.208   5.486
10274SOL    HW131721   1.563   5.197   5.427
10274SOL    HW231722   1.400   5.211   5.429
10275SOL     OW31723   0.896   6.024   3.450
10275SOL    HW131724   0.850   5.961   3.387
10275SOL    HW231725   0.828   6.069   3.507
10276SOL     OW31726   0.095   5.568   6.143
10276SOL    HW131727   0.143   5.636   6.088
10276SOL    HW231728   0.019   5.611   6.191
10277SOL     OW31729   2.869   6.631   3.811
10277SOL    HW131730   2.888   6.566   3.737
10277SOL    HW231731   2.784   6.679   3.791
10278SOL     OW31732   6.868   0.833   6.293
10278SOL    HW131733   6.819   0.766   6.349
10278SOL    HW231734   6.818   0.847   6.208
10279SOL     OW31735   3.254   6.943   3.914
10279SOL    HW131736   3.244   6.847   3.940
10279SOL    HW231737   3.319   6.987   3.975
10280SOL     OW31738   2.065   4.666   0.840
10280SOL    HW131739   1.967   4.681   0.839
10280SOL    HW231740   2.109   4.739   0.892
10281SOL     OW31741   4.715   1.499   3.130
10281SOL    HW131742   4.790   1.459   3.078
10281SOL    HW231743   4.682   1.433   3.197
10282SOL     OW31744   0.322   2.560   3.680
10282SOL    HW131745   0.349   2.465   3.698
10282SOL    HW231746   0.223   2.566   3.675
10283SOL     OW31747   1.059   3.244   1.108
10283SOL    HW131748   1.008   3.307   1.166
10283SOL    HW231749   1.120   3.296   1.048
10284SOL     OW31750   5.281   3.718   5.018
10284SOL    HW131751   5.251   3.750   5.107
10284SOL    HW231752   5.358   3.655   5.029
10285SOL     OW31753   4.849   0.045   1.534
10285SOL    HW131754   4.913   6.997   1.556
10285SOL    HW231755   4.888   0.103   1.461
10286SOL     OW31756   3.607   1.378   2.734
10286SOL    HW131757   3.517   1.338   2.716
10286SOL    HW231758   3.649   1.407   2.648
10287SOL     OW31759   1.192   6.705   1.984
10287SOL    HW131760   1.249   6.648   1.926
10287SOL    HW231761   1.196   6.671   2.078
10288SOL     OW31762   5.020   5.554   3.156
10288SOL    HW131763   4.934   5.604   3.147
10288SOL    HW231764   5.094   5.619   3.176
10289SOL     OW31765   3.084   1.281   1.764
10289SOL    HW131766   3.070   1.275   1.665
10289SOL    HW231767   3.020   1.219   1.810
10290SOL     OW31768   3.928   3.350   2.694
10290SOL    HW131769   3.944   3.258   2.729
10290SOL    HW231770   3.991   3.368   2.617
10291SOL     OW31771   3.778   0.869   3.483
10291SOL    HW131772   3.848   0.894   3.551
10291SOL    HW231773   3.784   0.930   3.405
10292SOL     OW31774   0.426   2.272   5.021
10292SOL    HW131775   0.464   2.291   4.930
10292SOL    HW231776   0.477   2.198   5.064
10293SOL     OW31777   1.829   5.826   2.923
10293SOL    HW131778   1.909   5.769   2.905
10293SOL    HW231779   1.765   5.775   2.981
10294SOL     OW31780   5.049   2.312   2.847
10294SOL    HW131781   4.957   2.340   2.820
10294SOL    HW231782   5.048   2.282   2.942
10295SOL     OW31783   6.582   4.717   5.581
10295SOL    HW131784   6.506   4.699   5.519
10295SOL    HW231785   6.667   4.721   5.529
10296SOL     OW31786   5.818   4.483   5.811
10296SOL    HW131787   5.741   4.543   5.832
10296SOL    HW231788   5.872   4.468   5.893
10297SOL     OW31789   2.375   6.471   4.109
10297SOL    HW131790   2.391   6.544   4.043
10297SOL    HW231791   2.456   6.413   4.115
10298SOL     OW31792   4.930   3.975   3.328
10298SOL    HW131793   4.847   4.031   3.327
10298SOL    HW231794   4.909   3.884   3.365
10299SOL     OW31795   4.732   4.153   3.349
10299SOL    HW131796   4.795   4.230   3.338
10299SOL    HW231797   4.667   4.153   3.273
10300SOL     OW31798   1.365   3.247   1.604
10300SOL    HW131799   1.291   3.213   1.547
10300SOL    HW231800   1.347   3.342   1.629
10301SOL     OW31801   5.876   1.442   3.630
10301SOL    HW131802   5.966   1.477   3.603
10301SOL    HW231803   5.843   1.378   3.561
10302SOL     OW31804   1.388   6.287   2.839
10302SOL    HW131805   1.442   6.285   2.923
10302SOL    HW231806   1.301   6.331   2.857
10303SOL     OW31807   3.766   3.614   1.900
10303SOL    HW131808   3.688   3.559   1.870
10303SOL    HW231809   3.848   3.557   1.901
10304SOL     OW31810   6.728   6.683   4.106
10304SOL    HW131811   6.723   6.775   4.146
10304SOL    HW231812   6.819   6.669   4.067
10305SOL     OW31813   1.787   5.776   0.104
10305SOL    HW131814   1.730   5.761   0.184
10305SOL    HW231815   1.876   5.813   0.133
10306SOL     OW31816   4.584   5.816   0.118
10306SOL    HW131817   4.505   5.771   0.076
10306SOL    HW231818   4.567   5.827   0.216
10307SOL     OW31819   1.234   0.863   5.408
10307SOL    HW131820   1.305   0.827   5.469
10307SOL    HW231821   1.242   0.819   5.318
10308SOL     OW31822   3.135   4.984   3.409
10308SOL    HW131823   3.145   5.082   3.390
10308SOL    HW231824   3.223   4.946   3.437
10309SOL     OW31825   5.817   6.336   3.241
10309SOL    HW131826   5.822   6.364   3.337
10309SOL    HW231827   5.852   6.242   3.233
10310SOL     OW31828   3.026   3.823   2.468
10310SOL    HW131829   2.970   3.742   2.452
10310SOL    HW231830   3.123   3.798   2.469
10311SOL     OW31831   0.297   5.970   0.864
10311SOL    HW131832   0.310   5.947   0.961
10311SOL    HW231833   0.248   6.057   0.857
10312SOL     OW31834   3.729   4.914   0.623
10312SOL    HW131835   3.685   4.948   0.706
10312SOL    HW231836   3.660   4.900   0.552
10313SOL     OW31837   4.732   0.219   2.487
10313SOL    HW131838   4.747   0.150   2.558
10313SOL    HW231839   4.718   0.308   2.529
10314SOL     OW31840   6.625   0.403   0.942
10314SOL    HW131841   6.707   0.433   0.893
10314SOL    HW231842   6.584   0.326   0.894
10315SOL     OW31843   6.742   6.173   5.690
10315SOL    HW131844   6.722   6.270   5.671
10315SOL    HW231845   6.664   6.117   5.663
10316SOL     OW31846   7.024   3.716   4.837
10316SOL    HW131847   0.059   3.641   4.864
10316SOL    HW231848   6.929   3.691   4.854
10317SOL     OW31849   4.007   5.159   6.099
10317SOL    HW131850   4.068   5.194   6.028
10317SOL    HW231851   3.921   5.129   6.058
10318SOL     OW31852   6.343   5.012   0.951
10318SOL    HW131853   6.383   4.926   0.979
10318SOL    HW231854   6.365   5.030   0.855
10319SOL     OW31855   0.388   4.419   3.840
10319SOL    HW131856   0.334   4.335   3.855
10319SOL    HW231857   0.477   4.395   3.802
10320SOL     OW31858   0.905   6.444   0.698
10320SOL    HW131859   0.912   6.409   0.604
10320SOL    HW231860   0.828   6.509   0.703
10321SOL     OW31861   4.555   5.970   4.409
10321SOL    HW131862   4.488   5.947   4.480
10321SOL    HW231863   4.582   6.066   4.419
10322SOL     OW31864   6.488   5.355   0.911
10322SOL    HW131865   6.405   5.379   0.962
10322SOL    HW231866   6.543   5.437   0.896
10323SOL     OW31867   6.155   3.311   6.389
10323SOL    HW131868   6.212   3.269   6.319
10323SOL    HW231869   6.143   3.247   6.465
10324SOL     OW31870   3.376   3.026   3.757
10324SOL    HW131871   3.457   2.972   3.735
10324SOL    HW231872   3.299   2.996   3.700
10325SOL     OW31873   6.726   3.577   3.286
10325SOL    HW131874   6.741   3.613   3.194
10325SOL    HW231875   6.782   3.495   3.299
10326SOL     OW31876   4.960   3.150   0.019
10326SOL    HW131877   4.907   3.215   6.989
10326SOL    HW231878   4.989   3.194   0.103
10327SOL     OW31879   1.374   1.090   2.986
10327SOL    HW131880   1.409   1.140   3.065
10327SOL    HW231881   1.445   1.087   2.915
10328SOL     OW31882   6.209   3.598   2.347
10328SOL    HW131883   6.204   3.500   2.365
10328SOL    HW231884   6.135   3.645   2.394
10329SOL     OW31885   3.391   0.650   2.754
10329SOL    HW131886   3.292   0.663   2.743
10329SOL    HW231887   3.437   0.738   2.739
10330SOL     OW31888   3.492   5.412   2.860
10330SOL    HW131889   3.496   5.339   2.929
10330SOL    HW231890   3.584   5.445   2.842
10331SOL     OW31891   5.415   0.443   3.801
10331SOL    HW131892   5.453   0.475   3.714
10331SOL    HW231893   5.478   0.466   3.876
10332SOL     OW31894   0.158   1.846   0.714
10332SOL    HW131895   0.256   1.827   0.710
10332SOL    HW231896   0.140   1.940   0.686
10333SOL     OW31897   5.608   5.226   4.650
10333SOL    HW131898   5.652   5.216   4.561
10333SOL    HW231899   5.677   5.215   4.722
10334SOL     OW31900   2.226   4.957   4.441
10334SOL    HW131901   2.282   4.883   4.403
10334SOL    HW231902   2.248   4.969   4.538
10335SOL     OW31903   2.433   5.496   0.183
10335SOL    HW131904   2.349   5.499   0.129
10335SOL    HW231905   2.420   5.434   0.261
10336SOL     OW31906   4.438   7.001   2.116
10336SOL    HW131907   4.495   0.011   2.191
10336SOL    HW231908   4.444   0.037   2.038
10337SOL     OW31909   0.153   5.331   4.758
10337SOL    HW131910   0.198   5.288   4.680
10337SOL    HW231911   0.071   5.279   4.781
10338SOL     OW31912   2.824   6.826   2.097
10338SOL    HW131913   2.873   6.745   2.064
10338SOL    HW231914   2.869   6.908   2.062
10339SOL     OW31915   3.029   5.818   1.057
10339SOL    HW131916   3.125   5.829   1.081
10339SOL    HW231917   2.972   5.861   1.127
10340SOL     OW31918   2.340   5.974   0.250
10340SOL    HW131919   2.296   6.018   0.329
10340SOL    HW231920   2.336   6.036   0.172
10341SOL     OW31921   2.145   2.079   1.884
10341SOL    HW131922   2.244   2.076   1.900
10341SOL    HW231923   2.097   2.079   1.971
10342SOL     OW31924   2.422   0.119   5.635
10342SOL    HW131925   2.498   0.179   5.663
10342SOL    HW231926   2.410   0.125   5.536
10343SOL     OW31927   2.736   3.835   6.268
10343SOL    HW131928   2.810   3.790   6.318
10343SOL    HW231929   2.775   3.903   6.206
10344SOL     OW31930   4.194   3.599   4.898
10344SOL    HW131931   4.144   3.543   4.832
10344SOL    HW231932   4.292   3.595   4.877
10345SOL     OW31933   2.322   1.553   6.832
10345SOL    HW131934   2.409   1.584   6.794
10345SOL    HW231935   2.258   1.630   6.834
10346SOL     OW31936   5.131   6.872   6.904
10346SOL    HW131937   5.052   6.912   6.951
10346SOL    HW231938   5.099   6.817   6.827
10347SOL     OW31939   5.606   1.969   1.484
10347SOL    HW131940   5.619   2.029   1.405
10347SOL    HW231941   5.667   1.997   1.558
10348SOL     OW31942   6.114   1.222   6.668
10348SOL    HW131943   6.044   1.292   6.663
10348SOL    HW231944   6.100   1.155   6.595
10349SOL     OW31945   6.185   1.110   1.029
10349SOL    HW131946   6.137   1.157   1.104
10349SOL    HW231947   6.188   1.012   1.049
10350SOL     OW31948   3.432   5.903   4.279
10350SOL    HW131949   3.382   5.819   4.301
10350SOL    HW231950   3.517   5.906   4.330
10351SOL     OW31951   5.949   5.600   5.184
10351SOL    HW131952   6.011   5.526   5.210
10351SOL    HW231953   5.962   5.622   5.087
10352SOL     OW31954   5.564   1.794   6.951
10352SOL    HW131955   5.635   1.828   7.013
10352SOL    HW231956   5.474   1.808   6.992
10353SOL     OW31957   0.785   2.955   3.151
10353SOL    HW131958   0.694   2.992   3.132
10353SOL    HW231959   0.852   2.996   3.089
10354SOL     OW31960   0.110   3.742   0.428
10354SOL    HW131961   0.127   3.815   0.494
10354SOL    HW231962   0.108   3.781   0.336
10355SOL     OW31963   1.278   0.794   0.649
10355SOL    HW131964   1.188   0.822   0.682
10355SOL    HW231965   1.349   0.825   0.713
10356SOL     OW31966   6.634   3.410   0.144
10356SOL    HW131967   6.731   3.396   0.164
10356SOL    HW231968   6.579   3.377   0.221
10357SOL     OW31969   1.473   2.328   6.572
10357SOL    HW131970   1.486   2.341   6.671
10357SOL    HW231971   1.554   2.360   6.523
10358SOL     OW31972   1.193   2.650   2.876
10358SOL    HW131973   1.226   2.556   2.887
10358SOL    HW231974   1.153   2.681   2.962
10359SOL     OW31975   5.226   1.777   2.817
10359SOL    HW131976   5.203   1.833   2.896
10359SOL    HW231977   5.229   1.835   2.735
10360SOL     OW31978   5.286   5.391   3.000
10360SOL    HW131979   5.379   5.359   2.982
10360SOL    HW231980   5.253   5.443   2.921
10361SOL     OW31981   1.507   1.250   1.676
10361SOL    HW131982   1.458   1.324   1.630
10361SOL    HW231983   1.598   1.240   1.634
10362SOL     OW31984   0.890   4.832   1.965
10362SOL    HW131985   0.858   4.896   1.894
10362SOL    HW231986   0.988   4.845   1.980
10363SOL     OW31987   4.894   3.285   0.696
10363SOL    HW131988   4.811   3.251   0.651
10363SOL    HW231989   4.921   3.221   0.768
10364SOL     OW31990   4.897   5.028   1.268
10364SOL    HW131991   4.848   5.112   1.242
10364SOL    HW231992   4.982   5.021   1.217
10365SOL     OW31993   5.808   5.061   0.654
10365SOL    HW131994   5.892   5.069   0.600
10365SOL    HW231995   5.814   5.120   0.735
10366SOL     OW31996   3.770   6.812   3.179
10366SOL    HW131997   3.782   6.779   3.085
10366SOL    HW231998   3.828   6.893   3.193
10367SOL     OW31999   6.334   1.578   1.520
10367SOL    HW132000   6.312   1.525   1.602
10367SOL    HW232001   6.427   1.614   1.527
10368SOL     OW32002   1.935   0.406   1.991
10368SOL    HW132003   1.892   0.328   1.945
10368SOL    HW232004   1.866   0.456   2.042
10369SOL     OW32005   3.061   6.343   4.804
10369SOL    HW132006   2.989   6.399   4.764
10369SOL    HW232007   3.049   6.248   4.775
10370SOL     OW32008   0.187   2.236   4.393
10370SOL    HW132009   0.169   2.335   4.391
10370SOL    HW232010   0.228   2.212   4.481
10371SOL     OW32011   3.434   6.114   3.427
10371SOL    HW132012   3.500   6.188   3.415
10371SOL    HW232013   3.349   6.139   3.381
10372SOL     OW32014   2.637   0.438   1.520
10372SOL    HW132015   2.723   0.460   1.474
10372SOL    HW232016   2.629   0.491   1.604
10373SOL     OW32017   6.696   1.275   5.711
10373SOL    HW132018   6.775   1.336   5.701
10373SOL    HW232019   6.727   1.180   5.715
10374SOL     OW32020   3.396   6.817   4.674
10374SOL    HW132021   3.447   6.835   4.589
10374SOL    HW232022   3.336   6.739   4.660
10375SOL     OW32023   3.605   2.881   6.863
10375SOL    HW132024   3.516   2.837   6.854
10375SOL    HW232025   3.612   2.954   6.795
10376SOL     OW32026   1.434   6.045   3.257
10376SOL    HW132027   1.442   6.138   3.293
10376SOL    HW232028   1.373   6.044   3.179
10377SOL     OW32029   0.522   1.532   1.703
10377SOL    HW132030   0.523   1.581   1.616
10377SOL    HW232031   0.615   1.502   1.726
10378SOL     OW32032   0.138   5.438   5.038
10378SOL    HW132033   0.163   5.533   5.053
10378SOL    HW232034   0.110   5.425   4.943
10379SOL     OW32035   2.616   6.714   3.764
10379SOL    HW132036   2.555   6.658   3.820
10379SOL    HW232037   2.585   6.809   3.765
10380SOL     OW32038   1.605   2.708   4.403
10380SOL    HW132039   1.509   2.710   4.428
10380SOL    HW232040   1.618   2.754   4.315
10381SOL     OW32041   4.111   4.350   1.594
10381SOL    HW132042   4.113   4.256   1.631
10381SOL    HW232043   4.153   4.412   1.661
10382SOL     OW32044   3.245   4.910   2.168
10382SOL    HW132045   3.328   4.961   2.147
10382SOL    HW232046   3.233   4.836   2.102
10383SOL     OW32047   1.672   4.846   0.063
10383SOL    HW132048   1.653   4.939   0.095
10383SOL    HW232049   1.714   4.793   0.137
10384SOL     OW32050   6.267   6.347   1.019
10384SOL    HW132051   6.297   6.271   1.077
10384SOL    HW232052   6.292   6.328   0.924
10385SOL     OW32053   3.314   5.291   6.123
10385SOL    HW132054   3.321   5.216   6.057
10385SOL    HW232055   3.274   5.258   6.208
10386SOL     OW32056   0.181   1.133   6.583
10386SOL    HW132057   0.268   1.084   6.576
10386SOL    HW232058   0.113   1.074   6.626
10387SOL     OW32059   5.012   2.593   3.163
10387SOL    HW132060   4.978   2.607   3.255
10387SOL    HW232061   5.018   2.495   3.144
10388SOL     OW32062   2.898   0.641   5.841
10388SOL    HW132063   2.807   0.600   5.837
10388SOL    HW232064   2.913   0.698   5.760
10389SOL     OW32065   6.471   3.829   0.327
10389SOL    HW132066   6.448   3.737   0.357
10389SOL    HW232067   6.407   3.858   0.256
10390SOL     OW32068   2.069   2.272   0.756
10390SOL    HW132069   2.012   2.308   0.682
10390SOL    HW232070   2.165   2.276   0.728
10391SOL     OW32071   0.683   5.723   3.598
10391SOL    HW132072   0.771   5.763   3.625
10391SOL    HW232073   0.626   5.793   3.556
10392SOL     OW32074   6.606   5.011   4.919
10392SOL    HW132075   6.510   5.006   4.946
10392SOL    HW232076   6.661   5.046   4.996
10393SOL     OW32077   2.137   3.659   4.201
10393SOL    HW132078   2.120   3.591   4.271
10393SOL    HW232079   2.086   3.636   4.118
10394SOL     OW32080   2.830   6.216   4.159
10394SOL    HW132081   2.925   6.224   4.130
10394SOL    HW232082   2.796   6.125   4.134
10395SOL     OW32083   0.195   6.684   1.568
10395SOL    HW132084   0.100   6.678   1.537
10395SOL    HW232085   0.198   6.670   1.667
10396SOL     OW32086   3.593   1.978   4.279
10396SOL    HW132087   3.652   1.959   4.200
10396SOL    HW232088   3.498   1.986   4.249
10397SOL     OW32089   3.299   2.058   2.961
10397SOL    HW132090   3.396   2.077   2.946
10397SOL    HW232091   3.283   1.959   2.954
10398SOL     OW32092   6.826   2.878   0.981
10398SOL    HW132093   6.799   2.844   1.071
10398SOL    HW232094   6.899   2.945   0.990
10399SOL     OW32095   5.372   2.462   3.087
10399SOL    HW132096   5.430   2.391   3.125
10399SOL    HW232097   5.397   2.479   2.992
10400SOL     OW32098   3.969   6.925   0.198
10400SOL    HW132099   4.003   6.963   0.284
10400SOL    HW232100   3.876   6.890   0.212
10401SOL     OW32101   6.046   0.729   3.889
10401SOL    HW132102   6.054   0.763   3.795
10401SOL    HW232103   5.972   0.662   3.894
10402SOL     OW32104   6.524   3.250   5.094
10402SOL    HW132105   6.524   3.163   5.144
10402SOL    HW232106   6.557   3.323   5.154
10403SOL     OW32107   4.010   1.182   3.747
10403SOL    HW132108   4.079   1.247   3.779
10403SOL    HW232109   3.936   1.233   3.703
10404SOL     OW32110   6.383   6.744   5.383
10404SOL    HW132111   6.463   6.783   5.430
10404SOL    HW232112   6.339   6.814   5.328
10405SOL     OW32113   0.090   1.998   5.729
10405SOL    HW132114   0.103   1.899   5.724
10405SOL    HW232115   0.143   2.035   5.805
10406SOL     OW32116   2.814   5.166   2.701
10406SOL    HW132117   2.718   5.160   2.729
10406SOL    HW232118   2.871   5.181   2.782
10407SOL     OW32119   3.353   6.522   5.921
10407SOL    HW132120   3.445   6.555   5.942
10407SOL    HW232121   3.347   6.503   5.823
10408SOL     OW32122   4.715   0.010   0.928
10408SOL    HW132123   4.746   0.009   1.023
10408SOL    HW232124   4.774   6.976   0.874
10409SOL     OW32125   0.091   4.741   1.005
10409SOL    HW132126   0.104   4.649   1.043
10409SOL    HW232127   0.150   4.752   0.925
10410SOL     OW32128   5.272   1.400   0.282
10410SOL    HW132129   5.186   1.356   0.310
10410SOL    HW232130   5.251   1.488   0.239
10411SOL     OW32131   4.042   6.529   3.522
10411SOL    HW132132   3.947   6.518   3.495
10411SOL    HW232133   4.086   6.439   3.528
10412SOL     OW32134   7.017   0.819   0.755
10412SOL    HW132135   6.986   0.914   0.763
10412SOL    HW232136   7.016   0.791   0.659
10413SOL     OW32137   6.341   2.660   0.599
10413SOL    HW132138   6.298   2.749   0.609
10413SOL    HW232139   6.368   2.626   0.689
10414SOL     OW32140   3.777   4.190   5.510
10414SOL    HW132141   3.701   4.255   5.514
10414SOL    HW232142   3.770   4.137   5.425
10415SOL     OW32143   0.278   3.827   4.243
10415SOL    HW132144   0.292   3.868   4.153
10415SOL    HW232145   0.266   3.900   4.311
10416SOL     OW32146   6.504   0.523   3.703
10416SOL    HW132147   6.459   0.613   3.699
10416SOL    HW232148   6.593   0.529   3.658
10417SOL     OW32149   3.502   5.223   4.398
10417SOL    HW132150   3.478   5.310   4.356
10417SOL    HW232151   3.441   5.205   4.475
10418SOL     OW32152   0.277   4.696   6.555
10418SOL    HW132153   0.315   4.691   6.647
10418SOL    HW232154   0.252   4.790   6.533
10419SOL     OW32155   1.028   0.018   6.240
10419SOL    HW132156   0.999   0.049   6.330
10419SOL    HW232157   1.127   0.001   6.240
10420SOL     OW32158   0.214   3.940   2.881
10420SOL    HW132159   0.285   3.999   2.842
10420SOL    HW232160   0.239   3.914   2.974
10421SOL     OW32161   6.895   1.673   3.745
10421SOL    HW132162   6.939   1.758   3.717
10421SOL    HW232163   6.889   1.611   3.667
10422SOL     OW32164   5.983   3.142   5.700
10422SOL    HW132165   5.937   3.153   5.611
10422SOL    HW232166   5.945   3.208   5.765
10423SOL     OW32167   5.321   5.172   4.377
10423SOL    HW132168   5.305   5.156   4.280
10423SOL    HW232169   5.389   5.106   4.411
10424SOL     OW32170   6.192   3.004   0.371
10424SOL    HW132171   6.098   2.974   0.356
10424SOL    HW232172   6.242   3.000   0.285
10425SOL     OW32173   1.538   6.957   2.013
10425SOL    HW132174   1.475   0.006   2.037
10425SOL    HW232175   1.551   6.955   1.914
10426SOL     OW32176   0.077   4.702   0.502
10426SOL    HW132177   0.136   4.768   0.548
10426SOL    HW232178   7.007   4.731   0.510
10427SOL     OW32179   3.595   1.002   6.713
10427SOL    HW132180   3.594   1.096   6.748
10427SOL    HW232181   3.601   1.003   6.614
10428SOL     OW32182   2.863   1.279   4.117
10428SOL    HW132183   2.955   1.304   4.146
10428SOL    HW232184   2.813   1.362   4.089
10429SOL     OW32185   0.124   5.305   0.719
10429SOL    HW132186   0.208   5.355   0.697
10429SOL    HW232187   0.075   5.354   0.792
10430SOL     OW32188   4.382   6.410   3.496
10430SOL    HW132189   4.435   6.378   3.574
10430SOL    HW232190   4.292   6.366   3.495
10431SOL     OW32191   3.467   5.893   4.600
10431SOL    HW132192   3.416   5.817   4.640
10431SOL    HW232193   3.555   5.902   4.646
10432SOL     OW32194   6.013   6.889   4.374
10432SOL    HW132195   6.005   6.920   4.469
10432SOL    HW232196   6.019   6.789   4.373
10433SOL     OW32197   1.652   0.186   1.235
10433SOL    HW132198   1.719   0.201   1.162
10433SOL    HW232199   1.560   0.192   1.198
10434SOL     OW32200   3.904   0.252   3.573
10434SOL    HW132201   3.864   0.161   3.564
10434SOL    HW232202   3.956   0.274   3.490
10435SOL     OW32203   6.796   0.037   4.538
10435SOL    HW132204   6.809   0.083   4.626
10435SOL    HW232205   6.708   7.016   4.537
10436SOL     OW32206   1.018   5.046   5.918
10436SOL    HW132207   0.934   4.991   5.920
10436SOL    HW232208   1.075   5.017   5.841
10437SOL     OW32209   6.130   4.904   5.727
10437SOL    HW132210   6.103   4.935   5.818
10437SOL    HW232211   6.186   4.821   5.736
10438SOL     OW32212   5.757   5.978   0.450
10438SOL    HW132213   5.834   5.915   0.434
10438SOL    HW232214   5.692   5.936   0.513
10439SOL     OW32215   4.107   1.387   6.037
10439SOL    HW132216   4.023   1.397   6.090
10439SOL    HW232217   4.114   1.463   5.972
10440SOL     OW32218   1.982   6.506   0.284
10440SOL    HW132219   2.067   6.466   0.252
10440SOL    HW232220   2.002   6.587   0.340
10441SOL     OW32221   4.357   1.403   6.918
10441SOL    HW132222   4.383   1.336   6.988
10441SOL    HW232223   4.268   1.380   6.880
10442SOL     OW32224   3.688   6.342   5.876
10442SOL    HW132225   3.614   6.360   5.940
10442SOL    HW232226   3.745   6.424   5.867
10443SOL     OW32227   4.972   3.870   4.872
10443SOL    HW132228   4.993   3.788   4.818
10443SOL    HW232229   4.933   3.940   4.813
10444SOL     OW32230   4.107   6.340   4.263
10444SOL    HW132231   4.103   6.390   4.177
10444SOL    HW232232   4.015   6.305   4.285
10445SOL     OW32233   0.875   5.617   4.248
10445SOL    HW132234   0.845   5.648   4.338
10445SOL    HW232235   0.936   5.685   4.207
10446SOL     OW32236   1.084   3.084   5.773
10446SOL    HW132237   1.160   3.019   5.778
10446SOL    HW232238   1.039   3.089   5.862
10447SOL     OW32239   6.500   1.315   1.836
10447SOL    HW132240   6.598   1.337   1.834
10447SOL    HW232241   6.466   1.326   1.930
10448SOL     OW32242   3.982   2.497   1.524
10448SOL    HW132243   3.978   2.430   1.598
10448SOL    HW232244   4.021   2.583   1.557
10449SOL     OW32245   2.349   5.280   4.684
10449SOL    HW132246   2.427   5.288   4.746
10449SOL    HW232247   2.363   5.339   4.605
10450SOL     OW32248   0.558   2.101   0.584
10450SOL    HW132249   0.546   2.124   0.680
10450SOL    HW232250   0.473   2.062   0.548
10451SOL     OW32251   1.739   5.075   3.363
10451SOL    HW132252   1.693   5.161   3.341
10451SOL    HW232253   1.809   5.092   3.432
10452SOL     OW32254   6.104   3.538   3.482
10452SOL    HW132255   6.179   3.472   3.485
10452SOL    HW232256   6.047   3.527   3.563
10453SOL     OW32257   5.224   6.102   1.844
10453SOL    HW132258   5.277   6.073   1.924
10453SOL    HW232259   5.127   6.084   1.860
10454SOL     OW32260   4.953   2.699   1.181
10454SOL    HW132261   4.917   2.768   1.244
10454SOL    HW232262   5.006   2.632   1.232
10455SOL     OW32263   7.023   4.787   2.487
10455SOL    HW132264   0.015   4.879   2.522
10455SOL    HW232265   0.040   4.778   2.397
10456SOL     OW32266   3.142   5.994   1.748
10456SOL    HW132267   3.143   6.089   1.718
10456SOL    HW232268   3.207   5.982   1.823
10457SOL     OW32269   3.648   2.892   2.979
10457SOL    HW132270   3.697   2.822   3.030
10457SOL    HW232271   3.695   2.909   2.892
10458SOL     OW32272   0.456   0.521   0.031
10458SOL    HW132273   0.397   0.463   7.001
10458SOL    HW232274   0.457   0.614   7.018
10459SOL     OW32275   5.419   5.284   2.678
10459SOL    HW132276   5.345   5.343   2.712
10459SOL    HW232277   5.395   5.189   2.697
10460SOL     OW32278   2.016   5.805   1.209
10460SOL    HW132279   2.017   5.820   1.110
10460SOL    HW232280   2.081   5.867   1.253
10461SOL     OW32281   1.372   5.977   5.519
10461SOL    HW132282   1.376   6.072   5.549
10461SOL    HW232283   1.278   5.944   5.523
10462SOL     OW32284   5.146   1.816   2.298
10462SOL    HW132285   5.168   1.897   2.243
10462SOL    HW232286   5.139   1.736   2.239
10463SOL     OW32287   3.559   3.277   5.603
10463SOL    HW132288   3.596   3.369   5.599
10463SOL    HW232289   3.606   3.224   5.674
10464SOL     OW32290   5.352   0.323   0.759
10464SOL    HW132291   5.319   0.397   0.817
10464SOL    HW232292   5.440   0.348   0.719
10465SOL     OW32293   6.378   6.861   0.658
10465SOL    HW132294   6.390   6.950   0.616
10465SOL    HW232295   6.347   6.872   0.752
10466SOL     OW32296   4.144   5.050   5.094
10466SOL    HW132297   4.205   4.974   5.069
10466SOL    HW232298   4.126   5.048   5.192
10467SOL     OW32299   1.219   2.054   5.482
10467SOL    HW132300   1.234   2.153   5.475
10467SOL    HW232301   1.302   2.006   5.454
10468SOL     OW32302   3.241   5.673   3.511
10468SOL    HW132303   3.325   5.689   3.562
10468SOL    HW232304   3.162   5.706   3.564
10469SOL     OW32305   3.709   3.643   0.570
10469SOL    HW132306   3.728   3.670   0.475
10469SOL    HW232307   3.619   3.601   0.575
10470SOL     OW32308   2.134   1.970   2.677
10470SOL    HW132309   2.195   2.049   2.675
10470SOL    HW232310   2.039   2.001   2.679
10471SOL     OW32311   2.333   3.526   1.309
10471SOL    HW132312   2.429   3.505   1.325
10471SOL    HW232313   2.325   3.619   1.273
10472SOL     OW32314   3.455   6.279   1.529
10472SOL    HW132315   3.412   6.294   1.441
10472SOL    HW232316   3.538   6.224   1.517
10473SOL     OW32317   5.423   6.957   0.942
10473SOL    HW132318   5.403   6.996   0.852
10473SOL    HW232319   5.341   6.913   0.978
10474SOL     OW32320   5.104   0.779   4.675
10474SOL    HW132321   5.021   0.820   4.636
10474SOL    HW232322   5.134   0.703   4.618
10475SOL     OW32323   5.135   6.698   1.482
10475SOL    HW132324   5.204   6.692   1.410
10475SOL    HW232325   5.132   6.791   1.519
10476SOL     OW32326   0.246   5.590   6.501
10476SOL    HW132327   0.257   5.686   6.476
10476SOL    HW232328   0.151   5.561   6.485
10477SOL     OW32329   5.923   2.959   5.014
10477SOL    HW132330   5.960   3.043   4.974
10477SOL    HW232331   5.859   2.917   4.950
10478SOL     OW32332   0.718   0.454   7.021
10478SOL    HW132333   0.632   0.493   0.027
10478SOL    HW232334   0.711   0.354   7.023
10479SOL     OW32335   1.102   2.596   1.421
10479SOL    HW132336   1.111   2.566   1.326
10479SOL    HW232337   1.024   2.549   1.464
10480SOL     OW32338   5.499   0.436   1.002
10480SOL    HW132339   5.403   0.452   0.983
10480SOL    HW232340   5.534   0.507   1.063
10481SOL     OW32341   3.027   1.132   4.944
10481SOL    HW132342   3.126   1.117   4.955
10481SOL    HW232343   2.990   1.063   4.881
10482SOL     OW32344   0.798   6.013   4.372
10482SOL    HW132345   0.767   5.966   4.454
10482SOL    HW232346   0.897   5.998   4.360
10483SOL     OW32347   6.711   5.126   0.205
10483SOL    HW132348   6.756   5.065   0.270
10483SOL    HW232349   6.617   5.144   0.236
10484SOL     OW32350   0.013   0.235   0.689
10484SOL    HW132351   0.020   0.173   0.611
10484SOL    HW232352   6.966   0.204   0.750
10485SOL     OW32353   3.818   3.685   3.108
10485SOL    HW132354   3.902   3.723   3.069
10485SOL    HW232355   3.751   3.757   3.123
10486SOL     OW32356   5.850   0.522   6.057
10486SOL    HW132357   5.783   0.526   5.983
10486SOL    HW232358   5.804   0.542   6.144
10487SOL     OW32359   4.570   1.456   1.575
10487SOL    HW132360   4.578   1.537   1.632
10487SOL    HW232361   4.538   1.482   1.484
10488SOL     OW32362   1.431   2.167   5.877
10488SOL    HW132363   1.362   2.095   5.887
10488SOL    HW232364   1.510   2.131   5.828
10489SOL     OW32365   5.786   5.636   3.563
10489SOL    HW132366   5.885   5.630   3.573
10489SOL    HW232367   5.756   5.730   3.582
10490SOL     OW32368   5.938   0.260   0.518
10490SOL    HW132369   5.895   0.350   0.513
10490SOL    HW232370   5.954   0.236   0.614
10491SOL     OW32371   1.623   2.915   6.385
10491SOL    HW132372   1.639   2.977   6.309
10491SOL    HW232373   1.533   2.933   6.425
10492SOL     OW32374   3.424   6.178   0.445
10492SOL    HW132375   3.406   6.211   0.537
10492SOL    HW232376   3.353   6.211   0.383
10493SOL     OW32377   3.620   5.527   0.875
10493SOL    HW132378   3.668   5.575   0.948
10493SOL    HW232379   3.652   5.432   0.872
10494SOL     OW32380   0.654   5.199   5.896
10494SOL    HW132381   0.675   5.247   5.811
10494SOL    HW232382   0.612   5.110   5.875
10495SOL     OW32383   6.607   5.898   6.931
10495SOL    HW132384   6.553   5.820   6.962
10495SOL    HW232385   6.582   5.920   6.837
10496SOL     OW32386   6.853   4.100   5.172
10496SOL    HW132387   6.832   4.194   5.198
10496SOL    HW232388   6.932   4.099   5.111
10497SOL     OW32389   1.108   0.072   1.706
10497SOL    HW132390   1.029   0.057   1.646
10497SOL    HW232391   1.136   0.168   1.701
10498SOL     OW32392   5.260   6.123   1.359
10498SOL    HW132393   5.177   6.113   1.413
10498SOL    HW232394   5.286   6.220   1.355
10499SOL     OW32395   6.033   5.821   1.260
10499SOL    HW132396   6.044   5.729   1.298
10499SOL    HW232397   5.938   5.834   1.230
10500SOL     OW32398   5.142   3.498   4.866
10500SOL    HW132399   5.144   3.416   4.924
10500SOL    HW232400   5.163   3.578   4.921
10501SOL     OW32401   2.251   5.884   2.528
10501SOL    HW132402   2.274   5.978   2.552
10501SOL    HW232403   2.158   5.863   2.559
10502SOL     OW32404   3.083   3.201   1.335
10502SOL    HW132405   3.162   3.259   1.355
10502SOL    HW232406   3.078   3.185   1.237
10503SOL     OW32407   6.395   4.066   6.523
10503SOL    HW132408   6.309   4.064   6.472
10503SOL    HW232409   6.414   4.159   6.554
10504SOL     OW32410   0.968   2.730   6.204
10504SOL    HW132411   0.889   2.671   6.187
10504SOL    HW232412   1.049   2.691   6.162
10505SOL     OW32413   6.128   5.929   2.034
10505SOL    HW132414   6.216   5.926   1.986
10505SOL    HW232415   6.144   5.943   2.132
10506SOL     OW32416   0.614   3.487   0.325
10506SOL    HW132417   0.566   3.572   0.349
10506SOL    HW232418   0.634   3.487   0.227
10507SOL     OW32419   2.670   5.071   0.111
10507SOL    HW132420   2.672   4.973   0.091
10507SOL    HW232421   2.742   5.093   0.177
10508SOL     OW32422   1.484   5.428   3.855
10508SOL    HW132423   1.426   5.509   3.866
10508SOL    HW232424   1.532   5.433   3.768
10509SOL     OW32425   5.204   3.659   4.498
10509SOL    HW132426   5.251   3.699   4.577
10509SOL    HW232427   5.111   3.694   4.493
10510SOL     OW32428   5.266   6.390   5.739
10510SOL    HW132429   5.275   6.306   5.792
10510SOL    HW232430   5.176   6.431   5.756
10511SOL     OW32431   3.179   1.130   2.106
10511SOL    HW132432   3.087   1.134   2.145
10511SOL    HW232433   3.208   1.222   2.079
10512SOL     OW32434   4.475   6.890   6.044
10512SOL    HW132435   4.451   6.986   6.056
10512SOL    HW232436   4.470   6.843   6.132
10513SOL     OW32437   6.387   2.773   2.430
10513SOL    HW132438   6.389   2.673   2.430
10513SOL    HW232439   6.443   2.808   2.505
10514SOL     OW32440   1.967   2.018   0.804
10514SOL    HW132441   2.008   2.105   0.778
10514SOL    HW232442   1.970   2.008   0.904
10515SOL     OW32443   2.616   2.119   3.897
10515SOL    HW132444   2.607   2.057   3.974
10515SOL    HW232445   2.569   2.082   3.817
10516SOL     OW32446   2.846   1.972   0.277
10516SOL    HW132447   2.846   2.057   0.224
10516SOL    HW232448   2.807   1.990   0.368
10517SOL     OW32449   1.786   4.187   2.404
10517SOL    HW132450   1.773   4.266   2.343
10517SOL    HW232451   1.756   4.211   2.496
10518SOL     OW32452   0.362   5.189   2.352
10518SOL    HW132453   0.351   5.176   2.254
10518SOL    HW232454   0.390   5.103   2.394
10519SOL     OW32455   3.182   5.087   1.486
10519SOL    HW132456   3.227   5.001   1.512
10519SOL    HW232457   3.083   5.077   1.499
10520SOL     OW32458   6.730   1.908   6.491
10520SOL    HW132459   6.668   1.897   6.414
10520SOL    HW232460   6.803   1.841   6.485
10521SOL     OW32461   6.477   4.257   1.502
10521SOL    HW132462   6.547   4.197   1.540
10521SOL    HW232463   6.499   4.278   1.406
10522SOL     OW32464   0.473   2.314   3.138
10522SOL    HW132465   0.416   2.242   3.097
10522SOL    HW232466   0.567   2.281   3.147
10523SOL     OW32467   0.204   3.924   3.757
10523SOL    HW132468   0.256   3.897   3.676
10523SOL    HW232469   0.165   3.842   3.800
10524SOL     OW32470   0.216   5.028   3.729
10524SOL    HW132471   0.202   4.936   3.764
10524SOL    HW232472   0.237   5.090   3.805
10525SOL     OW32473   4.496   0.508   4.923
10525SOL    HW132474   4.430   0.573   4.961
10525SOL    HW232475   4.495   0.424   4.977
10526SOL     OW32476   0.266   5.872   1.155
10526SOL    HW132477   0.257   5.949   1.218
10526SOL    HW232478   0.284   5.789   1.206
10527SOL     OW32479   0.423   0.763   6.046
10527SOL    HW132480   0.491   0.736   6.114
10527SOL    HW232481   0.406   0.862   6.053
10528SOL     OW32482   0.578   4.693   0.194
10528SOL    HW132483   0.597   4.665   0.100
10528SOL    HW232484   0.480   4.711   0.203
10529SOL     OW32485   1.564   6.086   4.950
10529SOL    HW132486   1.533   6.044   5.035
10529SOL    HW232487   1.599   6.015   4.889
10530SOL     OW32488   1.312   6.338   6.261
10530SOL    HW132489   1.227   6.307   6.303
10530SOL    HW232490   1.335   6.278   6.183
10531SOL     OW32491   2.627   2.372   4.959
10531SOL    HW132492   2.688   2.377   5.038
10531SOL    HW232493   2.609   2.464   4.924
10532SOL     OW32494   6.189   6.944   6.815
10532SOL    HW132495   6.279   6.940   6.859
10532SOL    HW232496   6.118   6.948   6.886
10533SOL     OW32497   2.948   5.575   4.086
10533SOL    HW132498   2.993   5.664   4.080
10533SOL    HW232499   2.853   5.583   4.057
10534SOL     OW32500   0.628   5.700   2.422
10534SOL    HW132501   0.630   5.624   2.487
10534SOL    HW232502   0.593   5.668   2.334
10535SOL     OW32503   2.533   1.297   1.478
10535SOL    HW132504   2.433   1.297   1.482
10535SOL    HW232505   2.564   1.237   1.404
10536SOL     OW32506   4.283   0.148   3.571
10536SOL    HW132507   4.246   0.238   3.597
10536SOL    HW232508   4.306   0.148   3.474
10537SOL     OW32509   4.745   6.653   3.580
10537SOL    HW132510   4.731   6.554   3.575
10537SOL    HW232511   4.664   6.700   3.545
10538SOL     OW32512   5.664   3.744   2.477
10538SOL    HW132513   5.587   3.805   2.454
10538SOL    HW232514   5.632   3.649   2.478
10539SOL     OW32515   6.428   5.590   2.185
10539SOL    HW132516   6.457   5.520   2.120
10539SOL    HW232517   6.474   5.676   2.165
10540SOL     OW32518   2.495   3.784   6.271
10540SOL    HW132519   2.590   3.816   6.277
10540SOL    HW232520   2.456   3.812   6.183
10541SOL     OW32521   3.014   3.110   4.710
10541SOL    HW132522   2.950   3.044   4.750
10541SOL    HW232523   2.974   3.147   4.626
10542SOL     OW32524   6.288   0.311   4.599
10542SOL    HW132525   6.206   0.357   4.632
10542SOL    HW232526   6.291   0.316   4.499
10543SOL     OW32527   6.738   2.337   5.630
10543SOL    HW132528   6.706   2.326   5.724
10543SOL    HW232529   6.818   2.397   5.629
10544SOL     OW32530   1.078   0.586   3.935
10544SOL    HW132531   1.075   0.534   3.849
10544SOL    HW232532   1.079   0.684   3.915
10545SOL     OW32533   1.012   3.314   2.287
10545SOL    HW132534   1.010   3.345   2.382
10545SOL    HW232535   0.934   3.351   2.238
10546SOL     OW32536   2.782   6.361   1.335
10546SOL    HW132537   2.735   6.434   1.384
10546SOL    HW232538   2.880   6.378   1.335
10547SOL     OW32539   4.723   0.606   4.350
10547SOL    HW132540   4.732   0.521   4.298
10547SOL    HW232541   4.735   0.684   4.290
10548SOL     OW32542   0.313   4.761   4.912
10548SOL    HW132543   0.233   4.821   4.900
10548SOL    HW232544   0.396   4.811   4.888
10549SOL     OW32545   7.004   1.703   0.189
10549SOL    HW132546   0.010   1.699   0.283
10549SOL    HW232547   6.924   1.643   0.177
10550SOL     OW32548   3.806   6.566   3.326
10550SOL    HW132549   3.808   6.648   3.268
10550SOL    HW232550   3.877   6.502   3.295
10551SOL     OW32551   2.413   1.914   6.105
10551SOL    HW132552   2.493   1.917   6.045
10551SOL    HW232553   2.338   1.867   6.058
10552SOL     OW32554   2.820   0.901   4.737
10552SOL    HW132555   2.727   0.937   4.739
10552SOL    HW232556   2.876   0.957   4.676
10553SOL     OW32557   0.052   5.063   0.926
10553SOL    HW132558   0.146   5.034   0.941
10553SOL    HW232559   0.040   5.158   0.955
10554SOL     OW32560   5.947   4.579   2.440
10554SOL    HW132561   5.933   4.584   2.539
10554SOL    HW232562   6.011   4.650   2.412
10555SOL     OW32563   2.693   2.351   0.513
10555SOL    HW132564   2.627   2.407   0.563
10555SOL    HW232565   2.657   2.257   0.505
10556SOL     OW32566   2.698   1.346   3.032
10556SOL    HW132567   2.610   1.389   3.053
10556SOL    HW232568   2.707   1.261   3.084
10557SOL     OW32569   1.695   3.555   5.078
10557SOL    HW132570   1.604   3.593   5.062
10557SOL    HW232571   1.762   3.609   5.028
10558SOL     OW32572   3.470   4.740   5.610
10558SOL    HW132573   3.421   4.753   5.697
10558SOL    HW232574   3.407   4.708   5.541
10559SOL     OW32575   3.284   1.248   0.641
10559SOL    HW132576   3.339   1.165   0.639
10559SOL    HW232577   3.272   1.279   0.735
10560SOL     OW32578   4.100   6.046   2.020
10560SOL    HW132579   4.046   6.032   1.937
10560SOL    HW232580   4.189   6.084   1.997
10561SOL     OW32581   4.392   4.917   1.982
10561SOL    HW132582   4.325   4.897   1.910
10561SOL    HW232583   4.361   4.875   2.067
10562SOL     OW32584   3.315   6.333   1.293
10562SOL    HW132585   3.322   6.238   1.262
10562SOL    HW232586   3.383   6.389   1.245
10563SOL     OW32587   0.938   0.044   0.799
10563SOL    HW132588   1.010   0.002   0.743
10563SOL    HW232589   0.871   0.088   0.739
10564SOL     OW32590   6.798   5.077   3.427
10564SOL    HW132591   6.842   5.166   3.418
10564SOL    HW232592   6.861   5.005   3.400
10565SOL     OW32593   6.710   6.985   6.091
10565SOL    HW132594   6.778   0.019   6.134
10565SOL    HW232595   6.739   6.963   5.998
10566SOL     OW32596   2.404   2.371   6.586
10566SOL    HW132597   2.379   2.423   6.668
10566SOL    HW232598   2.502   2.380   6.569
10567SOL     OW32599   1.790   2.406   5.796
10567SOL    HW132600   1.822   2.444   5.883
10567SOL    HW232601   1.725   2.469   5.754
10568SOL     OW32602   5.832   3.065   6.871
10568SOL    HW132603   5.769   3.097   6.941
10568SOL    HW232604   5.834   3.129   6.794
10569SOL     OW32605   5.497   0.737   1.878
10569SOL    HW132606   5.533   0.773   1.792
10569SOL    HW232607   5.462   0.812   1.934
10570SOL     OW32608   1.428   4.834   4.277
10570SOL    HW132609   1.416   4.795   4.185
10570SOL    HW232610   1.520   4.873   4.285
10571SOL     OW32611   0.182   4.359   6.220
10571SOL    HW132612   0.248   4.409   6.164
10571SOL    HW232613   0.212   4.361   6.315
10572SOL     OW32614   6.888   4.477   1.437
10572SOL    HW132615   6.914   4.555   1.381
10572SOL    HW232616   6.826   4.507   1.510
10573SOL     OW32617   5.409   0.685   4.484
10573SOL    HW132618   5.314   0.670   4.513
10573SOL    HW232619   5.416   0.676   4.385
10574SOL     OW32620   6.622   0.486   4.000
10574SOL    HW132621   6.572   0.486   3.913
10574SOL    HW232622   6.574   0.545   4.066
10575SOL     OW32623   5.420   0.311   3.451
10575SOL    HW132624   5.432   0.410   3.454
10575SOL    HW232625   5.441   0.278   3.358
10576SOL     OW32626   1.702   4.910   2.698
10576SOL    HW132627   1.753   4.828   2.671
10576SOL    HW232628   1.752   4.956   2.772
10577SOL     OW32629   2.933   6.022   0.724
10577SOL    HW132630   2.894   6.070   0.645
10577SOL    HW232631   2.862   6.006   0.792
10578SOL     OW32632   5.867   2.471   3.619
10578SOL    HW132633   5.824   2.520   3.695
10578SOL    HW232634   5.934   2.406   3.656
10579SOL     OW32635   2.619   4.160   1.325
10579SOL    HW132636   2.637   4.176   1.422
10579SOL    HW232637   2.632   4.246   1.275
10580SOL     OW32638   6.395   6.954   6.993
10580SOL    HW132639   6.414   6.858   7.009
10580SOL    HW232640   6.350   6.993   0.048
10581SOL     OW32641   5.062   6.326   2.849
10581SOL    HW132642   5.160   6.318   2.833
10581SOL    HW232643   5.013   6.305   2.765
10582SOL     OW32644   5.617   4.704   6.427
10582SOL    HW132645   5.553   4.725   6.500
10582SOL    HW232646   5.578   4.729   6.338
10583SOL     OW32647   3.101   0.250   4.377
10583SOL    HW132648   3.174   0.303   4.421
10583SOL    HW232649   3.074   0.175   4.437
10584SOL     OW32650   6.545   0.531   6.619
10584SOL    HW132651   6.488   0.476   6.679
10584SOL    HW232652   6.519   0.627   6.627
10585SOL     OW32653   0.934   1.753   6.225
10585SOL    HW132654   0.842   1.731   6.257
10585SOL    HW232655   0.949   1.852   6.229
10586SOL     OW32656   4.464   4.852   5.808
10586SOL    HW132657   4.525   4.927   5.835
10586SOL    HW232658   4.403   4.883   5.735
10587SOL     OW32659   0.467   5.959   5.728
10587SOL    HW132660   0.527   6.030   5.763
10587SOL    HW232661   0.419   5.993   5.647
10588SOL     OW32662   1.883   2.661   4.457
10588SOL    HW132663   1.939   2.743   4.454
10588SOL    HW232664   1.787   2.685   4.466
10589SOL     OW32665   5.453   6.212   4.700
10589SOL    HW132666   5.407   6.233   4.786
10589SOL    HW232667   5.384   6.202   4.628
10590SOL     OW32668   0.390   5.835   1.734
10590SOL    HW132669   0.382   5.921   1.783
10590SOL    HW232670   0.308   5.819   1.680
10591SOL     OW32671   1.892   1.380   1.293
10591SOL    HW132672   1.855   1.289   1.276
10591SOL    HW232673   1.984   1.386   1.254
10592SOL     OW32674   5.771   2.416   4.499
10592SOL    HW132675   5.697   2.352   4.475
10592SOL    HW232676   5.853   2.365   4.522
10593SOL     OW32677   1.737   6.411   0.738
10593SOL    HW132678   1.684   6.361   0.670
10593SOL    HW232679   1.834   6.404   0.717
10594SOL     OW32680   3.860   0.744   2.784
10594SOL    HW132681   3.819   0.771   2.872
10594SOL    HW232682   3.841   0.813   2.715
10595SOL     OW32683   6.109   0.862   0.679
10595SOL    HW132684   6.134   0.949   0.636
10595SOL    HW232685   6.015   0.867   0.711
10596SOL     OW32686   4.764   1.759   0.021
10596SOL    HW132687   4.739   1.670   7.007
10596SOL    HW232688   4.828   1.805   6.985
10597SOL     OW32689   2.657   0.674   6.130
10597SOL    HW132690   2.592   0.689   6.205
10597SOL    HW232691   2.746   0.651   6.169
10598SOL     OW32692   2.468   1.890   5.854
10598SOL    HW132693   2.479   1.792   5.865
10598SOL    HW232694   2.406   1.909   5.778
10599SOL     OW32695   6.118   4.302   6.226
10599SOL    HW132696   6.123   4.331   6.322
10599SOL    HW232697   6.110   4.203   6.221
10600SOL     OW32698   3.512   1.036   1.601
10600SOL    HW132699   3.508   1.115   1.662
10600SOL    HW232700   3.583   0.973   1.634
10601SOL     OW32701   0.408   6.036   5.457
10601SOL    HW132702   0.485   5.981   5.490
10601SOL    HW232703   0.404   6.030   5.357
10602SOL     OW32704   0.869   0.571   0.211
10602SOL    HW132705   0.823   0.543   0.126
10602SOL    HW232706   0.882   0.492   0.269
10603SOL     OW32707   4.526   6.299   1.828
10603SOL    HW132708   4.558   6.206   1.808
10603SOL    HW232709   4.592   6.344   1.888
10604SOL     OW32710   0.605   5.966   4.776
10604SOL    HW132711   0.533   5.902   4.802
10604SOL    HW232712   0.564   6.055   4.757
10605SOL     OW32713   1.979   0.254   0.202
10605SOL    HW132714   2.065   0.281   0.246
10605SOL    HW232715   1.989   0.261   0.103
10606SOL     OW32716   6.294   0.899   1.554
10606SOL    HW132717   6.372   0.863   1.502
10606SOL    HW232718   6.259   0.828   1.615
10607SOL     OW32719   4.385   4.502   6.960
10607SOL    HW132720   4.335   4.416   6.963
10607SOL    HW232721   4.322   4.577   6.940
10608SOL     OW32722   6.853   2.905   2.864
10608SOL    HW132723   6.917   2.854   2.921
10608SOL    HW232724   6.767   2.854   2.858
10609SOL     OW32725   2.757   6.448   0.460
10609SOL    HW132726   2.780   6.385   0.534
10609SOL    HW232727   2.810   6.532   0.470
10610SOL     OW32728   6.646   2.638   4.124
10610SOL    HW132729   6.741   2.652   4.097
10610SOL    HW232730   6.632   2.542   4.148
10611SOL     OW32731   2.514   5.359   4.880
10611SOL    HW132732   2.593   5.305   4.910
10611SOL    HW232733   2.526   5.453   4.910
10612SOL     OW32734   5.456   1.075   4.174
10612SOL    HW132735   5.488   1.120   4.091
10612SOL    HW232736   5.444   1.144   4.246
10613SOL     OW32737   5.396   6.076   4.237
10613SOL    HW132738   5.445   6.147   4.186
10613SOL    HW232739   5.340   6.119   4.308
10614SOL     OW32740   4.949   1.448   5.418
10614SOL    HW132741   4.997   1.519   5.469
10614SOL    HW232742   4.882   1.403   5.477
10615SOL     OW32743   3.862   1.442   5.635
10615SOL    HW132744   3.820   1.429   5.546
10615SOL    HW232745   3.820   1.521   5.681
10616SOL     OW32746   2.711   6.314   6.304
10616SOL    HW132747   2.761   6.377   6.245
10616SOL    HW232748   2.719   6.343   6.399
10617SOL     OW32749   2.326   4.298   1.763
10617SOL    HW132750   2.335   4.293   1.862
10617SOL    HW232751   2.326   4.206   1.725
10618SOL     OW32752   0.661   5.308   5.363
10618SOL    HW132753   0.596   5.366   5.413
10618SOL    HW232754   0.664   5.337   5.267
10619SOL     OW32755   0.639   2.387   2.708
10619SOL    HW132756   0.719   2.406   2.763
10619SOL    HW232757   0.603   2.472   2.669
10620SOL     OW32758   1.236   0.096   5.094
10620SOL    HW132759   1.181   0.165   5.140
10620SOL    HW232760   1.327   0.132   5.075
10621SOL     OW32761   1.020   4.349   2.331
10621SOL    HW132762   1.032   4.389   2.423
10621SOL    HW232763   1.095   4.378   2.272
10622SOL     OW32764   4.291   2.831   1.391
10622SOL    HW132765   4.254   2.743   1.418
10622SOL    HW232766   4.300   2.834   1.292
10623SOL     OW32767   6.285   5.962   5.201
10623SOL    HW132768   6.290   6.000   5.294
10623SOL    HW232769   6.367   5.908   5.182
10624SOL     OW32770   0.736   2.603   4.551
10624SOL    HW132771   0.820   2.644   4.515
10624SOL    HW232772   0.681   2.674   4.594
10625SOL     OW32773   0.588   3.016   0.455
10625SOL    HW132774   0.564   3.111   0.477
10625SOL    HW232775   0.596   3.005   0.356
10626SOL     OW32776   3.243   3.021   1.578
10626SOL    HW132777   3.254   2.927   1.612
10626SOL    HW232778   3.165   3.025   1.516
10627SOL     OW32779   5.587   1.013   6.662
10627SOL    HW132780   5.646   1.090   6.687
10627SOL    HW232781   5.634   0.927   6.680
10628SOL     OW32782   4.149   0.327   0.476
10628SOL    HW132783   4.230   0.341   0.419
10628SOL    HW232784   4.177   0.318   0.572
10629SOL     OW32785   3.288   5.154   5.064
10629SOL    HW132786   3.202   5.183   5.108
10629SOL    HW232787   3.317   5.067   5.104
10630SOL     OW32788   5.377   1.048   2.640
10630SOL    HW132789   5.458   1.106   2.638
10630SOL    HW232790   5.295   1.105   2.635
10631SOL     OW32791   4.128   4.792   5.911
10631SOL    HW132792   4.200   4.735   5.953
10631SOL    HW232793   4.042   4.777   5.959
10632SOL     OW32794   4.976   5.875   3.504
10632SOL    HW132795   4.937   5.815   3.574
10632SOL    HW232796   5.071   5.850   3.489
10633SOL     OW32797   2.501   2.788   1.782
10633SOL    HW132798   2.414   2.810   1.738
10633SOL    HW232799   2.491   2.704   1.835
10634SOL     OW32800   0.995   5.850   0.449
10634SOL    HW132801   1.086   5.812   0.438
10634SOL    HW232802   0.926   5.781   0.429
10635SOL     OW32803   2.276   3.553   0.569
10635SOL    HW132804   2.193   3.594   0.607
10635SOL    HW232805   2.264   3.540   0.470
10636SOL     OW32806   6.379   1.459   0.734
10636SOL    HW132807   6.383   1.361   0.713
10636SOL    HW232808   6.447   1.482   0.803
10637SOL     OW32809   2.124   5.894   6.567
10637SOL    HW132810   2.214   5.897   6.610
10637SOL    HW232811   2.133   5.857   6.474
10638SOL     OW32812   6.757   6.619   2.371
10638SOL    HW132813   6.824   6.610   2.445
10638SOL    HW232814   6.716   6.529   2.353
10639SOL     OW32815   2.023   3.560   1.794
10639SOL    HW132816   2.089   3.529   1.862
10639SOL    HW232817   1.966   3.482   1.766
10640SOL     OW32818   4.640   0.712   3.657
10640SOL    HW132819   4.595   0.673   3.738
10640SOL    HW232820   4.581   0.700   3.578
10641SOL     OW32821   1.862   1.290   3.423
10641SOL    HW132822   1.888   1.294   3.519
10641SOL    HW232823   1.925   1.229   3.374
10642SOL     OW32824   5.690   1.869   0.643
10642SOL    HW132825   5.714   1.963   0.671
10642SOL    HW232826   5.728   1.805   0.709
10643SOL     OW32827   2.147   6.227   4.514
10643SOL    HW132828   2.210   6.263   4.582
10643SOL    HW232829   2.186   6.239   4.423
10644SOL     OW32830   5.715   3.065   1.143
10644SOL    HW132831   5.791   3.012   1.105
10644SOL    HW232832   5.639   3.004   1.166
10645SOL     OW32833   2.188   2.902   3.580
10645SOL    HW132834   2.213   2.998   3.570
10645SOL    HW232835   2.234   2.849   3.509
10646SOL     OW32836   5.700   0.596   5.825
10646SOL    HW132837   5.744   0.642   5.747
10646SOL    HW232838   5.633   0.658   5.867
10647SOL     OW32839   3.670   5.503   5.144
10647SOL    HW132840   3.609   5.427   5.123
10647SOL    HW232841   3.763   5.479   5.116
10648SOL     OW32842   6.088   5.727   6.505
10648SOL    HW132843   6.142   5.756   6.426
10648SOL    HW232844   6.026   5.800   6.531
10649SOL     OW32845   0.982   2.981   3.646
10649SOL    HW132846   0.920   3.059   3.639
10649SOL    HW232847   0.931   2.900   3.676
10650SOL     OW32848   0.396   0.387   4.493
10650SOL    HW132849   0.309   0.436   4.481
10650SOL    HW232850   0.377   0.291   4.513
10651SOL     OW32851   6.081   5.973   6.157
10651SOL    HW132852   6.153   5.933   6.213
10651SOL    HW232853   6.111   6.063   6.124
10652SOL     OW32854   1.992   6.527   5.948
10652SOL    HW132855   2.015   6.620   5.918
10652SOL    HW232856   1.897   6.507   5.925
10653SOL     OW32857   3.987   5.890   4.668
10653SOL    HW132858   4.042   5.969   4.640
10653SOL    HW232859   4.011   5.811   4.611
10654SOL     OW32860   4.803   1.182   5.361
10654SOL    HW132861   4.851   1.149   5.442
10654SOL    HW232862   4.848   1.147   5.278
10655SOL     OW32863   1.805   4.672   0.810
10655SOL    HW132864   1.785   4.684   0.713
10655SOL    HW232865   1.767   4.585   0.841
10656SOL     OW32866   6.836   1.393   2.762
10656SOL    HW132867   6.783   1.319   2.803
10656SOL    HW232868   6.808   1.480   2.805
10657SOL     OW32869   6.031   0.941   4.591
10657SOL    HW132870   5.976   0.940   4.674
10657SOL    HW232871   5.976   0.906   4.515
10658SOL     OW32872   6.024   3.978   4.883
10658SOL    HW132873   5.992   4.064   4.845
10658SOL    HW232874   6.124   3.978   4.888
10659SOL     OW32875   1.010   4.644   0.577
10659SOL    HW132876   0.953   4.656   0.495
10659SOL    HW232877   1.032   4.547   0.588
10660SOL     OW32878   5.957   3.704   5.203
10660SOL    HW132879   5.902   3.753   5.271
10660SOL    HW232880   6.034   3.762   5.176
10661SOL     OW32881   1.450   5.623   0.535
10661SOL    HW132882   1.358   5.603   0.499
10661SOL    HW232883   1.503   5.538   0.537
10662SOL     OW32884   3.983   0.552   2.505
10662SOL    HW132885   3.974   0.458   2.471
10662SOL    HW232886   3.893   0.590   2.524
10663SOL     OW32887   0.486   1.803   3.139
10663SOL    HW132888   0.497   1.869   3.065
10663SOL    HW232889   0.395   1.761   3.133
10664SOL     OW32890   6.908   5.272   4.968
10664SOL    HW132891   6.978   5.236   5.031
10664SOL    HW232892   6.866   5.196   4.919
10665SOL     OW32893   2.014   2.474   6.924
10665SOL    HW132894   2.092   2.534   6.941
10665SOL    HW232895   2.046   2.383   6.896
10666SOL     OW32896   3.177   4.056   2.442
10666SOL    HW132897   3.239   4.045   2.520
10666SOL    HW232898   3.098   3.995   2.454
10667SOL     OW32899   4.903   1.624   4.188
10667SOL    HW132900   4.918   1.723   4.184
10667SOL    HW232901   4.921   1.591   4.281
10668SOL     OW32902   3.324   1.421   5.516
10668SOL    HW132903   3.246   1.467   5.473
10668SOL    HW232904   3.357   1.476   5.592
10669SOL     OW32905   5.813   0.747   0.922
10669SOL    HW132906   5.831   0.833   0.874
10669SOL    HW232907   5.879   0.736   0.996
10670SOL     OW32908   5.504   4.917   4.380
10670SOL    HW132909   5.484   4.829   4.422
10670SOL    HW232910   5.425   4.946   4.326
10671SOL     OW32911   1.763   1.460   4.315
10671SOL    HW132912   1.806   1.550   4.313
10671SOL    HW232913   1.664   1.471   4.307
10672SOL     OW32914   0.065   4.310   1.461
10672SOL    HW132915   7.004   4.361   1.462
10672SOL    HW232916   0.063   4.243   1.386
10673SOL     OW32917   1.455   6.999   0.250
10673SOL    HW132918   1.385   6.995   0.321
10673SOL    HW232919   1.497   6.909   0.240
10674SOL     OW32920   4.035   3.941   4.372
10674SOL    HW132921   4.107   4.003   4.401
10674SOL    HW232922   3.957   3.949   4.434
10675SOL     OW32923   2.804   0.465   6.573
10675SOL    HW132924   2.844   0.377   6.598
10675SOL    HW232925   2.770   0.461   6.479
10676SOL     OW32926   0.472   6.234   4.759
10676SOL    HW132927   0.388   6.288   4.752
10676SOL    HW232928   0.520   6.257   4.844
10677SOL     OW32929   1.813   1.107   1.305
10677SOL    HW132930   1.720   1.075   1.320
10677SOL    HW232931   1.860   1.047   1.240
10678SOL     OW32932   4.147   4.894   3.734
10678SOL    HW132933   4.221   4.961   3.730
10678SOL    HW232934   4.184   4.804   3.709
10679SOL     OW32935   3.922   5.909   6.608
10679SOL    HW132936   3.843   5.967   6.589
10679SOL    HW232937   3.996   5.965   6.645
10680SOL     OW32938   3.765   2.098   3.588
10680SOL    HW132939   3.849   2.091   3.536
10680SOL    HW232940   3.687   2.081   3.528
10681SOL     OW32941   6.473   3.569   0.447
10681SOL    HW132942   6.543   3.573   0.518
10681SOL    HW232943   6.382   3.566   0.489
10682SOL     OW32944   0.206   2.828   5.432
10682SOL    HW132945   0.156   2.836   5.346
10682SOL    HW232946   0.216   2.919   5.473
10683SOL     OW32947   4.897   0.963   3.856
10683SOL    HW132948   4.830   1.037   3.853
10683SOL    HW232949   4.986   0.997   3.825
10684SOL     OW32950   4.497   5.457   1.887
10684SOL    HW132951   4.490   5.370   1.838
10684SOL    HW232952   4.567   5.450   1.957
10685SOL     OW32953   0.402   5.505   1.279
10685SOL    HW132954   0.333   5.577   1.275
10685SOL    HW232955   0.481   5.531   1.222
10686SOL     OW32956   1.413   4.099   5.858
10686SOL    HW132957   1.432   4.188   5.817
10686SOL    HW232958   1.497   4.060   5.896
10687SOL     OW32959   6.199   4.586   4.673
10687SOL    HW132960   6.141   4.665   4.694
10687SOL    HW232961   6.151   4.527   4.608
10688SOL     OW32962   6.028   3.122   3.156
10688SOL    HW132963   6.074   3.211   3.158
10688SOL    HW232964   6.051   3.069   3.237
10689SOL     OW32965   6.479   0.590   2.171
10689SOL    HW132966   6.394   0.539   2.161
10689SOL    HW232967   6.527   0.558   2.253
10690SOL     OW32968   0.438   4.987   3.442
10690SOL    HW132969   0.478   5.067   3.487
10690SOL    HW232970   0.434   5.004   3.343
10691SOL     OW32971   1.787   1.946   1.698
10691SOL    HW132972   1.834   1.859   1.711
10691SOL    HW232973   1.745   1.973   1.785
10692SOL     OW32974   2.381   0.629   3.518
10692SOL    HW132975   2.445   0.669   3.583
10692SOL    HW232976   2.335   0.702   3.466
10693SOL     OW32977   1.434   5.905   1.020
10693SOL    HW132978   1.380   5.841   0.966
10693SOL    HW232979   1.426   5.882   1.117
10694SOL     OW32980   5.470   6.188   6.672
10694SOL    HW132981   5.461   6.281   6.707
10694SOL    HW232982   5.397   6.131   6.712
10695SOL     OW32983   1.617   2.672   2.228
10695SOL    HW132984   1.591   2.576   2.217
10695SOL    HW232985   1.680   2.698   2.154
10696SOL     OW32986   6.745   3.964   4.610
10696SOL    HW132987   6.664   4.019   4.632
10696SOL    HW232988   6.734   3.872   4.647
10697SOL     OW32989   7.015   0.559   5.690
10697SOL    HW132990   0.072   0.502   5.681
10697SOL    HW232991   7.011   0.625   5.615
10698SOL     OW32992   5.146   4.897   6.748
10698SOL    HW132993   5.184   4.881   6.840
10698SOL    HW232994   5.123   4.809   6.706
10699SOL     OW32995   3.828   4.857   1.637
10699SOL    HW132996   3.859   4.762   1.628
10699SOL    HW232997   3.907   4.917   1.648
10700SOL     OW32998   5.699   6.115   0.791
10700SOL    HW132999   5.631   6.131   0.863
10700SOL    HW233000   5.789   6.144   0.824
10701SOL     OW33001   2.630   6.895   5.814
10701SOL    HW133002   2.729   6.910   5.810
10701SOL    HW233003   2.602   6.832   5.742
10702SOL     OW33004   5.349   3.525   2.042
10702SOL    HW133005   5.408   3.519   2.122
10702SOL    HW233006   5.274   3.589   2.060
10703SOL     OW33007   2.469   2.590   5.179
10703SOL    HW133008   2.553   2.597   5.233
10703SOL    HW233009   2.424   2.503   5.198
10704SOL     OW33010   6.745   4.988   2.193
10704SOL    HW133011   6.705   4.960   2.106
10704SOL    HW233012   6.844   4.980   2.189
10705SOL     OW33013   6.576   5.252   1.343
10705SOL    HW133014   6.654   5.304   1.308
10705SOL    HW233015   6.607   5.161   1.372
10706SOL     OW33016   4.069   6.903   2.876
10706SOL    HW133017   4.027   6.994   2.882
10706SOL    HW233018   4.031   6.855   2.797
10707SOL     OW33019   0.371   6.158   4.026
10707SOL    HW133020   0.437   6.218   3.981
10707SOL    HW233021   0.399   6.143   4.121
10708SOL     OW33022   3.750   1.320   1.478
10708SOL    HW133023   3.810   1.272   1.542
10708SOL    HW233024   3.671   1.262   1.458
10709SOL     OW33025   5.608   5.454   5.009
10709SOL    HW133026   5.515   5.448   4.971
10709SOL    HW233027   5.626   5.374   5.066
10710SOL     OW33028   5.819   1.174   4.246
10710SOL    HW133029   5.908   1.190   4.286
10710SOL    HW233030   5.777   1.261   4.220
10711SOL     OW33031   2.145   6.564   3.841
10711SOL    HW133032   2.120   6.546   3.936
10711SOL    HW233033   2.154   6.478   3.791
10712SOL     OW33034   2.912   0.793   1.941
10712SOL    HW133035   2.939   0.704   1.978
10712SOL    HW233036   2.993   0.851   1.932
10713SOL     OW33037   0.392   3.461   0.699
10713SOL    HW133038   0.308   3.487   0.652
10713SOL    HW233039   0.460   3.431   0.632
10714SOL     OW33040   4.882   3.819   5.598
10714SOL    HW133041   4.794   3.771   5.592
10714SOL    HW233042   4.949   3.761   5.644
10715SOL     OW33043   4.563   0.106   2.320
10715SOL    HW133044   4.643   0.145   2.366
10715SOL    HW233045   4.508   0.180   2.282
10716SOL     OW33046   5.809   2.179   4.282
10716SOL    HW133047   5.739   2.210   4.346
10716SOL    HW233048   5.809   2.237   4.201
10717SOL     OW33049   0.963   2.251   1.197
10717SOL    HW133050   0.924   2.330   1.151
10717SOL    HW233051   0.896   2.177   1.202
10718SOL     OW33052   1.046   3.634   6.982
10718SOL    HW133053   0.954   3.668   6.962
10718SOL    HW233054   1.114   3.696   6.943
10719SOL     OW33055   0.254   5.935   2.863
10719SOL    HW133056   0.303   5.857   2.822
10719SOL    HW233057   0.308   5.973   2.937
10720SOL     OW33058   7.019   4.340   5.615
10720SOL    HW133059   0.053   4.261   5.600
10720SOL    HW233060   0.028   4.393   5.693
10721SOL     OW33061   5.125   3.860   5.222
10721SOL    HW133062   5.198   3.928   5.230
10721SOL    HW233063   5.131   3.796   5.299
10722SOL     OW33064   1.475   5.300   0.085
10722SOL    HW133065   1.519   5.288   7.022
10722SOL    HW233066   1.513   5.380   0.131
10723SOL     OW33067   0.369   2.940   6.791
10723SOL    HW133068   0.396   2.990   6.874
10723SOL    HW233069   0.381   2.998   6.711
10724SOL     OW33070   6.331   1.034   0.162
10724SOL    HW133071   6.274   1.068   0.088
10724SOL    HW233072   6.384   1.110   0.201
10725SOL     OW33073   1.520   5.563   4.478
10725SOL    HW133074   1.540   5.533   4.384
10725SOL    HW233075   1.562   5.652   4.494
10726SOL     OW33076   5.724   0.648   4.707
10726SOL    HW133077   5.765   0.721   4.651
10726SOL    HW233078   5.707   0.568   4.650
10727SOL     OW33079   0.090   5.464   5.514
10727SOL    HW133080   0.158   5.454   5.442
10727SOL    HW233081   0.133   5.448   5.603
10728SOL     OW33082   0.956   6.154   6.863
10728SOL    HW133083   1.033   6.210   6.893
10728SOL    HW233084   0.870   6.200   6.886
10729SOL     OW33085   4.611   1.548   2.782
10729SOL    HW133086   4.693   1.569   2.835
10729SOL    HW233087   4.614   1.600   2.696
10730SOL     OW33088   1.918   0.922   1.125
10730SOL    HW133089   1.857   0.844   1.138
10730SOL    HW233090   1.974   0.908   1.043
10731SOL     OW33091   3.132   0.385   0.935
10731SOL    HW133092   3.162   0.328   0.858
10731SOL    HW233093   3.191   0.466   0.941
10732SOL     OW33094   6.003   4.518   4.918
10732SOL    HW133095   6.046   4.570   4.991
10732SOL    HW233096   6.072   4.489   4.852
10733SOL     OW33097   6.570   1.956   0.915
10733SOL    HW133098   6.499   1.908   0.965
10733SOL    HW233099   6.609   1.896   0.845
10734SOL     OW33100   1.160   0.445   6.952
10734SOL    HW133101   1.162   0.350   6.984
10734SOL    HW233102   1.068   0.467   6.918
10735SOL     OW33103   0.534   3.032   2.653
10735SOL    HW133104   0.516   3.006   2.558
10735SOL    HW233105   0.633   3.045   2.665
10736SOL     OW33106   1.044   0.888   3.488
10736SOL    HW133107   1.037   0.922   3.582
10736SOL    HW233108   0.953   0.881   3.448
10737SOL     OW33109   1.318   1.336   0.823
10737SOL    HW133110   1.264   1.388   0.758
10737SOL    HW233111   1.265   1.323   0.907
10738SOL     OW33112   2.444   0.738   2.615
10738SOL    HW133113   2.385   0.803   2.663
10738SOL    HW233114   2.390   0.690   2.546
10739SOL     OW33115   1.550   1.584   0.786
10739SOL    HW133116   1.625   1.518   0.779
10739SOL    HW233117   1.586   1.677   0.781
10740SOL     OW33118   0.267   5.200   5.110
10740SOL    HW133119   0.244   5.297   5.103
10740SOL    HW233120   0.183   5.145   5.105
10741SOL     OW33121   5.023   0.235   1.381
10741SOL    HW133122   5.063   0.201   1.297
10741SOL    HW233123   5.096   0.249   1.449
10742SOL     OW33124   5.770   0.225   1.222
10742SOL    HW133125   5.791   0.289   1.296
10742SOL    HW233126   5.704   0.157   1.255
10743SOL     OW33127   2.166   1.129   4.888
10743SOL    HW133128   2.100   1.200   4.861
10743SOL    HW233129   2.259   1.163   4.871
10744SOL     OW33130   3.720   1.282   0.624
10744SOL    HW133131   3.711   1.324   0.714
10744SOL    HW233132   3.634   1.292   0.574
10745SOL     OW33133   0.439   6.036   6.407
10745SOL    HW133134   0.520   6.003   6.359
10745SOL    HW233135   0.423   5.981   6.489
10746SOL     OW33136   2.326   5.205   1.251
10746SOL    HW133137   2.330   5.108   1.278
10746SOL    HW233138   2.419   5.241   1.245
10747SOL     OW33139   3.892   1.380   4.314
10747SOL    HW133140   3.925   1.349   4.225
10747SOL    HW233141   3.808   1.434   4.301
10748SOL     OW33142   5.359   0.833   1.064
10748SOL    HW133143   5.314   0.777   0.995
10748SOL    HW233144   5.294   0.898   1.103
10749SOL     OW33145   0.642   5.262   3.522
10749SOL    HW133146   0.713   5.332   3.519
10749SOL    HW233147   0.573   5.288   3.590
10750SOL     OW33148   4.545   6.274   4.208
10750SOL    HW133149   4.602   6.339   4.158
10750SOL    HW233150   4.576   6.181   4.189
10751SOL     OW33151   1.671   4.780   4.716
10751SOL    HW133152   1.709   4.864   4.676
10751SOL    HW233153   1.720   4.758   4.800
10752SOL     OW33154   6.321   4.240   6.029
10752SOL    HW133155   6.253   4.250   6.102
10752SOL    HW233156   6.277   4.251   5.940
10753SOL     OW33157   4.866   5.258   4.588
10753SOL    HW133158   4.890   5.173   4.635
10753SOL    HW233159   4.889   5.336   4.645
10754SOL     OW33160   0.554   0.487   3.338
10754SOL    HW133161   0.543   0.534   3.426
10754SOL    HW233162   0.650   0.489   3.312
10755SOL     OW33163   6.926   0.987   0.265
10755SOL    HW133164   6.873   1.036   0.335
10755SOL    HW233165   6.886   1.004   0.175
10756SOL     OW33166   6.611   4.702   0.069
10756SOL    HW133167   6.568   4.619   0.103
10756SOL    HW233168   6.545   4.777   0.071
10757SOL     OW33169   2.329   3.306   0.157
10757SOL    HW133170   2.236   3.289   0.191
10757SOL    HW233171   2.384   3.224   0.172
10758SOL     OW33172   0.926   6.546   4.431
10758SOL    HW133173   0.989   6.541   4.508
10758SOL    HW233174   0.964   6.495   4.354
10759SOL     OW33175   1.932   2.821   1.195
10759SOL    HW133176   2.023   2.852   1.223
10759SOL    HW233177   1.924   2.823   1.096
10760SOL     OW33178   5.328   0.664   2.672
10760SOL    HW133179   5.280   0.715   2.602
10760SOL    HW233180   5.264   0.635   2.743
10761SOL     OW33181   1.014   6.422   5.829
10761SOL    HW133182   1.050   6.489   5.764
10761SOL    HW233183   1.019   6.461   5.922
10762SOL     OW33184   3.669   2.101   4.511
10762SOL    HW133185   3.627   2.039   4.445
10762SOL    HW233186   3.758   2.131   4.476
10763SOL     OW33187   5.557   6.745   2.931
10763SOL    HW133188   5.563   6.744   3.031
10763SOL    HW233189   5.528   6.655   2.899
10764SOL     OW33190   4.504   2.272   6.046
10764SOL    HW133191   4.428   2.285   5.982
10764SOL    HW233192   4.584   2.238   5.996
10765SOL     OW33193   4.925   2.580   0.692
10765SOL    HW133194   4.892   2.490   0.718
10765SOL    HW233195   4.951   2.580   0.595
10766SOL     OW33196   5.269   4.342   0.668
10766SOL    HW133197   5.253   4.281   0.746
10766SOL    HW233198   5.367   4.347   0.650
10767SOL     OW33199   1.716   0.288   0.032
10767SOL    HW133200   1.713   0.210   6.995
10767SOL    HW233201   1.810   0.322   0.038
10768SOL     OW33202   4.811   5.452   1.765
10768SOL    HW133203   4.891   5.392   1.771
10768SOL    HW233204   4.756   5.442   1.848
10769SOL     OW33205   2.494   4.072   5.411
10769SOL    HW133206   2.494   4.059   5.312
10769SOL    HW233207   2.425   4.140   5.435
10770SOL     OW33208   5.630   0.476   4.515
10770SOL    HW133209   5.545   0.515   4.480
10770SOL    HW233210   5.675   0.425   4.442
10771SOL     OW33211   5.843   6.391   3.677
10771SOL    HW133212   5.936   6.387   3.639
10771SOL    HW233213   5.815   6.486   3.687
10772SOL     OW33214   5.988   6.613   4.316
10772SOL    HW133215   5.951   6.601   4.223
10772SOL    HW233216   5.927   6.569   4.382
10773SOL     OW33217   6.269   5.858   6.330
10773SOL    HW133218   6.349   5.798   6.319
10773SOL    HW233219   6.298   5.944   6.372
10774SOL     OW33220   2.481   1.658   6.415
10774SOL    HW133221   2.543   1.725   6.457
10774SOL    HW233222   2.387   1.691   6.421
10775SOL     OW33223   0.441   4.517   1.903
10775SOL    HW133224   0.480   4.546   1.815
10775SOL    HW233225   0.510   4.468   1.956
10776SOL     OW33226   0.214   0.812   0.065
10776SOL    HW133227   0.254   0.774   0.148
10776SOL    HW233228   0.253   0.766   7.010
10777SOL     OW33229   3.917   5.364   2.592
10777SOL    HW133230   3.855   5.402   2.660
10777SOL    HW233231   3.895   5.268   2.577
10778SOL     OW33232   5.238   0.079   4.296
10778SOL    HW133233   5.219   0.137   4.216
10778SOL    HW233234   5.337   0.068   4.306
10779SOL     OW33235   6.316   3.685   3.711
10779SOL    HW133236   6.244   3.745   3.744
10779SOL    HW233237   6.347   3.716   3.621
10780SOL     OW33238   2.014   0.908   3.487
10780SOL    HW133239   2.045   0.982   3.427
10780SOL    HW233240   1.934   0.938   3.538
10781SOL     OW33241   4.494   1.132   4.050
10781SOL    HW133242   4.445   1.049   4.023
10781SOL    HW233243   4.471   1.155   4.144
10782SOL     OW33244   6.874   2.025   1.836
10782SOL    HW133245   6.959   1.974   1.850
10782SOL    HW233246   6.845   2.066   1.922
10783SOL     OW33247   0.511   2.974   2.400
10783SOL    HW133248   0.486   3.045   2.334
10783SOL    HW233249   0.450   2.895   2.389
10784SOL     OW33250   3.460   7.000   4.089
10784SOL    HW133251   3.518   0.047   4.051
10784SOL    HW233252   3.493   6.973   4.179
10785SOL     OW33253   6.710   4.728   0.453
10785SOL    HW133254   6.751   4.657   0.510
10785SOL    HW233255   6.612   4.732   0.470
10786SOL     OW33256   5.843   4.749   3.008
10786SOL    HW133257   5.834   4.655   2.976
10786SOL    HW233258   5.924   4.757   3.065
10787SOL     OW33259   2.023   1.453   5.604
10787SOL    HW133260   1.991   1.420   5.515
10787SOL    HW233261   2.121   1.474   5.599
10788SOL     OW33262   1.942   4.455   6.612
10788SOL    HW133263   1.888   4.385   6.659
10788SOL    HW233264   1.936   4.541   6.661
10789SOL     OW33265   6.674   2.594   6.440
10789SOL    HW133266   6.674   2.651   6.522
10789SOL    HW233267   6.596   2.618   6.383
10790SOL     OW33268   0.533   0.199   1.738
10790SOL    HW133269   0.485   0.113   1.719
10790SOL    HW233270   0.631   0.181   1.747
10791SOL     OW33271   6.629   6.527   1.602
10791SOL    HW133272   6.612   6.461   1.675
10791SOL    HW233273   6.653   6.478   1.518
10792SOL     OW33274   3.710   3.204   4.627
10792SOL    HW133275   3.650   3.178   4.703
10792SOL    HW233276   3.748   3.122   4.584
10793SOL     OW33277   5.725   2.850   5.187
10793SOL    HW133278   5.802   2.907   5.158
10793SOL    HW233279   5.659   2.841   5.113
10794SOL     OW33280   3.995   3.109   4.068
10794SOL    HW133281   3.898   3.097   4.047
10794SOL    HW233282   4.014   3.075   4.160
10795SOL     OW33283   6.836   4.726   2.756
10795SOL    HW133284   6.823   4.641   2.805
10795SOL    HW233285   6.930   4.731   2.723
10796SOL     OW33286   6.058   0.035   6.197
10796SOL    HW133287   6.102   7.007   6.268
10796SOL    HW233288   6.127   0.086   6.145
10797SOL     OW33289   3.063   2.422   1.375
10797SOL    HW133290   3.121   2.343   1.392
10797SOL    HW233291   3.041   2.467   1.461
10798SOL     OW33292   2.917   0.604   6.846
10798SOL    HW133293   2.975   0.613   6.926
10798SOL    HW233294   2.821   0.596   6.874
10799SOL     OW33295   3.768   0.940   2.079
10799SOL    HW133296   3.708   0.860   2.087
10799SOL    HW233297   3.735   1.013   2.138
10800SOL     OW33298   0.361   6.493   6.305
10800SOL    HW133299   0.402   6.520   6.217
10800SOL    HW233300   0.330   6.574   6.353
10801SOL     OW33301   1.299   7.017   6.814
10801SOL    HW133302   1.391   6.988   6.838
10801SOL    HW233303   1.295   0.092   6.812
10802SOL     OW33304   0.571   0.322   2.573
10802SOL    HW133305   0.633   0.281   2.506
10802SOL    HW233306   0.607   0.306   2.665
10803SOL     OW33307   2.047   5.518   5.918
10803SOL    HW133308   2.125   5.575   5.943
10803SOL    HW233309   2.059   5.427   5.959
10804SOL     OW33310   5.893   3.025   2.653
10804SOL    HW133311   5.932   2.934   2.665
10804SOL    HW233312   5.891   3.073   2.741
10805SOL     OW33313   4.908   6.704   5.878
10805SOL    HW133314   4.918   6.705   5.977
10805SOL    HW233315   4.982   6.757   5.836
10806SOL     OW33316   4.176   4.193   5.742
10806SOL    HW133317   4.212   4.114   5.792
10806SOL    HW233318   4.078   4.202   5.760
10807SOL     OW33319   1.526   0.111   3.142
10807SOL    HW133320   1.548   0.017   3.116
10807SOL    HW233321   1.462   0.109   3.220
10808SOL     OW33322   0.175   3.088   6.276
10808SOL    HW133323   0.221   3.002   6.298
10808SOL    HW233324   0.092   3.096   6.331
10809SOL     OW33325   2.356   4.348   3.498
10809SOL    HW133326   2.295   4.302   3.433
10809SOL    HW233327   2.352   4.447   3.482
10810SOL     OW33328   0.935   0.947   3.757
10810SOL    HW133329   0.956   1.042   3.734
10810SOL    HW233330   0.844   0.924   3.723
10811SOL     OW33331   3.965   4.854   5.557
10811SOL    HW133332   3.866   4.868   5.553
10811SOL    HW233333   4.003   4.908   5.632
10812SOL     OW33334   0.258   3.787   0.711
10812SOL    HW133335   0.342   3.780   0.766
10812SOL    HW233336   0.180   3.757   0.765
10813SOL     OW33337   1.254   3.591   6.020
10813SOL    HW133338   1.348   3.565   6.000
10813SOL    HW233339   1.226   3.551   6.107
10814SOL     OW33340   1.391   6.827   6.159
10814SOL    HW133341   1.397   6.729   6.178
10814SOL    HW233342   1.385   6.878   6.245
10815SOL     OW33343   5.340   3.342   3.471
10815SOL    HW133344   5.412   3.317   3.406
10815SOL    HW233345   5.298   3.428   3.443
10816SOL     OW33346   3.259   3.449   2.474
10816SOL    HW133347   3.247   3.397   2.559
10816SOL    HW233348   3.269   3.546   2.495
10817SOL     OW33349   3.817   0.612   3.453
10817SOL    HW133350   3.776   0.703   3.462
10817SOL    HW233351   3.878   0.595   3.531
10818SOL     OW33352   4.872   4.424   5.680
10818SOL    HW133353   4.901   4.515   5.649
10818SOL    HW233354   4.798   4.434   5.747
10819SOL     OW33355   6.172   5.124   6.171
10819SOL    HW133356   6.245   5.142   6.236
10819SOL    HW233357   6.184   5.182   6.090
10820SOL     OW33358   0.183   4.988   4.724
10820SOL    HW133359   0.142   4.915   4.670
10820SOL    HW233360   0.282   4.984   4.716
10821SOL     OW33361   4.549   6.839   3.493
10821SOL    HW133362   4.613   6.895   3.440
10821SOL    HW233363   4.456   6.853   3.459
10822SOL     OW33364   5.922   2.188   2.801
10822SOL    HW133365   5.929   2.165   2.898
10822SOL    HW233366   5.834   2.155   2.765
10823SOL     OW33367   0.985   1.150   2.170
10823SOL    HW133368   1.071   1.132   2.123
10823SOL    HW233369   1.001   1.212   2.247
10824SOL     OW33370   0.403   1.162   2.737
10824SOL    HW133371   0.333   1.197   2.799
10824SOL    HW233372   0.370   1.170   2.642
10825SOL     OW33373   2.146   2.006   6.525
10825SOL    HW133374   2.227   2.000   6.468
10825SOL    HW233375   2.066   2.025   6.469
10826SOL     OW33376   0.651   1.586   3.179
10826SOL    HW133377   0.578   1.651   3.158
10826SOL    HW233378   0.738   1.635   3.186
10827SOL     OW33379   0.347   3.194   5.160
10827SOL    HW133380   0.333   3.198   5.061
10827SOL    HW233381   0.301   3.271   5.204
10828SOL     OW33382   1.245   4.477   0.517
10828SOL    HW133383   1.193   4.437   0.442
10828SOL    HW233384   1.308   4.408   0.554
10829SOL     OW33385   4.803   2.825   0.454
10829SOL    HW133386   4.900   2.847   0.470
10829SOL    HW233387   4.768   2.774   0.532
10830SOL     OW33388   4.358   1.716   3.333
10830SOL    HW133389   4.296   1.638   3.320
10830SOL    HW233390   4.436   1.708   3.271
10831SOL     OW33391   3.028   6.648   2.607
10831SOL    HW133392   2.977   6.676   2.525
10831SOL    HW233393   3.108   6.595   2.580
10832SOL     OW33394   0.078   3.493   6.245
10832SOL    HW133395   0.075   3.588   6.213
10832SOL    HW233396   0.081   3.491   6.345
10833SOL     OW33397   0.564   1.181   1.695
10833SOL    HW133398   0.527   1.193   1.603
10833SOL    HW233399   0.519   1.102   1.739
10834SOL     OW33400   6.470   1.663   0.502
10834SOL    HW133401   6.502   1.569   0.515
10834SOL    HW233402   6.407   1.666   0.424
10835SOL     OW33403   6.132   2.315   0.013
10835SOL    HW133404   6.113   2.245   0.081
10835SOL    HW233405   6.213   2.367   0.040
10836SOL     OW33406   6.809   1.860   3.966
10836SOL    HW133407   6.847   1.769   3.983
10836SOL    HW233408   6.882   1.927   3.960
10837SOL     OW33409   6.860   5.062   1.097
10837SOL    HW133410   6.954   5.052   1.067
10837SOL    HW233411   6.802   5.086   1.019
10838SOL     OW33412   6.774   6.174   3.963
10838SOL    HW133413   6.826   6.127   4.034
10838SOL    HW233414   6.742   6.262   3.998
10839SOL     OW33415   4.380   3.411   0.676
10839SOL    HW133416   4.311   3.394   0.605
10839SOL    HW233417   4.335   3.433   0.762
10840SOL     OW33418   3.055   6.416   2.332
10840SOL    HW133419   2.980   6.349   2.332
10840SOL    HW233420   3.018   6.508   2.338
10841SOL     OW33421   6.800   4.331   5.484
10841SOL    HW133422   6.735   4.266   5.522
10841SOL    HW233423   6.882   4.334   5.540
10842SOL     OW33424   4.556   2.294   1.480
10842SOL    HW133425   4.597   2.361   1.542
10842SOL    HW233426   4.473   2.257   1.522
10843SOL     OW33427   1.578   1.286   1.082
10843SOL    HW133428   1.547   1.276   1.177
10843SOL    HW233429   1.611   1.198   1.049
10844SOL     OW33430   0.690   5.210   3.237
10844SOL    HW133431   0.671   5.195   3.334
10844SOL    HW233432   0.677   5.307   3.216
10845SOL     OW33433   4.113   6.129   5.321
10845SOL    HW133434   4.203   6.115   5.362
10845SOL    HW233435   4.067   6.041   5.311
10846SOL     OW33436   5.242   0.758   6.818
10846SOL    HW133437   5.242   0.748   6.918
10846SOL    HW233438   5.324   0.715   6.781
10847SOL     OW33439   3.231   2.512   0.038
10847SOL    HW133440   3.303   2.577   0.014
10847SOL    HW233441   3.272   2.432   0.082
10848SOL     OW33442   1.899   4.269   0.695
10848SOL    HW133443   1.857   4.184   0.662
10848SOL    HW233444   1.960   4.306   0.625
10849SOL     OW33445   2.605   4.630   4.179
10849SOL    HW133446   2.591   4.643   4.081
10849SOL    HW233447   2.697   4.660   4.204
10850SOL     OW33448   3.447   6.077   5.720
10850SOL    HW133449   3.452   5.988   5.673
10850SOL    HW233450   3.420   6.148   5.655
10851SOL     OW33451   3.358   3.697   0.404
10851SOL    HW133452   3.400   3.751   0.331
10851SOL    HW233453   3.304   3.623   0.363
10852SOL     OW33454   1.913   0.465   6.644
10852SOL    HW133455   1.829   0.467   6.697
10852SOL    HW233456   1.967   0.385   6.671
10853SOL     OW33457   1.773   3.084   5.734
10853SOL    HW133458   1.809   3.111   5.644
10853SOL    HW233459   1.693   3.025   5.721
10854SOL     OW33460   4.205   5.232   5.902
10854SOL    HW133461   4.191   5.303   5.834
10854SOL    HW233462   4.295   5.244   5.944
10855SOL     OW33463   4.044   0.669   0.796
10855SOL    HW133464   3.990   0.741   0.840
10855SOL    HW233465   4.111   0.633   0.861
10856SOL     OW33466   5.200   1.036   1.238
10856SOL    HW133467   5.120   1.069   1.188
10856SOL    HW233468   5.256   1.113   1.266
10857SOL     OW33469   0.987   2.267   2.555
10857SOL    HW133470   0.960   2.363   2.562
10857SOL    HW233471   0.912   2.209   2.588
10858SOL     OW33472   1.310   1.234   0.260
10858SOL    HW133473   1.321   1.142   0.224
10858SOL    HW233474   1.258   1.289   0.194
10859SOL     OW33475   0.997   4.896   4.324
10859SOL    HW133476   0.999   4.815   4.382
10859SOL    HW233477   1.064   4.963   4.357
10860SOL     OW33478   0.538   3.194   5.358
10860SOL    HW133479   0.476   3.213   5.282
10860SOL    HW233480   0.529   3.098   5.385
10861SOL     OW33481   3.474   3.766   3.379
10861SOL    HW133482   3.394   3.738   3.327
10861SOL    HW233483   3.450   3.777   3.475
10862SOL     OW33484   2.439   0.929   6.273
10862SOL    HW133485   2.522   0.985   6.267
10862SOL    HW233486   2.405   0.931   6.367
10863SOL     OW33487   2.594   0.704   4.042
10863SOL    HW133488   2.557   0.699   4.134
10863SOL    HW233489   2.578   0.617   3.995
10864SOL     OW33490   2.278   6.418   0.360
10864SOL    HW133491   2.375   6.393   0.359
10864SOL    HW233492   2.264   6.503   0.309
10865SOL     OW33493   6.604   1.250   0.962
10865SOL    HW133494   6.526   1.191   0.940
10865SOL    HW233495   6.571   1.342   0.982
10866SOL     OW33496   5.305   4.538   0.398
10866SOL    HW133497   5.320   4.441   0.379
10866SOL    HW233498   5.215   4.551   0.441
10867SOL     OW33499   3.223   4.164   0.523
10867SOL    HW133500   3.231   4.180   0.622
10867SOL    HW233501   3.233   4.066   0.505
10868SOL     OW33502   5.188   1.213   4.110
10868SOL    HW133503   5.151   1.304   4.092
10868SOL    HW233504   5.240   1.215   4.196
10869NA      NA33505   6.256   2.856   5.354
10870NA      NA33506   4.433   4.391   5.309
10871NA      NA33507   1.694   3.034   1.858
10872NA      NA33508   4.910   3.827   5.102
10873NA      NA33509   4.223   2.382   5.307
10874NA      NA33510   3.594   4.855   1.754
10875NA      NA33511   6.791   4.710   6.930
10876NA      NA33512   3.647   3.360   4.450
10877NA      NA33513   4.714   6.008   7.024
10878NA      NA33514   4.083   6.601   5.060
10879NA      NA33515   6.220   5.213   1.977
10880NA      NA33516   2.077   6.855   3.520
10881NA      NA33517   4.029   5.546   2.460
10882NA      NA33518   3.553   3.983   2.125
   7.02534   7.02534   7.02534
