Generated by trjconv : CNT in water t=  55.00000
33518
    1C        C    1   2.836   2.763   4.745
    1C        C    2   2.893   2.716   4.865
    1C        C    3   2.840   2.773   4.982
    1C        C    4   2.847   2.771   4.257
    1C        C    5   2.897   2.724   4.381
    1C        C    6   2.848   2.773   4.504
    1C        C    7   3.009   2.634   4.625
    1C        C    8   2.893   2.716   4.625
    1C        C    9   3.069   2.595   4.747
    1C        C   10   3.004   2.629   4.867
    1C        C   11   3.176   2.487   4.974
    1C        C   12   3.053   2.553   4.974
    1C        C   13   2.850   2.775   3.769
    1C        C   14   2.902   2.727   3.892
    1C        C   15   2.849   2.772   4.014
    1C        C   16   3.020   2.646   4.134
    1C        C   17   2.904   2.726   4.136
    1C        C   18   3.080   2.617   4.259
    1C        C   19   3.015   2.646   4.381
    1C        C   20   3.206   2.558   4.502
    1C        C   21   3.073   2.604   4.503
    1C        C   22   3.273   2.532   4.624
    1C        C   23   3.203   2.549   4.745
    1C        C   24   3.409   2.484   4.866
    1C        C   25   3.267   2.504   4.864
    1C        C   26   3.486   2.472   4.982
    1C        C   27   2.850   2.768   3.281
    1C        C   28   2.907   2.726   3.403
    1C        C   29   2.855   2.774   3.525
    1C        C   30   3.019   2.642   3.647
    1C        C   31   2.907   2.729   3.648
    1C        C   32   3.075   2.601   3.770
    1C        C   33   3.015   2.641   3.891
    1C        C   34   3.210   2.555   4.012
    1C        C   35   3.077   2.605   4.012
    1C        C   36   3.273   2.534   4.137
    1C        C   37   3.206   2.553   4.260
    1C        C   38   3.414   2.510   4.381
    1C        C   39   3.275   2.532   4.381
    1C        C   40   3.484   2.503   4.504
    1C        C   41   3.412   2.503   4.625
    1C        C   42   3.626   2.486   4.745
    1C        C   43   3.484   2.490   4.746
    1C        C   44   3.702   2.488   4.864
    1C        C   45   3.625   2.483   4.981
    1C        C   46   2.838   2.753   2.790
    1C        C   47   2.892   2.710   2.914
    1C        C   48   2.844   2.763   3.036
    1C        C   49   3.019   2.643   3.157
    1C        C   50   2.900   2.719   3.158
    1C        C   51   3.082   2.606   3.278
    1C        C   52   3.023   2.644   3.401
    1C        C   53   3.204   2.539   3.526
    1C        C   54   3.080   2.608   3.525
    1C        C   55   3.271   2.519   3.648
    1C        C   56   3.205   2.546   3.770
    1C        C   57   3.416   2.501   3.892
    1C        C   58   3.278   2.532   3.891
    1C        C   59   3.483   2.496   4.016
    1C        C   60   3.411   2.504   4.137
    1C        C   61   3.624   2.492   4.258
    1C        C   62   3.483   2.497   4.258
    1C        C   63   3.697   2.502   4.379
    1C        C   64   3.625   2.503   4.501
    1C        C   65   3.832   2.540   4.622
    1C        C   66   3.695   2.503   4.623
    1C        C   67   3.905   2.561   4.741
    1C        C   68   3.838   2.525   4.860
    1C        C   69   4.050   2.585   4.980
    1C        C   70   3.921   2.530   4.972
    1C        C   71   2.827   2.738   2.304
    1C        C   72   2.885   2.696   2.426
    1C        C   73   2.833   2.746   2.547
    1C        C   74   3.012   2.631   2.668
    1C        C   75   2.891   2.703   2.669
    1C        C   76   3.070   2.595   2.791
    1C        C   77   3.010   2.632   2.913
    1C        C   78   3.208   2.549   3.037
    1C        C   79   3.078   2.606   3.034
    1C        C   80   3.274   2.522   3.158
    1C        C   81   3.207   2.541   3.281
    1C        C   82   3.411   2.496   3.401
    1C        C   83   3.271   2.515   3.404
    1C        C   84   3.482   2.488   3.523
    1C        C   85   3.411   2.496   3.645
    1C        C   86   3.623   2.500   3.768
    1C        C   87   3.482   2.493   3.767
    1C        C   88   3.691   2.513   3.892
    1C        C   89   3.624   2.503   4.016
    1C        C   90   3.831   2.548   4.135
    1C        C   91   3.696   2.508   4.137
    1C        C   92   3.899   2.568   4.258
    1C        C   93   3.834   2.537   4.379
    1C        C   94   4.027   2.628   4.496
    1C        C   95   3.899   2.567   4.501
    1C        C   96   4.087   2.671   4.616
    1C        C   97   4.030   2.628   4.738
    1C        C   98   4.187   2.762   4.860
    1C        C   99   4.096   2.652   4.862
    1C        C  100   4.212   2.838   4.975
    1C        C  101   2.821   2.727   2.067
    1C        C  102   2.987   2.587   2.187
    1C        C  103   2.876   2.676   2.186
    1C        C  104   3.061   2.570   2.308
    1C        C  105   3.005   2.622   2.426
    1C        C  106   3.204   2.539   2.549
    1C        C  107   3.072   2.591   2.547
    1C        C  108   3.270   2.523   2.672
    1C        C  109   3.199   2.537   2.793
    1C        C  110   3.410   2.494   2.913
    1C        C  111   3.271   2.520   2.914
    1C        C  112   3.483   2.489   3.034
    1C        C  113   3.413   2.496   3.157
    1C        C  114   3.624   2.495   3.278
    1C        C  115   3.483   2.492   3.280
    1C        C  116   3.693   2.505   3.401
    1C        C  117   3.623   2.497   3.524
    1C        C  118   3.831   2.539   3.646
    1C        C  119   3.693   2.510   3.646
    1C        C  120   3.897   2.568   3.768
    1C        C  121   3.828   2.547   3.890
    1C        C  122   4.021   2.636   4.011
    1C        C  123   3.896   2.571   4.011
    1C        C  124   4.083   2.671   4.133
    1C        C  125   4.023   2.635   4.256
    1C        C  126   4.194   2.764   4.371
    1C        C  127   4.086   2.673   4.376
    1C        C  128   4.240   2.817   4.494
    1C        C  129   4.191   2.766   4.616
    1C        C  130   4.321   2.933   4.737
    1C        C  131   4.237   2.818   4.739
    1C        C  132   4.354   2.998   4.858
    1C        C  133   4.284   2.957   4.972
    1C        C  134   3.174   2.470   2.078
    1C        C  135   3.039   2.508   2.080
    1C        C  136   3.261   2.480   2.188
    1C        C  137   3.194   2.519   2.306
    1C        C  138   3.405   2.479   2.426
    1C        C  139   3.266   2.505   2.427
    1C        C  140   3.478   2.481   2.547
    1C        C  141   3.409   2.497   2.669
    1C        C  142   3.622   2.500   2.791
    1C        C  143   3.481   2.492   2.791
    1C        C  144   3.694   2.504   2.912
    1C        C  145   3.624   2.492   3.034
    1C        C  146   3.832   2.536   3.157
    1C        C  147   3.694   2.503   3.156
    1C        C  148   3.901   2.556   3.279
    1C        C  149   3.830   2.539   3.400
    1C        C  150   4.019   2.628   3.520
    1C        C  151   3.898   2.555   3.523
    1C        C  152   4.081   2.666   3.641
    1C        C  153   4.022   2.634   3.765
    1C        C  154   4.194   2.757   3.885
    1C        C  155   4.082   2.670   3.888
    1C        C  156   4.247   2.804   4.006
    1C        C  157   4.194   2.759   4.129
    1C        C  158   4.336   2.921   4.254
    1C        C  159   4.247   2.812   4.249
    1C        C  160   4.374   2.985   4.375
    1C        C  161   4.326   2.930   4.496
    1C        C  162   4.441   3.111   4.617
    1C        C  163   4.365   2.992   4.617
    1C        C  164   4.465   3.183   4.736
    1C        C  165   4.427   3.118   4.856
    1C        C  166   4.514   3.314   4.967
    1C        C  167   4.480   3.179   4.971
    1C        C  168   3.479   2.438   2.071
    1C        C  169   3.401   2.463   2.185
    1C        C  170   3.619   2.468   2.305
    1C        C  171   3.476   2.465   2.305
    1C        C  172   3.690   2.489   2.425
    1C        C  173   3.619   2.486   2.547
    1C        C  174   3.827   2.539   2.665
    1C        C  175   3.691   2.502   2.667
    1C        C  176   3.894   2.561   2.787
    1C        C  177   3.832   2.531   2.911
    1C        C  178   4.023   2.620   3.034
    1C        C  179   3.897   2.555   3.034
    1C        C  180   4.087   2.660   3.154
    1C        C  181   4.027   2.621   3.276
    1C        C  182   4.193   2.751   3.397
    1C        C  183   4.083   2.662   3.399
    1C        C  184   4.247   2.799   3.518
    1C        C  185   4.195   2.751   3.639
    1C        C  186   4.331   2.915   3.765
    1C        C  187   4.242   2.805   3.761
    1C        C  188   4.372   2.977   3.886
    1C        C  189   4.329   2.919   4.008
    1C        C  190   4.440   3.100   4.126
    1C        C  191   4.371   2.977   4.129
    1C        C  192   4.468   3.167   4.247
    1C        C  193   4.443   3.108   4.373
    1C        C  194   4.506   3.312   4.488
    1C        C  195   4.470   3.175   4.494
    1C        C  196   4.527   3.384   4.608
    1C        C  197   4.505   3.319   4.732
    1C        C  198   4.563   3.531   4.851
    1C        C  199   4.527   3.392   4.852
    1C        C  200   4.583   3.618   4.962
    1C        C  201   3.617   2.418   2.069
    1C        C  202   3.827   2.504   2.182
    1C        C  203   3.693   2.456   2.184
    1C        C  204   3.898   2.535   2.301
    1C        C  205   3.828   2.521   2.423
    1C        C  206   4.023   2.616   2.542
    1C        C  207   3.896   2.553   2.542
    1C        C  208   4.075   2.660   2.665
    1C        C  209   4.021   2.624   2.790
    1C        C  210   4.193   2.746   2.909
    1C        C  211   4.084   2.656   2.912
    1C        C  212   4.245   2.801   3.028
    1C        C  213   4.195   2.750   3.151
    1C        C  214   4.336   2.906   3.274
    1C        C  215   4.243   2.800   3.274
    1C        C  216   4.371   2.968   3.396
    1C        C  217   4.333   2.912   3.520
    1C        C  218   4.431   3.099   3.639
    1C        C  219   4.370   2.972   3.642
    1C        C  220   4.465   3.165   3.760
    1C        C  221   4.439   3.101   3.883
    1C        C  222   4.495   3.306   4.002
    1C        C  223   4.470   3.167   4.004
    1C        C  224   4.511   3.376   4.124
    1C        C  225   4.505   3.303   4.245
    1C        C  226   4.515   3.520   4.367
    1C        C  227   4.509   3.379   4.364
    1C        C  228   4.519   3.596   4.486
    1C        C  229   4.533   3.525   4.608
    1C        C  230   4.505   3.737   4.725
    1C        C  231   4.537   3.598   4.728
    1C        C  232   4.494   3.818   4.839
    1C        C  233   4.535   3.749   4.954
    1C        C  234   4.022   2.598   2.064
    1C        C  235   3.897   2.537   2.065
    1C        C  236   4.084   2.642   2.182
    1C        C  237   4.024   2.602   2.303
    1C        C  238   4.203   2.729   2.421
    1C        C  239   4.090   2.642   2.420
    1C        C  240   4.249   2.782   2.544
    1C        C  241   4.191   2.742   2.666
    1C        C  242   4.338   2.899   2.786
    1C        C  243   4.247   2.791   2.786
    1C        C  244   4.381   2.959   2.906
    1C        C  245   4.340   2.906   3.030
    1C        C  246   4.443   3.091   3.150
    1C        C  247   4.381   2.964   3.152
    1C        C  248   4.462   3.158   3.272
    1C        C  249   4.433   3.095   3.395
    1C        C  250   4.494   3.300   3.511
    1C        C  251   4.454   3.165   3.516
    1C        C  252   4.505   3.371   3.633
    1C        C  253   4.498   3.302   3.756
    1C        C  254   4.515   3.513   3.876
    1C        C  255   4.508   3.372   3.878
    1C        C  256   4.513   3.584   3.998
    1C        C  257   4.520   3.517   4.123
    1C        C  258   4.497   3.729   4.241
    1C        C  259   4.520   3.589   4.244
    1C        C  260   4.476   3.802   4.360
    1C        C  261   4.486   3.733   4.483
    1C        C  262   4.426   3.937   4.602
    1C        C  263   4.477   3.805   4.604
    1C        C  264   4.395   4.008   4.721
    1C        C  265   4.430   3.945   4.842
    1C        C  266   4.323   4.134   4.960
    1C        C  267   4.388   4.011   4.958
    1C        C  268   4.259   2.773   2.063
    1C        C  269   4.198   2.726   2.180
    1C        C  270   4.349   2.882   2.299
    1C        C  271   4.257   2.774   2.299
    1C        C  272   4.381   2.949   2.420
    1C        C  273   4.340   2.890   2.541
    1C        C  274   4.442   3.079   2.658
    1C        C  275   4.378   2.953   2.662
    1C        C  276   4.466   3.147   2.779
    1C        C  277   4.439   3.088   2.904
    1C        C  278   4.500   3.291   3.021
    1C        C  279   4.470   3.153   3.026
    1C        C  280   4.507   3.361   3.143
    1C        C  281   4.492   3.296   3.268
    1C        C  282   4.512   3.511   3.388
    1C        C  283   4.503   3.370   3.389
    1C        C  284   4.512   3.582   3.510
    1C        C  285   4.509   3.512   3.633
    1C        C  286   4.482   3.724   3.751
    1C        C  287   4.508   3.585   3.754
    1C        C  288   4.470   3.789   3.875
    1C        C  289   4.492   3.723   3.999
    1C        C  290   4.422   3.927   4.114
    1C        C  291   4.473   3.795   4.119
    1C        C  292   4.393   3.995   4.234
    1C        C  293   4.423   3.933   4.358
    1C        C  294   4.323   4.120   4.479
    1C        C  295   4.398   4.000   4.479
    1C        C  296   4.282   4.186   4.597
    1C        C  297   4.326   4.132   4.720
    1C        C  298   4.194   4.307   4.837
    1C        C  299   4.284   4.195   4.840
    1C        C  300   4.169   4.398   4.944
    1C        C  301   4.353   2.875   2.063
    1C        C  302   4.472   3.063   2.177
    1C        C  303   4.397   2.941   2.179
    1C        C  304   4.479   3.139   2.297
    1C        C  305   4.445   3.075   2.419
    1C        C  306   4.501   3.284   2.534
    1C        C  307   4.475   3.145   2.537
    1C        C  308   4.512   3.356   2.655
    1C        C  309   4.496   3.286   2.777
    1C        C  310   4.520   3.499   2.898
    1C        C  311   4.507   3.359   2.897
    1C        C  312   4.520   3.573   3.019
    1C        C  313   4.519   3.502   3.141
    1C        C  314   4.487   3.714   3.263
    1C        C  315   4.512   3.575   3.262
    1C        C  316   4.470   3.788   3.382
    1C        C  317   4.491   3.722   3.505
    1C        C  318   4.425   3.924   3.627
    1C        C  319   4.473   3.791   3.627
    1C        C  320   4.393   3.986   3.749
    1C        C  321   4.422   3.922   3.872
    1C        C  322   4.319   4.111   3.987
    1C        C  323   4.392   3.991   3.991
    1C        C  324   4.275   4.165   4.110
    1C        C  325   4.317   4.114   4.235
    1C        C  326   4.181   4.277   4.350
    1C        C  327   4.280   4.176   4.357
    1C        C  328   4.131   4.331   4.470
    1C        C  329   4.188   4.292   4.593
    1C        C  330   4.025   4.434   4.714
    1C        C  331   4.138   4.348   4.713
    1C        C  332   3.968   4.491   4.830
    1C        C  333   4.053   4.477   4.941
    1C        C  334   4.553   3.263   2.062
    1C        C  335   4.529   3.125   2.062
    1C        C  336   4.532   3.347   2.173
    1C        C  337   4.509   3.278   2.293
    1C        C  338   4.526   3.495   2.410
    1C        C  339   4.511   3.354   2.412
    1C        C  340   4.523   3.568   2.531
    1C        C  341   4.521   3.497   2.653
    1C        C  342   4.491   3.706   2.774
    1C        C  343   4.515   3.567   2.775
    1C        C  344   4.467   3.776   2.894
    1C        C  345   4.491   3.711   3.017
    1C        C  346   4.421   3.912   3.138
    1C        C  347   4.474   3.781   3.139
    1C        C  348   4.391   3.980   3.258
    1C        C  349   4.425   3.922   3.382
    1C        C  350   4.315   4.104   3.502
    1C        C  351   4.392   3.986   3.504
    1C        C  352   4.269   4.162   3.622
    1C        C  353   4.314   4.103   3.743
    1C        C  354   4.178   4.267   3.864
    1C        C  355   4.277   4.166   3.864
    1C        C  356   4.123   4.314   3.985
    1C        C  357   4.177   4.267   4.107
    1C        C  358   4.007   4.397   4.230
    1C        C  359   4.124   4.318   4.228
    1C        C  360   3.951   4.445   4.350
    1C        C  361   4.017   4.415   4.471
    1C        C  362   3.827   4.511   4.591
    1C        C  363   3.957   4.457   4.592
    1C        C  364   3.762   4.547   4.711
    1C        C  365   3.837   4.544   4.830
    1C        C  366   3.629   4.589   4.949
    1C        C  367   3.767   4.571   4.948
    1C        C  368   4.503   3.563   2.051
    1C        C  369   4.519   3.488   2.167
    1C        C  370   4.503   3.704   2.287
    1C        C  371   4.521   3.564   2.286
    1C        C  372   4.490   3.778   2.406
    1C        C  373   4.500   3.707   2.528
    1C        C  374   4.430   3.908   2.648
    1C        C  375   4.478   3.775   2.651
    1C        C  376   4.395   3.973   2.768
    1C        C  377   4.421   3.910   2.892
    1C        C  378   4.316   4.092   3.011
    1C        C  379   4.395   3.975   3.014
    1C        C  380   4.266   4.150   3.130
    1C        C  381   4.307   4.094   3.253
    1C        C  382   4.173   4.256   3.376
    1C        C  383   4.268   4.151   3.377
    1C        C  384   4.119   4.307   3.496
    1C        C  385   4.172   4.264   3.620
    1C        C  386   4.003   4.388   3.742
    1C        C  387   4.125   4.316   3.742
    1C        C  388   3.944   4.426   3.865
    1C        C  389   4.008   4.395   3.987
    1C        C  390   3.818   4.494   4.107
    1C        C  391   3.946   4.434   4.108
    1C        C  392   3.751   4.518   4.229
    1C        C  393   3.820   4.498   4.350
    1C        C  394   3.614   4.555   4.472
    1C        C  395   3.752   4.522   4.471
    1C        C  396   3.545   4.563   4.595
    1C        C  397   3.622   4.564   4.714
    1C        C  398   3.410   4.555   4.838
    1C        C  399   3.550   4.573   4.835
    1C        C  400   3.341   4.519   4.955
    1C        C  401   4.501   3.702   2.051
    1C        C  402   4.448   3.913   2.164
    1C        C  403   4.490   3.778   2.168
    1C        C  404   4.405   3.973   2.284
    1C        C  405   4.436   3.908   2.406
    1C        C  406   4.321   4.091   2.523
    1C        C  407   4.400   3.973   2.526
    1C        C  408   4.271   4.143   2.644
    1C        C  409   4.314   4.088   2.767
    1C        C  410   4.169   4.244   2.886
    1C        C  411   4.272   4.147   2.889
    1C        C  412   4.116   4.292   3.007
    1C        C  413   4.170   4.253   3.132
    1C        C  414   3.998   4.378   3.251
    1C        C  415   4.116   4.300   3.254
    1C        C  416   3.938   4.412   3.374
    1C        C  417   4.003   4.387   3.497
    1C        C  418   3.812   4.476   3.617
    1C        C  419   3.943   4.423   3.619
    1C        C  420   3.746   4.497   3.741
    1C        C  421   3.813   4.477   3.864
    1C        C  422   3.609   4.535   3.986
    1C        C  423   3.747   4.504   3.986
    1C        C  424   3.540   4.548   4.109
    1C        C  425   3.611   4.539   4.231
    1C        C  426   3.399   4.556   4.355
    1C        C  427   3.540   4.554   4.352
    1C        C  428   3.330   4.551   4.479
    1C        C  429   3.404   4.562   4.599
    1C        C  430   3.193   4.519   4.722
    1C        C  431   3.332   4.550   4.720
    1C        C  432   3.124   4.495   4.844
    1C        C  433   3.205   4.494   4.958
    1C        C  434   4.383   4.125   2.050
    1C        C  435   4.440   3.997   2.052
    1C        C  436   4.300   4.161   2.161
    1C        C  437   4.335   4.097   2.283
    1C        C  438   4.182   4.251   2.399
    1C        C  439   4.283   4.152   2.402
    1C        C  440   4.123   4.295   2.520
    1C        C  441   4.174   4.246   2.642
    1C        C  442   4.003   4.373   2.765
    1C        C  443   4.122   4.296   2.763
    1C        C  444   3.940   4.410   2.886
    1C        C  445   4.002   4.375   3.008
    1C        C  446   3.806   4.465   3.128
    1C        C  447   3.937   4.413   3.128
    1C        C  448   3.743   4.493   3.251
    1C        C  449   3.808   4.469   3.374
    1C        C  450   3.605   4.529   3.495
    1C        C  451   3.742   4.496   3.496
    1C        C  452   3.539   4.540   3.620
    1C        C  453   3.608   4.528   3.742
    1C        C  454   3.397   4.541   3.866
    1C        C  455   3.538   4.544   3.864
    1C        C  456   3.328   4.535   3.989
    1C        C  457   3.399   4.544   4.111
    1C        C  458   3.193   4.506   4.238
    1C        C  459   3.329   4.544   4.233
    1C        C  460   3.124   4.485   4.360
    1C        C  461   3.194   4.516   4.479
    1C        C  462   3.000   4.430   4.607
    1C        C  463   3.126   4.493   4.601
    1C        C  464   2.934   4.392   4.726
    1C        C  465   2.994   4.434   4.848
    1C        C  466   2.802   4.333   4.960
    1C        C  467   2.908   4.425   4.962
    1C        C  468   4.123   4.284   2.037
    1C        C  469   4.186   4.247   2.157
    1C        C  470   4.006   4.371   2.275
    1C        C  471   4.126   4.295   2.277
    1C        C  472   3.940   4.397   2.398
    1C        C  473   4.002   4.367   2.521
    1C        C  474   3.812   4.462   2.640
    1C        C  475   3.943   4.408   2.643
    1C        C  476   3.746   4.485   2.762
    1C        C  477   3.811   4.467   2.886
    1C        C  478   3.601   4.518   3.008
    1C        C  479   3.739   4.490   3.006
    1C        C  480   3.532   4.532   3.130
    1C        C  481   3.606   4.525   3.251
    1C        C  482   3.394   4.537   3.377
    1C        C  483   3.535   4.535   3.373
    1C        C  484   3.325   4.527   3.500
    1C        C  485   3.397   4.534   3.621
    1C        C  486   3.189   4.503   3.744
    1C        C  487   3.327   4.533   3.743
    1C        C  488   3.122   4.482   3.867
    1C        C  489   3.190   4.505   3.989
    1C        C  490   3.005   4.415   4.115
    1C        C  491   3.128   4.484   4.114
    1C        C  492   2.942   4.386   4.238
    1C        C  493   2.997   4.423   4.362
    1C        C  494   2.830   4.298   4.482
    1C        C  495   2.940   4.387   4.486
    1C        C  496   2.773   4.254   4.604
    1C        C  497   2.820   4.307   4.726
    1C        C  498   2.662   4.163   4.843
    1C        C  499   2.751   4.273   4.844
    1C        C  500   2.587   4.116   4.951
    1C        C  501   4.006   4.360   2.038
    1C        C  502   3.814   4.464   2.154
    1C        C  503   3.943   4.406   2.154
    1C        C  504   3.742   4.478   2.275
    1C        C  505   3.809   4.449   2.396
    1C        C  506   3.606   4.510   2.520
    1C        C  507   3.743   4.478   2.517
    1C        C  508   3.536   4.520   2.642
    1C        C  509   3.607   4.514   2.764
    1C        C  510   3.392   4.523   2.885
    1C        C  511   3.533   4.526   2.884
    1C        C  512   3.320   4.521   3.007
    1C        C  513   3.391   4.534   3.128
    1C        C  514   3.188   4.494   3.255
    1C        C  515   3.326   4.525   3.253
    1C        C  516   3.120   4.479   3.378
    1C        C  517   3.186   4.503   3.501
    1C        C  518   2.996   4.411   3.624
    1C        C  519   3.119   4.482   3.623
    1C        C  520   2.939   4.373   3.747
    1C        C  521   2.998   4.416   3.868
    1C        C  522   2.837   4.284   3.995
    1C        C  523   2.947   4.373   3.993
    1C        C  524   2.792   4.232   4.119
    1C        C  525   2.838   4.291   4.239
    1C        C  526   2.695   4.134   4.361
    1C        C  527   2.782   4.245   4.361
    1C        C  528   2.657   4.074   4.483
    1C        C  529   2.686   4.142   4.604
    1C        C  530   2.578   3.960   4.726
    1C        C  531   2.637   4.089   4.725
    1C        C  532   2.532   3.902   4.847
    1C        C  533   2.517   3.995   4.955
    1C        C  534   3.613   4.550   2.034
    1C        C  535   3.747   4.512   2.041
    1C        C  536   3.535   4.528   2.153
    1C        C  537   3.603   4.507   2.276
    1C        C  538   3.393   4.516   2.398
    1C        C  539   3.534   4.518   2.399
    1C        C  540   3.322   4.512   2.520
    1C        C  541   3.394   4.520   2.641
    1C        C  542   3.185   4.482   2.763
    1C        C  543   3.323   4.513   2.763
    1C        C  544   3.117   4.466   2.886
    1C        C  545   3.183   4.488   3.009
    1C        C  546   2.996   4.399   3.132
    1C        C  547   3.121   4.467   3.134
    1C        C  548   2.941   4.363   3.257
    1C        C  549   2.997   4.409   3.378
    1C        C  550   2.833   4.276   3.505
    1C        C  551   2.940   4.369   3.501
    1C        C  552   2.779   4.230   3.627
    1C        C  553   2.832   4.281   3.748
    1C        C  554   2.705   4.118   3.873
    1C        C  555   2.790   4.230   3.873
    1C        C  556   2.664   4.063   3.997
    1C        C  557   2.705   4.121   4.119
    1C        C  558   2.594   3.943   4.243
    1C        C  559   2.656   4.070   4.241
    1C        C  560   2.567   3.877   4.366
    1C        C  561   2.592   3.949   4.485
    1C        C  562   2.526   3.748   4.612
    1C        C  563   2.563   3.885   4.607
    1C        C  564   2.510   3.679   4.734
    1C        C  565   2.516   3.760   4.852
    1C        C  566   2.524   3.548   4.974
    1C        C  567   2.522   3.687   4.971
    1C        C  568   3.328   4.468   2.042
    1C        C  569   3.394   4.514   2.157
    1C        C  570   3.181   4.480   2.277
    1C        C  571   3.319   4.515   2.278
    1C        C  572   3.114   4.456   2.399
    1C        C  573   3.184   4.480   2.519
    1C        C  574   2.988   4.403   2.645
    1C        C  575   3.116   4.463   2.641
    1C        C  576   2.931   4.363   2.768
    1C        C  577   2.991   4.403   2.890
    1C        C  578   2.824   4.271   3.015
    1C        C  579   2.932   4.362   3.012
    1C        C  580   2.777   4.221   3.138
    1C        C  581   2.835   4.270   3.258
    1C        C  582   2.705   4.108   3.385
    1C        C  583   2.788   4.223   3.382
    1C        C  584   2.663   4.053   3.508
    1C        C  585   2.695   4.116   3.630
    1C        C  586   2.593   3.933   3.754
    1C        C  587   2.656   4.059   3.754
    1C        C  588   2.568   3.870   3.878
    1C        C  589   2.598   3.937   3.999
    1C        C  590   2.541   3.736   4.124
    1C        C  591   2.575   3.873   4.122
    1C        C  592   2.523   3.671   4.248
    1C        C  593   2.533   3.740   4.371
    1C        C  594   2.504   3.531   4.495
    1C        C  595   2.515   3.672   4.493
    1C        C  596   2.510   3.464   4.619
    1C        C  597   2.509   3.537   4.739
    1C        C  598   2.526   3.325   4.862
    1C        C  599   2.519   3.466   4.861
    1C        C  600   2.534   3.249   4.979
    1C        C  601   3.193   4.436   2.043
    1C        C  602   2.979   4.396   2.161
    1C        C  603   3.112   4.448   2.157
    1C        C  604   2.918   4.364   2.285
    1C        C  605   2.988   4.394   2.405
    1C        C  606   2.819   4.267   2.525
    1C        C  607   2.924   4.362   2.526
    1C        C  608   2.770   4.219   2.648
    1C        C  609   2.823   4.271   2.768
    1C        C  610   2.692   4.107   2.893
    1C        C  611   2.779   4.219   2.892
    1C        C  612   2.653   4.049   3.016
    1C        C  613   2.692   4.108   3.138
    1C        C  614   2.597   3.925   3.263
    1C        C  615   2.661   4.052   3.264
    1C        C  616   2.571   3.862   3.387
    1C        C  617   2.596   3.928   3.509
    1C        C  618   2.533   3.728   3.637
    1C        C  619   2.570   3.864   3.633
    1C        C  620   2.519   3.660   3.760
    1C        C  621   2.526   3.735   3.879
    1C        C  622   2.504   3.526   4.006
    1C        C  623   2.522   3.666   4.002
    1C        C  624   2.516   3.460   4.131
    1C        C  625   2.511   3.530   4.253
    1C        C  626   2.539   3.321   4.378
    1C        C  627   2.506   3.458   4.374
    1C        C  628   2.554   3.253   4.501
    1C        C  629   2.532   3.324   4.621
    1C        C  630   2.593   3.119   4.741
    1C        C  631   2.544   3.253   4.742
    1C        C  632   2.612   3.046   4.862
    1C        C  633   2.561   3.111   4.979
    1C        C  634   2.780   4.302   2.051
    1C        C  635   2.892   4.385   2.048
    1C        C  636   2.752   4.225   2.165
    1C        C  637   2.806   4.276   2.284
    1C        C  638   2.671   4.111   2.407
    1C        C  639   2.759   4.221   2.406
    1C        C  640   2.636   4.049   2.530
    1C        C  641   2.684   4.106   2.650
    1C        C  642   2.585   3.920   2.777
    1C        C  643   2.649   4.046   2.773
    1C        C  644   2.563   3.854   2.900
    1C        C  645   2.589   3.923   3.020
    1C        C  646   2.526   3.722   3.146
    1C        C  647   2.565   3.858   3.143
    1C        C  648   2.515   3.655   3.269
    1C        C  649   2.533   3.726   3.390
    1C        C  650   2.507   3.520   3.519
    1C        C  651   2.517   3.660   3.514
    1C        C  652   2.510   3.449   3.641
    1C        C  653   2.502   3.520   3.763
    1C        C  654   2.522   3.312   3.887
    1C        C  655   2.499   3.451   3.887
    1C        C  656   2.547   3.249   4.011
    1C        C  657   2.543   3.321   4.132
    1C        C  658   2.608   3.121   4.256
    1C        C  659   2.560   3.253   4.255
    1C        C  660   2.639   3.057   4.378
    1C        C  661   2.602   3.120   4.499
    1C        C  662   2.706   2.936   4.622
    1C        C  663   2.631   3.055   4.621
    1C        C  664   2.744   2.872   4.742
    1C        C  665   2.696   2.930   4.862
    1C        C  666   2.736   2.865   4.979
    1C        C  667   2.684   4.021   2.050
    1C        C  668   2.683   4.101   2.164
    1C        C  669   2.591   3.911   2.292
    1C        C  670   2.642   4.044   2.287
    1C        C  671   2.561   3.845   2.413
    1C        C  672   2.584   3.918   2.532
    1C        C  673   2.518   3.719   2.657
    1C        C  674   2.556   3.855   2.655
    1C        C  675   2.506   3.649   2.779
    1C        C  676   2.527   3.718   2.901
    1C        C  677   2.499   3.510   3.026
    1C        C  678   2.513   3.651   3.024
    1C        C  679   2.497   3.443   3.150
    1C        C  680   2.502   3.514   3.272
    1C        C  681   2.530   3.308   3.399
    1C        C  682   2.508   3.448   3.397
    1C        C  683   2.550   3.240   3.521
    1C        C  684   2.535   3.310   3.643
    1C        C  685   2.601   3.112   3.768
    1C        C  686   2.547   3.243   3.767
    1C        C  687   2.634   3.053   3.892
    1C        C  688   2.601   3.118   4.012
    1C        C  689   2.712   2.936   4.137
    1C        C  690   2.637   3.056   4.134
    1C        C  691   2.754   2.877   4.258
    1C        C  692   2.713   2.936   4.380
    1C        C  693   2.756   2.880   4.502
    1C        C  694   2.629   3.892   2.057
    1C        C  695   2.530   3.702   2.176
    1C        C  696   2.574   3.837   2.173
    1C        C  697   2.510   3.633   2.297
    1C        C  698   2.521   3.709   2.415
    1C        C  699   2.488   3.502   2.542
    1C        C  700   2.505   3.642   2.539
    1C        C  701   2.498   3.435   2.666
    1C        C  702   2.495   3.509   2.786
    1C        C  703   2.516   3.294   2.910
    1C        C  704   2.501   3.435   2.907
    1C        C  705   2.537   3.229   3.033
    1C        C  706   2.528   3.305   3.152
    1C        C  707   2.591   3.107   3.278
    1C        C  708   2.544   3.240   3.276
    1C        C  709   2.632   3.047   3.399
    1C        C  710   2.607   3.111   3.522
    1C        C  711   2.713   2.931   3.646
    1C        C  712   2.636   3.050   3.646
    1C        C  713   2.756   2.880   3.771
    1C        C  714   2.712   2.934   3.893
    1C        C  715   2.757   2.880   4.016
    1C        C  716   2.456   3.497   2.059
    1C        C  717   2.496   3.631   2.060
    1C        C  718   2.462   3.419   2.179
    1C        C  719   2.484   3.493   2.299
    1C        C  720   2.508   3.287   2.421
    1C        C  721   2.483   3.426   2.423
    1C        C  722   2.534   3.225   2.545
    1C        C  723   2.526   3.297   2.667
    1C        C  724   2.596   3.097   2.787
    1C        C  725   2.537   3.226   2.788
    1C        C  726   2.624   3.036   2.912
    1C        C  727   2.591   3.098   3.034
    1C        C  728   2.711   2.926   3.157
    1C        C  729   2.628   3.041   3.158
    1C        C  730   2.755   2.873   3.280
    1C        C  731   2.711   2.929   3.402
    1C        C  732   2.757   2.875   3.524
    1C        C  733   2.492   3.195   2.067
    1C        C  734   2.489   3.279   2.179
    1C        C  735   2.578   3.085   2.305
    1C        C  736   2.515   3.212   2.302
    1C        C  737   2.616   3.022   2.426
    1C        C  738   2.583   3.092   2.544
    1C        C  739   2.699   2.913   2.669
    1C        C  740   2.619   3.029   2.666
    1C        C  741   2.744   2.858   2.792
    1C        C  742   2.701   2.918   2.912
    1C        C  743   2.747   2.865   3.035
    1C        C  744   2.543   3.066   2.073
    1C        C  745   2.688   2.898   2.183
    1C        C  746   2.607   3.014   2.186
    1C        C  747   2.728   2.840   2.305
    1C        C  748   2.690   2.903   2.426
    1C        C  749   2.739   2.852   2.549
    1C        C  750   2.740   2.840   2.067
    1C        C  751   3.659   2.307   1.980
    1C        O  752   3.632   2.186   2.003
    1C        O  753   3.733   2.330   1.864
    1C        C  754   4.599   3.042   1.961
    1C        O  755   4.553   3.057   1.845
    1C        O  756   4.692   2.937   1.968
    1C        C  757   4.456   4.230   1.977
    1C        O  758   4.549   4.290   2.038
    1C        O  759   4.413   4.299   1.863
    1C        C  760   3.577   4.660   1.942
    1C        O  761   3.636   4.770   1.959
    1C        O  762   3.549   4.647   1.805
    1C        C  763   2.880   4.497   1.952
    1C        O  764   2.897   4.477   1.828
    1C        O  765   2.807   4.614   1.980
    1C        C  766   2.347   3.465   1.964
    1C        O  767   2.374   3.415   1.852
    1C        O  768   2.211   3.469   1.998
    1C        C  769   4.710   3.610   5.038
    1C        O  770   4.705   3.606   5.164
    1C        O  771   4.826   3.549   4.988
    1C        C  772   4.283   4.465   5.009
    1C        O  773   4.309   4.458   5.132
    1C        O  774   4.358   4.572   4.958
    1C        C  775   4.138   2.519   5.079
    1C        O  776   4.178   2.401   5.057
    1C        O  777   4.150   2.545   5.216
    1C        C  778   2.878   4.553   5.030
    1C        O  779   2.787   4.636   5.005
    1C        O  780   2.938   4.587   5.151
    1C        C  781   2.492   3.036   5.087
    1C        O  782   2.393   2.958   5.078
    1C        O  783   2.551   3.020   5.211
    1C        C  784   2.400   3.985   5.045
    1C        O  785   2.286   4.031   5.018
    1C        O  786   2.422   3.984   5.184
    1C        C  787   2.954   2.455   1.970
    1C        O  788   2.985   2.460   1.848
    1C        O  789   2.854   2.368   2.012
    1C        C  790   3.175   2.356   5.041
    1C        O  791   3.118   2.254   4.993
    1C        O  792   3.189   2.367   5.180
    1C        H  793   4.265   3.018   5.057
    1C        H  794   4.179   2.807   5.072
    1C        H  795   4.484   3.119   5.059
    1C        H  796   4.534   3.362   5.061
    1C        H  797   4.551   3.807   5.043
    1C        H  798   4.409   3.968   5.053
    1C        H  799   4.270   4.164   5.048
    1C        H  800   4.059   4.563   5.005
    1C        H  801   3.820   4.553   5.039
    1C        H  802   3.579   4.638   5.030
    1C        H  803   3.393   4.485   5.042
    1C        H  804   3.160   4.430   5.032
    1C        H  805   3.900   2.465   5.054
    1C        H  806   3.674   2.497   5.075
    1C        H  807   2.981   2.526   5.049
    1C        H  808   3.443   2.450   5.078
    1C        H  809   2.901   2.783   5.069
    1C        H  810   2.660   2.847   5.053
    1C        H  811   2.560   3.303   5.068
    1C        H  812   2.505   3.501   5.068
    1C        H  813   2.586   3.730   5.045
    1C        H  814   2.586   4.170   5.044
    1C        H  815   2.742   4.323   5.048
    1C        H  816   2.705   2.867   1.969
    1C        H  817   2.864   2.689   1.976
    1C        H  818   3.202   2.418   1.989
    1C        H  819   3.424   2.431   1.979
    1C        H  820   3.859   2.502   1.971
    1C        H  821   4.048   2.648   1.973
    1C        H  822   4.245   2.722   1.970
    1C        H  823   4.409   2.890   1.973
    1C        H  824   4.621   3.303   1.990
    1C        H  825   4.463   3.511   1.966
    1C        H  826   4.544   3.753   1.967
    1C        H  827   3.803   4.538   1.953
    1C        H  828   3.952   4.370   1.947
    1C        H  829   4.191   4.303   1.956
    1C        H  830   4.462   3.956   1.955
    1C        H  831   2.682   3.827   1.991
    1C        H  832   2.765   4.034   1.981
    1C        H  833   2.747   4.274   1.953
    1C        H  834   3.378   4.475   1.948
    1C        H  835   3.152   4.394   1.954
    1C        H  836   2.532   2.994   1.994
    1C        H  837   2.437   3.215   1.977
    1C        H  838   2.460   3.686   1.975
    2V3OU   H29  839   2.807   3.553   1.058
    2V3OU   C27  840   2.783   3.504   1.155
    2V3OU   H27  841   2.718   3.575   1.213
    2V3OU   H28  842   2.725   3.408   1.148
    2V3OU   O11  843   2.906   3.480   1.224
    2V3OU   C15  844   2.919   3.400   1.336
    2V3OU   C13  845   3.051   3.376   1.378
    2V3OU   C14  846   3.077   3.266   1.461
    2V3OU   C16  847   2.971   3.194   1.516
    2V3OU    H6  848   2.990   3.100   1.571
    2V3OU   C12  849   3.212   3.230   1.510
    2V3OU    O2  850   3.239   3.125   1.572
    2V3OU   C10  851   3.327   3.311   1.468
    2V3OU    C8  852   3.457   3.266   1.488
    2V3OU   O10  853   3.491   3.153   1.554
    2V3OU   H26  854   3.402   3.118   1.570
    2V3OU    C6  855   3.563   3.348   1.436
    2V3OU    C5  856   3.536   3.466   1.368
    2V3OU    C4  857   3.701   3.293   1.434
    2V3OU    H4  858   3.724   3.231   1.526
    2V3OU    H5  859   3.715   3.232   1.340
    2V3OU    C2  860   3.814   3.396   1.439
    2V3OU    O6  861   3.801   3.472   1.560
    2V3OU   H21  862   3.756   3.555   1.536
    2V3OU    C3  863   3.782   3.495   1.326
    2V3OU    H2  864   3.864   3.571   1.323
    2V3OU    H3  865   3.784   3.439   1.229
    2V3OU   C25  866   3.946   3.321   1.419
    2V3OU    O7  867   3.994   3.283   1.313
    2V3OU   C26  868   4.027   3.285   1.543
    2V3OU   H22  869   4.065   3.377   1.594
    2V3OU   H23  870   4.114   3.220   1.513
    2V3OU    O8  871   3.959   3.202   1.634
    2V3OU   H24  872   3.930   3.267   1.700
    2V3OU    C1  873   3.648   3.563   1.343
    2V3OU    H1  874   3.623   3.618   1.248
    2V3OU    O3  875   3.651   3.655   1.453
    2V3OU   C19  876   3.614   3.793   1.443
    2V3OU    H9  877   3.520   3.807   1.382
    2V3OU    O4  878   3.708   3.853   1.356
    2V3OU   C20  879   3.843   3.875   1.401
    2V3OU   H10  880   3.892   3.774   1.415
    2V3OU   C24  881   3.606   3.855   1.582
    2V3OU   H16  882   3.542   3.790   1.647
    2V3OU   H17  883   3.559   3.955   1.564
    2V3OU   C23  884   3.748   3.875   1.637
    2V3OU   H15  885   3.791   3.772   1.661
    2V3OU    N1  886   3.734   3.962   1.752
    2V3OU   H19  887   3.811   3.929   1.806
    2V3OU   H20  888   3.654   3.930   1.801
    2V3OU   C21  889   3.844   3.946   1.536
    2V3OU   H11  890   3.949   3.924   1.572
    2V3OU    O5  891   3.824   4.086   1.540
    2V3OU   H18  892   3.784   4.100   1.627
    2V3OU   C22  893   3.910   3.947   1.286
    2V3OU   H12  894   3.860   4.046   1.267
    2V3OU   H13  895   3.896   3.889   1.191
    2V3OU   H14  896   4.020   3.960   1.307
    2V3OU   C11  897   3.157   3.477   1.365
    2V3OU    O1  898   3.130   3.594   1.332
    2V3OU    C9  899   3.294   3.427   1.392
    2V3OU    C7  900   3.400   3.501   1.343
    2V3OU    O9  901   3.385   3.615   1.266
    2V3OU   H25  902   3.291   3.632   1.287
    2V3OU   C17  903   2.819   3.314   1.387
    2V3OU    H7  904   2.714   3.337   1.368
    2V3OU   C18  905   2.839   3.212   1.479
    2V3OU    H8  906   2.753   3.154   1.515
    3SOL     OW  907   0.939   3.459   0.824
    3SOL    HW1  908   1.006   3.505   0.766
    3SOL    HW2  909   0.986   3.416   0.901
    4SOL     OW  910   5.755   0.906   2.204
    4SOL    HW1  911   5.758   1.006   2.203
    4SOL    HW2  912   5.695   0.874   2.130
    5SOL     OW  913   3.508   3.309   1.051
    5SOL    HW1  914   3.605   3.321   1.029
    5SOL    HW2  915   3.499   3.242   1.124
    6SOL     OW  916   2.709   2.162   0.750
    6SOL    HW1  917   2.766   2.146   0.831
    6SOL    HW2  918   2.740   2.245   0.704
    7SOL     OW  919   6.130   0.872   1.792
    7SOL    HW1  920   6.101   0.957   1.748
    7SOL    HW2  921   6.142   0.888   1.890
    8SOL     OW  922   2.721   1.442   3.862
    8SOL    HW1  923   2.731   1.542   3.868
    8SOL    HW2  924   2.759   1.400   3.944
    9SOL     OW  925   0.986   3.766   5.811
    9SOL    HW1  926   0.988   3.677   5.855
    9SOL    HW2  927   0.997   3.755   5.712
   10SOL     OW  928   0.484   3.981   7.007
   10SOL    HW1  929   0.550   4.006   6.936
   10SOL    HW2  930   0.533   3.951   0.069
   11SOL     OW  931   4.041   6.399   6.770
   11SOL    HW1  932   4.079   6.426   6.681
   11SOL    HW2  933   3.948   6.434   6.778
   12SOL     OW  934   5.434   6.110   2.498
   12SOL    HW1  935   5.488   6.029   2.477
   12SOL    HW2  936   5.467   6.188   2.445
   13SOL     OW  937   2.073   0.120   3.173
   13SOL    HW1  938   2.165   0.105   3.207
   13SOL    HW2  939   2.007   0.075   3.234
   14SOL     OW  940   2.828   6.883   2.108
   14SOL    HW1  941   2.794   6.789   2.099
   14SOL    HW2  942   2.862   6.915   2.020
   15SOL     OW  943   1.863   6.537   6.249
   15SOL    HW1  944   1.831   6.587   6.328
   15SOL    HW2  945   1.847   6.591   6.166
   16SOL     OW  946   6.573   1.407   6.220
   16SOL    HW1  947   6.492   1.362   6.183
   16SOL    HW2  948   6.562   1.506   6.212
   17SOL     OW  949   4.905   5.888   3.585
   17SOL    HW1  950   4.937   5.862   3.494
   17SOL    HW2  951   4.925   5.815   3.650
   18SOL     OW  952   1.452   1.296   6.989
   18SOL    HW1  953   1.377   1.356   7.016
   18SOL    HW2  954   1.497   1.334   6.908
   19SOL     OW  955   0.931   0.018   1.609
   19SOL    HW1  956   0.865   0.088   1.582
   19SOL    HW2  957   1.006   0.062   1.658
   20SOL     OW  958   3.177   1.110   4.499
   20SOL    HW1  959   3.140   1.063   4.418
   20SOL    HW2  960   3.188   1.207   4.479
   21SOL     OW  961   3.346   2.709   0.888
   21SOL    HW1  962   3.275   2.707   0.817
   21SOL    HW2  963   3.319   2.650   0.964
   22SOL     OW  964   0.934   1.132   5.470
   22SOL    HW1  965   0.931   1.199   5.396
   22SOL    HW2  966   0.905   1.043   5.435
   23SOL     OW  967   4.318   6.167   4.315
   23SOL    HW1  968   4.390   6.220   4.361
   23SOL    HW2  969   4.244   6.229   4.289
   24SOL     OW  970   4.134   1.427   4.702
   24SOL    HW1  971   4.212   1.434   4.640
   24SOL    HW2  972   4.099   1.519   4.721
   25SOL     OW  973   3.197   4.414   1.173
   25SOL    HW1  974   3.113   4.424   1.119
   25SOL    HW2  975   3.189   4.466   1.257
   26SOL     OW  976   6.031   1.444   2.764
   26SOL    HW1  977   6.088   1.525   2.752
   26SOL    HW2  978   6.053   1.377   2.693
   27SOL     OW  979   6.030   6.174   1.985
   27SOL    HW1  980   6.072   6.155   2.074
   27SOL    HW2  981   5.994   6.090   1.946
   28SOL     OW  982   3.262   0.669   0.658
   28SOL    HW1  983   3.232   0.748   0.712
   28SOL    HW2  984   3.361   0.671   0.648
   29SOL     OW  985   4.234   2.478   1.607
   29SOL    HW1  986   4.245   2.438   1.516
   29SOL    HW2  987   4.140   2.511   1.617
   30SOL     OW  988   3.868   1.062   4.889
   30SOL    HW1  989   3.953   1.078   4.939
   30SOL    HW2  990   3.856   1.134   4.821
   31SOL     OW  991   0.482   0.746   5.013
   31SOL    HW1  992   0.500   0.659   4.965
   31SOL    HW2  993   0.383   0.762   5.016
   32SOL     OW  994   7.001   2.248   1.541
   32SOL    HW1  995   0.013   2.306   1.615
   32SOL    HW2  996   0.059   2.207   1.494
   33SOL     OW  997   1.759   2.061   5.063
   33SOL    HW1  998   1.726   1.974   5.100
   33SOL    HW2  999   1.693   2.096   4.997
   34SOL     OW 1000   1.105   0.648   4.675
   34SOL    HW1 1001   1.175   0.578   4.661
   34SOL    HW2 1002   1.112   0.716   4.602
   35SOL     OW 1003   4.105   1.573   6.503
   35SOL    HW1 1004   4.079   1.657   6.551
   35SOL    HW2 1005   4.129   1.502   6.569
   36SOL     OW 1006   1.852   1.138   5.670
   36SOL    HW1 1007   1.797   1.185   5.739
   36SOL    HW2 1008   1.857   1.194   5.587
   37SOL     OW 1009   2.360   6.816   0.807
   37SOL    HW1 1010   2.401   6.756   0.738
   37SOL    HW2 1011   2.361   6.769   0.896
   38SOL     OW 1012   0.327   6.230   2.140
   38SOL    HW1 1013   0.262   6.235   2.216
   38SOL    HW2 1014   0.398   6.163   2.162
   39SOL     OW 1015   6.826   2.868   5.835
   39SOL    HW1 1016   6.727   2.884   5.839
   39SOL    HW2 1017   6.856   2.871   5.740
   40SOL     OW 1018   6.645   1.089   1.672
   40SOL    HW1 1019   6.578   1.090   1.746
   40SOL    HW2 1020   6.726   1.038   1.702
   41SOL     OW 1021   1.328   0.130   5.207
   41SOL    HW1 1022   1.280   0.043   5.219
   41SOL    HW2 1023   1.261   0.204   5.201
   42SOL     OW 1024   3.861   0.686   0.640
   42SOL    HW1 1025   3.838   0.642   0.727
   42SOL    HW2 1026   3.839   0.784   0.645
   43SOL     OW 1027   5.244   5.422   5.542
   43SOL    HW1 1028   5.301   5.493   5.501
   43SOL    HW2 1029   5.295   5.336   5.547
   44SOL     OW 1030   0.759   3.300   6.520
   44SOL    HW1 1031   0.830   3.323   6.453
   44SOL    HW2 1032   0.674   3.347   6.496
   45SOL     OW 1033   2.699   0.672   1.502
   45SOL    HW1 1034   2.670   0.593   1.556
   45SOL    HW2 1035   2.702   0.647   1.405
   46SOL     OW 1036   1.214   4.654   3.755
   46SOL    HW1 1037   1.209   4.703   3.842
   46SOL    HW2 1038   1.249   4.716   3.684
   47SOL     OW 1039   6.192   4.414   3.044
   47SOL    HW1 1040   6.102   4.386   3.078
   47SOL    HW2 1041   6.242   4.333   3.013
   48SOL     OW 1042   1.002   1.867   5.473
   48SOL    HW1 1043   0.942   1.795   5.506
   48SOL    HW2 1044   0.980   1.888   5.377
   49SOL     OW 1045   5.478   2.550   0.621
   49SOL    HW1 1046   5.439   2.553   0.713
   49SOL    HW2 1047   5.415   2.596   0.557
   50SOL     OW 1048   6.730   3.912   4.584
   50SOL    HW1 1049   6.666   3.989   4.590
   50SOL    HW2 1050   6.821   3.946   4.563
   51SOL     OW 1051   3.106   5.679   2.606
   51SOL    HW1 1052   3.046   5.608   2.642
   51SOL    HW2 1053   3.071   5.710   2.517
   52SOL     OW 1054   1.093   2.304   1.499
   52SOL    HW1 1055   1.050   2.232   1.554
   52SOL    HW2 1056   1.044   2.390   1.511
   53SOL     OW 1057   4.830   6.680   4.111
   53SOL    HW1 1058   4.779   6.596   4.128
   53SOL    HW2 1059   4.905   6.661   4.047
   54SOL     OW 1060   4.234   5.904   6.201
   54SOL    HW1 1061   4.326   5.908   6.162
   54SOL    HW2 1062   4.217   5.813   6.238
   55SOL     OW 1063   3.866   2.481   0.334
   55SOL    HW1 1064   3.919   2.450   0.414
   55SOL    HW2 1065   3.915   2.555   0.289
   56SOL     OW 1066   0.777   6.824   1.666
   56SOL    HW1 1067   0.735   6.787   1.583
   56SOL    HW2 1068   0.844   6.894   1.641
   57SOL     OW 1069   5.659   0.514   0.727
   57SOL    HW1 1070   5.640   0.550   0.818
   57SOL    HW2 1071   5.723   0.574   0.679
   58SOL     OW 1072   0.030   6.481   6.868
   58SOL    HW1 1073   7.020   6.443   6.956
   58SOL    HW2 1074   0.024   6.580   6.871
   59SOL     OW 1075   0.864   0.095   4.529
   59SOL    HW1 1076   0.871   0.011   4.584
   59SOL    HW2 1077   0.882   0.073   4.433
   60SOL     OW 1078   4.641   6.574   5.248
   60SOL    HW1 1079   4.632   6.586   5.346
   60SOL    HW2 1080   4.731   6.606   5.218
   61SOL     OW 1081   3.980   0.410   5.084
   61SOL    HW1 1082   3.980   0.509   5.073
   61SOL    HW2 1083   4.069   0.373   5.056
   62SOL     OW 1084   2.746   1.503   4.693
   62SOL    HW1 1085   2.723   1.512   4.790
   62SOL    HW2 1086   2.680   1.553   4.638
   63SOL     OW 1087   6.711   3.354   3.195
   63SOL    HW1 1088   6.657   3.284   3.242
   63SOL    HW2 1089   6.678   3.362   3.101
   64SOL     OW 1090   6.770   2.485   5.608
   64SOL    HW1 1091   6.807   2.406   5.657
   64SOL    HW2 1092   6.678   2.504   5.642
   65SOL     OW 1093   7.003   4.056   5.987
   65SOL    HW1 1094   0.071   4.079   5.946
   65SOL    HW2 1095   6.998   4.094   6.079
   66SOL     OW 1096   2.373   1.346   1.000
   66SOL    HW1 1097   2.467   1.316   1.016
   66SOL    HW2 1098   2.372   1.416   0.929
   67SOL     OW 1099   4.883   6.000   4.258
   67SOL    HW1 1100   4.972   6.036   4.230
   67SOL    HW2 1101   4.814   6.072   4.249
   68SOL     OW 1102   5.328   2.734   6.096
   68SOL    HW1 1103   5.302   2.657   6.038
   68SOL    HW2 1104   5.393   2.793   6.047
   69SOL     OW 1105   2.382   3.145   5.899
   69SOL    HW1 1106   2.404   3.148   5.996
   69SOL    HW2 1107   2.461   3.175   5.845
   70SOL     OW 1108   6.791   5.226   1.982
   70SOL    HW1 1109   6.885   5.258   1.967
   70SOL    HW2 1110   6.790   5.126   1.985
   71SOL     OW 1111   2.050   2.479   2.953
   71SOL    HW1 1112   2.069   2.513   3.045
   71SOL    HW2 1113   1.999   2.549   2.902
   72SOL     OW 1114   3.030   5.625   4.191
   72SOL    HW1 1115   3.074   5.539   4.214
   72SOL    HW2 1116   3.037   5.642   4.093
   73SOL     OW 1117   4.357   2.532   6.851
   73SOL    HW1 1118   4.433   2.547   6.915
   73SOL    HW2 1119   4.274   2.512   6.903
   74SOL     OW 1120   5.042   5.708   5.968
   74SOL    HW1 1121   5.082   5.618   5.955
   74SOL    HW2 1122   4.963   5.701   6.029
   75SOL     OW 1123   3.890   5.063   5.332
   75SOL    HW1 1124   3.974   5.118   5.331
   75SOL    HW2 1125   3.890   5.001   5.254
   76SOL     OW 1126   2.286   3.063   1.275
   76SOL    HW1 1127   2.218   3.120   1.322
   76SOL    HW2 1128   2.313   3.107   1.190
   77SOL     OW 1129   5.536   4.654   6.373
   77SOL    HW1 1130   5.631   4.622   6.376
   77SOL    HW2 1131   5.520   4.715   6.451
   78SOL     OW 1132   6.400   6.765   6.295
   78SOL    HW1 1133   6.429   6.854   6.332
   78SOL    HW2 1134   6.320   6.733   6.346
   79SOL     OW 1135   3.102   0.183   0.146
   79SOL    HW1 1136   3.191   0.226   0.158
   79SOL    HW2 1137   3.031   0.242   0.185
   80SOL     OW 1138   0.289   1.213   4.216
   80SOL    HW1 1139   0.250   1.121   4.224
   80SOL    HW2 1140   0.324   1.242   4.305
   81SOL     OW 1141   1.429   0.240   3.748
   81SOL    HW1 1142   1.341   0.202   3.774
   81SOL    HW2 1143   1.462   0.193   3.666
   82SOL     OW 1144   0.182   4.573   5.606
   82SOL    HW1 1145   0.123   4.623   5.669
   82SOL    HW2 1146   0.276   4.577   5.639
   83SOL     OW 1147   6.621   6.977   6.943
   83SOL    HW1 1148   6.669   6.898   6.906
   83SOL    HW2 1149   6.523   6.966   6.929
   84SOL     OW 1150   6.285   3.767   1.726
   84SOL    HW1 1151   6.196   3.813   1.727
   84SOL    HW2 1152   6.302   3.728   1.635
   85SOL     OW 1153   0.198   2.427   5.603
   85SOL    HW1 1154   0.191   2.330   5.582
   85SOL    HW2 1155   0.120   2.476   5.564
   86SOL     OW 1156   1.148   1.134   4.996
   86SOL    HW1 1157   1.172   1.131   5.093
   86SOL    HW2 1158   1.057   1.175   4.986
   87SOL     OW 1159   4.198   0.684   1.799
   87SOL    HW1 1160   4.126   0.615   1.792
   87SOL    HW2 1161   4.249   0.689   1.713
   88SOL     OW 1162   4.906   0.273   0.846
   88SOL    HW1 1163   4.962   0.205   0.894
   88SOL    HW2 1164   4.907   0.359   0.897
   89SOL     OW 1165   2.055   2.021   5.801
   89SOL    HW1 1166   1.980   1.955   5.804
   89SOL    HW2 1167   2.129   1.991   5.860
   90SOL     OW 1168   6.531   6.192   3.768
   90SOL    HW1 1169   6.519   6.146   3.680
   90SOL    HW2 1170   6.579   6.279   3.754
   91SOL     OW 1171   4.844   4.918   4.825
   91SOL    HW1 1172   4.804   4.875   4.744
   91SOL    HW2 1173   4.856   4.850   4.897
   92SOL     OW 1174   3.012   6.464   1.004
   92SOL    HW1 1175   2.950   6.489   0.930
   92SOL    HW2 1176   3.024   6.542   1.065
   93SOL     OW 1177   3.189   5.249   5.770
   93SOL    HW1 1178   3.131   5.174   5.802
   93SOL    HW2 1179   3.135   5.311   5.713
   94SOL     OW 1180   2.375   5.977   0.557
   94SOL    HW1 1181   2.411   5.895   0.514
   94SOL    HW2 1182   2.413   5.986   0.650
   95SOL     OW 1183   6.428   0.250   4.770
   95SOL    HW1 1184   6.339   0.207   4.760
   95SOL    HW2 1185   6.425   0.316   4.845
   96SOL     OW 1186   1.361   6.952   4.935
   96SOL    HW1 1187   1.274   6.999   4.918
   96SOL    HW2 1188   1.347   6.881   5.004
   97SOL     OW 1189   6.079   2.671   5.524
   97SOL    HW1 1190   6.022   2.593   5.551
   97SOL    HW2 1191   6.039   2.716   5.444
   98SOL     OW 1192   5.706   2.536   6.151
   98SOL    HW1 1193   5.664   2.590   6.078
   98SOL    HW2 1194   5.642   2.527   6.227
   99SOL     OW 1195   4.350   2.162   1.194
   99SOL    HW1 1196   4.430   2.143   1.137
   99SOL    HW2 1197   4.313   2.076   1.230
  100SOL     OW 1198   6.089   4.991   6.669
  100SOL    HW1 1199   6.166   4.928   6.655
  100SOL    HW2 1200   6.112   5.081   6.632
  101SOL     OW 1201   1.079   6.380   3.810
  101SOL    HW1 1202   1.103   6.396   3.714
  101SOL    HW2 1203   0.982   6.357   3.817
  102SOL     OW 1204   5.079   0.073   3.178
  102SOL    HW1 1205   4.986   0.105   3.199
  102SOL    HW2 1206   5.104   7.019   3.240
  103SOL     OW 1207   3.937   1.939   1.739
  103SOL    HW1 1208   4.034   1.914   1.736
  103SOL    HW2 1209   3.929   2.039   1.736
  104SOL     OW 1210   6.956   5.804   1.615
  104SOL    HW1 1211   6.888   5.849   1.673
  104SOL    HW2 1212   0.025   5.845   1.632
  105SOL     OW 1213   5.242   1.419   5.038
  105SOL    HW1 1214   5.329   1.379   5.068
  105SOL    HW2 1215   5.193   1.456   5.117
  106SOL     OW 1216   3.518   6.421   0.137
  106SOL    HW1 1217   3.462   6.425   0.220
  106SOL    HW2 1218   3.591   6.354   0.149
  107SOL     OW 1219   2.136   3.333   1.241
  107SOL    HW1 1220   2.070   3.292   1.304
  107SOL    HW2 1221   2.141   3.431   1.258
  108SOL     OW 1222   5.274   4.410   5.408
  108SOL    HW1 1223   5.212   4.332   5.396
  108SOL    HW2 1224   5.278   4.463   5.323
  109SOL     OW 1225   6.654   0.945   1.316
  109SOL    HW1 1226   6.597   0.896   1.382
  109SOL    HW2 1227   6.636   1.043   1.324
  110SOL     OW 1228   3.727   5.778   5.273
  110SOL    HW1 1229   3.686   5.782   5.364
  110SOL    HW2 1230   3.739   5.683   5.246
  111SOL     OW 1231   3.637   1.032   3.155
  111SOL    HW1 1232   3.588   0.949   3.183
  111SOL    HW2 1233   3.585   1.112   3.185
  112SOL     OW 1234   0.358   0.775   5.983
  112SOL    HW1 1235   0.318   0.850   5.929
  112SOL    HW2 1236   0.439   0.741   5.936
  113SOL     OW 1237   0.365   5.555   3.834
  113SOL    HW1 1238   0.335   5.578   3.927
  113SOL    HW2 1239   0.415   5.633   3.795
  114SOL     OW 1240   0.304   6.760   6.821
  114SOL    HW1 1241   0.295   6.753   6.920
  114SOL    HW2 1242   0.264   6.846   6.789
  115SOL     OW 1243   5.233   1.121   5.005
  115SOL    HW1 1244   5.231   1.213   5.044
  115SOL    HW2 1245   5.240   1.054   5.079
  116SOL     OW 1246   6.388   4.629   2.685
  116SOL    HW1 1247   6.436   4.627   2.773
  116SOL    HW2 1248   6.453   4.655   2.613
  117SOL     OW 1249   1.187   6.731   6.350
  117SOL    HW1 1250   1.130   6.694   6.276
  117SOL    HW2 1251   1.163   6.687   6.436
  118SOL     OW 1252   1.584   0.489   2.072
  118SOL    HW1 1253   1.672   0.535   2.081
  118SOL    HW2 1254   1.518   0.550   2.028
  119SOL     OW 1255   6.585   2.601   6.437
  119SOL    HW1 1256   6.672   2.650   6.448
  119SOL    HW2 1257   6.525   2.653   6.376
  120SOL     OW 1258   5.554   6.476   1.224
  120SOL    HW1 1259   5.628   6.540   1.243
  120SOL    HW2 1260   5.591   6.392   1.185
  121SOL     OW 1261   2.877   3.378   5.893
  121SOL    HW1 1262   2.942   3.371   5.818
  121SOL    HW2 1263   2.817   3.456   5.878
  122SOL     OW 1264   0.574   3.326   4.595
  122SOL    HW1 1265   0.506   3.389   4.558
  122SOL    HW2 1266   0.652   3.377   4.631
  123SOL     OW 1267   1.086   1.821   1.466
  123SOL    HW1 1268   1.068   1.780   1.376
  123SOL    HW2 1269   1.050   1.762   1.538
  124SOL     OW 1270   4.893   2.866   0.954
  124SOL    HW1 1271   4.883   2.826   0.863
  124SOL    HW2 1272   4.832   2.819   1.018
  125SOL     OW 1273   2.002   3.401   1.851
  125SOL    HW1 1274   2.036   3.416   1.758
  125SOL    HW2 1275   2.072   3.429   1.916
  126SOL     OW 1276   3.165   4.542   1.405
  126SOL    HW1 1277   3.104   4.480   1.455
  126SOL    HW2 1278   3.239   4.571   1.466
  127SOL     OW 1279   0.729   5.933   6.058
  127SOL    HW1 1280   0.721   5.865   5.985
  127SOL    HW2 1281   0.642   5.941   6.106
  128SOL     OW 1282   4.729   2.317   1.670
  128SOL    HW1 1283   4.780   2.378   1.730
  128SOL    HW2 1284   4.631   2.335   1.679
  129SOL     OW 1285   2.697   3.625   6.335
  129SOL    HW1 1286   2.623   3.647   6.398
  129SOL    HW2 1287   2.782   3.608   6.386
  130SOL     OW 1288   1.378   2.318   4.686
  130SOL    HW1 1289   1.294   2.369   4.670
  130SOL    HW2 1290   1.457   2.378   4.674
  131SOL     OW 1291   5.249   1.900   2.496
  131SOL    HW1 1292   5.176   1.874   2.559
  131SOL    HW2 1293   5.235   1.854   2.408
  132SOL     OW 1294   0.405   2.578   0.810
  132SOL    HW1 1295   0.446   2.602   0.722
  132SOL    HW2 1296   0.368   2.661   0.853
  133SOL     OW 1297   6.261   5.098   2.303
  133SOL    HW1 1298   6.274   5.179   2.246
  133SOL    HW2 1299   6.226   5.023   2.247
  134SOL     OW 1300   0.514   3.561   2.950
  134SOL    HW1 1301   0.453   3.626   2.904
  134SOL    HW2 1302   0.481   3.544   3.042
  135SOL     OW 1303   4.866   1.567   4.026
  135SOL    HW1 1304   4.840   1.517   3.943
  135SOL    HW2 1305   4.910   1.653   4.001
  136SOL     OW 1306   5.695   4.519   5.520
  136SOL    HW1 1307   5.791   4.536   5.498
  136SOL    HW2 1308   5.659   4.595   5.575
  137SOL     OW 1309   3.994   0.460   5.889
  137SOL    HW1 1310   4.063   0.513   5.839
  137SOL    HW2 1311   3.987   0.368   5.849
  138SOL     OW 1312   6.801   4.912   4.987
  138SOL    HW1 1313   6.874   4.892   5.052
  138SOL    HW2 1314   6.726   4.847   5.001
  139SOL     OW 1315   3.805   5.448   5.369
  139SOL    HW1 1316   3.744   5.396   5.310
  139SOL    HW2 1317   3.768   5.451   5.461
  140SOL     OW 1318   6.037   3.854   4.900
  140SOL    HW1 1319   6.083   3.767   4.890
  140SOL    HW2 1320   6.087   3.912   4.964
  141SOL     OW 1321   1.183   2.003   3.581
  141SOL    HW1 1322   1.195   2.065   3.504
  141SOL    HW2 1323   1.145   1.916   3.549
  142SOL     OW 1324   1.639   5.680   1.419
  142SOL    HW1 1325   1.662   5.680   1.516
  142SOL    HW2 1326   1.711   5.726   1.367
  143SOL     OW 1327   5.619   3.921   1.463
  143SOL    HW1 1328   5.604   3.993   1.529
  143SOL    HW2 1329   5.544   3.855   1.467
  144SOL     OW 1330   2.786   6.670   0.464
  144SOL    HW1 1331   2.834   6.726   0.396
  144SOL    HW2 1332   2.743   6.730   0.531
  145SOL     OW 1333   6.903   5.747   0.409
  145SOL    HW1 1334   6.936   5.780   0.321
  145SOL    HW2 1335   6.820   5.798   0.434
  146SOL     OW 1336   6.280   4.826   0.807
  146SOL    HW1 1337   6.324   4.891   0.746
  146SOL    HW2 1338   6.180   4.835   0.800
  147SOL     OW 1339   5.954   2.354   0.967
  147SOL    HW1 1340   5.877   2.380   1.025
  147SOL    HW2 1341   5.992   2.266   0.997
  148SOL     OW 1342   1.282   5.051   5.671
  148SOL    HW1 1343   1.364   5.038   5.726
  148SOL    HW2 1344   1.204   5.007   5.716
  149SOL     OW 1345   2.991   1.163   6.034
  149SOL    HW1 1346   2.990   1.160   6.134
  149SOL    HW2 1347   3.038   1.082   5.998
  150SOL     OW 1348   0.102   5.695   5.887
  150SOL    HW1 1349   0.151   5.712   5.973
  150SOL    HW2 1350   0.099   5.597   5.869
  151SOL     OW 1351   4.251   1.422   1.688
  151SOL    HW1 1352   4.256   1.496   1.755
  151SOL    HW2 1353   4.170   1.366   1.707
  152SOL     OW 1354   3.569   0.957   4.384
  152SOL    HW1 1355   3.565   1.023   4.310
  152SOL    HW2 1356   3.548   1.002   4.471
  153SOL     OW 1357   1.744   0.792   3.108
  153SOL    HW1 1358   1.834   0.788   3.150
  153SOL    HW2 1359   1.677   0.822   3.176
  154SOL     OW 1360   6.805   2.178   2.767
  154SOL    HW1 1361   6.899   2.203   2.742
  154SOL    HW2 1362   6.807   2.096   2.823
  155SOL     OW 1363   0.352   0.625   2.811
  155SOL    HW1 1364   0.267   0.677   2.801
  155SOL    HW2 1365   0.368   0.604   2.908
  156SOL     OW 1366   6.623   2.071   0.996
  156SOL    HW1 1367   6.652   2.162   1.024
  156SOL    HW2 1368   6.566   2.031   1.067
  157SOL     OW 1369   5.709   3.721   2.405
  157SOL    HW1 1370   5.776   3.672   2.460
  157SOL    HW2 1371   5.618   3.685   2.423
  158SOL     OW 1372   1.415   1.747   3.419
  158SOL    HW1 1373   1.346   1.747   3.492
  158SOL    HW2 1374   1.421   1.656   3.379
  159SOL     OW 1375   5.104   3.609   2.134
  159SOL    HW1 1376   5.123   3.701   2.099
  159SOL    HW2 1377   5.122   3.542   2.062
  160SOL     OW 1378   6.818   4.342   5.934
  160SOL    HW1 1379   6.853   4.339   5.841
  160SOL    HW2 1380   6.889   4.375   5.996
  161SOL     OW 1381   3.324   4.845   5.213
  161SOL    HW1 1382   3.280   4.832   5.124
  161SOL    HW2 1383   3.337   4.942   5.230
  162SOL     OW 1384   4.385   6.182   1.807
  162SOL    HW1 1385   4.306   6.238   1.783
  162SOL    HW2 1386   4.354   6.090   1.832
  163SOL     OW 1387   5.075   0.856   2.422
  163SOL    HW1 1388   5.057   0.766   2.462
  163SOL    HW2 1389   5.154   0.850   2.362
  164SOL     OW 1390   6.275   3.485   1.244
  164SOL    HW1 1391   6.196   3.425   1.257
  164SOL    HW2 1392   6.300   3.484   1.147
  165SOL     OW 1393   5.327   3.908   6.651
  165SOL    HW1 1394   5.317   3.831   6.714
  165SOL    HW2 1395   5.242   3.960   6.648
  166SOL     OW 1396   1.233   0.879   1.542
  166SOL    HW1 1397   1.148   0.846   1.501
  166SOL    HW2 1398   1.253   0.826   1.625
  167SOL     OW 1399   6.765   3.125   0.312
  167SOL    HW1 1400   6.767   3.135   0.213
  167SOL    HW2 1401   6.755   3.215   0.355
  168SOL     OW 1402   2.044   5.410   1.122
  168SOL    HW1 1403   1.969   5.464   1.084
  168SOL    HW2 1404   2.100   5.373   1.048
  169SOL     OW 1405   1.091   0.147   1.303
  169SOL    HW1 1406   1.135   0.073   1.353
  169SOL    HW2 1407   1.160   0.203   1.258
  170SOL     OW 1408   0.350   1.507   3.125
  170SOL    HW1 1409   0.319   1.568   3.052
  170SOL    HW2 1410   0.313   1.415   3.110
  171SOL     OW 1411   3.424   3.354   0.004
  171SOL    HW1 1412   3.409   3.380   6.929
  171SOL    HW2 1413   3.381   3.266   0.022
  172SOL     OW 1414   0.267   2.865   6.919
  172SOL    HW1 1415   0.264   2.811   7.003
  172SOL    HW2 1416   0.208   2.823   6.850
  173SOL     OW 1417   0.500   6.192   5.573
  173SOL    HW1 1418   0.433   6.139   5.624
  173SOL    HW2 1419   0.583   6.204   5.628
  174SOL     OW 1420   2.890   5.559   3.626
  174SOL    HW1 1421   2.963   5.500   3.594
  174SOL    HW2 1422   2.877   5.634   3.561
  175SOL     OW 1423   0.953   5.700   2.896
  175SOL    HW1 1424   0.950   5.732   2.990
  175SOL    HW2 1425   0.891   5.622   2.884
  176SOL     OW 1426   2.823   5.423   1.120
  176SOL    HW1 1427   2.815   5.523   1.114
  176SOL    HW2 1428   2.731   5.383   1.127
  177SOL     OW 1429   4.538   1.802   2.427
  177SOL    HW1 1430   4.620   1.746   2.421
  177SOL    HW2 1431   4.562   1.899   2.422
  178SOL     OW 1432   5.718   4.379   6.411
  178SOL    HW1 1433   5.762   4.468   6.423
  178SOL    HW2 1434   5.738   4.343   6.320
  179SOL     OW 1435   3.073   0.102   1.079
  179SOL    HW1 1436   3.038   0.174   1.019
  179SOL    HW2 1437   3.020   0.101   1.164
  180SOL     OW 1438   1.155   2.474   6.629
  180SOL    HW1 1439   1.194   2.560   6.662
  180SOL    HW2 1440   1.216   2.398   6.652
  181SOL     OW 1441   3.323   2.747   5.201
  181SOL    HW1 1442   3.266   2.681   5.153
  181SOL    HW2 1443   3.391   2.785   5.138
  182SOL     OW 1444   4.698   2.837   4.828
  182SOL    HW1 1445   4.688   2.884   4.916
  182SOL    HW2 1446   4.640   2.755   4.827
  183SOL     OW 1447   5.547   1.485   2.058
  183SOL    HW1 1448   5.511   1.568   2.099
  183SOL    HW2 1449   5.527   1.407   2.118
  184SOL     OW 1450   0.284   4.763   3.030
  184SOL    HW1 1451   0.194   4.745   2.989
  184SOL    HW2 1452   0.317   4.681   3.076
  185SOL     OW 1453   2.757   3.379   6.793
  185SOL    HW1 1454   2.738   3.323   6.712
  185SOL    HW2 1455   2.704   3.345   6.871
  186SOL     OW 1456   5.908   6.602   3.270
  186SOL    HW1 1457   5.874   6.695   3.280
  186SOL    HW2 1458   6.004   6.598   3.295
  187SOL     OW 1459   5.475   0.936   3.767
  187SOL    HW1 1460   5.574   0.950   3.762
  187SOL    HW2 1461   5.431   0.987   3.693
  188SOL     OW 1462   6.359   2.498   3.758
  188SOL    HW1 1463   6.336   2.498   3.661
  188SOL    HW2 1464   6.277   2.484   3.813
  189SOL     OW 1465   2.343   4.224   2.850
  189SOL    HW1 1466   2.320   4.140   2.801
  189SOL    HW2 1467   2.378   4.292   2.786
  190SOL     OW 1468   3.221   1.125   6.478
  190SOL    HW1 1469   3.229   1.051   6.545
  190SOL    HW2 1470   3.301   1.184   6.485
  191SOL     OW 1471   4.702   5.879   5.628
  191SOL    HW1 1472   4.634   5.933   5.579
  191SOL    HW2 1473   4.724   5.797   5.575
  192SOL     OW 1474   6.885   0.398   1.181
  192SOL    HW1 1475   6.907   0.434   1.090
  192SOL    HW2 1476   6.884   0.474   1.247
  193SOL     OW 1477   5.537   4.363   6.636
  193SOL    HW1 1478   5.598   4.380   6.559
  193SOL    HW2 1479   5.574   4.404   6.719
  194SOL     OW 1480   3.885   0.402   4.258
  194SOL    HW1 1481   3.795   0.426   4.292
  194SOL    HW2 1482   3.955   0.431   4.324
  195SOL     OW 1483   0.063   5.712   3.355
  195SOL    HW1 1484   0.071   5.651   3.434
  195SOL    HW2 1485   0.147   5.764   3.345
  196SOL     OW 1486   0.855   1.337   1.009
  196SOL    HW1 1487   0.952   1.360   1.002
  196SOL    HW2 1488   0.841   1.241   0.985
  197SOL     OW 1489   1.790   1.054   0.892
  197SOL    HW1 1490   1.709   0.999   0.911
  197SOL    HW2 1491   1.872   1.002   0.917
  198SOL     OW 1492   2.644   1.305   3.653
  198SOL    HW1 1493   2.715   1.235   3.638
  198SOL    HW2 1494   2.669   1.361   3.732
  199SOL     OW 1495   0.772   1.837   4.218
  199SOL    HW1 1496   0.851   1.798   4.171
  199SOL    HW2 1497   0.769   1.935   4.202
  200SOL     OW 1498   6.956   2.923   0.279
  200SOL    HW1 1499   0.021   2.970   0.256
  200SOL    HW2 1500   6.885   2.992   0.295
  201SOL     OW 1501   0.754   0.771   6.367
  201SOL    HW1 1502   0.822   0.791   6.437
  201SOL    HW2 1503   0.791   0.792   6.277
  202SOL     OW 1504   4.623   6.693   0.626
  202SOL    HW1 1505   4.579   6.613   0.586
  202SOL    HW2 1506   4.634   6.764   0.556
  203SOL     OW 1507   6.141   3.081   6.770
  203SOL    HW1 1508   6.063   3.019   6.763
  203SOL    HW2 1509   6.212   3.040   6.826
  204SOL     OW 1510   6.243   1.099   4.982
  204SOL    HW1 1511   6.286   1.051   4.906
  204SOL    HW2 1512   6.262   1.050   5.067
  205SOL     OW 1513   1.812   3.378   2.952
  205SOL    HW1 1514   1.756   3.391   3.033
  205SOL    HW2 1515   1.904   3.414   2.968
  206SOL     OW 1516   0.505   3.527   0.136
  206SOL    HW1 1517   0.489   3.445   0.081
  206SOL    HW2 1518   0.422   3.582   0.138
  207SOL     OW 1519   6.140   2.604   4.690
  207SOL    HW1 1520   6.046   2.576   4.669
  207SOL    HW2 1521   6.138   2.670   4.765
  208SOL     OW 1522   1.372   3.920   4.715
  208SOL    HW1 1523   1.309   3.994   4.690
  208SOL    HW2 1524   1.320   3.846   4.758
  209SOL     OW 1525   6.556   4.187   2.990
  209SOL    HW1 1526   6.608   4.111   2.950
  209SOL    HW2 1527   6.590   4.273   2.953
  210SOL     OW 1528   4.536   2.879   0.315
  210SOL    HW1 1529   4.586   2.804   0.271
  210SOL    HW2 1530   4.534   2.958   0.254
  211SOL     OW 1531   0.424   1.453   2.535
  211SOL    HW1 1532   0.432   1.357   2.508
  211SOL    HW2 1533   0.506   1.502   2.504
  212SOL     OW 1534   2.147   3.832   2.350
  212SOL    HW1 1535   2.187   3.886   2.276
  212SOL    HW2 1536   2.131   3.738   2.317
  213SOL     OW 1537   0.881   5.061   1.683
  213SOL    HW1 1538   0.867   5.009   1.767
  213SOL    HW2 1539   0.975   5.096   1.680
  214SOL     OW 1540   5.043   5.846   1.510
  214SOL    HW1 1541   4.945   5.831   1.498
  214SOL    HW2 1542   5.085   5.763   1.545
  215SOL     OW 1543   3.038   5.510   3.247
  215SOL    HW1 1544   2.946   5.482   3.274
  215SOL    HW2 1545   3.044   5.514   3.147
  216SOL     OW 1546   1.043   6.754   2.605
  216SOL    HW1 1547   1.082   6.729   2.516
  216SOL    HW2 1548   0.955   6.800   2.590
  217SOL     OW 1549   1.131   4.584   5.722
  217SOL    HW1 1550   1.060   4.525   5.682
  217SOL    HW2 1551   1.212   4.584   5.664
  218SOL     OW 1552   1.941   1.778   5.066
  218SOL    HW1 1553   1.993   1.863   5.070
  218SOL    HW2 1554   2.000   1.700   5.086
  219SOL     OW 1555   4.152   1.762   1.081
  219SOL    HW1 1556   4.080   1.735   1.145
  219SOL    HW2 1557   4.111   1.811   1.003
  220SOL     OW 1558   3.029   6.723   1.099
  220SOL    HW1 1559   3.105   6.741   1.161
  220SOL    HW2 1560   3.033   6.786   1.022
  221SOL     OW 1561   5.461   5.080   1.908
  221SOL    HW1 1562   5.375   5.031   1.892
  221SOL    HW2 1563   5.526   5.021   1.955
  222SOL     OW 1564   2.385   4.975   6.567
  222SOL    HW1 1565   2.359   5.008   6.476
  222SOL    HW2 1566   2.311   4.995   6.632
  223SOL     OW 1567   6.131   2.492   5.756
  223SOL    HW1 1568   6.083   2.458   5.676
  223SOL    HW2 1569   6.165   2.584   5.738
  224SOL     OW 1570   2.197   1.277   6.366
  224SOL    HW1 1571   2.293   1.267   6.394
  224SOL    HW2 1572   2.138   1.232   6.434
  225SOL     OW 1573   4.096   6.451   6.045
  225SOL    HW1 1574   3.996   6.447   6.048
  225SOL    HW2 1575   4.126   6.488   5.957
  226SOL     OW 1576   1.473   2.608   6.780
  226SOL    HW1 1577   1.479   2.617   6.879
  226SOL    HW2 1578   1.399   2.665   6.746
  227SOL     OW 1579   1.697   3.921   1.367
  227SOL    HW1 1580   1.665   3.981   1.293
  227SOL    HW2 1581   1.779   3.960   1.408
  228SOL     OW 1582   1.444   0.185   2.304
  228SOL    HW1 1583   1.491   0.198   2.391
  228SOL    HW2 1584   1.417   0.275   2.267
  229SOL     OW 1585   3.832   6.476   6.090
  229SOL    HW1 1586   3.814   6.388   6.134
  229SOL    HW2 1587   3.746   6.514   6.056
  230SOL     OW 1588   5.625   5.676   5.395
  230SOL    HW1 1589   5.629   5.618   5.314
  230SOL    HW2 1590   5.534   5.670   5.436
  231SOL     OW 1591   5.525   1.956   6.510
  231SOL    HW1 1592   5.523   1.857   6.498
  231SOL    HW2 1593   5.491   1.980   6.600
  232SOL     OW 1594   1.594   1.766   5.626
  232SOL    HW1 1595   1.526   1.791   5.557
  232SOL    HW2 1596   1.620   1.847   5.678
  233SOL     OW 1597   3.352   1.780   3.288
  233SOL    HW1 1598   3.380   1.827   3.204
  233SOL    HW2 1599   3.253   1.790   3.300
  234SOL     OW 1600   4.628   0.570   0.186
  234SOL    HW1 1601   4.692   0.619   0.127
  234SOL    HW2 1602   4.652   0.584   0.282
  235SOL     OW 1603   4.831   3.053   3.255
  235SOL    HW1 1604   4.842   3.059   3.354
  235SOL    HW2 1605   4.766   2.980   3.233
  236SOL     OW 1606   3.930   5.162   6.028
  236SOL    HW1 1607   3.989   5.241   6.013
  236SOL    HW2 1608   3.980   5.078   6.005
  237SOL     OW 1609   6.090   3.320   2.930
  237SOL    HW1 1610   6.099   3.418   2.912
  237SOL    HW2 1611   6.165   3.290   2.989
  238SOL     OW 1612   6.627   1.832   0.655
  238SOL    HW1 1613   6.603   1.924   0.684
  238SOL    HW2 1614   6.582   1.812   0.568
  239SOL     OW 1615   1.173   3.393   0.309
  239SOL    HW1 1616   1.180   3.384   0.209
  239SOL    HW2 1617   1.256   3.437   0.344
  240SOL     OW 1618   5.306   3.255   3.222
  240SOL    HW1 1619   5.281   3.192   3.296
  240SOL    HW2 1620   5.383   3.312   3.252
  241SOL     OW 1621   2.952   2.185   4.146
  241SOL    HW1 1622   2.883   2.200   4.217
  241SOL    HW2 1623   2.910   2.196   4.056
  242SOL     OW 1624   3.568   3.553   2.455
  242SOL    HW1 1625   3.506   3.579   2.529
  242SOL    HW2 1626   3.618   3.470   2.480
  243SOL     OW 1627   4.291   2.682   5.819
  243SOL    HW1 1628   4.194   2.655   5.823
  243SOL    HW2 1629   4.348   2.609   5.855
  244SOL     OW 1630   4.820   3.559   5.383
  244SOL    HW1 1631   4.805   3.632   5.449
  244SOL    HW2 1632   4.776   3.582   5.297
  245SOL     OW 1633   3.981   1.238   3.022
  245SOL    HW1 1634   3.980   1.291   3.108
  245SOL    HW2 1635   3.975   1.301   2.945
  246SOL     OW 1636   6.308   1.238   2.056
  246SOL    HW1 1637   6.337   1.277   1.969
  246SOL    HW2 1638   6.386   1.233   2.118
  247SOL     OW 1639   1.405   1.298   1.475
  247SOL    HW1 1640   1.498   1.333   1.468
  247SOL    HW2 1641   1.344   1.353   1.419
  248SOL     OW 1642   1.968   2.521   2.047
  248SOL    HW1 1643   2.058   2.560   2.065
  248SOL    HW2 1644   1.974   2.421   2.046
  249SOL     OW 1645   4.912   6.094   5.224
  249SOL    HW1 1646   4.977   6.136   5.286
  249SOL    HW2 1647   4.937   6.115   5.129
  250SOL     OW 1648   3.978   2.447   0.869
  250SOL    HW1 1649   4.019   2.519   0.925
  250SOL    HW2 1650   3.900   2.407   0.918
  251SOL     OW 1651   3.874   3.997   5.576
  251SOL    HW1 1652   3.929   3.935   5.519
  251SOL    HW2 1653   3.778   3.990   5.551
  252SOL     OW 1654   6.235   6.350   5.412
  252SOL    HW1 1655   6.230   6.318   5.507
  252SOL    HW2 1656   6.276   6.279   5.355
  253SOL     OW 1657   3.979   6.376   6.303
  253SOL    HW1 1658   4.052   6.404   6.366
  253SOL    HW2 1659   3.946   6.456   6.253
  254SOL     OW 1660   5.484   2.726   5.312
  254SOL    HW1 1661   5.538   2.779   5.378
  254SOL    HW2 1662   5.506   2.629   5.322
  255SOL     OW 1663   1.741   4.278   6.083
  255SOL    HW1 1664   1.838   4.260   6.098
  255SOL    HW2 1665   1.722   4.273   5.985
  256SOL     OW 1666   5.156   2.205   5.331
  256SOL    HW1 1667   5.195   2.258   5.257
  256SOL    HW2 1668   5.078   2.255   5.371
  257SOL     OW 1669   5.036   0.024   2.613
  257SOL    HW1 1670   5.067   0.051   2.704
  257SOL    HW2 1671   5.098   6.977   2.575
  258SOL     OW 1672   1.573   3.318   5.399
  258SOL    HW1 1673   1.532   3.270   5.321
  258SOL    HW2 1674   1.671   3.298   5.401
  259SOL     OW 1675   3.774   6.845   3.956
  259SOL    HW1 1676   3.801   6.853   3.860
  259SOL    HW2 1677   3.856   6.849   4.014
  260SOL     OW 1678   3.896   5.506   3.579
  260SOL    HW1 1679   3.904   5.423   3.635
  260SOL    HW2 1680   3.973   5.511   3.516
  261SOL     OW 1681   4.396   5.004   0.333
  261SOL    HW1 1682   4.315   5.060   0.351
  261SOL    HW2 1683   4.443   5.038   0.252
  262SOL     OW 1684   1.637   4.165   6.322
  262SOL    HW1 1685   1.666   4.211   6.237
  262SOL    HW2 1686   1.579   4.227   6.374
  263SOL     OW 1687   0.934   6.590   4.032
  263SOL    HW1 1688   0.840   6.566   4.008
  263SOL    HW2 1689   0.952   6.568   4.128
  264SOL     OW 1690   6.676   3.239   6.566
  264SOL    HW1 1691   6.687   3.306   6.640
  264SOL    HW2 1692   6.751   3.247   6.502
  265SOL     OW 1693   6.436   0.109   4.285
  265SOL    HW1 1694   6.497   0.187   4.271
  265SOL    HW2 1695   6.363   0.112   4.217
  266SOL     OW 1696   3.612   0.966   5.968
  266SOL    HW1 1697   3.604   0.874   6.006
  266SOL    HW2 1698   3.667   0.963   5.884
  267SOL     OW 1699   1.751   1.130   4.056
  267SOL    HW1 1700   1.679   1.197   4.075
  267SOL    HW2 1701   1.839   1.177   4.046
  268SOL     OW 1702   3.459   2.123   1.175
  268SOL    HW1 1703   3.392   2.067   1.126
  268SOL    HW2 1704   3.470   2.088   1.268
  269SOL     OW 1705   4.573   1.869   0.463
  269SOL    HW1 1706   4.597   1.927   0.385
  269SOL    HW2 1707   4.476   1.844   0.456
  270SOL     OW 1708   5.488   0.392   0.097
  270SOL    HW1 1709   5.425   0.466   0.073
  270SOL    HW2 1710   5.546   0.421   0.173
  271SOL     OW 1711   1.225   3.428   6.427
  271SOL    HW1 1712   1.144   3.395   6.475
  271SOL    HW2 1713   1.256   3.359   6.361
  272SOL     OW 1714   3.312   6.414   3.850
  272SOL    HW1 1715   3.270   6.504   3.849
  272SOL    HW2 1716   3.398   6.417   3.799
  273SOL     OW 1717   1.741   4.940   6.249
  273SOL    HW1 1718   1.835   4.913   6.268
  273SOL    HW2 1719   1.683   4.917   6.328
  274SOL     OW 1720   4.988   2.406   3.805
  274SOL    HW1 1721   4.914   2.437   3.746
  274SOL    HW2 1722   5.041   2.335   3.758
  275SOL     OW 1723   6.477   6.585   1.691
  275SOL    HW1 1724   6.547   6.657   1.696
  275SOL    HW2 1725   6.514   6.501   1.731
  276SOL     OW 1726   0.734   1.177   4.821
  276SOL    HW1 1727   0.725   1.164   4.920
  276SOL    HW2 1728   0.765   1.092   4.779
  277SOL     OW 1729   2.126   3.955   1.156
  277SOL    HW1 1730   2.190   3.922   1.226
  277SOL    HW2 1731   2.076   3.878   1.117
  278SOL     OW 1732   0.368   2.804   1.877
  278SOL    HW1 1733   0.439   2.845   1.820
  278SOL    HW2 1734   0.299   2.873   1.899
  279SOL     OW 1735   5.812   1.676   3.653
  279SOL    HW1 1736   5.904   1.638   3.661
  279SOL    HW2 1737   5.749   1.603   3.627
  280SOL     OW 1738   1.739   4.922   2.173
  280SOL    HW1 1739   1.816   4.929   2.236
  280SOL    HW2 1740   1.723   5.011   2.130
  281SOL     OW 1741   2.298   4.716   1.188
  281SOL    HW1 1742   2.274   4.715   1.091
  281SOL    HW2 1743   2.214   4.723   1.242
  282SOL     OW 1744   2.872   2.050   6.164
  282SOL    HW1 1745   2.856   2.135   6.114
  282SOL    HW2 1746   2.888   2.070   6.261
  283SOL     OW 1747   4.098   2.345   6.112
  283SOL    HW1 1748   4.040   2.303   6.042
  283SOL    HW2 1749   4.086   2.444   6.111
  284SOL     OW 1750   1.535   4.293   3.874
  284SOL    HW1 1751   1.450   4.246   3.896
  284SOL    HW2 1752   1.572   4.257   3.788
  285SOL     OW 1753   5.754   4.971   4.548
  285SOL    HW1 1754   5.812   4.965   4.630
  285SOL    HW2 1755   5.661   4.998   4.575
  286SOL     OW 1756   3.135   3.739   6.878
  286SOL    HW1 1757   3.072   3.814   6.860
  286SOL    HW2 1758   3.111   3.661   6.820
  287SOL     OW 1759   1.600   3.808   7.010
  287SOL    HW1 1760   1.601   3.885   6.946
  287SOL    HW2 1761   1.676   3.747   6.990
  288SOL     OW 1762   4.952   3.462   0.937
  288SOL    HW1 1763   4.953   3.417   0.848
  288SOL    HW2 1764   4.871   3.520   0.944
  289SOL     OW 1765   3.079   4.640   6.349
  289SOL    HW1 1766   2.991   4.606   6.380
  289SOL    HW2 1767   3.118   4.702   6.418
  290SOL     OW 1768   1.041   1.496   4.969
  290SOL    HW1 1769   1.099   1.577   4.959
  290SOL    HW2 1770   0.953   1.523   5.009
  291SOL     OW 1771   0.207   1.855   2.687
  291SOL    HW1 1772   0.141   1.917   2.643
  291SOL    HW2 1773   0.300   1.885   2.666
  292SOL     OW 1774   2.682   6.777   3.990
  292SOL    HW1 1775   2.735   6.725   4.057
  292SOL    HW2 1776   2.734   6.858   3.963
  293SOL     OW 1777   3.448   4.996   3.294
  293SOL    HW1 1778   3.506   4.966   3.218
  293SOL    HW2 1779   3.381   5.062   3.261
  294SOL     OW 1780   4.796   0.498   6.920
  294SOL    HW1 1781   4.891   0.527   6.918
  294SOL    HW2 1782   4.737   0.574   6.891
  295SOL     OW 1783   5.209   6.899   3.370
  295SOL    HW1 1784   5.176   6.832   3.304
  295SOL    HW2 1785   5.226   6.853   3.458
  296SOL     OW 1786   2.531   1.996   3.308
  296SOL    HW1 1787   2.490   1.937   3.378
  296SOL    HW2 1788   2.476   1.992   3.225
  297SOL     OW 1789   1.571   4.758   3.177
  297SOL    HW1 1790   1.561   4.730   3.272
  297SOL    HW2 1791   1.646   4.824   3.169
  298SOL     OW 1792   6.270   5.268   0.542
  298SOL    HW1 1793   6.293   5.329   0.466
  298SOL    HW2 1794   6.237   5.322   0.619
  299SOL     OW 1795   6.306   2.629   4.478
  299SOL    HW1 1796   6.236   2.639   4.549
  299SOL    HW2 1797   6.388   2.680   4.504
  300SOL     OW 1798   6.482   6.768   2.454
  300SOL    HW1 1799   6.469   6.787   2.551
  300SOL    HW2 1800   6.507   6.852   2.406
  301SOL     OW 1801   4.650   3.320   6.230
  301SOL    HW1 1802   4.742   3.359   6.241
  301SOL    HW2 1803   4.606   3.361   6.150
  302SOL     OW 1804   1.273   6.736   3.531
  302SOL    HW1 1805   1.334   6.693   3.598
  302SOL    HW2 1806   1.198   6.782   3.580
  303SOL     OW 1807   6.211   6.391   2.921
  303SOL    HW1 1808   6.264   6.430   2.845
  303SOL    HW2 1809   6.205   6.458   2.995
  304SOL     OW 1810   3.559   6.397   3.733
  304SOL    HW1 1811   3.574   6.359   3.641
  304SOL    HW2 1812   3.618   6.477   3.746
  305SOL     OW 1813   1.379   3.888   1.789
  305SOL    HW1 1814   1.350   3.842   1.706
  305SOL    HW2 1815   1.476   3.913   1.781
  306SOL     OW 1816   2.538   0.708   3.239
  306SOL    HW1 1817   2.610   0.648   3.205
  306SOL    HW2 1818   2.560   0.803   3.215
  307SOL     OW 1819   3.348   0.286   1.725
  307SOL    HW1 1820   3.365   0.191   1.699
  307SOL    HW2 1821   3.370   0.299   1.821
  308SOL     OW 1822   1.023   4.979   4.436
  308SOL    HW1 1823   0.973   4.984   4.523
  308SOL    HW2 1824   0.961   5.003   4.361
  309SOL     OW 1825   3.896   4.870   5.123
  309SOL    HW1 1826   3.816   4.884   5.065
  309SOL    HW2 1827   3.970   4.831   5.068
  310SOL     OW 1828   1.099   6.210   6.122
  310SOL    HW1 1829   1.181   6.254   6.158
  310SOL    HW2 1830   1.087   6.121   6.166
  311SOL     OW 1831   0.611   0.422   1.475
  311SOL    HW1 1832   0.603   0.476   1.559
  311SOL    HW2 1833   0.536   0.446   1.413
  312SOL     OW 1834   3.858   1.563   4.550
  312SOL    HW1 1835   3.806   1.514   4.620
  312SOL    HW2 1836   3.796   1.612   4.490
  313SOL     OW 1837   6.928   4.767   0.649
  313SOL    HW1 1838   6.929   4.867   0.661
  313SOL    HW2 1839   6.968   4.724   0.730
  314SOL     OW 1840   3.207   6.283   1.330
  314SOL    HW1 1841   3.213   6.278   1.230
  314SOL    HW2 1842   3.293   6.318   1.367
  315SOL     OW 1843   1.164   2.970   2.559
  315SOL    HW1 1844   1.121   2.955   2.470
  315SOL    HW2 1845   1.121   2.910   2.627
  316SOL     OW 1846   2.168   3.928   4.105
  316SOL    HW1 1847   2.193   4.022   4.082
  316SOL    HW2 1848   2.175   3.915   4.204
  317SOL     OW 1849   6.823   1.421   0.222
  317SOL    HW1 1850   6.783   1.471   0.146
  317SOL    HW2 1851   6.840   1.326   0.195
  318SOL     OW 1852   2.063   4.943   0.759
  318SOL    HW1 1853   2.075   5.033   0.801
  318SOL    HW2 1854   2.092   4.946   0.664
  319SOL     OW 1855   1.338   0.090   6.555
  319SOL    HW1 1856   1.336   0.149   6.635
  319SOL    HW2 1857   1.398   0.129   6.485
  320SOL     OW 1858   4.912   3.141   0.897
  320SOL    HW1 1859   5.009   3.161   0.906
  320SOL    HW2 1860   4.889   3.060   0.951
  321SOL     OW 1861   1.939   1.276   1.821
  321SOL    HW1 1862   2.029   1.236   1.838
  321SOL    HW2 1863   1.946   1.345   1.749
  322SOL     OW 1864   3.191   2.891   5.378
  322SOL    HW1 1865   3.192   2.825   5.453
  322SOL    HW2 1866   3.240   2.854   5.300
  323SOL     OW 1867   0.571   3.836   1.942
  323SOL    HW1 1868   0.484   3.864   1.982
  323SOL    HW2 1869   0.607   3.757   1.991
  324SOL     OW 1870   0.806   3.255   4.390
  324SOL    HW1 1871   0.774   3.193   4.461
  324SOL    HW2 1872   0.891   3.299   4.419
  325SOL     OW 1873   2.494   2.554   2.717
  325SOL    HW1 1874   2.408   2.562   2.768
  325SOL    HW2 1875   2.546   2.639   2.727
  326SOL     OW 1876   2.495   4.689   5.696
  326SOL    HW1 1877   2.532   4.726   5.611
  326SOL    HW2 1878   2.538   4.734   5.774
  327SOL     OW 1879   6.233   5.122   6.115
  327SOL    HW1 1880   6.207   5.168   6.200
  327SOL    HW2 1881   6.287   5.041   6.136
  328SOL     OW 1882   3.135   5.844   1.671
  328SOL    HW1 1883   3.182   5.924   1.709
  328SOL    HW2 1884   3.172   5.824   1.580
  329SOL     OW 1885   3.153   3.551   2.536
  329SOL    HW1 1886   3.108   3.463   2.518
  329SOL    HW2 1887   3.084   3.623   2.543
  330SOL     OW 1888   3.339   1.509   1.793
  330SOL    HW1 1889   3.414   1.451   1.823
  330SOL    HW2 1890   3.366   1.605   1.800
  331SOL     OW 1891   5.956   4.373   5.688
  331SOL    HW1 1892   6.048   4.410   5.701
  331SOL    HW2 1893   5.924   4.395   5.596
  332SOL     OW 1894   4.701   2.073   3.905
  332SOL    HW1 1895   4.685   2.114   3.815
  332SOL    HW2 1896   4.630   2.004   3.923
  333SOL     OW 1897   4.001   6.229   0.269
  333SOL    HW1 1898   3.991   6.321   0.230
  333SOL    HW2 1899   4.082   6.185   0.231
  334SOL     OW 1900   4.432   6.737   2.913
  334SOL    HW1 1901   4.495   6.708   2.841
  334SOL    HW2 1902   4.373   6.660   2.939
  335SOL     OW 1903   3.448   6.841   3.224
  335SOL    HW1 1904   3.457   6.934   3.189
  335SOL    HW2 1905   3.383   6.840   3.299
  336SOL     OW 1906   3.332   0.575   5.007
  336SOL    HW1 1907   3.320   0.604   4.912
  336SOL    HW2 1908   3.354   0.655   5.063
  337SOL     OW 1909   0.382   4.285   1.329
  337SOL    HW1 1910   0.439   4.221   1.277
  337SOL    HW2 1911   0.373   4.370   1.278
  338SOL     OW 1912   2.573   2.614   1.521
  338SOL    HW1 1913   2.662   2.640   1.559
  338SOL    HW2 1914   2.501   2.667   1.566
  339SOL     OW 1915   4.041   0.628   2.896
  339SOL    HW1 1916   4.050   0.600   2.801
  339SOL    HW2 1917   4.130   0.619   2.941
  340SOL     OW 1918   4.916   3.568   4.493
  340SOL    HW1 1919   4.875   3.499   4.434
  340SOL    HW2 1920   4.885   3.659   4.465
  341SOL     OW 1921   5.487   4.936   5.551
  341SOL    HW1 1922   5.551   4.879   5.603
  341SOL    HW2 1923   5.429   4.879   5.494
  342SOL     OW 1924   5.528   3.781   0.561
  342SOL    HW1 1925   5.542   3.688   0.594
  342SOL    HW2 1926   5.498   3.840   0.637
  343SOL     OW 1927   2.289   1.003   2.816
  343SOL    HW1 1928   2.347   0.982   2.737
  343SOL    HW2 1929   2.325   0.957   2.897
  344SOL     OW 1930   3.529   5.387   6.652
  344SOL    HW1 1931   3.437   5.380   6.616
  344SOL    HW2 1932   3.540   5.322   6.728
  345SOL     OW 1933   1.464   0.305   5.968
  345SOL    HW1 1934   1.391   0.269   6.027
  345SOL    HW2 1935   1.445   0.281   5.873
  346SOL     OW 1936   3.459   0.692   4.347
  346SOL    HW1 1937   3.495   0.772   4.396
  346SOL    HW2 1938   3.375   0.717   4.299
  347SOL     OW 1939   4.867   6.460   5.973
  347SOL    HW1 1940   4.895   6.440   5.880
  347SOL    HW2 1941   4.780   6.412   5.992
  348SOL     OW 1942   2.939   6.232   2.774
  348SOL    HW1 1943   2.918   6.169   2.849
  348SOL    HW2 1944   2.869   6.224   2.704
  349SOL     OW 1945   2.185   4.894   1.609
  349SOL    HW1 1946   2.157   4.847   1.526
  349SOL    HW2 1947   2.105   4.906   1.669
  350SOL     OW 1948   4.499   2.837   0.723
  350SOL    HW1 1949   4.557   2.910   0.687
  350SOL    HW2 1950   4.517   2.824   0.820
  351SOL     OW 1951   3.109   1.700   0.514
  351SOL    HW1 1952   3.046   1.679   0.588
  351SOL    HW2 1953   3.062   1.752   0.443
  352SOL     OW 1954   3.447   1.467   6.216
  352SOL    HW1 1955   3.535   1.429   6.186
  352SOL    HW2 1956   3.381   1.459   6.141
  353SOL     OW 1957   2.245   0.544   1.220
  353SOL    HW1 1958   2.229   0.625   1.163
  353SOL    HW2 1959   2.343   0.528   1.227
  354SOL     OW 1960   5.269   1.475   2.290
  354SOL    HW1 1961   5.193   1.421   2.253
  354SOL    HW2 1962   5.353   1.423   2.285
  355SOL     OW 1963   1.357   1.297   1.905
  355SOL    HW1 1964   1.287   1.245   1.857
  355SOL    HW2 1965   1.314   1.359   1.970
  356SOL     OW 1966   3.865   6.106   2.870
  356SOL    HW1 1967   3.806   6.134   2.795
  356SOL    HW2 1968   3.943   6.055   2.833
  357SOL     OW 1969   1.817   4.757   5.928
  357SOL    HW1 1970   1.828   4.791   5.835
  357SOL    HW2 1971   1.725   4.720   5.939
  358SOL     OW 1972   5.463   1.026   2.484
  358SOL    HW1 1973   5.532   0.969   2.528
  358SOL    HW2 1974   5.407   1.072   2.553
  359SOL     OW 1975   1.176   2.176   0.655
  359SOL    HW1 1976   1.258   2.205   0.606
  359SOL    HW2 1977   1.202   2.140   0.745
  360SOL     OW 1978   4.466   6.430   0.828
  360SOL    HW1 1979   4.478   6.523   0.863
  360SOL    HW2 1980   4.553   6.380   0.837
  361SOL     OW 1981   3.676   0.743   3.590
  361SOL    HW1 1982   3.588   0.722   3.547
  361SOL    HW2 1983   3.679   0.701   3.681
  362SOL     OW 1984   2.992   3.881   0.944
  362SOL    HW1 1985   3.054   3.830   0.885
  362SOL    HW2 1986   2.900   3.880   0.904
  363SOL     OW 1987   4.275   4.736   3.774
  363SOL    HW1 1988   4.357   4.697   3.733
  363SOL    HW2 1989   4.207   4.754   3.702
  364SOL     OW 1990   1.699   6.196   5.866
  364SOL    HW1 1991   1.632   6.135   5.823
  364SOL    HW2 1992   1.651   6.273   5.908
  365SOL     OW 1993   4.641   6.748   2.718
  365SOL    HW1 1994   4.690   6.833   2.697
  365SOL    HW2 1995   4.600   6.712   2.635
  366SOL     OW 1996   5.013   0.563   0.488
  366SOL    HW1 1997   5.071   0.490   0.452
  366SOL    HW2 1998   4.991   0.544   0.583
  367SOL     OW 1999   4.721   1.864   1.778
  367SOL    HW1 2000   4.720   1.933   1.706
  367SOL    HW2 2001   4.672   1.783   1.747
  368SOL     OW 2002   1.740   5.030   5.640
  368SOL    HW1 2003   1.802   4.951   5.636
  368SOL    HW2 2004   1.761   5.084   5.721
  369SOL     OW 2005   0.552   3.441   1.463
  369SOL    HW1 2006   0.553   3.449   1.363
  369SOL    HW2 2007   0.518   3.351   1.489
  370SOL     OW 2008   3.209   1.618   6.914
  370SOL    HW1 2009   3.238   1.526   6.886
  370SOL    HW2 2010   3.289   1.675   6.931
  371SOL     OW 2011   3.873   3.148   6.249
  371SOL    HW1 2012   3.849   3.081   6.319
  371SOL    HW2 2013   3.922   3.102   6.175
  372SOL     OW 2014   1.726   5.242   6.994
  372SOL    HW1 2015   1.775   5.173   0.028
  372SOL    HW2 2016   1.727   5.215   6.898
  373SOL     OW 2017   6.469   6.579   0.108
  373SOL    HW1 2018   6.409   6.613   0.180
  373SOL    HW2 2019   6.529   6.652   0.076
  374SOL     OW 2020   4.426   1.029   1.121
  374SOL    HW1 2021   4.328   1.015   1.134
  374SOL    HW2 2022   4.440   1.103   1.054
  375SOL     OW 2023   6.827   4.436   1.214
  375SOL    HW1 2024   6.868   4.484   1.136
  375SOL    HW2 2025   6.877   4.351   1.229
  376SOL     OW 2026   2.165   3.539   4.544
  376SOL    HW1 2027   2.149   3.452   4.591
  376SOL    HW2 2028   2.170   3.613   4.612
  377SOL     OW 2029   4.582   2.220   4.622
  377SOL    HW1 2030   4.570   2.150   4.552
  377SOL    HW2 2031   4.626   2.300   4.582
  378SOL     OW 2032   4.972   2.698   4.301
  378SOL    HW1 2033   4.873   2.682   4.309
  378SOL    HW2 2034   5.001   2.757   4.376
  379SOL     OW 2035   0.016   2.790   1.225
  379SOL    HW1 2036   6.993   2.705   1.255
  379SOL    HW2 2037   0.063   2.775   1.138
  380SOL     OW 2038   1.313   1.944   0.288
  380SOL    HW1 2039   1.269   1.857   0.311
  380SOL    HW2 2040   1.345   1.940   0.193
  381SOL     OW 2041   3.607   4.875   0.485
  381SOL    HW1 2042   3.619   4.822   0.401
  381SOL    HW2 2043   3.512   4.870   0.514
  382SOL     OW 2044   2.185   4.936   0.503
  382SOL    HW1 2045   2.240   4.852   0.505
  382SOL    HW2 2046   2.231   5.005   0.448
  383SOL     OW 2047   6.471   2.207   0.304
  383SOL    HW1 2048   6.569   2.222   0.293
  383SOL    HW2 2049   6.432   2.281   0.358
  384SOL     OW 2050   2.032   5.311   5.068
  384SOL    HW1 2051   2.038   5.402   5.027
  384SOL    HW2 2052   2.105   5.299   5.136
  385SOL     OW 2053   4.668   5.456   1.657
  385SOL    HW1 2054   4.694   5.372   1.705
  385SOL    HW2 2055   4.655   5.437   1.560
  386SOL     OW 2056   2.712   6.553   4.634
  386SOL    HW1 2057   2.683   6.567   4.539
  386SOL    HW2 2058   2.704   6.456   4.657
  387SOL     OW 2059   6.512   0.339   6.060
  387SOL    HW1 2060   6.463   0.284   6.128
  387SOL    HW2 2061   6.567   0.408   6.106
  388SOL     OW 2062   0.228   2.138   4.513
  388SOL    HW1 2063   0.171   2.219   4.497
  388SOL    HW2 2064   0.311   2.145   4.457
  389SOL     OW 2065   5.025   4.393   1.863
  389SOL    HW1 2066   4.936   4.438   1.855
  389SOL    HW2 2067   5.060   4.404   1.956
  390SOL     OW 2068   4.171   2.474   0.049
  390SOL    HW1 2069   4.082   2.515   0.033
  390SOL    HW2 2070   4.226   2.534   0.107
  391SOL     OW 2071   4.063   3.739   3.653
  391SOL    HW1 2072   3.981   3.681   3.655
  391SOL    HW2 2073   4.048   3.820   3.710
  392SOL     OW 2074   1.872   4.138   1.722
  392SOL    HW1 2075   1.957   4.162   1.675
  392SOL    HW2 2076   1.892   4.072   1.794
  393SOL     OW 2077   1.445   5.463   1.640
  393SOL    HW1 2078   1.522   5.413   1.680
  393SOL    HW2 2079   1.475   5.510   1.557
  394SOL     OW 2080   6.156   1.059   6.394
  394SOL    HW1 2081   6.081   1.091   6.337
  394SOL    HW2 2082   6.119   1.008   6.472
  395SOL     OW 2083   5.841   4.439   0.223
  395SOL    HW1 2084   5.917   4.391   0.267
  395SOL    HW2 2085   5.823   4.398   0.134
  396SOL     OW 2086   1.481   0.652   1.305
  396SOL    HW1 2087   1.476   0.691   1.397
  396SOL    HW2 2088   1.456   0.723   1.238
  397SOL     OW 2089   4.398   2.418   4.706
  397SOL    HW1 2090   4.311   2.369   4.719
  397SOL    HW2 2091   4.464   2.357   4.663
  398SOL     OW 2092   0.143   0.738   3.319
  398SOL    HW1 2093   0.111   0.648   3.347
  398SOL    HW2 2094   0.158   0.740   3.221
  399SOL     OW 2095   5.832   5.876   3.731
  399SOL    HW1 2096   5.837   5.930   3.816
  399SOL    HW2 2097   5.800   5.934   3.657
  400SOL     OW 2098   6.959   6.827   3.471
  400SOL    HW1 2099   6.938   6.777   3.555
  400SOL    HW2 2100   0.034   6.856   3.473
  401SOL     OW 2101   1.179   5.270   4.669
  401SOL    HW1 2102   1.109   5.308   4.608
  401SOL    HW2 2103   1.207   5.180   4.636
  402SOL     OW 2104   5.848   1.636   4.340
  402SOL    HW1 2105   5.845   1.536   4.329
  402SOL    HW2 2106   5.836   1.659   4.437
  403SOL     OW 2107   3.025   1.763   4.999
  403SOL    HW1 2108   3.031   1.736   5.095
  403SOL    HW2 2109   2.929   1.773   4.974
  404SOL     OW 2110   3.058   5.381   3.519
  404SOL    HW1 2111   3.085   5.285   3.514
  404SOL    HW2 2112   3.111   5.434   3.452
  405SOL     OW 2113   2.280   4.886   4.259
  405SOL    HW1 2114   2.369   4.914   4.296
  405SOL    HW2 2115   2.291   4.862   4.162
  406SOL     OW 2116   0.337   0.034   6.100
  406SOL    HW1 2117   0.402   0.058   6.027
  406SOL    HW2 2118   0.347   0.098   6.176
  407SOL     OW 2119   1.965   3.556   3.991
  407SOL    HW1 2120   1.980   3.653   3.975
  407SOL    HW2 2121   2.050   3.506   3.978
  408SOL     OW 2122   2.198   2.346   2.593
  408SOL    HW1 2123   2.203   2.421   2.527
  408SOL    HW2 2124   2.263   2.275   2.567
  409SOL     OW 2125   0.429   2.732   2.814
  409SOL    HW1 2126   0.413   2.736   2.913
  409SOL    HW2 2127   0.486   2.653   2.792
  410SOL     OW 2128   1.937   2.936   1.310
  410SOL    HW1 2129   1.965   3.030   1.327
  410SOL    HW2 2130   1.839   2.927   1.329
  411SOL     OW 2131   6.741   2.243   0.237
  411SOL    HW1 2132   6.809   2.174   0.260
  411SOL    HW2 2133   6.779   2.305   0.168
  412SOL     OW 2134   1.619   5.026   2.847
  412SOL    HW1 2135   1.562   5.097   2.806
  412SOL    HW2 2136   1.610   4.941   2.796
  413SOL     OW 2137   6.194   4.832   1.848
  413SOL    HW1 2138   6.206   4.765   1.775
  413SOL    HW2 2139   6.283   4.857   1.885
  414SOL     OW 2140   2.359   6.826   3.484
  414SOL    HW1 2141   2.437   6.772   3.456
  414SOL    HW2 2142   2.276   6.791   3.440
  415SOL     OW 2143   5.354   1.440   6.427
  415SOL    HW1 2144   5.347   1.523   6.483
  415SOL    HW2 2145   5.450   1.419   6.410
  416SOL     OW 2146   5.877   3.129   6.082
  416SOL    HW1 2147   5.851   3.033   6.088
  416SOL    HW2 2148   5.861   3.163   5.989
  417SOL     OW 2149   2.251   2.506   5.762
  417SOL    HW1 2150   2.317   2.559   5.708
  417SOL    HW2 2151   2.285   2.413   5.773
  418SOL     OW 2152   3.443   6.889   5.646
  418SOL    HW1 2153   3.352   6.930   5.637
  418SOL    HW2 2154   3.503   6.926   5.575
  419SOL     OW 2155   5.786   0.535   0.093
  419SOL    HW1 2156   5.831   0.620   0.120
  419SOL    HW2 2157   5.727   0.503   0.167
  420SOL     OW 2158   3.827   6.919   0.981
  420SOL    HW1 2159   3.809   6.993   1.046
  420SOL    HW2 2160   3.747   6.906   0.922
  421SOL     OW 2161   4.795   4.103   2.471
  421SOL    HW1 2162   4.805   4.192   2.425
  421SOL    HW2 2163   4.704   4.095   2.510
  422SOL     OW 2164   4.453   2.083   1.763
  422SOL    HW1 2165   4.365   2.064   1.807
  422SOL    HW2 2166   4.458   2.181   1.740
  423SOL     OW 2167   3.096   0.908   6.158
  423SOL    HW1 2168   3.178   0.857   6.184
  423SOL    HW2 2169   3.089   0.990   6.214
  424SOL     OW 2170   2.017   3.831   4.315
  424SOL    HW1 2171   1.952   3.866   4.248
  424SOL    HW2 2172   2.056   3.745   4.281
  425SOL     OW 2173   3.447   1.413   6.800
  425SOL    HW1 2174   3.528   1.416   6.859
  425SOL    HW2 2175   3.461   1.345   6.728
  426SOL     OW 2176   2.489   2.042   4.383
  426SOL    HW1 2177   2.447   2.069   4.469
  426SOL    HW2 2178   2.559   1.972   4.400
  427SOL     OW 2179   4.779   1.561   3.565
  427SOL    HW1 2180   4.837   1.641   3.548
  427SOL    HW2 2181   4.693   1.590   3.607
  428SOL     OW 2182   2.394   1.991   6.434
  428SOL    HW1 2183   2.423   2.071   6.486
  428SOL    HW2 2184   2.360   2.019   6.344
  429SOL     OW 2185   0.455   5.987   3.790
  429SOL    HW1 2186   0.513   6.068   3.797
  429SOL    HW2 2187   0.441   5.947   3.880
  430SOL     OW 2188   2.092   0.059   3.953
  430SOL    HW1 2189   2.057   0.132   3.894
  430SOL    HW2 2190   2.162   0.007   3.903
  431SOL     OW 2191   2.758   1.328   1.284
  431SOL    HW1 2192   2.731   1.422   1.306
  431SOL    HW2 2193   2.693   1.289   1.219
  432SOL     OW 2194   5.008   1.865   1.311
  432SOL    HW1 2195   5.025   1.943   1.250
  432SOL    HW2 2196   4.941   1.892   1.381
  433SOL     OW 2197   1.691   4.410   0.776
  433SOL    HW1 2198   1.633   4.361   0.711
  433SOL    HW2 2199   1.667   4.507   0.774
  434SOL     OW 2200   4.243   5.389   2.962
  434SOL    HW1 2201   4.261   5.389   2.863
  434SOL    HW2 2202   4.264   5.298   2.999
  435SOL     OW 2203   3.743   2.813   5.960
  435SOL    HW1 2204   3.702   2.825   6.050
  435SOL    HW2 2205   3.719   2.891   5.902
  436SOL     OW 2206   5.259   5.985   1.876
  436SOL    HW1 2207   5.279   6.001   1.972
  436SOL    HW2 2208   5.345   5.973   1.826
  437SOL     OW 2209   6.935   1.442   5.041
  437SOL    HW1 2210   6.948   1.418   4.944
  437SOL    HW2 2211   0.002   1.433   5.089
  438SOL     OW 2212   0.969   4.448   2.551
  438SOL    HW1 2213   0.926   4.378   2.608
  438SOL    HW2 2214   0.933   4.442   2.458
  439SOL     OW 2215   0.410   0.626   5.664
  439SOL    HW1 2216   0.493   0.583   5.698
  439SOL    HW2 2217   0.344   0.555   5.638
  440SOL     OW 2218   4.564   2.133   1.008
  440SOL    HW1 2219   4.540   2.200   0.938
  440SOL    HW2 2220   4.507   2.052   0.997
  441SOL     OW 2221   0.101   4.621   2.354
  441SOL    HW1 2222   0.139   4.611   2.446
  441SOL    HW2 2223   0.175   4.615   2.287
  442SOL     OW 2224   3.777   3.255   5.122
  442SOL    HW1 2225   3.851   3.275   5.059
  442SOL    HW2 2226   3.755   3.337   5.176
  443SOL     OW 2227   4.722   2.811   3.197
  443SOL    HW1 2228   4.804   2.755   3.206
  443SOL    HW2 2229   4.643   2.760   3.233
  444SOL     OW 2230   4.220   1.927   1.284
  444SOL    HW1 2231   4.210   1.866   1.205
  444SOL    HW2 2232   4.233   1.873   1.367
  445SOL     OW 2233   2.889   5.536   2.700
  445SOL    HW1 2234   2.891   5.449   2.749
  445SOL    HW2 2235   2.808   5.539   2.642
  446SOL     OW 2236   6.212   0.294   1.644
  446SOL    HW1 2237   6.302   0.255   1.626
  446SOL    HW2 2238   6.197   0.372   1.584
  447SOL     OW 2239   5.840   3.894   0.551
  447SOL    HW1 2240   5.805   3.953   0.478
  447SOL    HW2 2241   5.831   3.940   0.639
  448SOL     OW 2242   3.760   6.395   3.953
  448SOL    HW1 2243   3.668   6.395   3.912
  448SOL    HW2 2244   3.828   6.409   3.881
  449SOL     OW 2245   0.946   3.935   4.826
  449SOL    HW1 2246   1.028   3.973   4.869
  449SOL    HW2 2247   0.869   3.997   4.840
  450SOL     OW 2248   6.734   3.996   3.343
  450SOL    HW1 2249   6.744   4.095   3.342
  450SOL    HW2 2250   6.825   3.953   3.335
  451SOL     OW 2251   1.364   2.204   0.306
  451SOL    HW1 2252   1.402   2.224   0.396
  451SOL    HW2 2253   1.331   2.109   0.305
  452SOL     OW 2254   4.226   5.607   1.906
  452SOL    HW1 2255   4.136   5.651   1.908
  452SOL    HW2 2256   4.294   5.668   1.947
  453SOL     OW 2257   3.954   1.046   0.274
  453SOL    HW1 2258   4.017   0.989   0.326
  453SOL    HW2 2259   3.860   1.025   0.301
  454SOL     OW 2260   0.013   3.311   4.243
  454SOL    HW1 2261   0.031   3.370   4.165
  454SOL    HW2 2262   0.027   3.362   4.328
  455SOL     OW 2263   5.537   5.143   6.515
  455SOL    HW1 2264   5.458   5.114   6.568
  455SOL    HW2 2265   5.606   5.072   6.516
  456SOL     OW 2266   2.091   1.059   3.121
  456SOL    HW1 2267   2.053   1.143   3.082
  456SOL    HW2 2268   2.047   0.980   3.079
  457SOL     OW 2269   2.806   5.906   0.255
  457SOL    HW1 2270   2.882   5.848   0.227
  457SOL    HW2 2271   2.766   5.950   0.175
  458SOL     OW 2272   3.872   1.478   3.224
  458SOL    HW1 2273   3.884   1.577   3.209
  458SOL    HW2 2274   3.958   1.439   3.257
  459SOL     OW 2275   3.027   1.027   3.151
  459SOL    HW1 2276   3.117   1.066   3.165
  459SOL    HW2 2277   3.018   0.943   3.205
  460SOL     OW 2278   0.694   1.611   6.182
  460SOL    HW1 2279   0.778   1.607   6.236
  460SOL    HW2 2280   0.702   1.684   6.114
  461SOL     OW 2281   1.407   6.427   5.384
  461SOL    HW1 2282   1.498   6.466   5.372
  461SOL    HW2 2283   1.373   6.448   5.475
  462SOL     OW 2284   3.545   4.127   4.448
  462SOL    HW1 2285   3.540   4.090   4.540
  462SOL    HW2 2286   3.639   4.152   4.426
  463SOL     OW 2287   5.446   6.005   3.096
  463SOL    HW1 2288   5.367   6.064   3.112
  463SOL    HW2 2289   5.503   6.043   3.024
  464SOL     OW 2290   4.293   5.337   5.149
  464SOL    HW1 2291   4.355   5.381   5.215
  464SOL    HW2 2292   4.229   5.405   5.113
  465SOL     OW 2293   0.132   4.647   6.757
  465SOL    HW1 2294   0.133   4.559   6.709
  465SOL    HW2 2295   0.040   4.664   6.792
  466SOL     OW 2296   3.833   4.861   4.050
  466SOL    HW1 2297   3.840   4.855   3.950
  466SOL    HW2 2298   3.774   4.938   4.074
  467SOL     OW 2299   6.616   0.097   2.048
  467SOL    HW1 2300   6.707   0.100   2.006
  467SOL    HW2 2301   6.552   0.150   1.993
  468SOL     OW 2302   2.535   6.131   6.340
  468SOL    HW1 2303   2.587   6.066   6.396
  468SOL    HW2 2304   2.508   6.087   6.255
  469SOL     OW 2305   3.115   4.582   5.343
  469SOL    HW1 2306   3.058   4.593   5.262
  469SOL    HW2 2307   3.180   4.658   5.349
  470SOL     OW 2308   2.248   4.957   2.699
  470SOL    HW1 2309   2.246   5.005   2.611
  470SOL    HW2 2310   2.269   5.023   2.772
  471SOL     OW 2311   1.689   1.885   4.278
  471SOL    HW1 2312   1.730   1.890   4.187
  471SOL    HW2 2313   1.608   1.944   4.281
  472SOL     OW 2314   5.472   4.133   6.528
  472SOL    HW1 2315   5.406   4.072   6.571
  472SOL    HW2 2316   5.482   4.216   6.584
  473SOL     OW 2317   5.492   3.412   2.234
  473SOL    HW1 2318   5.398   3.406   2.269
  473SOL    HW2 2319   5.519   3.322   2.200
  474SOL     OW 2320   5.123   5.428   3.627
  474SOL    HW1 2321   5.173   5.346   3.599
  474SOL    HW2 2322   5.182   5.508   3.616
  475SOL     OW 2323   5.504   1.558   0.320
  475SOL    HW1 2324   5.404   1.567   0.322
  475SOL    HW2 2325   5.530   1.503   0.240
  476SOL     OW 2326   1.414   3.701   0.310
  476SOL    HW1 2327   1.512   3.712   0.328
  476SOL    HW2 2328   1.400   3.683   0.213
  477SOL     OW 2329   6.878   5.374   3.429
  477SOL    HW1 2330   6.916   5.418   3.510
  477SOL    HW2 2331   6.910   5.421   3.347
  478SOL     OW 2332   6.160   5.198   2.561
  478SOL    HW1 2333   6.217   5.274   2.592
  478SOL    HW2 2334   6.169   5.188   2.462
  479SOL     OW 2335   3.170   3.901   2.764
  479SOL    HW1 2336   3.179   3.939   2.672
  479SOL    HW2 2337   3.228   3.952   2.828
  480SOL     OW 2338   0.844   1.036   1.870
  480SOL    HW1 2339   0.885   1.127   1.867
  480SOL    HW2 2340   0.843   0.997   1.778
  481SOL     OW 2341   5.847   6.695   1.178
  481SOL    HW1 2342   5.924   6.731   1.230
  481SOL    HW2 2343   5.879   6.623   1.116
  482SOL     OW 2344   3.741   5.161   2.662
  482SOL    HW1 2345   3.715   5.094   2.592
  482SOL    HW2 2346   3.695   5.247   2.643
  483SOL     OW 2347   5.738   0.987   3.774
  483SOL    HW1 2348   5.801   0.936   3.715
  483SOL    HW2 2349   5.766   1.083   3.778
  484SOL     OW 2350   1.916   5.159   3.196
  484SOL    HW1 2351   1.986   5.201   3.139
  484SOL    HW2 2352   1.860   5.097   3.141
  485SOL     OW 2353   4.984   2.025   0.591
  485SOL    HW1 2354   4.902   2.056   0.639
  485SOL    HW2 2355   5.049   1.988   0.656
  486SOL     OW 2356   6.194   6.740   5.711
  486SOL    HW1 2357   6.100   6.717   5.738
  486SOL    HW2 2358   6.195   6.827   5.663
  487SOL     OW 2359   0.210   0.857   6.697
  487SOL    HW1 2360   0.142   0.862   6.771
  487SOL    HW2 2361   0.242   0.763   6.687
  488SOL     OW 2362   2.033   5.750   3.242
  488SOL    HW1 2363   2.028   5.728   3.144
  488SOL    HW2 2364   1.958   5.811   3.266
  489SOL     OW 2365   2.898   5.118   5.074
  489SOL    HW1 2366   2.916   5.095   5.169
  489SOL    HW2 2367   2.881   5.035   5.021
  490SOL     OW 2368   1.410   3.586   4.577
  490SOL    HW1 2369   1.473   3.558   4.504
  490SOL    HW2 2370   1.443   3.552   4.665
  491SOL     OW 2371   6.309   2.890   1.149
  491SOL    HW1 2372   6.306   2.985   1.181
  491SOL    HW2 2373   6.253   2.881   1.067
  492SOL     OW 2374   1.897   2.185   5.622
  492SOL    HW1 2375   1.952   2.119   5.673
  492SOL    HW2 2376   1.956   2.236   5.560
  493SOL     OW 2377   2.153   5.509   3.837
  493SOL    HW1 2378   2.130   5.514   3.740
  493SOL    HW2 2379   2.187   5.598   3.868
  494SOL     OW 2380   3.059   0.809   4.258
  494SOL    HW1 2381   3.131   0.740   4.244
  494SOL    HW2 2382   3.002   0.814   4.177
  495SOL     OW 2383   3.782   4.345   6.648
  495SOL    HW1 2384   3.733   4.283   6.709
  495SOL    HW2 2385   3.802   4.298   6.562
  496SOL     OW 2386   5.018   1.373   2.942
  496SOL    HW1 2387   5.104   1.407   2.906
  496SOL    HW2 2388   4.956   1.351   2.867
  497SOL     OW 2389   4.187   2.580   1.008
  497SOL    HW1 2390   4.204   2.645   1.082
  497SOL    HW2 2391   4.190   2.487   1.044
  498SOL     OW 2392   0.396   0.129   1.306
  498SOL    HW1 2393   0.494   0.127   1.329
  498SOL    HW2 2394   0.350   0.051   1.348
  499SOL     OW 2395   2.998   6.080   0.364
  499SOL    HW1 2396   2.923   6.037   0.313
  499SOL    HW2 2397   3.041   6.011   0.423
  500SOL     OW 2398   5.584   1.919   6.020
  500SOL    HW1 2399   5.659   1.966   5.973
  500SOL    HW2 2400   5.562   1.968   6.105
  501SOL     OW 2401   1.769   1.682   4.429
  501SOL    HW1 2402   1.864   1.700   4.457
  501SOL    HW2 2403   1.746   1.740   4.351
  502SOL     OW 2404   2.603   4.080   6.766
  502SOL    HW1 2405   2.657   4.005   6.804
  502SOL    HW2 2406   2.581   4.060   6.670
  503SOL     OW 2407   3.510   5.372   1.250
  503SOL    HW1 2408   3.575   5.379   1.173
  503SOL    HW2 2409   3.561   5.352   1.334
  504SOL     OW 2410   6.124   7.018   0.381
  504SOL    HW1 2411   6.164   0.007   0.472
  504SOL    HW2 2412   6.025   7.007   0.390
  505SOL     OW 2413   6.242   4.085   5.579
  505SOL    HW1 2414   6.170   4.049   5.638
  505SOL    HW2 2415   6.278   4.169   5.618
  506SOL     OW 2416   3.180   5.211   3.209
  506SOL    HW1 2417   3.087   5.246   3.209
  506SOL    HW2 2418   3.184   5.127   3.154
  507SOL     OW 2419   3.495   0.122   2.761
  507SOL    HW1 2420   3.419   0.061   2.783
  507SOL    HW2 2421   3.469   0.217   2.780
  508SOL     OW 2422   0.481   4.964   3.541
  508SOL    HW1 2423   0.481   4.940   3.444
  508SOL    HW2 2424   0.536   4.897   3.591
  509SOL     OW 2425   4.340   0.200   6.381
  509SOL    HW1 2426   4.365   0.280   6.437
  509SOL    HW2 2427   4.411   0.130   6.390
  510SOL     OW 2428   6.117   4.230   6.989
  510SOL    HW1 2429   6.164   4.255   0.053
  510SOL    HW2 2430   6.176   4.250   6.911
  511SOL     OW 2431   0.904   1.180   6.919
  511SOL    HW1 2432   0.888   1.174   7.017
  511SOL    HW2 2433   0.903   1.275   6.890
  512SOL     OW 2434   0.145   2.372   4.044
  512SOL    HW1 2435   0.165   2.342   4.137
  512SOL    HW2 2436   0.057   2.418   4.041
  513SOL     OW 2437   5.943   6.430   2.871
  513SOL    HW1 2438   6.038   6.408   2.892
  513SOL    HW2 2439   5.898   6.466   2.953
  514SOL     OW 2440   5.100   1.608   4.925
  514SOL    HW1 2441   5.126   1.532   4.985
  514SOL    HW2 2442   5.046   1.573   4.849
  515SOL     OW 2443   3.128   1.011   0.028
  515SOL    HW1 2444   3.047   1.036   6.996
  515SOL    HW2 2445   3.198   1.081   0.018
  516SOL     OW 2446   1.341   6.138   1.909
  516SOL    HW1 2447   1.424   6.191   1.921
  516SOL    HW2 2448   1.285   6.179   1.837
  517SOL     OW 2449   3.065   5.230   1.462
  517SOL    HW1 2450   3.071   5.254   1.365
  517SOL    HW2 2451   3.001   5.154   1.473
  518SOL     OW 2452   2.389   6.139   4.086
  518SOL    HW1 2453   2.428   6.061   4.036
  518SOL    HW2 2454   2.354   6.206   4.021
  519SOL     OW 2455   6.731   0.039   2.459
  519SOL    HW1 2456   6.669   7.008   2.400
  519SOL    HW2 2457   6.708   0.022   2.554
  520SOL     OW 2458   2.357   5.073   0.915
  520SOL    HW1 2459   2.343   5.166   0.882
  520SOL    HW2 2460   2.405   5.019   0.845
  521SOL     OW 2461   6.477   5.958   5.515
  521SOL    HW1 2462   6.481   5.875   5.459
  521SOL    HW2 2463   6.553   5.959   5.579
  522SOL     OW 2464   3.826   4.687   6.929
  522SOL    HW1 2465   3.856   4.620   6.862
  522SOL    HW2 2466   3.894   4.695   7.002
  523SOL     OW 2467   1.802   6.935   5.962
  523SOL    HW1 2468   1.897   6.963   5.976
  523SOL    HW2 2469   1.750   7.011   5.924
  524SOL     OW 2470   0.277   1.147   0.893
  524SOL    HW1 2471   0.219   1.201   0.832
  524SOL    HW2 2472   0.253   1.166   0.988
  525SOL     OW 2473   0.636   2.959   3.342
  525SOL    HW1 2474   0.669   2.993   3.253
  525SOL    HW2 2475   0.707   2.903   3.384
  526SOL     OW 2476   4.267   6.888   4.882
  526SOL    HW1 2477   4.338   6.817   4.885
  526SOL    HW2 2478   4.185   6.851   4.837
  527SOL     OW 2479   0.294   0.964   1.423
  527SOL    HW1 2480   0.288   0.960   1.324
  527SOL    HW2 2481   0.282   1.059   1.454
  528SOL     OW 2482   6.989   2.509   4.702
  528SOL    HW1 2483   6.891   2.521   4.692
  528SOL    HW2 2484   0.016   2.594   4.681
  529SOL     OW 2485   1.484   0.578   5.916
  529SOL    HW1 2486   1.396   0.624   5.905
  529SOL    HW2 2487   1.469   0.479   5.924
  530SOL     OW 2488   2.890   4.835   1.462
  530SOL    HW1 2489   2.869   4.758   1.522
  530SOL    HW2 2490   2.962   4.809   1.397
  531SOL     OW 2491   0.961   0.821   6.553
  531SOL    HW1 2492   0.981   0.848   6.647
  531SOL    HW2 2493   1.045   0.789   6.509
  532SOL     OW 2494   2.794   0.634   6.622
  532SOL    HW1 2495   2.774   0.536   6.620
  532SOL    HW2 2496   2.884   0.649   6.662
  533SOL     OW 2497   4.164   0.158   4.522
  533SOL    HW1 2498   4.093   0.159   4.451
  533SOL    HW2 2499   4.251   0.128   4.482
  534SOL     OW 2500   1.778   4.395   1.906
  534SOL    HW1 2501   1.770   4.403   1.806
  534SOL    HW2 2502   1.687   4.389   1.946
  535SOL     OW 2503   4.860   3.841   4.465
  535SOL    HW1 2504   4.860   3.882   4.373
  535SOL    HW2 2505   4.831   3.910   4.531
  536SOL     OW 2506   6.784   6.241   1.605
  536SOL    HW1 2507   6.798   6.340   1.604
  536SOL    HW2 2508   6.798   6.206   1.698
  537SOL     OW 2509   2.552   1.918   2.036
  537SOL    HW1 2510   2.560   1.944   1.939
  537SOL    HW2 2511   2.542   2.000   2.092
  538SOL     OW 2512   4.231   4.772   5.063
  538SOL    HW1 2513   4.192   4.743   5.150
  538SOL    HW2 2514   4.273   4.694   5.017
  539SOL     OW 2515   2.227   0.077   6.874
  539SOL    HW1 2516   2.182   0.166   6.876
  539SOL    HW2 2517   2.267   0.057   6.964
  540SOL     OW 2518   1.851   1.188   5.343
  540SOL    HW1 2519   1.806   1.277   5.335
  540SOL    HW2 2520   1.949   1.198   5.324
  541SOL     OW 2521   5.075   6.367   3.659
  541SOL    HW1 2522   4.990   6.398   3.616
  541SOL    HW2 2523   5.077   6.267   3.658
  542SOL     OW 2524   3.343   6.765   6.236
  542SOL    HW1 2525   3.380   6.830   6.170
  542SOL    HW2 2526   3.244   6.765   6.230
  543SOL     OW 2527   5.943   2.566   4.035
  543SOL    HW1 2528   5.869   2.501   4.053
  543SOL    HW2 2529   6.014   2.523   3.982
  544SOL     OW 2530   1.137   3.461   1.103
  544SOL    HW1 2531   1.188   3.427   1.182
  544SOL    HW2 2532   1.059   3.400   1.086
  545SOL     OW 2533   6.847   5.288   0.581
  545SOL    HW1 2534   6.808   5.339   0.658
  545SOL    HW2 2535   6.775   5.270   0.514
  546SOL     OW 2536   0.081   4.348   2.036
  546SOL    HW1 2537   0.162   4.396   2.003
  546SOL    HW2 2538   0.052   4.389   2.123
  547SOL     OW 2539   3.928   0.018   6.760
  547SOL    HW1 2540   3.962   0.108   6.733
  547SOL    HW2 2541   3.964   6.969   6.698
  548SOL     OW 2542   4.187   2.924   0.245
  548SOL    HW1 2543   4.203   2.954   0.338
  548SOL    HW2 2544   4.220   2.993   0.181
  549SOL     OW 2545   5.243   2.007   3.480
  549SOL    HW1 2546   5.341   2.003   3.463
  549SOL    HW2 2547   5.227   2.051   3.569
  550SOL     OW 2548   6.836   5.845   3.805
  550SOL    HW1 2549   6.744   5.813   3.826
  550SOL    HW2 2550   6.900   5.768   3.808
  551SOL     OW 2551   5.615   0.468   0.316
  551SOL    HW1 2552   5.589   0.551   0.364
  551SOL    HW2 2553   5.642   0.398   0.382
  552SOL     OW 2554   0.565   0.168   4.860
  552SOL    HW1 2555   0.539   0.100   4.928
  552SOL    HW2 2556   0.490   0.182   4.796
  553SOL     OW 2557   3.616   2.548   6.032
  553SOL    HW1 2558   3.536   2.602   6.005
  553SOL    HW2 2559   3.604   2.454   5.999
  554SOL     OW 2560   6.721   6.151   0.625
  554SOL    HW1 2561   6.730   6.118   0.531
  554SOL    HW2 2562   6.634   6.120   0.664
  555SOL     OW 2563   2.970   3.977   5.894
  555SOL    HW1 2564   2.911   3.910   5.849
  555SOL    HW2 2565   3.030   4.020   5.826
  556SOL     OW 2566   6.210   5.868   2.965
  556SOL    HW1 2567   6.254   5.794   2.915
  556SOL    HW2 2568   6.269   5.949   2.963
  557SOL     OW 2569   5.425   4.272   6.240
  557SOL    HW1 2570   5.434   4.199   6.173
  557SOL    HW2 2571   5.500   4.268   6.305
  558SOL     OW 2572   3.691   3.543   2.184
  558SOL    HW1 2573   3.769   3.481   2.189
  558SOL    HW2 2574   3.649   3.551   2.274
  559SOL     OW 2575   6.760   1.044   5.993
  559SOL    HW1 2576   6.836   1.105   6.016
  559SOL    HW2 2577   6.776   0.954   6.034
  560SOL     OW 2578   6.965   2.643   3.817
  560SOL    HW1 2579   7.019   2.571   3.773
  560SOL    HW2 2580   6.926   2.702   3.746
  561SOL     OW 2581   0.708   4.133   6.942
  561SOL    HW1 2582   0.803   4.118   6.968
  561SOL    HW2 2583   0.702   4.208   6.877
  562SOL     OW 2584   4.705   6.386   3.716
  562SOL    HW1 2585   4.659   6.436   3.789
  562SOL    HW2 2586   4.724   6.292   3.747
  563SOL     OW 2587   1.246   1.243   4.049
  563SOL    HW1 2588   1.298   1.219   3.967
  563SOL    HW2 2589   1.301   1.301   4.108
  564SOL     OW 2590   5.961   1.595   5.998
  564SOL    HW1 2591   6.007   1.638   5.921
  564SOL    HW2 2592   5.990   1.638   6.083
  565SOL     OW 2593   3.026   3.192   3.345
  565SOL    HW1 2594   2.978   3.105   3.340
  565SOL    HW2 2595   2.968   3.264   3.308
  566SOL     OW 2596   2.260   1.877   3.850
  566SOL    HW1 2597   2.297   1.960   3.892
  566SOL    HW2 2598   2.314   1.798   3.878
  567SOL     OW 2599   1.988   3.269   5.176
  567SOL    HW1 2600   2.050   3.198   5.207
  567SOL    HW2 2601   1.976   3.336   5.250
  568SOL     OW 2602   0.870   6.862   6.928
  568SOL    HW1 2603   0.835   6.892   7.016
  568SOL    HW2 2604   0.969   6.855   6.932
  569SOL     OW 2605   5.184   3.618   6.282
  569SOL    HW1 2606   5.260   3.669   6.322
  569SOL    HW2 2607   5.141   3.673   6.211
  570SOL     OW 2608   3.739   0.529   6.074
  570SOL    HW1 2609   3.726   0.505   5.978
  570SOL    HW2 2610   3.723   0.448   6.130
  571SOL     OW 2611   2.445   4.432   1.630
  571SOL    HW1 2612   2.492   4.366   1.572
  571SOL    HW2 2613   2.495   4.442   1.716
  572SOL     OW 2614   3.112   1.156   4.767
  572SOL    HW1 2615   3.094   1.069   4.812
  572SOL    HW2 2616   3.110   1.143   4.667
  573SOL     OW 2617   0.516   1.000   5.351
  573SOL    HW1 2618   0.603   0.951   5.360
  573SOL    HW2 2619   0.532   1.098   5.368
  574SOL     OW 2620   2.212   1.140   6.089
  574SOL    HW1 2621   2.212   1.206   6.164
  574SOL    HW2 2622   2.233   1.187   6.003
  575SOL     OW 2623   3.975   4.040   0.030
  575SOL    HW1 2624   3.979   4.138   0.047
  575SOL    HW2 2625   3.944   3.993   0.113
  576SOL     OW 2626   1.051   1.158   2.712
  576SOL    HW1 2627   1.081   1.121   2.625
  576SOL    HW2 2628   1.120   1.141   2.782
  577SOL     OW 2629   0.403   0.372   1.943
  577SOL    HW1 2630   0.329   0.414   1.996
  577SOL    HW2 2631   0.475   0.342   2.006
  578SOL     OW 2632   3.759   6.695   6.978
  578SOL    HW1 2633   3.725   6.756   0.029
  578SOL    HW2 2634   3.736   6.733   6.888
  579SOL     OW 2635   1.155   3.569   2.027
  579SOL    HW1 2636   1.070   3.547   2.075
  579SOL    HW2 2637   1.135   3.626   1.948
  580SOL     OW 2638   4.846   5.038   4.484
  580SOL    HW1 2639   4.880   5.112   4.425
  580SOL    HW2 2640   4.836   4.954   4.431
  581SOL     OW 2641   2.000   2.369   4.250
  581SOL    HW1 2642   2.068   2.415   4.193
  581SOL    HW2 2643   1.952   2.438   4.305
  582SOL     OW 2644   5.670   4.169   5.379
  582SOL    HW1 2645   5.600   4.131   5.441
  582SOL    HW2 2646   5.631   4.181   5.288
  583SOL     OW 2647   3.455   6.307   5.843
  583SOL    HW1 2648   3.501   6.313   5.754
  583SOL    HW2 2649   3.521   6.331   5.915
  584SOL     OW 2650   4.149   0.621   5.327
  584SOL    HW1 2651   4.193   0.685   5.391
  584SOL    HW2 2652   4.219   0.579   5.270
  585SOL     OW 2653   3.270   6.624   1.567
  585SOL    HW1 2654   3.302   6.535   1.600
  585SOL    HW2 2655   3.184   6.647   1.611
  586SOL     OW 2656   3.335   0.147   0.567
  586SOL    HW1 2657   3.362   0.238   0.537
  586SOL    HW2 2658   3.245   0.125   0.530
  587SOL     OW 2659   4.756   1.648   2.421
  587SOL    HW1 2660   4.741   1.612   2.329
  587SOL    HW2 2661   4.739   1.576   2.488
  588SOL     OW 2662   1.977   4.707   2.698
  588SOL    HW1 2663   1.952   4.632   2.638
  588SOL    HW2 2664   2.074   4.701   2.720
  589SOL     OW 2665   3.484   5.197   0.906
  589SOL    HW1 2666   3.524   5.149   0.827
  589SOL    HW2 2667   3.553   5.257   0.946
  590SOL     OW 2668   3.136   2.310   6.371
  590SOL    HW1 2669   3.133   2.318   6.471
  590SOL    HW2 2670   3.168   2.395   6.331
  591SOL     OW 2671   2.779   6.788   3.667
  591SOL    HW1 2672   2.833   6.834   3.738
  591SOL    HW2 2673   2.768   6.850   3.589
  592SOL     OW 2674   5.438   2.367   4.375
  592SOL    HW1 2675   5.489   2.305   4.435
  592SOL    HW2 2676   5.340   2.350   4.385
  593SOL     OW 2677   1.610   1.237   6.693
  593SOL    HW1 2678   1.609   1.285   6.605
  593SOL    HW2 2679   1.683   1.275   6.750
  594SOL     OW 2680   3.961   0.703   3.598
  594SOL    HW1 2681   3.992   0.681   3.505
  594SOL    HW2 2682   3.862   0.718   3.597
  595SOL     OW 2683   6.087   4.533   2.598
  595SOL    HW1 2684   6.148   4.493   2.667
  595SOL    HW2 2685   6.141   4.583   2.531
  596SOL     OW 2686   6.442   4.845   4.584
  596SOL    HW1 2687   6.402   4.841   4.676
  596SOL    HW2 2688   6.530   4.797   4.584
  597SOL     OW 2689   3.361   1.861   6.477
  597SOL    HW1 2690   3.292   1.848   6.547
  597SOL    HW2 2691   3.326   1.922   6.406
  598SOL     OW 2692   3.239   3.407   2.954
  598SOL    HW1 2693   3.260   3.502   2.931
  598SOL    HW2 2694   3.148   3.384   2.918
  599SOL     OW 2695   1.611   4.815   1.573
  599SOL    HW1 2696   1.692   4.871   1.588
  599SOL    HW2 2697   1.530   4.863   1.606
  600SOL     OW 2698   0.158   3.637   5.245
  600SOL    HW1 2699   0.168   3.537   5.241
  600SOL    HW2 2700   0.073   3.663   5.198
  601SOL     OW 2701   0.488   6.547   5.973
  601SOL    HW1 2702   0.439   6.614   6.029
  601SOL    HW2 2703   0.506   6.586   5.883
  602SOL     OW 2704   1.699   1.157   3.271
  602SOL    HW1 2705   1.645   1.073   3.279
  602SOL    HW2 2706   1.678   1.202   3.185
  603SOL     OW 2707   2.109   2.042   4.056
  603SOL    HW1 2708   2.099   2.125   4.112
  603SOL    HW2 2709   2.154   2.065   3.970
  604SOL     OW 2710   5.819   2.606   0.765
  604SOL    HW1 2711   5.912   2.576   0.783
  604SOL    HW2 2712   5.805   2.617   0.667
  605SOL     OW 2713   6.144   6.461   1.125
  605SOL    HW1 2714   6.129   6.555   1.091
  605SOL    HW2 2715   6.219   6.419   1.074
  606SOL     OW 2716   3.341   6.610   4.936
  606SOL    HW1 2717   3.270   6.669   4.975
  606SOL    HW2 2718   3.319   6.590   4.841
  607SOL     OW 2719   1.658   2.516   6.158
  607SOL    HW1 2720   1.604   2.449   6.208
  607SOL    HW2 2721   1.712   2.469   6.087
  608SOL     OW 2722   3.445   0.952   6.793
  608SOL    HW1 2723   3.463   0.932   6.889
  608SOL    HW2 2724   3.530   0.949   6.741
  609SOL     OW 2725   3.672   2.819   2.210
  609SOL    HW1 2726   3.633   2.853   2.124
  609SOL    HW2 2727   3.674   2.719   2.209
  610SOL     OW 2728   4.821   3.534   1.591
  610SOL    HW1 2729   4.732   3.488   1.593
  610SOL    HW2 2730   4.861   3.526   1.500
  611SOL     OW 2731   4.134   1.165   2.630
  611SOL    HW1 2732   4.082   1.107   2.693
  611SOL    HW2 2733   4.201   1.218   2.681
  612SOL     OW 2734   5.047   4.603   4.108
  612SOL    HW1 2735   5.074   4.699   4.111
  612SOL    HW2 2736   5.108   4.553   4.047
  613SOL     OW 2737   3.793   4.899   6.310
  613SOL    HW1 2738   3.770   4.843   6.230
  613SOL    HW2 2739   3.787   4.996   6.286
  614SOL     OW 2740   2.576   6.556   6.584
  614SOL    HW1 2741   2.498   6.497   6.567
  614SOL    HW2 2742   2.581   6.626   6.513
  615SOL     OW 2743   0.040   4.679   2.935
  615SOL    HW1 2744   6.991   4.658   3.003
  615SOL    HW2 2745   7.017   4.707   2.850
  616SOL     OW 2746   6.479   3.374   3.966
  616SOL    HW1 2747   6.499   3.277   3.954
  616SOL    HW2 2748   6.392   3.385   4.014
  617SOL     OW 2749   3.234   7.015   6.005
  617SOL    HW1 2750   3.166   6.942   5.992
  617SOL    HW2 2751   3.320   6.989   5.961
  618SOL     OW 2752   1.726   0.710   3.476
  618SOL    HW1 2753   1.648   0.769   3.495
  618SOL    HW2 2754   1.700   0.615   3.496
  619SOL     OW 2755   1.128   2.094   6.293
  619SOL    HW1 2756   1.048   2.053   6.249
  619SOL    HW2 2757   1.106   2.187   6.321
  620SOL     OW 2758   4.570   3.273   0.722
  620SOL    HW1 2759   4.597   3.354   0.670
  620SOL    HW2 2760   4.577   3.292   0.820
  621SOL     OW 2761   0.185   6.085   0.416
  621SOL    HW1 2762   0.131   6.075   0.499
  621SOL    HW2 2763   0.234   6.000   0.398
  622SOL     OW 2764   0.346   0.633   6.741
  622SOL    HW1 2765   0.299   0.545   6.735
  622SOL    HW2 2766   0.441   0.619   6.767
  623SOL     OW 2767   0.347   4.495   4.836
  623SOL    HW1 2768   0.430   4.513   4.784
  623SOL    HW2 2769   0.286   4.435   4.782
  624SOL     OW 2770   0.958   1.683   1.647
  624SOL    HW1 2771   1.035   1.654   1.703
  624SOL    HW2 2772   0.875   1.638   1.679
  625SOL     OW 2773   1.220   1.476   3.046
  625SOL    HW1 2774   1.213   1.569   3.082
  625SOL    HW2 2775   1.131   1.449   3.009
  626SOL     OW 2776   2.972   5.973   4.489
  626SOL    HW1 2777   2.934   5.996   4.399
  626SOL    HW2 2778   2.994   5.875   4.491
  627SOL     OW 2779   5.424   6.708   0.032
  627SOL    HW1 2780   5.351   6.769   0.062
  627SOL    HW2 2781   5.410   6.617   0.073
  628SOL     OW 2782   5.218   4.313   2.967
  628SOL    HW1 2783   5.138   4.331   2.909
  628SOL    HW2 2784   5.198   4.238   3.029
  629SOL     OW 2785   1.330   6.987   1.020
  629SOL    HW1 2786   1.371   0.047   1.062
  629SOL    HW2 2787   1.259   7.014   0.955
  630SOL     OW 2788   2.747   1.747   1.070
  630SOL    HW1 2789   2.844   1.758   1.090
  630SOL    HW2 2790   2.708   1.835   1.044
  631SOL     OW 2791   2.643   0.563   4.380
  631SOL    HW1 2792   2.706   0.637   4.402
  631SOL    HW2 2793   2.549   0.593   4.395
  632SOL     OW 2794   3.102   0.335   1.342
  632SOL    HW1 2795   3.034   0.266   1.316
  632SOL    HW2 2796   3.102   0.346   1.441
  633SOL     OW 2797   2.382   6.851   5.149
  633SOL    HW1 2798   2.361   6.835   5.246
  633SOL    HW2 2799   2.298   6.844   5.095
  634SOL     OW 2800   2.448   5.406   1.905
  634SOL    HW1 2801   2.475   5.311   1.890
  634SOL    HW2 2802   2.469   5.460   1.823
  635SOL     OW 2803   2.746   0.212   3.197
  635SOL    HW1 2804   2.785   0.252   3.280
  635SOL    HW2 2805   2.665   0.264   3.170
  636SOL     OW 2806   4.275   5.338   6.695
  636SOL    HW1 2807   4.203   5.336   6.626
  636SOL    HW2 2808   4.364   5.326   6.652
  637SOL     OW 2809   6.112   4.544   6.774
  637SOL    HW1 2810   6.177   4.513   6.844
  637SOL    HW2 2811   6.057   4.466   6.743
  638SOL     OW 2812   5.283   1.452   2.894
  638SOL    HW1 2813   5.284   1.477   2.991
  638SOL    HW2 2814   5.341   1.516   2.843
  639SOL     OW 2815   4.904   3.808   1.668
  639SOL    HW1 2816   4.855   3.728   1.634
  639SOL    HW2 2817   4.847   3.857   1.734
  640SOL     OW 2818   2.181   3.228   5.456
  640SOL    HW1 2819   2.173   3.324   5.430
  640SOL    HW2 2820   2.112   3.206   5.525
  641SOL     OW 2821   0.029   5.630   4.973
  641SOL    HW1 2822   7.012   5.594   4.887
  641SOL    HW2 2823   6.998   5.592   5.050
  642SOL     OW 2824   2.022   4.709   6.109
  642SOL    HW1 2825   1.953   4.717   6.037
  642SOL    HW2 2826   2.019   4.790   6.167
  643SOL     OW 2827   5.943   6.050   5.000
  643SOL    HW1 2828   5.874   5.995   4.954
  643SOL    HW2 2829   5.913   6.145   5.006
  644SOL     OW 2830   2.405   6.409   1.707
  644SOL    HW1 2831   2.426   6.349   1.784
  644SOL    HW2 2832   2.488   6.458   1.679
  645SOL     OW 2833   6.768   2.453   2.975
  645SOL    HW1 2834   6.680   2.494   3.001
  645SOL    HW2 2835   6.786   2.374   3.033
  646SOL     OW 2836   0.958   2.876   4.295
  646SOL    HW1 2837   0.891   2.802   4.294
  646SOL    HW2 2838   0.912   2.963   4.274
  647SOL     OW 2839   5.036   3.209   0.624
  647SOL    HW1 2840   5.126   3.171   0.645
  647SOL    HW2 2841   4.973   3.189   0.699
  648SOL     OW 2842   4.652   2.688   4.533
  648SOL    HW1 2843   4.575   2.725   4.584
  648SOL    HW2 2844   4.657   2.732   4.443
  649SOL     OW 2845   4.264   4.610   2.017
  649SOL    HW1 2846   4.198   4.645   1.950
  649SOL    HW2 2847   4.305   4.526   1.982
  650SOL     OW 2848   4.954   4.057   0.750
  650SOL    HW1 2849   5.005   4.092   0.828
  650SOL    HW2 2850   4.873   4.008   0.783
  651SOL     OW 2851   0.986   5.979   6.221
  651SOL    HW1 2852   0.895   5.954   6.189
  651SOL    HW2 2853   0.994   5.962   6.319
  652SOL     OW 2854   4.783   1.873   2.725
  652SOL    HW1 2855   4.795   1.941   2.797
  652SOL    HW2 2856   4.860   1.879   2.661
  653SOL     OW 2857   3.773   4.934   2.511
  653SOL    HW1 2858   3.738   4.915   2.419
  653SOL    HW2 2859   3.834   4.860   2.540
  654SOL     OW 2860   6.585   5.862   6.417
  654SOL    HW1 2861   6.546   5.923   6.485
  654SOL    HW2 2862   6.512   5.825   6.359
  655SOL     OW 2863   0.782   1.756   6.847
  655SOL    HW1 2864   0.760   1.823   6.776
  655SOL    HW2 2865   0.753   1.791   6.936
  656SOL     OW 2866   2.503   6.395   0.912
  656SOL    HW1 2867   2.589   6.359   0.877
  656SOL    HW2 2868   2.431   6.326   0.903
  657SOL     OW 2869   4.038   1.352   0.288
  657SOL    HW1 2870   4.056   1.380   0.194
  657SOL    HW2 2871   3.991   1.264   0.289
  658SOL     OW 2872   3.602   5.648   6.334
  658SOL    HW1 2873   3.655   5.658   6.418
  658SOL    HW2 2874   3.605   5.734   6.283
  659SOL     OW 2875   3.946   0.711   5.976
  659SOL    HW1 2876   3.914   0.617   5.985
  659SOL    HW2 2877   3.901   0.769   6.045
  660SOL     OW 2878   3.742   5.942   3.038
  660SOL    HW1 2879   3.789   6.002   2.973
  660SOL    HW2 2880   3.771   5.964   3.131
  661SOL     OW 2881   5.650   5.087   2.714
  661SOL    HW1 2882   5.746   5.105   2.733
  661SOL    HW2 2883   5.626   5.122   2.624
  662SOL     OW 2884   4.080   1.907   0.570
  662SOL    HW1 2885   4.162   1.892   0.516
  662SOL    HW2 2886   4.055   2.004   0.566
  663SOL     OW 2887   1.747   4.605   4.684
  663SOL    HW1 2888   1.685   4.610   4.762
  663SOL    HW2 2889   1.823   4.544   4.705
  664SOL     OW 2890   5.959   0.078   6.335
  664SOL    HW1 2891   6.016   0.099   6.255
  664SOL    HW2 2892   6.016   0.038   6.407
  665SOL     OW 2893   0.722   4.439   1.925
  665SOL    HW1 2894   0.625   4.424   1.938
  665SOL    HW2 2895   0.740   4.458   1.828
  666SOL     OW 2896   4.322   1.426   1.412
  666SOL    HW1 2897   4.300   1.491   1.485
  666SOL    HW2 2898   4.393   1.465   1.353
  667SOL     OW 2899   1.106   0.291   2.301
  667SOL    HW1 2900   1.169   0.311   2.226
  667SOL    HW2 2901   1.150   0.230   2.367
  668SOL     OW 2902   5.906   3.081   0.437
  668SOL    HW1 2903   5.859   3.112   0.355
  668SOL    HW2 2904   5.902   3.153   0.507
  669SOL     OW 2905   5.250   1.532   3.148
  669SOL    HW1 2906   5.176   1.474   3.181
  669SOL    HW2 2907   5.311   1.554   3.224
  670SOL     OW 2908   3.312   2.102   2.628
  670SOL    HW1 2909   3.278   2.113   2.535
  670SOL    HW2 2910   3.281   2.014   2.664
  671SOL     OW 2911   2.148   6.285   2.077
  671SOL    HW1 2912   2.105   6.278   2.167
  671SOL    HW2 2913   2.199   6.371   2.071
  672SOL     OW 2914   0.603   0.286   2.156
  672SOL    HW1 2915   0.628   0.381   2.173
  672SOL    HW2 2916   0.676   0.226   2.189
  673SOL     OW 2917   6.042   6.922   6.933
  673SOL    HW1 2918   6.079   7.013   6.953
  673SOL    HW2 2919   5.942   6.926   6.932
  674SOL     OW 2920   5.194   0.391   4.146
  674SOL    HW1 2921   5.155   0.334   4.218
  674SOL    HW2 2922   5.136   0.472   4.133
  675SOL     OW 2923   0.654   3.690   2.740
  675SOL    HW1 2924   0.642   3.604   2.790
  675SOL    HW2 2925   0.739   3.685   2.686
  676SOL     OW 2926   2.206   6.133   6.436
  676SOL    HW1 2927   2.118   6.162   6.399
  676SOL    HW2 2928   2.248   6.209   6.485
  677SOL     OW 2929   5.965   1.797   1.233
  677SOL    HW1 2930   5.925   1.804   1.142
  677SOL    HW2 2931   6.032   1.723   1.234
  678SOL     OW 2932   0.895   5.388   3.658
  678SOL    HW1 2933   0.885   5.347   3.567
  678SOL    HW2 2934   0.806   5.390   3.704
  679SOL     OW 2935   4.796   2.232   4.976
  679SOL    HW1 2936   4.884   2.189   4.999
  679SOL    HW2 2937   4.812   2.311   4.916
  680SOL     OW 2938   6.655   6.449   3.679
  680SOL    HW1 2939   6.743   6.477   3.640
  680SOL    HW2 2940   6.637   6.502   3.762
  681SOL     OW 2941   4.658   4.889   2.977
  681SOL    HW1 2942   4.655   4.870   3.075
  681SOL    HW2 2943   4.645   4.987   2.962
  682SOL     OW 2944   0.019   1.432   3.351
  682SOL    HW1 2945   6.971   1.407   3.420
  682SOL    HW2 2946   0.023   1.531   3.341
  683SOL     OW 2947   3.480   3.784   1.011
  683SOL    HW1 2948   3.414   3.853   0.980
  683SOL    HW2 2949   3.449   3.745   1.098
  684SOL     OW 2950   6.319   1.310   5.357
  684SOL    HW1 2951   6.274   1.260   5.431
  684SOL    HW2 2952   6.392   1.254   5.319
  685SOL     OW 2953   2.966   6.692   3.019
  685SOL    HW1 2954   2.969   6.786   2.986
  685SOL    HW2 2955   2.877   6.674   3.061
  686SOL     OW 2956   4.197   0.996   5.306
  686SOL    HW1 2957   4.253   1.079   5.297
  686SOL    HW2 2958   4.115   1.017   5.360
  687SOL     OW 2959   6.928   1.271   4.200
  687SOL    HW1 2960   6.870   1.279   4.282
  687SOL    HW2 2961   6.946   1.363   4.164
  688SOL     OW 2962   5.754   1.677   6.919
  688SOL    HW1 2963   5.723   1.693   6.826
  688SOL    HW2 2964   5.800   1.588   6.924
  689SOL     OW 2965   1.804   5.532   0.151
  689SOL    HW1 2966   1.840   5.613   0.197
  689SOL    HW2 2967   1.878   5.484   0.104
  690SOL     OW 2968   5.469   3.929   3.215
  690SOL    HW1 2969   5.491   3.902   3.121
  690SOL    HW2 2970   5.552   3.929   3.270
  691SOL     OW 2971   5.922   1.408   1.243
  691SOL    HW1 2972   5.846   1.348   1.222
  691SOL    HW2 2973   5.904   1.456   1.329
  692SOL     OW 2974   1.803   1.438   4.318
  692SOL    HW1 2975   1.725   1.377   4.336
  692SOL    HW2 2976   1.784   1.527   4.359
  693SOL     OW 2977   5.848   5.002   3.537
  693SOL    HW1 2978   5.856   5.086   3.590
  693SOL    HW2 2979   5.855   4.923   3.598
  694SOL     OW 2980   4.400   5.844   4.565
  694SOL    HW1 2981   4.425   5.928   4.613
  694SOL    HW2 2982   4.301   5.832   4.569
  695SOL     OW 2983   4.909   6.817   3.781
  695SOL    HW1 2984   4.964   6.739   3.810
  695SOL    HW2 2985   4.842   6.787   3.713
  696SOL     OW 2986   5.484   4.144   2.352
  696SOL    HW1 2987   5.451   4.236   2.373
  696SOL    HW2 2988   5.537   4.109   2.430
  697SOL     OW 2989   1.015   6.993   2.132
  697SOL    HW1 2990   1.027   6.894   2.132
  697SOL    HW2 2991   1.101   0.016   2.161
  698SOL     OW 2992   5.634   6.069   6.333
  698SOL    HW1 2993   5.685   5.983   6.318
  698SOL    HW2 2994   5.694   6.146   6.312
  699SOL     OW 2995   4.127   3.914   0.638
  699SOL    HW1 2996   4.145   3.974   0.715
  699SOL    HW2 2997   4.054   3.953   0.581
  700SOL     OW 2998   3.603   6.524   5.330
  700SOL    HW1 2999   3.505   6.526   5.349
  700SOL    HW2 3000   3.620   6.469   5.248
  701SOL     OW 3001   4.477   4.990   1.105
  701SOL    HW1 3002   4.534   4.909   1.116
  701SOL    HW2 3003   4.389   4.964   1.065
  702SOL     OW 3004   4.458   0.711   4.814
  702SOL    HW1 3005   4.372   0.677   4.851
  702SOL    HW2 3006   4.508   0.761   4.885
  703SOL     OW 3007   2.921   2.886   0.077
  703SOL    HW1 3008   2.978   2.952   0.029
  703SOL    HW2 3009   2.967   2.856   0.161
  704SOL     OW 3010   3.634   1.206   6.102
  704SOL    HW1 3011   3.619   1.267   6.024
  704SOL    HW2 3012   3.647   1.113   6.068
  705SOL     OW 3013   0.238   6.139   5.719
  705SOL    HW1 3014   0.229   6.223   5.772
  705SOL    HW2 3015   0.171   6.072   5.751
  706SOL     OW 3016   3.926   0.814   5.244
  706SOL    HW1 3017   3.993   0.747   5.279
  706SOL    HW2 3018   3.934   0.898   5.297
  707SOL     OW 3019   2.622   5.371   4.243
  707SOL    HW1 3020   2.634   5.469   4.262
  707SOL    HW2 3021   2.710   5.332   4.216
  708SOL     OW 3022   4.248   6.316   4.062
  708SOL    HW1 3023   4.173   6.251   4.070
  708SOL    HW2 3024   4.275   6.323   3.966
  709SOL     OW 3025   2.556   0.441   1.542
  709SOL    HW1 3026   2.607   0.359   1.517
  709SOL    HW2 3027   2.522   0.432   1.636
  710SOL     OW 3028   4.880   3.503   2.486
  710SOL    HW1 3029   4.857   3.564   2.410
  710SOL    HW2 3030   4.799   3.490   2.543
  711SOL     OW 3031   0.497   1.848   0.243
  711SOL    HW1 3032   0.474   1.913   0.316
  711SOL    HW2 3033   0.427   1.852   0.172
  712SOL     OW 3034   5.311   3.921   6.992
  712SOL    HW1 3035   5.361   3.864   6.927
  712SOL    HW2 3036   5.216   3.929   6.963
  713SOL     OW 3037   4.469   3.570   5.685
  713SOL    HW1 3038   4.400   3.528   5.744
  713SOL    HW2 3039   4.432   3.585   5.594
  714SOL     OW 3040   5.354   6.272   2.967
  714SOL    HW1 3041   5.453   6.265   2.954
  714SOL    HW2 3042   5.332   6.253   3.062
  715SOL     OW 3043   6.216   4.830   5.463
  715SOL    HW1 3044   6.159   4.751   5.488
  715SOL    HW2 3045   6.193   4.907   5.522
  716SOL     OW 3046   3.192   2.057   3.452
  716SOL    HW1 3047   3.208   2.095   3.361
  716SOL    HW2 3048   3.095   2.067   3.476
  717SOL     OW 3049   5.267   4.950   3.875
  717SOL    HW1 3050   5.170   4.929   3.868
  717SOL    HW2 3051   5.318   4.896   3.807
  718SOL     OW 3052   6.246   2.253   5.336
  718SOL    HW1 3053   6.313   2.317   5.298
  718SOL    HW2 3054   6.255   2.164   5.292
  719SOL     OW 3055   4.856   6.403   3.469
  719SOL    HW1 3056   4.843   6.472   3.399
  719SOL    HW2 3057   4.779   6.405   3.533
  720SOL     OW 3058   2.798   1.269   1.543
  720SOL    HW1 3059   2.788   1.269   1.443
  720SOL    HW2 3060   2.753   1.189   1.581
  721SOL     OW 3061   6.286   3.056   1.981
  721SOL    HW1 3062   6.319   3.150   1.995
  721SOL    HW2 3063   6.207   3.057   1.920
  722SOL     OW 3064   4.631   6.338   1.152
  722SOL    HW1 3065   4.651   6.293   1.065
  722SOL    HW2 3066   4.535   6.366   1.154
  723SOL     OW 3067   1.851   0.324   4.663
  723SOL    HW1 3068   1.834   0.396   4.595
  723SOL    HW2 3069   1.860   0.365   4.753
  724SOL     OW 3070   1.001   1.617   4.652
  724SOL    HW1 3071   1.083   1.566   4.626
  724SOL    HW2 3072   0.993   1.699   4.595
  725SOL     OW 3073   1.997   4.903   2.941
  725SOL    HW1 3074   1.954   4.987   2.907
  725SOL    HW2 3075   2.027   4.848   2.863
  726SOL     OW 3076   2.108   4.039   0.829
  726SOL    HW1 3077   2.081   3.943   0.819
  726SOL    HW2 3078   2.027   4.096   0.841
  727SOL     OW 3079   3.631   5.203   4.895
  727SOL    HW1 3080   3.613   5.156   4.809
  727SOL    HW2 3081   3.544   5.225   4.939
  728SOL     OW 3082   6.827   3.175   3.773
  728SOL    HW1 3083   6.904   3.189   3.836
  728SOL    HW2 3084   6.832   3.082   3.735
  729SOL     OW 3085   0.789   4.113   0.826
  729SOL    HW1 3086   0.749   4.195   0.785
  729SOL    HW2 3087   0.839   4.139   0.908
  730SOL     OW 3088   4.332   1.452   3.082
  730SOL    HW1 3089   4.424   1.455   3.042
  730SOL    HW2 3090   4.264   1.465   3.010
  731SOL     OW 3091   4.570   4.414   4.552
  731SOL    HW1 3092   4.494   4.476   4.570
  731SOL    HW2 3093   4.625   4.403   4.635
  732SOL     OW 3094   3.891   0.873   4.616
  732SOL    HW1 3095   3.982   0.838   4.637
  732SOL    HW2 3096   3.839   0.883   4.701
  733SOL     OW 3097   6.320   5.258   3.808
  733SOL    HW1 3098   6.251   5.284   3.740
  733SOL    HW2 3099   6.364   5.173   3.780
  734SOL     OW 3100   6.626   6.341   2.760
  734SOL    HW1 3101   6.715   6.317   2.721
  734SOL    HW2 3102   6.557   6.340   2.688
  735SOL     OW 3103   3.951   6.967   2.407
  735SOL    HW1 3104   3.859   6.975   2.368
  735SOL    HW2 3105   3.972   0.030   2.459
  736SOL     OW 3106   1.691   1.980   3.778
  736SOL    HW1 3107   1.724   1.906   3.718
  736SOL    HW2 3108   1.595   1.998   3.758
  737SOL     OW 3109   3.703   1.484   6.067
  737SOL    HW1 3110   3.783   1.425   6.073
  737SOL    HW2 3111   3.662   1.477   5.976
  738SOL     OW 3112   1.942   4.781   0.493
  738SOL    HW1 3113   2.011   4.853   0.496
  738SOL    HW2 3114   1.981   4.696   0.529
  739SOL     OW 3115   2.038   6.974   3.469
  739SOL    HW1 3116   2.050   0.050   3.494
  739SOL    HW2 3117   2.055   6.916   3.548
  740SOL     OW 3118   5.185   3.573   3.401
  740SOL    HW1 3119   5.245   3.582   3.481
  740SOL    HW2 3120   5.241   3.575   3.318
  741SOL     OW 3121   3.028   1.197   2.934
  741SOL    HW1 3122   3.004   1.113   2.983
  741SOL    HW2 3123   3.125   1.218   2.950
  742SOL     OW 3124   1.579   6.853   1.996
  742SOL    HW1 3125   1.651   6.891   2.054
  742SOL    HW2 3126   1.616   6.773   1.947
  743SOL     OW 3127   0.535   6.253   2.688
  743SOL    HW1 3128   0.600   6.178   2.703
  743SOL    HW2 3129   0.527   6.271   2.589
  744SOL     OW 3130   5.079   1.186   0.399
  744SOL    HW1 3131   5.133   1.140   0.469
  744SOL    HW2 3132   4.986   1.148   0.397
  745SOL     OW 3133   2.457   6.374   4.759
  745SOL    HW1 3134   2.386   6.323   4.711
  745SOL    HW2 3135   2.545   6.363   4.712
  746SOL     OW 3136   0.138   4.650   4.530
  746SOL    HW1 3137   0.108   4.726   4.588
  746SOL    HW2 3138   0.214   4.680   4.473
  747SOL     OW 3139   4.509   5.299   2.756
  747SOL    HW1 3140   4.529   5.264   2.664
  747SOL    HW2 3141   4.543   5.392   2.764
  748SOL     OW 3142   5.587   4.974   1.166
  748SOL    HW1 3143   5.506   4.952   1.111
  748SOL    HW2 3144   5.669   4.943   1.118
  749SOL     OW 3145   5.040   4.834   5.177
  749SOL    HW1 3146   5.045   4.921   5.225
  749SOL    HW2 3147   5.127   4.785   5.187
  750SOL     OW 3148   2.377   2.012   3.090
  750SOL    HW1 3149   2.283   2.041   3.108
  750SOL    HW2 3150   2.376   1.939   3.022
  751SOL     OW 3151   3.465   1.032   0.630
  751SOL    HW1 3152   3.463   0.984   0.542
  751SOL    HW2 3153   3.397   1.105   0.629
  752SOL     OW 3154   3.602   2.956   5.181
  752SOL    HW1 3155   3.527   2.987   5.123
  752SOL    HW2 3156   3.689   2.966   5.132
  753SOL     OW 3157   3.603   4.141   3.766
  753SOL    HW1 3158   3.659   4.218   3.797
  753SOL    HW2 3159   3.513   4.174   3.739
  754SOL     OW 3160   5.033   0.454   0.166
  754SOL    HW1 3161   5.003   0.488   0.077
  754SOL    HW2 3162   5.088   0.524   0.212
  755SOL     OW 3163   4.494   4.640   5.222
  755SOL    HW1 3164   4.465   4.641   5.318
  755SOL    HW2 3165   4.440   4.572   5.172
  756SOL     OW 3166   2.794   5.078   6.361
  756SOL    HW1 3167   2.866   5.029   6.410
  756SOL    HW2 3168   2.835   5.144   6.298
  757SOL     OW 3169   1.741   6.465   1.828
  757SOL    HW1 3170   1.829   6.419   1.831
  757SOL    HW2 3171   1.754   6.564   1.841
  758SOL     OW 3172   4.804   1.246   4.390
  758SOL    HW1 3173   4.753   1.169   4.429
  758SOL    HW2 3174   4.902   1.227   4.395
  759SOL     OW 3175   0.139   3.700   4.117
  759SOL    HW1 3176   0.073   3.758   4.069
  759SOL    HW2 3177   0.231   3.716   4.080
  760SOL     OW 3178   6.638   5.257   3.535
  760SOL    HW1 3179   6.723   5.295   3.499
  760SOL    HW2 3180   6.561   5.315   3.507
  761SOL     OW 3181   4.988   5.110   6.237
  761SOL    HW1 3182   5.049   5.039   6.272
  761SOL    HW2 3183   4.944   5.078   6.153
  762SOL     OW 3184   4.099   5.629   3.997
  762SOL    HW1 3185   4.111   5.609   4.094
  762SOL    HW2 3186   4.135   5.721   3.977
  763SOL     OW 3187   5.204   0.326   0.418
  763SOL    HW1 3188   5.159   0.246   0.457
  763SOL    HW2 3189   5.280   0.353   0.477
  764SOL     OW 3190   5.211   6.257   4.999
  764SOL    HW1 3191   5.167   6.187   4.942
  764SOL    HW2 3192   5.281   6.213   5.056
  765SOL     OW 3193   6.068   6.405   0.720
  765SOL    HW1 3194   6.033   6.498   0.709
  765SOL    HW2 3195   6.164   6.408   0.749
  766SOL     OW 3196   2.733   1.876   4.438
  766SOL    HW1 3197   2.793   1.926   4.501
  766SOL    HW2 3198   2.777   1.870   4.348
  767SOL     OW 3199   6.942   6.027   3.966
  767SOL    HW1 3200   0.007   6.049   3.919
  767SOL    HW2 3201   6.886   5.969   3.907
  768SOL     OW 3202   2.187   5.559   2.605
  768SOL    HW1 3203   2.168   5.642   2.553
  768SOL    HW2 3204   2.146   5.566   2.696
  769SOL     OW 3205   3.104   1.962   5.365
  769SOL    HW1 3206   3.140   2.036   5.422
  769SOL    HW2 3207   3.115   1.987   5.269
  770SOL     OW 3208   1.615   4.786   5.636
  770SOL    HW1 3209   1.551   4.771   5.712
  770SOL    HW2 3210   1.612   4.883   5.610
  771SOL     OW 3211   1.566   4.762   2.765
  771SOL    HW1 3212   1.625   4.729   2.839
  771SOL    HW2 3213   1.523   4.684   2.719
  772SOL     OW 3214   5.220   4.420   0.377
  772SOL    HW1 3215   5.282   4.427   0.455
  772SOL    HW2 3216   5.262   4.364   0.305
  773SOL     OW 3217   2.466   4.544   3.930
  773SOL    HW1 3218   2.452   4.525   4.028
  773SOL    HW2 3219   2.384   4.519   3.879
  774SOL     OW 3220   2.210   1.295   3.781
  774SOL    HW1 3221   2.196   1.356   3.703
  774SOL    HW2 3222   2.133   1.305   3.844
  775SOL     OW 3223   1.462   4.520   2.692
  775SOL    HW1 3224   1.467   4.511   2.791
  775SOL    HW2 3225   1.494   4.436   2.649
  776SOL     OW 3226   2.274   5.392   6.147
  776SOL    HW1 3227   2.282   5.444   6.063
  776SOL    HW2 3228   2.177   5.381   6.171
  777SOL     OW 3229   2.121   3.741   6.118
  777SOL    HW1 3230   2.159   3.722   6.208
  777SOL    HW2 3231   2.134   3.661   6.059
  778SOL     OW 3232   3.262   5.836   6.751
  778SOL    HW1 3233   3.274   5.790   6.839
  778SOL    HW2 3234   3.233   5.769   6.682
  779SOL     OW 3235   6.192   2.030   2.747
  779SOL    HW1 3236   6.164   2.029   2.651
  779SOL    HW2 3237   6.283   2.070   2.754
  780SOL     OW 3238   6.809   2.275   4.371
  780SOL    HW1 3239   6.795   2.372   4.391
  780SOL    HW2 3240   6.799   2.259   4.273
  781SOL     OW 3241   0.500   4.331   6.733
  781SOL    HW1 3242   0.476   4.425   6.710
  781SOL    HW2 3243   0.581   4.304   6.680
  782SOL     OW 3244   2.182   3.959   5.436
  782SOL    HW1 3245   2.253   4.024   5.463
  782SOL    HW2 3246   2.223   3.871   5.415
  783SOL     OW 3247   6.707   5.041   0.167
  783SOL    HW1 3248   6.608   5.031   0.176
  783SOL    HW2 3249   6.729   5.137   0.146
  784SOL     OW 3250   2.102   5.890   0.640
  784SOL    HW1 3251   2.060   5.890   0.550
  784SOL    HW2 3252   2.196   5.921   0.633
  785SOL     OW 3253   0.316   0.559   4.433
  785SOL    HW1 3254   0.234   0.566   4.376
  785SOL    HW2 3255   0.292   0.575   4.529
  786SOL     OW 3256   5.941   0.834   4.084
  786SOL    HW1 3257   5.866   0.892   4.055
  786SOL    HW2 3258   5.919   0.793   4.173
  787SOL     OW 3259   1.901   6.513   1.201
  787SOL    HW1 3260   1.862   6.441   1.258
  787SOL    HW2 3261   1.863   6.601   1.227
  788SOL     OW 3262   2.080   2.816   2.228
  788SOL    HW1 3263   2.160   2.864   2.266
  788SOL    HW2 3264   2.081   2.721   2.259
  789SOL     OW 3265   4.001   4.869   2.765
  789SOL    HW1 3266   3.995   4.858   2.864
  789SOL    HW2 3267   3.924   4.924   2.733
  790SOL     OW 3268   0.573   3.021   2.397
  790SOL    HW1 3269   0.550   3.005   2.493
  790SOL    HW2 3270   0.565   3.119   2.377
  791SOL     OW 3271   3.079   0.358   3.961
  791SOL    HW1 3272   3.172   0.366   3.997
  791SOL    HW2 3273   3.013   0.368   4.036
  792SOL     OW 3274   2.447   0.505   0.677
  792SOL    HW1 3275   2.461   0.433   0.608
  792SOL    HW2 3276   2.377   0.569   0.644
  793SOL     OW 3277   2.256   6.283   4.562
  793SOL    HW1 3278   2.273   6.185   4.574
  793SOL    HW2 3279   2.161   6.296   4.533
  794SOL     OW 3280   2.936   3.685   2.585
  794SOL    HW1 3281   2.892   3.595   2.582
  794SOL    HW2 3282   2.913   3.730   2.671
  795SOL     OW 3283   4.836   0.947   5.160
  795SOL    HW1 3284   4.903   0.878   5.188
  795SOL    HW2 3285   4.790   0.916   5.077
  796SOL     OW 3286   0.715   1.874   0.063
  796SOL    HW1 3287   0.776   1.946   0.097
  796SOL    HW2 3288   0.655   1.845   0.137
  797SOL     OW 3289   3.376   6.623   1.066
  797SOL    HW1 3290   3.335   6.676   1.140
  797SOL    HW2 3291   3.349   6.527   1.075
  798SOL     OW 3292   5.108   4.395   1.342
  798SOL    HW1 3293   5.134   4.414   1.437
  798SOL    HW2 3294   5.117   4.478   1.287
  799SOL     OW 3295   2.797   2.723   5.635
  799SOL    HW1 3296   2.881   2.751   5.681
  799SOL    HW2 3297   2.794   2.764   5.544
  800SOL     OW 3298   5.683   3.030   3.432
  800SOL    HW1 3299   5.637   2.944   3.454
  800SOL    HW2 3300   5.755   3.047   3.499
  801SOL     OW 3301   1.881   5.946   6.335
  801SOL    HW1 3302   1.941   5.921   6.412
  801SOL    HW2 3303   1.815   6.014   6.365
  802SOL     OW 3304   4.296   2.419   6.389
  802SOL    HW1 3305   4.346   2.392   6.471
  802SOL    HW2 3306   4.219   2.357   6.375
  803SOL     OW 3307   2.403   2.130   3.971
  803SOL    HW1 3308   2.427   2.165   4.062
  803SOL    HW2 3309   2.326   2.181   3.935
  804SOL     OW 3310   5.008   0.171   2.907
  804SOL    HW1 3311   5.008   0.242   2.978
  804SOL    HW2 3312   5.059   0.203   2.827
  805SOL     OW 3313   3.381   0.812   3.738
  805SOL    HW1 3314   3.393   0.912   3.737
  805SOL    HW2 3315   3.454   0.771   3.794
  806SOL     OW 3316   3.162   6.495   5.581
  806SOL    HW1 3317   3.149   6.531   5.488
  806SOL    HW2 3318   3.246   6.534   5.620
  807SOL     OW 3319   0.890   6.055   5.876
  807SOL    HW1 3320   0.824   6.005   5.933
  807SOL    HW2 3321   0.963   6.091   5.934
  808SOL     OW 3322   5.088   2.743   6.235
  808SOL    HW1 3323   5.012   2.718   6.175
  808SOL    HW2 3324   5.171   2.755   6.181
  809SOL     OW 3325   3.145   5.751   6.506
  809SOL    HW1 3326   3.102   5.699   6.580
  809SOL    HW2 3327   3.077   5.772   6.436
  810SOL     OW 3328   3.444   3.797   0.173
  810SOL    HW1 3329   3.516   3.859   0.203
  810SOL    HW2 3330   3.478   3.703   0.176
  811SOL     OW 3331   5.883   5.569   4.356
  811SOL    HW1 3332   5.861   5.666   4.370
  811SOL    HW2 3333   5.832   5.535   4.277
  812SOL     OW 3334   0.990   3.237   1.509
  812SOL    HW1 3335   0.961   3.295   1.433
  812SOL    HW2 3336   1.053   3.167   1.475
  813SOL     OW 3337   1.995   1.242   4.649
  813SOL    HW1 3338   1.984   1.153   4.606
  813SOL    HW2 3339   2.008   1.312   4.579
  814SOL     OW 3340   0.676   4.204   2.178
  814SOL    HW1 3341   0.661   4.106   2.187
  814SOL    HW2 3342   0.603   4.245   2.123
  815SOL     OW 3343   4.831   2.937   4.611
  815SOL    HW1 3344   4.778   2.903   4.689
  815SOL    HW2 3345   4.785   2.910   4.526
  816SOL     OW 3346   5.003   3.758   6.580
  816SOL    HW1 3347   5.042   3.773   6.489
  816SOL    HW2 3348   4.938   3.831   6.601
  817SOL     OW 3349   6.902   4.953   6.444
  817SOL    HW1 3350   6.893   4.984   6.539
  817SOL    HW2 3351   6.983   4.895   6.435
  818SOL     OW 3352   0.257   1.518   5.022
  818SOL    HW1 3353   0.183   1.497   4.958
  818SOL    HW2 3354   0.327   1.448   5.016
  819SOL     OW 3355   5.122   2.922   1.636
  819SOL    HW1 3356   5.024   2.938   1.624
  819SOL    HW2 3357   5.136   2.854   1.708
  820SOL     OW 3358   2.746   1.798   4.930
  820SOL    HW1 3359   2.675   1.829   4.866
  820SOL    HW2 3360   2.757   1.866   5.003
  821SOL     OW 3361   5.033   3.929   6.915
  821SOL    HW1 3362   4.958   3.864   6.927
  821SOL    HW2 3363   5.046   3.945   6.817
  822SOL     OW 3364   6.962   5.042   3.598
  822SOL    HW1 3365   6.923   5.035   3.506
  822SOL    HW2 3366   0.040   5.057   3.591
  823SOL     OW 3367   1.894   2.456   4.546
  823SOL    HW1 3368   1.863   2.508   4.465
  823SOL    HW2 3369   1.970   2.506   4.589
  824SOL     OW 3370   5.072   0.142   6.801
  824SOL    HW1 3371   5.006   0.144   6.877
  824SOL    HW2 3372   5.064   0.227   6.748
  825SOL     OW 3373   5.909   5.717   0.469
  825SOL    HW1 3374   5.945   5.773   0.544
  825SOL    HW2 3375   5.837   5.768   0.421
  826SOL     OW 3376   3.988   1.728   0.318
  826SOL    HW1 3377   4.058   1.689   0.378
  826SOL    HW2 3378   4.031   1.763   0.235
  827SOL     OW 3379   3.159   3.564   4.469
  827SOL    HW1 3380   3.226   3.565   4.544
  827SOL    HW2 3381   3.068   3.584   4.505
  828SOL     OW 3382   6.982   6.745   6.345
  828SOL    HW1 3383   7.005   6.751   6.248
  828SOL    HW2 3384   6.903   6.685   6.357
  829SOL     OW 3385   3.798   3.321   1.915
  829SOL    HW1 3386   3.827   3.258   1.987
  829SOL    HW2 3387   3.700   3.309   1.899
  830SOL     OW 3388   6.982   4.349   6.188
  830SOL    HW1 3389   0.059   4.338   6.172
  830SOL    HW2 3390   6.953   4.289   6.261
  831SOL     OW 3391   5.767   1.122   2.526
  831SOL    HW1 3392   5.739   1.185   2.599
  831SOL    HW2 3393   5.758   1.028   2.558
  832SOL     OW 3394   3.025   1.933   4.315
  832SOL    HW1 3395   2.946   1.925   4.254
  832SOL    HW2 3396   3.072   2.020   4.297
  833SOL     OW 3397   3.707   3.219   0.174
  833SOL    HW1 3398   3.619   3.236   0.129
  833SOL    HW2 3399   3.766   3.299   0.162
  834SOL     OW 3400   5.542   2.991   0.331
  834SOL    HW1 3401   5.448   3.015   0.309
  834SOL    HW2 3402   5.603   3.062   0.296
  835SOL     OW 3403   6.918   0.255   4.514
  835SOL    HW1 3404   6.961   0.208   4.437
  835SOL    HW2 3405   6.839   0.306   4.482
  836SOL     OW 3406   5.238   0.412   4.544
  836SOL    HW1 3407   5.186   0.385   4.626
  836SOL    HW2 3408   5.249   0.512   4.544
  837SOL     OW 3409   1.642   0.503   6.603
  837SOL    HW1 3410   1.566   0.533   6.661
  837SOL    HW2 3411   1.678   0.416   6.637
  838SOL     OW 3412   1.776   6.211   2.715
  838SOL    HW1 3413   1.826   6.237   2.798
  838SOL    HW2 3414   1.759   6.113   2.716
  839SOL     OW 3415   0.972   2.408   0.636
  839SOL    HW1 3416   0.908   2.371   0.569
  839SOL    HW2 3417   1.044   2.341   0.654
  840SOL     OW 3418   4.328   4.885   0.655
  840SOL    HW1 3419   4.418   4.857   0.622
  840SOL    HW2 3420   4.286   4.945   0.588
  841SOL     OW 3421   2.305   5.294   6.560
  841SOL    HW1 3422   2.405   5.296   6.556
  841SOL    HW2 3423   2.273   5.364   6.623
  842SOL     OW 3424   3.971   5.998   1.049
  842SOL    HW1 3425   4.058   5.950   1.034
  842SOL    HW2 3426   3.986   6.097   1.040
  843SOL     OW 3427   1.386   0.509   1.644
  843SOL    HW1 3428   1.310   0.550   1.695
  843SOL    HW2 3429   1.450   0.465   1.707
  844SOL     OW 3430   6.967   0.240   1.586
  844SOL    HW1 3431   7.004   0.223   1.495
  844SOL    HW2 3432   7.003   0.325   1.622
  845SOL     OW 3433   3.599   1.491   2.578
  845SOL    HW1 3434   3.578   1.541   2.662
  845SOL    HW2 3435   3.594   1.393   2.596
  846SOL     OW 3436   2.389   2.130   0.573
  846SOL    HW1 3437   2.358   2.224   0.586
  846SOL    HW2 3438   2.374   2.079   0.657
  847SOL     OW 3439   2.618   3.590   1.571
  847SOL    HW1 3440   2.600   3.642   1.487
  847SOL    HW2 3441   2.670   3.647   1.634
  848SOL     OW 3442   6.614   6.095   0.137
  848SOL    HW1 3443   6.655   6.173   0.090
  848SOL    HW2 3444   6.609   6.113   0.235
  849SOL     OW 3445   5.745   3.209   6.953
  849SOL    HW1 3446   5.719   3.113   6.960
  849SOL    HW2 3447   5.756   3.233   6.856
  850SOL     OW 3448   1.669   1.100   4.364
  850SOL    HW1 3449   1.768   1.111   4.353
  850SOL    HW2 3450   1.648   1.084   4.461
  851SOL     OW 3451   5.001   2.735   6.484
  851SOL    HW1 3452   5.030   2.747   6.389
  851SOL    HW2 3453   5.080   2.750   6.544
  852SOL     OW 3454   6.934   4.602   1.657
  852SOL    HW1 3455   6.907   4.588   1.752
  852SOL    HW2 3456   6.858   4.642   1.606
  853SOL     OW 3457   2.856   3.184   0.807
  853SOL    HW1 3458   2.904   3.113   0.755
  853SOL    HW2 3459   2.793   3.233   0.747
  854SOL     OW 3460   6.783   0.042   5.378
  854SOL    HW1 3461   6.831   6.982   5.344
  854SOL    HW2 3462   6.710   0.014   5.441
  855SOL     OW 3463   5.328   1.863   0.378
  855SOL    HW1 3464   5.328   1.787   0.312
  855SOL    HW2 3465   5.418   1.907   0.378
  856SOL     OW 3466   1.958   5.209   1.783
  856SOL    HW1 3467   1.978   5.297   1.741
  856SOL    HW2 3468   1.888   5.162   1.729
  857SOL     OW 3469   6.983   5.190   5.025
  857SOL    HW1 3470   6.969   5.215   5.120
  857SOL    HW2 3471   6.912   5.125   4.996
  858SOL     OW 3472   4.432   4.086   0.308
  858SOL    HW1 3473   4.495   4.041   0.244
  858SOL    HW2 3474   4.434   4.039   0.396
  859SOL     OW 3475   5.012   5.282   5.579
  859SOL    HW1 3476   4.943   5.302   5.510
  859SOL    HW2 3477   5.098   5.327   5.554
  860SOL     OW 3478   4.569   3.118   6.392
  860SOL    HW1 3479   4.616   3.182   6.331
  860SOL    HW2 3480   4.599   3.025   6.373
  861SOL     OW 3481   1.608   5.449   2.276
  861SOL    HW1 3482   1.547   5.473   2.352
  861SOL    HW2 3483   1.674   5.524   2.262
  862SOL     OW 3484   0.675   3.976   3.776
  862SOL    HW1 3485   0.669   3.888   3.823
  862SOL    HW2 3486   0.708   3.961   3.682
  863SOL     OW 3487   6.323   0.696   1.685
  863SOL    HW1 3488   6.375   0.630   1.739
  863SOL    HW2 3489   6.276   0.760   1.746
  864SOL     OW 3490   6.046   5.694   2.699
  864SOL    HW1 3491   5.971   5.627   2.704
  864SOL    HW2 3492   6.133   5.646   2.703
  865SOL     OW 3493   1.827   5.833   5.092
  865SOL    HW1 3494   1.884   5.832   5.174
  865SOL    HW2 3495   1.789   5.742   5.076
  866SOL     OW 3496   3.420   0.662   1.919
  866SOL    HW1 3497   3.426   0.563   1.932
  866SOL    HW2 3498   3.385   0.704   2.003
  867SOL     OW 3499   5.844   2.871   6.000
  867SOL    HW1 3500   5.865   2.841   6.093
  867SOL    HW2 3501   5.806   2.794   5.949
  868SOL     OW 3502   0.636   2.618   1.608
  868SOL    HW1 3503   0.627   2.709   1.649
  868SOL    HW2 3504   0.723   2.611   1.560
  869SOL     OW 3505   6.870   3.919   3.095
  869SOL    HW1 3506   6.927   3.892   3.172
  869SOL    HW2 3507   6.879   4.017   3.079
  870SOL     OW 3508   3.477   5.288   2.313
  870SOL    HW1 3509   3.429   5.200   2.314
  870SOL    HW2 3510   3.487   5.320   2.218
  871SOL     OW 3511   5.063   1.782   3.728
  871SOL    HW1 3512   5.111   1.706   3.772
  871SOL    HW2 3513   5.120   1.864   3.732
  872SOL     OW 3514   1.275   2.068   4.749
  872SOL    HW1 3515   1.359   2.022   4.779
  872SOL    HW2 3516   1.296   2.162   4.723
  873SOL     OW 3517   4.445   0.350   6.617
  873SOL    HW1 3518   4.530   0.392   6.583
  873SOL    HW2 3519   4.452   0.336   6.716
  874SOL     OW 3520   5.558   3.656   1.678
  874SOL    HW1 3521   5.525   3.562   1.669
  874SOL    HW2 3522   5.658   3.656   1.672
  875SOL     OW 3523   4.975   5.556   1.754
  875SOL    HW1 3524   4.938   5.580   1.664
  875SOL    HW2 3525   5.022   5.635   1.792
  876SOL     OW 3526   5.960   0.354   0.333
  876SOL    HW1 3527   5.956   0.318   0.240
  876SOL    HW2 3528   6.041   0.412   0.343
  877SOL     OW 3529   1.381   3.939   0.107
  877SOL    HW1 3530   1.326   3.908   0.185
  877SOL    HW2 3531   1.444   3.867   0.080
  878SOL     OW 3532   4.095   6.251   4.588
  878SOL    HW1 3533   4.099   6.313   4.667
  878SOL    HW2 3534   4.104   6.305   4.504
  879SOL     OW 3535   5.885   6.650   6.577
  879SOL    HW1 3536   5.823   6.696   6.513
  879SOL    HW2 3537   5.837   6.573   6.619
  880SOL     OW 3538   2.932   3.816   2.824
  880SOL    HW1 3539   3.025   3.851   2.807
  880SOL    HW2 3540   2.896   3.859   2.907
  881SOL     OW 3541   4.691   1.421   0.342
  881SOL    HW1 3542   4.752   1.499   0.333
  881SOL    HW2 3543   4.623   1.422   0.268
  882SOL     OW 3544   1.655   2.734   3.129
  882SOL    HW1 3545   1.672   2.786   3.045
  882SOL    HW2 3546   1.735   2.741   3.189
  883SOL     OW 3547   2.763   0.024   3.501
  883SOL    HW1 3548   2.775   0.122   3.518
  883SOL    HW2 3549   2.836   7.012   3.440
  884SOL     OW 3550   3.735   3.601   5.997
  884SOL    HW1 3551   3.702   3.554   5.915
  884SOL    HW2 3552   3.763   3.534   6.066
  885SOL     OW 3553   4.345   2.587   6.183
  885SOL    HW1 3554   4.400   2.664   6.215
  885SOL    HW2 3555   4.327   2.525   6.259
  886SOL     OW 3556   3.462   2.002   6.709
  886SOL    HW1 3557   3.409   2.084   6.688
  886SOL    HW2 3558   3.439   1.931   6.642
  887SOL     OW 3559   5.270   0.982   5.272
  887SOL    HW1 3560   5.212   1.035   5.334
  887SOL    HW2 3561   5.365   0.987   5.304
  888SOL     OW 3562   6.911   5.896   2.033
  888SOL    HW1 3563   6.885   5.967   2.098
  888SOL    HW2 3564   7.000   5.920   1.992
  889SOL     OW 3565   0.970   3.792   6.826
  889SOL    HW1 3566   0.899   3.769   6.893
  889SOL    HW2 3567   1.020   3.709   6.801
  890SOL     OW 3568   2.692   6.255   4.665
  890SOL    HW1 3569   2.761   6.212   4.722
  890SOL    HW2 3570   2.662   6.191   4.594
  891SOL     OW 3571   5.157   5.166   2.196
  891SOL    HW1 3572   5.250   5.192   2.169
  891SOL    HW2 3573   5.091   5.223   2.147
  892SOL     OW 3574   2.541   4.540   0.550
  892SOL    HW1 3575   2.465   4.603   0.533
  892SOL    HW2 3576   2.535   4.507   0.645
  893SOL     OW 3577   1.490   5.908   2.566
  893SOL    HW1 3578   1.524   5.943   2.479
  893SOL    HW2 3579   1.560   5.920   2.636
  894SOL     OW 3580   1.071   4.033   0.926
  894SOL    HW1 3581   1.160   3.988   0.924
  894SOL    HW2 3582   1.018   4.000   1.004
  895SOL     OW 3583   0.286   5.831   4.438
  895SOL    HW1 3584   0.262   5.908   4.379
  895SOL    HW2 3585   0.210   5.766   4.441
  896SOL     OW 3586   0.610   0.849   6.611
  896SOL    HW1 3587   0.519   0.890   6.609
  896SOL    HW2 3588   0.639   0.828   6.517
  897SOL     OW 3589   4.936   0.824   0.350
  897SOL    HW1 3590   4.937   0.724   0.358
  897SOL    HW2 3591   4.963   0.865   0.437
  898SOL     OW 3592   4.181   0.210   3.361
  898SOL    HW1 3593   4.163   0.195   3.458
  898SOL    HW2 3594   4.218   0.126   3.321
  899SOL     OW 3595   0.012   5.840   0.189
  899SOL    HW1 3596   0.090   5.781   0.170
  899SOL    HW2 3597   0.042   5.935   0.188
  900SOL     OW 3598   5.255   5.497   1.055
  900SOL    HW1 3599   5.187   5.423   1.058
  900SOL    HW2 3600   5.252   5.549   1.140
  901SOL     OW 3601   1.063   0.550   2.972
  901SOL    HW1 3602   1.010   0.522   2.892
  901SOL    HW2 3603   1.061   0.477   3.041
  902SOL     OW 3604   6.002   2.715   1.777
  902SOL    HW1 3605   5.980   2.745   1.684
  902SOL    HW2 3606   6.095   2.678   1.779
  903SOL     OW 3607   0.032   1.823   1.403
  903SOL    HW1 3608   0.019   1.729   1.372
  903SOL    HW2 3609   0.129   1.847   1.396
  904SOL     OW 3610   2.722   1.236   2.371
  904SOL    HW1 3611   2.809   1.218   2.417
  904SOL    HW2 3612   2.707   1.167   2.301
  905SOL     OW 3613   5.634   2.333   6.689
  905SOL    HW1 3614   5.670   2.251   6.645
  905SOL    HW2 3615   5.687   2.352   6.772
  906SOL     OW 3616   5.165   2.658   6.966
  906SOL    HW1 3617   5.119   2.744   6.941
  906SOL    HW2 3618   5.204   2.617   6.884
  907SOL     OW 3619   5.185   4.686   6.850
  907SOL    HW1 3620   5.235   4.654   6.769
  907SOL    HW2 3621   5.231   4.766   6.889
  908SOL     OW 3622   1.487   4.546   2.980
  908SOL    HW1 3623   1.475   4.637   3.019
  908SOL    HW2 3624   1.493   4.479   3.054
  909SOL     OW 3625   5.421   5.296   6.321
  909SOL    HW1 3626   5.461   5.229   6.383
  909SOL    HW2 3627   5.468   5.383   6.331
  910SOL     OW 3628   2.796   5.133   0.815
  910SOL    HW1 3629   2.834   5.041   0.812
  910SOL    HW2 3630   2.712   5.134   0.870
  911SOL     OW 3631   1.031   4.695   5.958
  911SOL    HW1 3632   1.050   4.660   5.866
  911SOL    HW2 3633   1.094   4.653   6.023
  912SOL     OW 3634   5.368   1.793   4.389
  912SOL    HW1 3635   5.317   1.707   4.387
  912SOL    HW2 3636   5.320   1.861   4.334
  913SOL     OW 3637   5.588   6.751   2.703
  913SOL    HW1 3638   5.542   6.732   2.616
  913SOL    HW2 3639   5.631   6.667   2.737
  914SOL     OW 3640   2.925   6.657   6.903
  914SOL    HW1 3641   2.834   6.623   6.879
  914SOL    HW2 3642   2.972   6.588   6.958
  915SOL     OW 3643   5.254   5.950   1.035
  915SOL    HW1 3644   5.232   5.927   1.129
  915SOL    HW2 3645   5.173   5.988   0.990
  916SOL     OW 3646   1.722   3.487   2.636
  916SOL    HW1 3647   1.653   3.539   2.686
  916SOL    HW2 3648   1.814   3.513   2.667
  917SOL     OW 3649   0.218   6.611   0.330
  917SOL    HW1 3650   0.310   6.639   0.356
  917SOL    HW2 3651   0.176   6.560   0.405
  918SOL     OW 3652   2.960   6.219   0.036
  918SOL    HW1 3653   3.053   6.224   0.074
  918SOL    HW2 3654   2.939   6.124   0.011
  919SOL     OW 3655   5.238   1.297   6.021
  919SOL    HW1 3656   5.230   1.396   6.027
  919SOL    HW2 3657   5.239   1.269   5.925
  920SOL     OW 3658   2.769   4.938   2.259
  920SOL    HW1 3659   2.713   4.978   2.187
  920SOL    HW2 3660   2.773   4.838   2.247
  921SOL     OW 3661   5.024   5.382   4.756
  921SOL    HW1 3662   4.965   5.464   4.760
  921SOL    HW2 3663   5.075   5.382   4.670
  922SOL     OW 3664   3.247   2.931   3.990
  922SOL    HW1 3665   3.328   2.935   4.049
  922SOL    HW2 3666   3.165   2.949   4.044
  923SOL     OW 3667   2.202   3.505   5.489
  923SOL    HW1 3668   2.137   3.519   5.564
  923SOL    HW2 3669   2.294   3.531   5.519
  924SOL     OW 3670   6.949   2.689   1.647
  924SOL    HW1 3671   6.898   2.720   1.728
  924SOL    HW2 3672   6.904   2.723   1.565
  925SOL     OW 3673   0.809   1.677   0.365
  925SOL    HW1 3674   0.881   1.677   0.295
  925SOL    HW2 3675   0.774   1.770   0.375
  926SOL     OW 3676   1.825   1.856   1.894
  926SOL    HW1 3677   1.759   1.810   1.835
  926SOL    HW2 3678   1.881   1.919   1.840
  927SOL     OW 3679   6.708   3.457   4.783
  927SOL    HW1 3680   6.676   3.474   4.690
  927SOL    HW2 3681   6.673   3.527   4.844
  928SOL     OW 3682   3.084   4.310   5.955
  928SOL    HW1 3683   3.074   4.238   6.023
  928SOL    HW2 3684   3.020   4.384   5.975
  929SOL     OW 3685   7.001   1.396   4.485
  929SOL    HW1 3686   6.929   1.463   4.467
  929SOL    HW2 3687   0.068   1.431   4.452
  930SOL     OW 3688   5.125   5.347   5.163
  930SOL    HW1 3689   5.220   5.313   5.166
  930SOL    HW2 3690   5.063   5.269   5.156
  931SOL     OW 3691   6.344   0.657   2.880
  931SOL    HW1 3692   6.372   0.598   2.804
  931SOL    HW2 3693   6.353   0.606   2.966
  932SOL     OW 3694   3.682   0.682   3.857
  932SOL    HW1 3695   3.633   0.607   3.901
  932SOL    HW2 3696   3.745   0.723   3.923
  933SOL     OW 3697   1.708   5.845   2.162
  933SOL    HW1 3698   1.744   5.759   2.198
  933SOL    HW2 3699   1.683   5.905   2.238
  934SOL     OW 3700   1.829   2.859   0.561
  934SOL    HW1 3701   1.898   2.901   0.621
  934SOL    HW2 3702   1.864   2.857   0.467
  935SOL     OW 3703   5.642   2.491   5.314
  935SOL    HW1 3704   5.653   2.512   5.412
  935SOL    HW2 3705   5.605   2.399   5.303
  936SOL     OW 3706   1.856   0.379   5.755
  936SOL    HW1 3707   1.909   0.343   5.678
  936SOL    HW2 3708   1.860   0.314   5.831
  937SOL     OW 3709   3.416   1.790   5.686
  937SOL    HW1 3710   3.341   1.727   5.665
  937SOL    HW2 3711   3.379   1.882   5.700
  938SOL     OW 3712   5.576   6.067   4.299
  938SOL    HW1 3713   5.636   6.144   4.323
  938SOL    HW2 3714   5.482   6.090   4.324
  939SOL     OW 3715   1.098   6.729   5.694
  939SOL    HW1 3716   1.016   6.786   5.690
  939SOL    HW2 3717   1.095   6.660   5.622
  940SOL     OW 3718   1.609   5.148   0.250
  940SOL    HW1 3719   1.634   5.109   0.338
  940SOL    HW2 3720   1.685   5.140   0.186
  941SOL     OW 3721   3.394   0.247   0.243
  941SOL    HW1 3722   3.392   0.324   0.306
  941SOL    HW2 3723   3.382   0.162   0.293
  942SOL     OW 3724   6.462   4.827   6.986
  942SOL    HW1 3725   6.364   4.841   6.973
  942SOL    HW2 3726   6.483   4.826   0.063
  943SOL     OW 3727   3.506   5.819   1.505
  943SOL    HW1 3728   3.565   5.747   1.543
  943SOL    HW2 3729   3.419   5.779   1.475
  944SOL     OW 3730   6.898   6.480   3.293
  944SOL    HW1 3731   6.869   6.534   3.214
  944SOL    HW2 3732   6.895   6.383   3.270
  945SOL     OW 3733   0.393   5.189   6.040
  945SOL    HW1 3734   0.368   5.140   5.957
  945SOL    HW2 3735   0.465   5.139   6.088
  946SOL     OW 3736   5.990   2.038   4.621
  946SOL    HW1 3737   6.045   2.120   4.634
  946SOL    HW2 3738   6.037   1.975   4.560
  947SOL     OW 3739   3.582   3.705   3.791
  947SOL    HW1 3740   3.625   3.780   3.841
  947SOL    HW2 3741   3.488   3.729   3.769
  948SOL     OW 3742   3.155   1.079   3.672
  948SOL    HW1 3743   3.190   1.107   3.583
  948SOL    HW2 3744   3.231   1.062   3.734
  949SOL     OW 3745   3.393   0.503   5.578
  949SOL    HW1 3746   3.404   0.538   5.671
  949SOL    HW2 3747   3.298   0.512   5.550
  950SOL     OW 3748   0.114   0.499   2.540
  950SOL    HW1 3749   0.156   0.511   2.630
  950SOL    HW2 3750   0.153   0.565   2.476
  951SOL     OW 3751   1.812   6.864   2.962
  951SOL    HW1 3752   1.844   6.950   2.922
  951SOL    HW2 3753   1.807   6.874   3.062
  952SOL     OW 3754   3.789   1.621   3.474
  952SOL    HW1 3755   3.838   1.569   3.404
  952SOL    HW2 3756   3.730   1.688   3.430
  953SOL     OW 3757   0.399   4.514   5.796
  953SOL    HW1 3758   0.433   4.592   5.848
  953SOL    HW2 3759   0.310   4.486   5.832
  954SOL     OW 3760   4.828   6.517   2.577
  954SOL    HW1 3761   4.784   6.507   2.488
  954SOL    HW2 3762   4.784   6.590   2.628
  955SOL     OW 3763   1.893   5.236   0.802
  955SOL    HW1 3764   1.820   5.226   0.870
  955SOL    HW2 3765   1.962   5.299   0.837
  956SOL     OW 3766   4.412   0.773   1.279
  956SOL    HW1 3767   4.430   0.866   1.245
  956SOL    HW2 3768   4.370   0.719   1.206
  957SOL     OW 3769   6.013   0.615   3.135
  957SOL    HW1 3770   6.057   0.545   3.192
  957SOL    HW2 3771   6.038   0.599   3.039
  958SOL     OW 3772   4.875   6.492   1.226
  958SOL    HW1 3773   4.962   6.445   1.214
  958SOL    HW2 3774   4.804   6.444   1.174
  959SOL     OW 3775   4.854   6.691   2.890
  959SOL    HW1 3776   4.921   6.765   2.892
  959SOL    HW2 3777   4.770   6.722   2.847
  960SOL     OW 3778   1.547   6.614   6.759
  960SOL    HW1 3779   1.544   6.711   6.782
  960SOL    HW2 3780   1.529   6.560   6.841
  961SOL     OW 3781   3.708   1.231   3.405
  961SOL    HW1 3782   3.739   1.137   3.391
  961SOL    HW2 3783   3.784   1.294   3.392
  962SOL     OW 3784   0.319   0.320   4.754
  962SOL    HW1 3785   0.223   0.345   4.765
  962SOL    HW2 3786   0.341   0.315   4.656
  963SOL     OW 3787   5.946   3.054   1.181
  963SOL    HW1 3788   5.877   3.096   1.122
  963SOL    HW2 3789   5.964   2.960   1.149
  964SOL     OW 3790   4.006   6.037   4.784
  964SOL    HW1 3791   4.098   6.008   4.760
  964SOL    HW2 3792   3.942   5.961   4.770
  965SOL     OW 3793   5.956   2.032   3.423
  965SOL    HW1 3794   5.871   2.041   3.475
  965SOL    HW2 3795   5.945   2.076   3.334
  966SOL     OW 3796   4.989   0.858   4.404
  966SOL    HW1 3797   5.016   0.950   4.378
  966SOL    HW2 3798   4.923   0.823   4.337
  967SOL     OW 3799   4.107   4.835   6.284
  967SOL    HW1 3800   4.203   4.860   6.290
  967SOL    HW2 3801   4.086   4.804   6.191
  968SOL     OW 3802   3.435   0.490   1.541
  968SOL    HW1 3803   3.399   0.428   1.610
  968SOL    HW2 3804   3.419   0.453   1.450
  969SOL     OW 3805   2.830   3.983   6.409
  969SOL    HW1 3806   2.919   3.968   6.366
  969SOL    HW2 3807   2.759   3.942   6.352
  970SOL     OW 3808   5.168   6.486   5.880
  970SOL    HW1 3809   5.103   6.560   5.861
  970SOL    HW2 3810   5.197   6.492   5.975
  971SOL     OW 3811   5.441   3.473   3.309
  971SOL    HW1 3812   5.499   3.500   3.232
  971SOL    HW2 3813   5.455   3.536   3.385
  972SOL     OW 3814   0.531   2.923   0.798
  972SOL    HW1 3815   0.456   2.861   0.817
  972SOL    HW2 3816   0.616   2.885   0.834
  973SOL     OW 3817   0.237   2.902   5.131
  973SOL    HW1 3818   0.241   2.804   5.150
  973SOL    HW2 3819   0.315   2.927   5.073
  974SOL     OW 3820   0.826   4.450   2.320
  974SOL    HW1 3821   0.902   4.459   2.255
  974SOL    HW2 3822   0.763   4.378   2.288
  975SOL     OW 3823   3.086   0.463   2.569
  975SOL    HW1 3824   3.097   0.365   2.585
  975SOL    HW2 3825   2.998   0.493   2.606
  976SOL     OW 3826   6.791   3.112   3.402
  976SOL    HW1 3827   6.869   3.162   3.440
  976SOL    HW2 3828   6.821   3.059   3.322
  977SOL     OW 3829   6.383   1.433   1.871
  977SOL    HW1 3830   6.459   1.425   1.807
  977SOL    HW2 3831   6.312   1.491   1.831
  978SOL     OW 3832   5.278   2.928   1.191
  978SOL    HW1 3833   5.360   2.985   1.196
  978SOL    HW2 3834   5.304   2.832   1.178
  979SOL     OW 3835   0.261   4.581   6.294
  979SOL    HW1 3836   0.199   4.508   6.265
  979SOL    HW2 3837   0.341   4.541   6.339
  980SOL     OW 3838   4.369   1.258   4.570
  980SOL    HW1 3839   4.416   1.317   4.635
  980SOL    HW2 3840   4.324   1.183   4.620
  981SOL     OW 3841   0.776   6.388   5.412
  981SOL    HW1 3842   0.800   6.397   5.316
  981SOL    HW2 3843   0.740   6.475   5.446
  982SOL     OW 3844   6.887   1.355   6.242
  982SOL    HW1 3845   6.928   1.334   6.331
  982SOL    HW2 3846   6.788   1.368   6.254
  983SOL     OW 3847   0.760   4.276   3.141
  983SOL    HW1 3848   0.753   4.179   3.115
  983SOL    HW2 3849   0.853   4.296   3.168
  984SOL     OW 3850   0.656   3.750   3.943
  984SOL    HW1 3851   0.676   3.655   3.919
  984SOL    HW2 3852   0.732   3.788   3.996
  985SOL     OW 3853   6.242   5.463   5.026
  985SOL    HW1 3854   6.196   5.376   5.008
  985SOL    HW2 3855   6.305   5.483   4.951
  986SOL     OW 3856   4.485   5.559   1.465
  986SOL    HW1 3857   4.551   5.524   1.399
  986SOL    HW2 3858   4.392   5.541   1.431
  987SOL     OW 3859   4.859   4.721   5.026
  987SOL    HW1 3860   4.927   4.749   5.094
  987SOL    HW2 3861   4.892   4.641   4.977
  988SOL     OW 3862   2.695   4.658   2.219
  988SOL    HW1 3863   2.711   4.574   2.271
  988SOL    HW2 3864   2.729   4.646   2.125
  989SOL     OW 3865   1.003   2.412   1.046
  989SOL    HW1 3866   1.052   2.488   1.004
  989SOL    HW2 3867   0.968   2.351   0.975
  990SOL     OW 3868   3.829   6.692   4.625
  990SOL    HW1 3869   3.757   6.642   4.577
  990SOL    HW2 3870   3.789   6.773   4.669
  991SOL     OW 3871   0.885   5.642   4.129
  991SOL    HW1 3872   0.792   5.661   4.161
  991SOL    HW2 3873   0.948   5.708   4.169
  992SOL     OW 3874   6.990   2.529   6.818
  992SOL    HW1 3875   6.974   2.435   6.787
  992SOL    HW2 3876   6.915   2.587   6.785
  993SOL     OW 3877   1.479   4.889   0.105
  993SOL    HW1 3878   1.409   4.943   0.058
  993SOL    HW2 3879   1.509   4.939   0.187
  994SOL     OW 3880   3.343   6.753   0.602
  994SOL    HW1 3881   3.358   6.852   0.598
  994SOL    HW2 3882   3.357   6.721   0.696
  995SOL     OW 3883   6.365   3.707   5.769
  995SOL    HW1 3884   6.434   3.768   5.806
  995SOL    HW2 3885   6.278   3.721   5.817
  996SOL     OW 3886   4.301   6.568   4.697
  996SOL    HW1 3887   4.384   6.586   4.751
  996SOL    HW2 3888   4.234   6.522   4.754
  997SOL     OW 3889   1.559   6.596   3.463
  997SOL    HW1 3890   1.520   6.506   3.480
  997SOL    HW2 3891   1.545   6.654   3.543
  998SOL     OW 3892   4.638   0.395   6.428
  998SOL    HW1 3893   4.689   0.324   6.379
  998SOL    HW2 3894   4.565   0.430   6.369
  999SOL     OW 3895   5.198   3.153   2.763
  999SOL    HW1 3896   5.271   3.199   2.813
  999SOL    HW2 3897   5.209   3.169   2.665
 1000SOL     OW 3898   5.246   1.883   2.063
 1000SOL    HW1 3899   5.189   1.941   2.121
 1000SOL    HW2 3900   5.277   1.935   1.984
 1001SOL     OW 3901   2.893   6.661   2.485
 1001SOL    HW1 3902   2.893   6.748   2.435
 1001SOL    HW2 3903   2.899   6.679   2.583
 1002SOL     OW 3904   4.141   2.746   1.257
 1002SOL    HW1 3905   4.109   2.828   1.211
 1002SOL    HW2 3906   4.066   2.681   1.267
 1003SOL     OW 3907   1.300   0.350   2.825
 1003SOL    HW1 3908   1.278   0.426   2.886
 1003SOL    HW2 3909   1.398   0.336   2.823
 1004SOL     OW 3910   5.001   1.217   4.635
 1004SOL    HW1 3911   5.031   1.127   4.665
 1004SOL    HW2 3912   4.904   1.229   4.655
 1005SOL     OW 3913   0.746   5.119   2.166
 1005SOL    HW1 3914   0.665   5.065   2.143
 1005SOL    HW2 3915   0.744   5.205   2.115
 1006SOL     OW 3916   2.087   4.162   1.566
 1006SOL    HW1 3917   2.045   4.148   1.476
 1006SOL    HW2 3918   2.139   4.080   1.592
 1007SOL     OW 3919   4.905   0.563   6.200
 1007SOL    HW1 3920   4.846   0.520   6.132
 1007SOL    HW2 3921   4.998   0.571   6.164
 1008SOL     OW 3922   0.679   5.042   4.996
 1008SOL    HW1 3923   0.627   5.126   4.982
 1008SOL    HW2 3924   0.757   5.040   4.934
 1009SOL     OW 3925   6.478   5.971   6.145
 1009SOL    HW1 3926   6.573   5.982   6.173
 1009SOL    HW2 3927   6.451   6.048   6.087
 1010SOL     OW 3928   3.248   3.709   0.519
 1010SOL    HW1 3929   3.208   3.709   0.610
 1010SOL    HW2 3930   3.188   3.659   0.456
 1011SOL     OW 3931   6.803   4.812   2.995
 1011SOL    HW1 3932   6.789   4.714   3.012
 1011SOL    HW2 3933   6.788   4.863   3.079
 1012SOL     OW 3934   5.670   6.450   2.679
 1012SOL    HW1 3935   5.749   6.466   2.738
 1012SOL    HW2 3936   5.699   6.397   2.599
 1013SOL     OW 3937   0.070   0.027   6.006
 1013SOL    HW1 3938   0.154   0.014   6.059
 1013SOL    HW2 3939   0.017   6.963   6.007
 1014SOL     OW 3940   0.977   4.757   4.767
 1014SOL    HW1 3941   1.045   4.766   4.840
 1014SOL    HW2 3942   0.918   4.679   4.786
 1015SOL     OW 3943   1.867   6.383   0.525
 1015SOL    HW1 3944   1.905   6.457   0.469
 1015SOL    HW2 3945   1.769   6.375   0.507
 1016SOL     OW 3946   7.000   3.847   0.701
 1016SOL    HW1 3947   0.034   3.932   0.702
 1016SOL    HW2 3948   0.039   3.770   0.678
 1017SOL     OW 3949   2.514   1.198   2.557
 1017SOL    HW1 3950   2.416   1.212   2.545
 1017SOL    HW2 3951   2.564   1.257   2.494
 1018SOL     OW 3952   5.962   6.292   3.885
 1018SOL    HW1 3953   5.896   6.283   3.961
 1018SOL    HW2 3954   6.053   6.268   3.918
 1019SOL     OW 3955   6.225   4.220   1.130
 1019SOL    HW1 3956   6.133   4.254   1.148
 1019SOL    HW2 3957   6.280   4.226   1.213
 1020SOL     OW 3958   5.007   1.290   1.070
 1020SOL    HW1 3959   4.967   1.313   0.980
 1020SOL    HW2 3960   5.101   1.324   1.074
 1021SOL     OW 3961   0.906   6.579   1.254
 1021SOL    HW1 3962   0.946   6.531   1.177
 1021SOL    HW2 3963   0.945   6.671   1.260
 1022SOL     OW 3964   2.481   5.416   6.344
 1022SOL    HW1 3965   2.511   5.333   6.389
 1022SOL    HW2 3966   2.397   5.397   6.293
 1023SOL     OW 3967   0.789   1.885   2.395
 1023SOL    HW1 3968   0.839   1.838   2.467
 1023SOL    HW2 3969   0.700   1.842   2.382
 1024SOL     OW 3970   1.575   2.124   4.145
 1024SOL    HW1 3971   1.583   2.222   4.128
 1024SOL    HW2 3972   1.486   2.091   4.112
 1025SOL     OW 3973   4.934   4.484   0.840
 1025SOL    HW1 3974   4.859   4.549   0.837
 1025SOL    HW2 3975   4.945   4.441   0.750
 1026SOL     OW 3976   2.875   2.904   1.700
 1026SOL    HW1 3977   2.968   2.879   1.724
 1026SOL    HW2 3978   2.852   2.991   1.743
 1027SOL     OW 3979   6.760   6.712   7.013
 1027SOL    HW1 3980   6.785   6.767   0.073
 1027SOL    HW2 3981   6.836   6.653   6.988
 1028SOL     OW 3982   1.183   5.944   2.632
 1028SOL    HW1 3983   1.206   6.001   2.710
 1028SOL    HW2 3984   1.249   5.959   2.559
 1029SOL     OW 3985   1.169   1.079   5.286
 1029SOL    HW1 3986   1.089   1.051   5.339
 1029SOL    HW2 3987   1.220   0.997   5.258
 1030SOL     OW 3988   3.874   3.570   0.985
 1030SOL    HW1 3989   3.971   3.588   0.965
 1030SOL    HW2 3990   3.865   3.479   1.026
 1031SOL     OW 3991   4.046   3.644   0.601
 1031SOL    HW1 3992   4.076   3.712   0.668
 1031SOL    HW2 3993   3.946   3.646   0.594
 1032SOL     OW 3994   1.892   1.559   0.518
 1032SOL    HW1 3995   1.916   1.583   0.612
 1032SOL    HW2 3996   1.972   1.571   0.459
 1033SOL     OW 3997   0.210   0.978   2.005
 1033SOL    HW1 3998   0.180   0.906   1.942
 1033SOL    HW2 3999   0.131   1.030   2.037
 1034SOL     OW 4000   3.337   1.099   5.055
 1034SOL    HW1 4001   3.432   1.107   5.025
 1034SOL    HW2 4002   3.325   1.147   5.141
 1035SOL     OW 4003   1.572   0.803   0.258
 1035SOL    HW1 4004   1.639   0.732   0.276
 1035SOL    HW2 4005   1.574   0.828   0.161
 1036SOL     OW 4006   4.616   1.355   1.516
 1036SOL    HW1 4007   4.631   1.440   1.567
 1036SOL    HW2 4008   4.593   1.377   1.421
 1037SOL     OW 4009   1.473   3.712   2.300
 1037SOL    HW1 4010   1.479   3.660   2.214
 1037SOL    HW2 4011   1.556   3.695   2.354
 1038SOL     OW 4012   1.944   5.854   0.394
 1038SOL    HW1 4013   1.856   5.844   0.346
 1038SOL    HW2 4014   2.014   5.801   0.346
 1039SOL     OW 4015   3.276   3.680   2.894
 1039SOL    HW1 4016   3.247   3.752   2.831
 1039SOL    HW2 4017   3.228   3.690   2.981
 1040SOL     OW 4018   3.613   1.792   3.382
 1040SOL    HW1 4019   3.669   1.873   3.396
 1040SOL    HW2 4020   3.528   1.817   3.335
 1041SOL     OW 4021   6.079   6.317   6.831
 1041SOL    HW1 4022   6.063   6.391   6.765
 1041SOL    HW2 4023   6.119   6.355   6.914
 1042SOL     OW 4024   5.496   4.217   3.417
 1042SOL    HW1 4025   5.468   4.278   3.491
 1042SOL    HW2 4026   5.418   4.164   3.386
 1043SOL     OW 4027   2.638   1.681   4.053
 1043SOL    HW1 4028   2.547   1.650   4.025
 1043SOL    HW2 4029   2.663   1.635   4.139
 1044SOL     OW 4030   6.020   5.060   1.818
 1044SOL    HW1 4031   5.935   5.028   1.776
 1044SOL    HW2 4032   6.075   4.981   1.845
 1045SOL     OW 4033   2.285   0.701   1.959
 1045SOL    HW1 4034   2.351   0.722   1.887
 1045SOL    HW2 4035   2.199   0.748   1.940
 1046SOL     OW 4036   2.967   2.402   1.272
 1046SOL    HW1 4037   2.909   2.360   1.341
 1046SOL    HW2 4038   3.056   2.355   1.269
 1047SOL     OW 4039   3.618   0.283   3.425
 1047SOL    HW1 4040   3.558   0.327   3.493
 1047SOL    HW2 4041   3.576   0.291   3.335
 1048SOL     OW 4042   0.894   0.253   1.911
 1048SOL    HW1 4043   0.833   0.182   1.944
 1048SOL    HW2 4044   0.892   0.331   1.973
 1049SOL     OW 4045   4.285   6.913   6.346
 1049SOL    HW1 4046   4.371   6.952   6.380
 1049SOL    HW2 4047   4.232   6.878   6.423
 1050SOL     OW 4048   3.341   0.445   4.157
 1050SOL    HW1 4049   3.398   0.509   4.209
 1050SOL    HW2 4050   3.258   0.426   4.209
 1051SOL     OW 4051   1.796   1.396   5.162
 1051SOL    HW1 4052   1.699   1.415   5.147
 1051SOL    HW2 4053   1.836   1.357   5.080
 1052SOL     OW 4054   3.853   1.407   0.495
 1052SOL    HW1 4055   3.918   1.408   0.419
 1052SOL    HW2 4056   3.772   1.355   0.468
 1053SOL     OW 4057   5.431   2.336   4.692
 1053SOL    HW1 4058   5.430   2.236   4.701
 1053SOL    HW2 4059   5.347   2.374   4.729
 1054SOL     OW 4060   4.129   5.222   6.361
 1054SOL    HW1 4061   4.043   5.177   6.335
 1054SOL    HW2 4062   4.112   5.318   6.380
 1055SOL     OW 4063   4.676   5.590   6.315
 1055SOL    HW1 4064   4.580   5.588   6.342
 1055SOL    HW2 4065   4.734   5.588   6.396
 1056SOL     OW 4066   3.393   3.806   6.593
 1056SOL    HW1 4067   3.486   3.797   6.558
 1056SOL    HW2 4068   3.395   3.816   6.692
 1057SOL     OW 4069   3.018   3.089   6.922
 1057SOL    HW1 4070   2.993   3.127   6.833
 1057SOL    HW2 4071   3.118   3.082   6.929
 1058SOL     OW 4072   2.977   2.148   2.112
 1058SOL    HW1 4073   2.927   2.229   2.083
 1058SOL    HW2 4074   3.018   2.105   2.031
 1059SOL     OW 4075   2.510   6.107   2.155
 1059SOL    HW1 4076   2.590   6.165   2.174
 1059SOL    HW2 4077   2.541   6.015   2.132
 1060SOL     OW 4078   6.283   0.908   5.167
 1060SOL    HW1 4079   6.266   0.847   5.089
 1060SOL    HW2 4080   6.337   0.859   5.236
 1061SOL     OW 4081   0.694   3.569   5.909
 1061SOL    HW1 4082   0.658   3.655   5.874
 1061SOL    HW2 4083   0.747   3.523   5.837
 1062SOL     OW 4084   3.253   5.199   4.610
 1062SOL    HW1 4085   3.224   5.131   4.541
 1062SOL    HW2 4086   3.293   5.151   4.688
 1063SOL     OW 4087   3.256   6.583   4.259
 1063SOL    HW1 4088   3.314   6.542   4.329
 1063SOL    HW2 4089   3.291   6.674   4.236
 1064SOL     OW 4090   1.148   3.090   0.342
 1064SOL    HW1 4091   1.133   3.180   0.383
 1064SOL    HW2 4092   1.137   3.020   0.412
 1065SOL     OW 4093   6.063   1.115   4.557
 1065SOL    HW1 4094   5.998   1.159   4.618
 1065SOL    HW2 4095   6.156   1.144   4.581
 1066SOL     OW 4096   5.122   6.575   0.673
 1066SOL    HW1 4097   5.121   6.586   0.573
 1066SOL    HW2 4098   5.038   6.613   0.711
 1067SOL     OW 4099   2.221   1.310   0.028
 1067SOL    HW1 4100   2.222   1.401   0.070
 1067SOL    HW2 4101   2.230   1.319   6.949
 1068SOL     OW 4102   6.720   2.743   1.114
 1068SOL    HW1 4103   6.625   2.719   1.137
 1068SOL    HW2 4104   6.732   2.737   1.015
 1069SOL     OW 4105   6.414   3.269   2.800
 1069SOL    HW1 4106   6.430   3.333   2.724
 1069SOL    HW2 4107   6.393   3.178   2.763
 1070SOL     OW 4108   1.043   0.787   1.930
 1070SOL    HW1 4109   1.017   0.883   1.933
 1070SOL    HW2 4110   1.081   0.760   2.019
 1071SOL     OW 4111   0.904   2.907   6.431
 1071SOL    HW1 4112   0.897   2.984   6.368
 1071SOL    HW2 4113   1.000   2.880   6.439
 1072SOL     OW 4114   1.650   1.511   2.339
 1072SOL    HW1 4115   1.574   1.574   2.330
 1072SOL    HW2 4116   1.673   1.500   2.435
 1073SOL     OW 4117   5.304   2.491   2.942
 1073SOL    HW1 4118   5.337   2.463   3.032
 1073SOL    HW2 4119   5.305   2.591   2.936
 1074SOL     OW 4120   2.818   5.088   1.538
 1074SOL    HW1 4121   2.747   5.129   1.480
 1074SOL    HW2 4122   2.843   4.998   1.501
 1075SOL     OW 4123   6.858   3.828   6.080
 1075SOL    HW1 4124   6.879   3.904   6.019
 1075SOL    HW2 4125   6.931   3.818   6.148
 1076SOL     OW 4126   2.008   4.485   5.092
 1076SOL    HW1 4127   2.097   4.463   5.051
 1076SOL    HW2 4128   2.001   4.583   5.107
 1077SOL     OW 4129   6.827   6.556   0.396
 1077SOL    HW1 4130   6.756   6.595   0.454
 1077SOL    HW2 4131   6.863   6.627   0.335
 1078SOL     OW 4132   6.498   6.124   4.713
 1078SOL    HW1 4133   6.406   6.129   4.752
 1078SOL    HW2 4134   6.554   6.197   4.753
 1079SOL     OW 4135   0.670   6.706   1.409
 1079SOL    HW1 4136   0.753   6.663   1.374
 1079SOL    HW2 4137   0.670   6.804   1.386
 1080SOL     OW 4138   4.040   6.625   0.616
 1080SOL    HW1 4139   4.120   6.638   0.558
 1080SOL    HW2 4140   3.961   6.669   0.574
 1081SOL     OW 4141   6.406   6.374   3.557
 1081SOL    HW1 4142   6.491   6.391   3.608
 1081SOL    HW2 4143   6.423   6.306   3.486
 1082SOL     OW 4144   3.994   0.015   0.356
 1082SOL    HW1 4145   4.070   0.060   0.404
 1082SOL    HW2 4146   4.017   6.941   0.337
 1083SOL     OW 4147   5.866   4.007   1.802
 1083SOL    HW1 4148   5.932   3.974   1.870
 1083SOL    HW2 4149   5.773   3.996   1.837
 1084SOL     OW 4150   5.352   0.145   5.612
 1084SOL    HW1 4151   5.414   0.081   5.568
 1084SOL    HW2 4152   5.352   0.129   5.711
 1085SOL     OW 4153   2.120   3.775   4.681
 1085SOL    HW1 4154   2.135   3.795   4.778
 1085SOL    HW2 4155   2.118   3.860   4.629
 1086SOL     OW 4156   5.255   5.375   0.651
 1086SOL    HW1 4157   5.254   5.453   0.714
 1086SOL    HW2 4158   5.332   5.384   0.589
 1087SOL     OW 4159   4.027   0.184   5.834
 1087SOL    HW1 4160   4.126   0.169   5.838
 1087SOL    HW2 4161   3.979   0.097   5.851
 1088SOL     OW 4162   6.793   5.083   4.086
 1088SOL    HW1 4163   6.848   5.094   4.003
 1088SOL    HW2 4164   6.698   5.107   4.066
 1089SOL     OW 4165   5.688   5.445   4.186
 1089SOL    HW1 4166   5.693   5.433   4.086
 1089SOL    HW2 4167   5.696   5.356   4.230
 1090SOL     OW 4168   5.815   2.255   5.145
 1090SOL    HW1 4169   5.717   2.239   5.156
 1090SOL    HW2 4170   5.865   2.212   5.221
 1091SOL     OW 4171   1.675   3.038   3.457
 1091SOL    HW1 4172   1.590   3.064   3.502
 1091SOL    HW2 4173   1.679   3.080   3.367
 1092SOL     OW 4174   0.456   6.211   0.676
 1092SOL    HW1 4175   0.405   6.126   0.689
 1092SOL    HW2 4176   0.409   6.267   0.608
 1093SOL     OW 4177   1.432   0.716   3.167
 1093SOL    HW1 4178   1.457   0.625   3.197
 1093SOL    HW2 4179   1.387   0.710   3.078
 1094SOL     OW 4180   0.225   0.216   2.985
 1094SOL    HW1 4181   0.323   0.198   2.977
 1094SOL    HW2 4182   0.175   0.158   2.921
 1095SOL     OW 4183   5.605   3.577   0.311
 1095SOL    HW1 4184   5.593   3.645   0.384
 1095SOL    HW2 4185   5.680   3.516   0.335
 1096SOL     OW 4186   1.704   5.203   1.993
 1096SOL    HW1 4187   1.769   5.192   2.069
 1096SOL    HW2 4188   1.670   5.297   1.991
 1097SOL     OW 4189   3.225   6.560   4.663
 1097SOL    HW1 4190   3.145   6.503   4.683
 1097SOL    HW2 4191   3.280   6.516   4.593
 1098SOL     OW 4192   6.859   3.750   0.326
 1098SOL    HW1 4193   6.762   3.751   0.351
 1098SOL    HW2 4194   6.907   3.822   0.376
 1099SOL     OW 4195   5.063   0.397   6.634
 1099SOL    HW1 4196   4.994   0.468   6.619
 1099SOL    HW2 4197   5.064   0.336   6.555
 1100SOL     OW 4198   4.766   2.027   4.335
 1100SOL    HW1 4199   4.704   2.095   4.294
 1100SOL    HW2 4200   4.802   1.967   4.263
 1101SOL     OW 4201   4.607   2.964   6.717
 1101SOL    HW1 4202   4.646   3.056   6.731
 1101SOL    HW2 4203   4.642   2.927   6.631
 1102SOL     OW 4204   2.812   0.531   3.388
 1102SOL    HW1 4205   2.760   0.596   3.442
 1102SOL    HW2 4206   2.788   0.541   3.291
 1103SOL     OW 4207   3.470   6.060   0.710
 1103SOL    HW1 4208   3.552   6.117   0.716
 1103SOL    HW2 4209   3.402   6.094   0.775
 1104SOL     OW 4210   6.582   2.612   3.736
 1104SOL    HW1 4211   6.590   2.708   3.765
 1104SOL    HW2 4212   6.489   2.580   3.754
 1105SOL     OW 4213   5.263   1.576   6.057
 1105SOL    HW1 4214   5.291   1.634   6.133
 1105SOL    HW2 4215   5.277   1.625   5.971
 1106SOL     OW 4216   6.308   1.515   0.739
 1106SOL    HW1 4217   6.312   1.614   0.749
 1106SOL    HW2 4218   6.221   1.490   0.695
 1107SOL     OW 4219   0.922   1.371   6.644
 1107SOL    HW1 4220   0.911   1.302   6.573
 1107SOL    HW2 4221   0.834   1.414   6.663
 1108SOL     OW 4222   2.411   0.805   4.176
 1108SOL    HW1 4223   2.453   0.845   4.095
 1108SOL    HW2 4224   2.482   0.771   4.238
 1109SOL     OW 4225   4.936   2.645   4.875
 1109SOL    HW1 4226   4.871   2.702   4.824
 1109SOL    HW2 4227   5.023   2.693   4.884
 1110SOL     OW 4228   1.778   1.254   2.146
 1110SOL    HW1 4229   1.738   1.205   2.069
 1110SOL    HW2 4230   1.829   1.189   2.203
 1111SOL     OW 4231   5.910   3.744   6.271
 1111SOL    HW1 4232   5.901   3.756   6.370
 1111SOL    HW2 4233   5.924   3.647   6.251
 1112SOL     OW 4234   5.497   0.341   2.495
 1112SOL    HW1 4235   5.494   0.335   2.595
 1112SOL    HW2 4236   5.586   0.310   2.462
 1113SOL     OW 4237   6.144   3.142   2.515
 1113SOL    HW1 4238   6.229   3.110   2.559
 1113SOL    HW2 4239   6.164   3.168   2.420
 1114SOL     OW 4240   3.812   3.952   4.775
 1114SOL    HW1 4241   3.791   3.869   4.826
 1114SOL    HW2 4242   3.877   4.007   4.826
 1115SOL     OW 4243   2.983   4.868   5.718
 1115SOL    HW1 4244   3.046   4.929   5.670
 1115SOL    HW2 4245   2.928   4.817   5.651
 1116SOL     OW 4246   4.207   0.039   0.069
 1116SOL    HW1 4247   4.223   0.019   6.993
 1116SOL    HW2 4248   4.110   0.056   0.084
 1117SOL     OW 4249   2.129   2.392   1.788
 1117SOL    HW1 4250   2.215   2.360   1.826
 1117SOL    HW2 4251   2.116   2.488   1.812
 1118SOL     OW 4252   4.182   5.966   6.970
 1118SOL    HW1 4253   4.118   5.888   6.972
 1118SOL    HW2 4254   4.147   6.034   6.906
 1119SOL     OW 4255   3.438   4.911   3.720
 1119SOL    HW1 4256   3.420   4.977   3.646
 1119SOL    HW2 4257   3.531   4.925   3.754
 1120SOL     OW 4258   6.834   3.244   1.202
 1120SOL    HW1 4259   6.793   3.187   1.273
 1120SOL    HW2 4260   6.867   3.329   1.241
 1121SOL     OW 4261   6.740   4.486   5.105
 1121SOL    HW1 4262   6.827   4.498   5.058
 1121SOL    HW2 4263   6.691   4.573   5.107
 1122SOL     OW 4264   6.029   1.915   1.891
 1122SOL    HW1 4265   5.993   1.996   1.936
 1122SOL    HW2 4266   6.093   1.869   1.952
 1123SOL     OW 4267   3.768   1.436   4.078
 1123SOL    HW1 4268   3.868   1.438   4.071
 1123SOL    HW2 4269   3.735   1.524   4.110
 1124SOL     OW 4270   2.345   2.705   4.083
 1124SOL    HW1 4271   2.306   2.793   4.054
 1124SOL    HW2 4272   2.360   2.707   4.182
 1125SOL     OW 4273   1.684   3.554   3.764
 1125SOL    HW1 4274   1.771   3.603   3.765
 1125SOL    HW2 4275   1.666   3.521   3.671
 1126SOL     OW 4276   4.252   4.950   4.422
 1126SOL    HW1 4277   4.336   5.003   4.434
 1126SOL    HW2 4278   4.230   4.944   4.325
 1127SOL     OW 4279   6.503   6.965   1.684
 1127SOL    HW1 4280   6.455   6.955   1.771
 1127SOL    HW2 4281   6.584   6.906   1.683
 1128SOL     OW 4282   4.727   1.514   4.818
 1128SOL    HW1 4283   4.751   1.571   4.897
 1128SOL    HW2 4284   4.810   1.483   4.772
 1129SOL     OW 4285   0.948   0.429   0.067
 1129SOL    HW1 4286   0.928   0.368   7.011
 1129SOL    HW2 4287   0.870   0.430   0.130
 1130SOL     OW 4288   2.341   4.568   2.048
 1130SOL    HW1 4289   2.251   4.545   2.084
 1130SOL    HW2 4290   2.332   4.634   1.974
 1131SOL     OW 4291   2.078   5.523   3.557
 1131SOL    HW1 4292   2.022   5.483   3.485
 1131SOL    HW2 4293   2.138   5.593   3.517
 1132SOL     OW 4294   2.124   1.812   2.608
 1132SOL    HW1 4295   2.126   1.731   2.550
 1132SOL    HW2 4296   2.206   1.867   2.593
 1133SOL     OW 4297   1.005   6.619   6.154
 1133SOL    HW1 4298   1.079   6.627   6.087
 1133SOL    HW2 4299   0.955   6.534   6.139
 1134SOL     OW 4300   3.573   6.072   1.505
 1134SOL    HW1 4301   3.542   5.977   1.504
 1134SOL    HW2 4302   3.572   6.107   1.599
 1135SOL     OW 4303   1.843   6.512   3.056
 1135SOL    HW1 4304   1.803   6.504   3.148
 1135SOL    HW2 4305   1.771   6.509   2.988
 1136SOL     OW 4306   1.500   5.334   2.612
 1136SOL    HW1 4307   1.458   5.413   2.567
 1136SOL    HW2 4308   1.476   5.335   2.709
 1137SOL     OW 4309   1.003   6.061   4.659
 1137SOL    HW1 4310   1.058   6.077   4.577
 1137SOL    HW2 4311   1.039   5.980   4.707
 1138SOL     OW 4312   1.672   3.857   5.140
 1138SOL    HW1 4313   1.729   3.935   5.114
 1138SOL    HW2 4314   1.595   3.849   5.077
 1139SOL     OW 4315   2.446   5.215   4.997
 1139SOL    HW1 4316   2.545   5.214   5.016
 1139SOL    HW2 4317   2.427   5.157   4.918
 1140SOL     OW 4318   2.018   2.163   1.513
 1140SOL    HW1 4319   2.107   2.202   1.535
 1140SOL    HW2 4320   1.978   2.212   1.436
 1141SOL     OW 4321   0.106   4.436   5.890
 1141SOL    HW1 4322   0.079   4.526   5.924
 1141SOL    HW2 4323   0.075   4.365   5.953
 1142SOL     OW 4324   1.527   6.353   1.986
 1142SOL    HW1 4325   1.532   6.377   2.082
 1142SOL    HW2 4326   1.603   6.395   1.937
 1143SOL     OW 4327   0.345   3.868   2.105
 1143SOL    HW1 4328   0.343   3.772   2.134
 1143SOL    HW2 4329   0.257   3.910   2.124
 1144SOL     OW 4330   5.368   4.284   0.187
 1144SOL    HW1 4331   5.436   4.306   0.117
 1144SOL    HW2 4332   5.371   4.186   0.208
 1145SOL     OW 4333   5.582   6.953   0.748
 1145SOL    HW1 4334   5.583   6.881   0.679
 1145SOL    HW2 4335   5.670   7.001   0.747
 1146SOL     OW 4336   1.177   0.967   1.203
 1146SOL    HW1 4337   1.172   0.925   1.112
 1146SOL    HW2 4338   1.136   0.905   1.270
 1147SOL     OW 4339   1.866   6.516   0.794
 1147SOL    HW1 4340   1.777   6.561   0.793
 1147SOL    HW2 4341   1.882   6.471   0.706
 1148SOL     OW 4342   4.335   5.847   3.185
 1148SOL    HW1 4343   4.316   5.810   3.276
 1148SOL    HW2 4344   4.313   5.778   3.116
 1149SOL     OW 4345   4.941   3.213   1.742
 1149SOL    HW1 4346   4.861   3.208   1.682
 1149SOL    HW2 4347   4.969   3.120   1.768
 1150SOL     OW 4348   1.406   3.432   0.465
 1150SOL    HW1 4349   1.397   3.526   0.499
 1150SOL    HW2 4350   1.406   3.368   0.542
 1151SOL     OW 4351   5.972   5.306   4.461
 1151SOL    HW1 4352   6.062   5.324   4.500
 1151SOL    HW2 4353   5.942   5.384   4.407
 1152SOL     OW 4354   3.351   6.660   6.539
 1152SOL    HW1 4355   3.261   6.624   6.562
 1152SOL    HW2 4356   3.358   6.755   6.570
 1153SOL     OW 4357   5.598   6.607   2.018
 1153SOL    HW1 4358   5.636   6.658   1.941
 1153SOL    HW2 4359   5.516   6.654   2.052
 1154SOL     OW 4360   2.568   2.688   0.434
 1154SOL    HW1 4361   2.626   2.716   0.358
 1154SOL    HW2 4362   2.566   2.588   0.439
 1155SOL     OW 4363   3.814   5.980   4.114
 1155SOL    HW1 4364   3.755   5.945   4.041
 1155SOL    HW2 4365   3.853   5.904   4.165
 1156SOL     OW 4366   2.668   1.587   2.717
 1156SOL    HW1 4367   2.687   1.495   2.681
 1156SOL    HW2 4368   2.628   1.578   2.809
 1157SOL     OW 4369   2.635   1.249   0.584
 1157SOL    HW1 4370   2.622   1.156   0.616
 1157SOL    HW2 4371   2.669   1.306   0.659
 1158SOL     OW 4372   5.966   4.290   3.093
 1158SOL    HW1 4373   5.950   4.207   3.039
 1158SOL    HW2 4374   5.950   4.270   3.190
 1159SOL     OW 4375   6.680   5.051   0.506
 1159SOL    HW1 4376   6.763   5.016   0.462
 1159SOL    HW2 4377   6.652   5.136   0.462
 1160SOL     OW 4378   5.068   2.247   0.233
 1160SOL    HW1 4379   4.986   2.207   0.274
 1160SOL    HW2 4380   5.149   2.203   0.271
 1161SOL     OW 4381   6.490   5.069   1.080
 1161SOL    HW1 4382   6.407   5.102   1.034
 1161SOL    HW2 4383   6.558   5.043   1.012
 1162SOL     OW 4384   2.609   2.170   4.643
 1162SOL    HW1 4385   2.697   2.141   4.679
 1162SOL    HW2 4386   2.536   2.127   4.696
 1163SOL     OW 4387   5.713   2.567   1.212
 1163SOL    HW1 4388   5.729   2.664   1.197
 1163SOL    HW2 4389   5.768   2.535   1.290
 1164SOL     OW 4390   4.087   2.647   6.137
 1164SOL    HW1 4391   4.184   2.649   6.116
 1164SOL    HW2 4392   4.071   2.692   6.225
 1165SOL     OW 4393   4.476   6.806   3.434
 1165SOL    HW1 4394   4.543   6.877   3.454
 1165SOL    HW2 4395   4.401   6.812   3.500
 1166SOL     OW 4396   2.831   4.586   6.448
 1166SOL    HW1 4397   2.798   4.598   6.541
 1166SOL    HW2 4398   2.754   4.590   6.384
 1167SOL     OW 4399   4.819   4.613   2.607
 1167SOL    HW1 4400   4.840   4.572   2.518
 1167SOL    HW2 4401   4.866   4.700   2.616
 1168SOL     OW 4402   7.013   0.104   2.532
 1168SOL    HW1 4403   6.924   0.066   2.507
 1168SOL    HW2 4404   0.061   0.031   2.535
 1169SOL     OW 4405   4.350   1.410   5.315
 1169SOL    HW1 4406   4.252   1.392   5.320
 1169SOL    HW2 4407   4.401   1.324   5.327
 1170SOL     OW 4408   4.854   5.108   2.860
 1170SOL    HW1 4409   4.876   5.071   2.951
 1170SOL    HW2 4410   4.935   5.107   2.802
 1171SOL     OW 4411   0.121   6.472   0.549
 1171SOL    HW1 4412   0.152   6.414   0.625
 1171SOL    HW2 4413   0.033   6.513   0.572
 1172SOL     OW 4414   6.927   3.176   6.425
 1172SOL    HW1 4415   6.998   3.188   6.495
 1172SOL    HW2 4416   6.970   3.146   6.340
 1173SOL     OW 4417   4.040   2.181   0.568
 1173SOL    HW1 4418   4.105   2.199   0.642
 1173SOL    HW2 4419   4.014   2.268   0.525
 1174SOL     OW 4420   2.038   4.542   0.615
 1174SOL    HW1 4421   1.996   4.523   0.704
 1174SOL    HW2 4422   2.134   4.566   0.627
 1175SOL     OW 4423   3.119   3.504   4.179
 1175SOL    HW1 4424   3.194   3.564   4.152
 1175SOL    HW2 4425   3.119   3.493   4.279
 1176SOL     OW 4426   5.060   2.934   6.919
 1176SOL    HW1 4427   5.094   3.028   6.925
 1176SOL    HW2 4428   4.960   2.935   6.919
 1177SOL     OW 4429   1.019   1.816   4.113
 1177SOL    HW1 4430   1.103   1.763   4.112
 1177SOL    HW2 4431   1.042   1.913   4.119
 1178SOL     OW 4432   4.469   6.025   6.970
 1178SOL    HW1 4433   4.460   6.122   6.951
 1178SOL    HW2 4434   4.379   5.985   6.989
 1179SOL     OW 4435   1.142   5.773   0.131
 1179SOL    HW1 4436   1.054   5.793   0.175
 1179SOL    HW2 4437   1.196   5.856   0.125
 1180SOL     OW 4438   3.602   6.281   0.562
 1180SOL    HW1 4439   3.625   6.289   0.465
 1180SOL    HW2 4440   3.669   6.222   0.608
 1181SOL     OW 4441   6.359   6.902   6.913
 1181SOL    HW1 4442   6.334   6.965   6.840
 1181SOL    HW2 4443   6.343   6.946   7.002
 1182SOL     OW 4444   4.544   4.873   2.231
 1182SOL    HW1 4445   4.600   4.882   2.313
 1182SOL    HW2 4446   4.494   4.787   2.233
 1183SOL     OW 4447   1.877   3.864   6.113
 1183SOL    HW1 4448   1.872   3.921   6.031
 1183SOL    HW2 4449   1.956   3.803   6.106
 1184SOL     OW 4450   0.496   0.123   5.553
 1184SOL    HW1 4451   0.444   0.126   5.638
 1184SOL    HW2 4452   0.438   0.089   5.479
 1185SOL     OW 4453   6.821   1.435   6.836
 1185SOL    HW1 4454   6.764   1.450   6.917
 1185SOL    HW2 4455   6.916   1.422   6.864
 1186SOL     OW 4456   5.947   6.470   4.710
 1186SOL    HW1 4457   5.850   6.492   4.715
 1186SOL    HW2 4458   5.999   6.534   4.767
 1187SOL     OW 4459   6.494   1.136   5.926
 1187SOL    HW1 4460   6.413   1.106   5.877
 1187SOL    HW2 4461   6.563   1.064   5.925
 1188SOL     OW 4462   2.867   0.706   6.225
 1188SOL    HW1 4463   2.944   0.769   6.214
 1188SOL    HW2 4464   2.855   0.654   6.141
 1189SOL     OW 4465   5.726   3.305   3.801
 1189SOL    HW1 4466   5.794   3.378   3.802
 1189SOL    HW2 4467   5.771   3.216   3.805
 1190SOL     OW 4468   2.514   6.258   3.710
 1190SOL    HW1 4469   2.596   6.303   3.744
 1190SOL    HW2 4470   2.525   6.159   3.716
 1191SOL     OW 4471   4.025   5.983   2.681
 1191SOL    HW1 4472   4.044   6.008   2.586
 1191SOL    HW2 4473   4.098   5.925   2.716
 1192SOL     OW 4474   5.804   6.183   3.216
 1192SOL    HW1 4475   5.776   6.258   3.156
 1192SOL    HW2 4476   5.860   6.118   3.164
 1193SOL     OW 4477   0.126   5.534   4.240
 1193SOL    HW1 4478   0.117   5.565   4.335
 1193SOL    HW2 4479   0.176   5.602   4.187
 1194SOL     OW 4480   3.731   0.306   1.577
 1194SOL    HW1 4481   3.784   0.368   1.518
 1194SOL    HW2 4482   3.670   0.250   1.520
 1195SOL     OW 4483   5.590   2.465   3.764
 1195SOL    HW1 4484   5.624   2.555   3.738
 1195SOL    HW2 4485   5.665   2.398   3.761
 1196SOL     OW 4486   6.910   6.270   5.108
 1196SOL    HW1 4487   6.973   6.199   5.078
 1196SOL    HW2 4488   6.879   6.322   5.028
 1197SOL     OW 4489   2.001   6.115   0.341
 1197SOL    HW1 4490   1.988   6.024   0.380
 1197SOL    HW2 4491   1.919   6.170   0.358
 1198SOL     OW 4492   1.733   2.643   6.832
 1198SOL    HW1 4493   1.751   2.586   6.912
 1198SOL    HW2 4494   1.635   2.645   6.813
 1199SOL     OW 4495   5.963   4.234   1.663
 1199SOL    HW1 4496   5.917   4.158   1.709
 1199SOL    HW2 4497   6.062   4.220   1.665
 1200SOL     OW 4498   3.020   3.904   2.388
 1200SOL    HW1 4499   3.086   3.957   2.442
 1200SOL    HW2 4500   2.971   3.841   2.449
 1201SOL     OW 4501   1.473   2.130   4.428
 1201SOL    HW1 4502   1.535   2.142   4.506
 1201SOL    HW2 4503   1.524   2.144   4.343
 1202SOL     OW 4504   1.193   5.498   5.598
 1202SOL    HW1 4505   1.235   5.521   5.686
 1202SOL    HW2 4506   1.261   5.453   5.540
 1203SOL     OW 4507   4.024   5.857   5.421
 1203SOL    HW1 4508   3.929   5.881   5.442
 1203SOL    HW2 4509   4.033   5.758   5.417
 1204SOL     OW 4510   2.297   6.921   2.634
 1204SOL    HW1 4511   2.246   6.836   2.637
 1204SOL    HW2 4512   2.279   6.968   2.548
 1205SOL     OW 4513   5.344   4.099   2.117
 1205SOL    HW1 4514   5.382   4.084   2.208
 1205SOL    HW2 4515   5.311   4.194   2.109
 1206SOL     OW 4516   3.370   3.780   4.981
 1206SOL    HW1 4517   3.306   3.857   4.989
 1206SOL    HW2 4518   3.410   3.779   4.889
 1207SOL     OW 4519   1.235   6.377   2.560
 1207SOL    HW1 4520   1.182   6.311   2.507
 1207SOL    HW2 4521   1.309   6.330   2.608
 1208SOL     OW 4522   3.080   3.683   5.951
 1208SOL    HW1 4523   3.058   3.717   5.859
 1208SOL    HW2 4524   3.000   3.693   6.011
 1209SOL     OW 4525   3.724   6.682   5.680
 1209SOL    HW1 4526   3.816   6.720   5.690
 1209SOL    HW2 4527   3.715   6.640   5.590
 1210SOL     OW 4528   3.209   0.900   3.356
 1210SOL    HW1 4529   3.109   0.887   3.360
 1210SOL    HW2 4530   3.230   0.997   3.365
 1211SOL     OW 4531   1.180   2.598   0.226
 1211SOL    HW1 4532   1.191   2.499   0.233
 1211SOL    HW2 4533   1.209   2.629   0.136
 1212SOL     OW 4534   1.368   0.184   6.987
 1212SOL    HW1 4535   1.362   0.235   0.052
 1212SOL    HW2 4536   1.322   0.235   6.914
 1213SOL     OW 4537   5.462   3.124   1.140
 1213SOL    HW1 4538   5.491   3.181   1.217
 1213SOL    HW2 4539   5.466   3.177   1.056
 1214SOL     OW 4540   6.719   2.769   1.407
 1214SOL    HW1 4541   6.675   2.685   1.438
 1214SOL    HW2 4542   6.746   2.759   1.311
 1215SOL     OW 4543   1.757   5.921   3.324
 1215SOL    HW1 4544   1.765   5.854   3.398
 1215SOL    HW2 4545   1.762   6.013   3.362
 1216SOL     OW 4546   3.451   6.826   1.585
 1216SOL    HW1 4547   3.405   6.743   1.555
 1216SOL    HW2 4548   3.527   6.847   1.523
 1217SOL     OW 4549   3.061   4.786   6.936
 1217SOL    HW1 4550   3.135   4.823   6.993
 1217SOL    HW2 4551   3.067   4.686   6.936
 1218SOL     OW 4552   2.157   5.170   3.812
 1218SOL    HW1 4553   2.122   5.213   3.895
 1218SOL    HW2 4554   2.110   5.083   3.798
 1219SOL     OW 4555   4.037   6.676   2.148
 1219SOL    HW1 4556   4.058   6.585   2.110
 1219SOL    HW2 4557   3.937   6.688   2.151
 1220SOL     OW 4558   1.160   4.634   2.634
 1220SOL    HW1 4559   1.089   4.577   2.591
 1220SOL    HW2 4560   1.229   4.575   2.676
 1221SOL     OW 4561   5.086   4.488   6.533
 1221SOL    HW1 4562   5.044   4.464   6.445
 1221SOL    HW2 4563   5.028   4.552   6.582
 1222SOL     OW 4564   6.815   0.485   6.245
 1222SOL    HW1 4565   6.831   0.469   6.148
 1222SOL    HW2 4566   6.731   0.539   6.256
 1223SOL     OW 4567   3.630   6.509   0.702
 1223SOL    HW1 4568   3.698   6.482   0.770
 1223SOL    HW2 4569   3.617   6.435   0.635
 1224SOL     OW 4570   2.843   0.251   2.361
 1224SOL    HW1 4571   2.825   0.349   2.355
 1224SOL    HW2 4572   2.764   0.201   2.325
 1225SOL     OW 4573   2.730   3.527   5.709
 1225SOL    HW1 4574   2.775   3.493   5.627
 1225SOL    HW2 4575   2.637   3.554   5.687
 1226SOL     OW 4576   1.833   4.748   0.817
 1226SOL    HW1 4577   1.881   4.835   0.813
 1226SOL    HW2 4578   1.798   4.725   0.726
 1227SOL     OW 4579   0.980   3.130   5.896
 1227SOL    HW1 4580   1.063   3.121   5.841
 1227SOL    HW2 4581   0.995   3.089   5.986
 1228SOL     OW 4582   3.684   2.026   6.856
 1228SOL    HW1 4583   3.726   1.937   6.872
 1228SOL    HW2 4584   3.603   2.015   6.798
 1229SOL     OW 4585   2.939   4.207   6.598
 1229SOL    HW1 4586   2.912   4.127   6.545
 1229SOL    HW2 4587   2.889   4.208   6.685
 1230SOL     OW 4588   4.691   0.676   3.546
 1230SOL    HW1 4589   4.649   0.651   3.459
 1230SOL    HW2 4590   4.763   0.610   3.569
 1231SOL     OW 4591   1.209   4.733   4.592
 1231SOL    HW1 4592   1.127   4.723   4.648
 1231SOL    HW2 4593   1.187   4.714   4.496
 1232SOL     OW 4594   1.806   2.508   3.994
 1232SOL    HW1 4595   1.817   2.414   4.025
 1232SOL    HW2 4596   1.893   2.540   3.955
 1233SOL     OW 4597   0.553   3.273   4.244
 1233SOL    HW1 4598   0.577   3.224   4.160
 1233SOL    HW2 4599   0.626   3.265   4.311
 1234SOL     OW 4600   6.680   3.743   4.214
 1234SOL    HW1 4601   6.642   3.651   4.216
 1234SOL    HW2 4602   6.618   3.807   4.259
 1235SOL     OW 4603   6.754   5.360   3.980
 1235SOL    HW1 4604   6.848   5.389   3.998
 1235SOL    HW2 4605   6.755   5.281   3.918
 1236SOL     OW 4606   5.282   1.050   6.150
 1236SOL    HW1 4607   5.320   0.984   6.085
 1236SOL    HW2 4608   5.249   1.130   6.099
 1237SOL     OW 4609   2.851   4.738   6.736
 1237SOL    HW1 4610   2.939   4.760   6.778
 1237SOL    HW2 4611   2.780   4.731   6.806
 1238SOL     OW 4612   1.312   1.776   0.996
 1238SOL    HW1 4613   1.407   1.800   0.974
 1238SOL    HW2 4614   1.271   1.851   1.047
 1239SOL     OW 4615   0.922   6.944   5.651
 1239SOL    HW1 4616   0.909   6.938   5.552
 1239SOL    HW2 4617   0.987   7.017   5.672
 1240SOL     OW 4618   4.243   6.173   2.144
 1240SOL    HW1 4619   4.192   6.256   2.121
 1240SOL    HW2 4620   4.341   6.192   2.146
 1241SOL     OW 4621   0.155   2.724   4.132
 1241SOL    HW1 4622   0.233   2.662   4.134
 1241SOL    HW2 4623   0.070   2.671   4.131
 1242SOL     OW 4624   2.356   3.437   6.268
 1242SOL    HW1 4625   2.286   3.404   6.332
 1242SOL    HW2 4626   2.391   3.359   6.215
 1243SOL     OW 4627   2.477   5.358   5.551
 1243SOL    HW1 4628   2.394   5.308   5.525
 1243SOL    HW2 4629   2.501   5.423   5.479
 1244SOL     OW 4630   0.815   0.853   3.238
 1244SOL    HW1 4631   0.729   0.801   3.242
 1244SOL    HW2 4632   0.795   0.950   3.233
 1245SOL     OW 4633   3.017   2.725   6.159
 1245SOL    HW1 4634   3.076   2.800   6.129
 1245SOL    HW2 4635   2.928   2.733   6.114
 1246SOL     OW 4636   0.864   0.086   1.159
 1246SOL    HW1 4637   0.944   0.128   1.202
 1246SOL    HW2 4638   0.811   0.037   1.228
 1247SOL     OW 4639   0.879   6.486   6.884
 1247SOL    HW1 4640   0.782   6.509   6.878
 1247SOL    HW2 4641   0.931   6.539   6.817
 1248SOL     OW 4642   2.041   6.552   3.462
 1248SOL    HW1 4643   2.005   6.596   3.544
 1248SOL    HW2 4644   2.110   6.484   3.487
 1249SOL     OW 4645   5.912   3.068   3.572
 1249SOL    HW1 4646   5.911   3.153   3.519
 1249SOL    HW2 4647   6.006   3.037   3.584
 1250SOL     OW 4648   0.519   4.160   4.353
 1250SOL    HW1 4649   0.516   4.073   4.402
 1250SOL    HW2 4650   0.575   4.151   4.271
 1251SOL     OW 4651   3.240   0.052   6.297
 1251SOL    HW1 4652   3.191   0.139   6.291
 1251SOL    HW2 4653   3.245   0.010   6.206
 1252SOL     OW 4654   3.379   3.497   6.793
 1252SOL    HW1 4655   3.389   3.474   6.697
 1252SOL    HW2 4656   3.461   3.547   6.824
 1253SOL     OW 4657   4.076   6.847   3.127
 1253SOL    HW1 4658   3.988   6.887   3.150
 1253SOL    HW2 4659   4.067   6.792   3.044
 1254SOL     OW 4660   6.634   1.700   2.511
 1254SOL    HW1 4661   6.653   1.745   2.598
 1254SOL    HW2 4662   6.552   1.740   2.469
 1255SOL     OW 4663   6.377   0.661   0.371
 1255SOL    HW1 4664   6.427   0.655   0.458
 1255SOL    HW2 4665   6.393   0.750   0.329
 1256SOL     OW 4666   5.084   2.146   4.043
 1256SOL    HW1 4667   4.987   2.165   4.055
 1256SOL    HW2 4668   5.096   2.082   3.967
 1257SOL     OW 4669   6.058   1.602   4.170
 1257SOL    HW1 4670   6.098   1.689   4.143
 1257SOL    HW2 4671   5.990   1.618   4.242
 1258SOL     OW 4672   0.258   5.859   3.660
 1258SOL    HW1 4673   0.177   5.906   3.625
 1258SOL    HW2 4674   0.321   5.926   3.699
 1259SOL     OW 4675   4.418   2.348   5.475
 1259SOL    HW1 4676   4.353   2.275   5.497
 1259SOL    HW2 4677   4.434   2.349   5.376
 1260SOL     OW 4678   0.879   1.610   5.560
 1260SOL    HW1 4679   0.844   1.532   5.612
 1260SOL    HW2 4680   0.933   1.577   5.483
 1261SOL     OW 4681   6.689   3.544   0.716
 1261SOL    HW1 4682   6.710   3.640   0.734
 1261SOL    HW2 4683   6.767   3.487   0.744
 1262SOL     OW 4684   4.859   5.979   2.451
 1262SOL    HW1 4685   4.868   6.075   2.480
 1262SOL    HW2 4686   4.945   5.931   2.470
 1263SOL     OW 4687   6.290   2.253   3.429
 1263SOL    HW1 4688   6.287   2.264   3.330
 1263SOL    HW2 4689   6.258   2.337   3.473
 1264SOL     OW 4690   1.287   2.992   5.659
 1264SOL    HW1 4691   1.326   2.906   5.693
 1264SOL    HW2 4692   1.328   3.014   5.571
 1265SOL     OW 4693   5.839   6.960   5.878
 1265SOL    HW1 4694   5.899   6.897   5.927
 1265SOL    HW2 4695   5.894   0.007   5.829
 1266SOL     OW 4696   2.309   1.051   5.628
 1266SOL    HW1 4697   2.214   1.026   5.641
 1266SOL    HW2 4698   2.364   0.969   5.612
 1267SOL     OW 4699   3.700   0.166   2.577
 1267SOL    HW1 4700   3.703   0.077   2.533
 1267SOL    HW2 4701   3.656   0.158   2.666
 1268SOL     OW 4702   4.006   2.980   5.715
 1268SOL    HW1 4703   4.063   3.058   5.690
 1268SOL    HW2 4704   4.026   2.904   5.652
 1269SOL     OW 4705   5.875   1.899   3.779
 1269SOL    HW1 4706   5.830   1.826   3.727
 1269SOL    HW2 4707   5.876   1.875   3.876
 1270SOL     OW 4708   6.172   4.943   2.898
 1270SOL    HW1 4709   6.078   4.976   2.890
 1270SOL    HW2 4710   6.171   4.844   2.912
 1271SOL     OW 4711   2.200   1.414   1.197
 1271SOL    HW1 4712   2.267   1.416   1.122
 1271SOL    HW2 4713   2.108   1.406   1.159
 1272SOL     OW 4714   6.014   1.959   0.340
 1272SOL    HW1 4715   6.002   1.928   0.246
 1272SOL    HW2 4716   5.942   2.026   0.362
 1273SOL     OW 4717   1.826   4.207   5.543
 1273SOL    HW1 4718   1.855   4.243   5.631
 1273SOL    HW2 4719   1.735   4.243   5.521
 1274SOL     OW 4720   0.080   4.775   3.716
 1274SOL    HW1 4721   0.168   4.808   3.753
 1274SOL    HW2 4722   0.005   4.824   3.761
 1275SOL     OW 4723   2.355   1.581   2.656
 1275SOL    HW1 4724   2.278   1.560   2.596
 1275SOL    HW2 4725   2.441   1.574   2.606
 1276SOL     OW 4726   5.652   4.490   3.472
 1276SOL    HW1 4727   5.743   4.526   3.454
 1276SOL    HW2 4728   5.611   4.459   3.386
 1277SOL     OW 4729   0.587   6.218   7.007
 1277SOL    HW1 4730   0.499   6.175   6.988
 1277SOL    HW2 4731   0.597   6.300   6.951
 1278SOL     OW 4732   0.579   5.760   2.828
 1278SOL    HW1 4733   0.572   5.685   2.761
 1278SOL    HW2 4734   0.612   5.724   2.915
 1279SOL     OW 4735   2.555   3.197   1.043
 1279SOL    HW1 4736   2.554   3.123   0.977
 1279SOL    HW2 4737   2.469   3.248   1.039
 1280SOL     OW 4738   2.668   2.458   4.146
 1280SOL    HW1 4739   2.666   2.495   4.053
 1280SOL    HW2 4740   2.729   2.379   4.148
 1281SOL     OW 4741   6.121   6.357   4.945
 1281SOL    HW1 4742   6.027   6.338   4.971
 1281SOL    HW2 4743   6.125   6.442   4.892
 1282SOL     OW 4744   0.690   2.958   1.220
 1282SOL    HW1 4745   0.752   2.992   1.150
 1282SOL    HW2 4746   0.669   3.032   1.284
 1283SOL     OW 4747   6.862   1.868   4.513
 1283SOL    HW1 4748   6.875   1.947   4.572
 1283SOL    HW2 4749   6.925   1.874   4.435
 1284SOL     OW 4750   3.800   2.086   2.231
 1284SOL    HW1 4751   3.748   2.148   2.173
 1284SOL    HW2 4752   3.752   2.073   2.318
 1285SOL     OW 4753   4.784   1.048   3.945
 1285SOL    HW1 4754   4.752   0.966   3.991
 1285SOL    HW2 4755   4.851   1.094   4.003
 1286SOL     OW 4756   5.242   1.461   1.148
 1286SOL    HW1 4757   5.332   1.478   1.111
 1286SOL    HW2 4758   5.226   1.520   1.227
 1287SOL     OW 4759   6.176   4.906   5.214
 1287SOL    HW1 4760   6.136   4.846   5.145
 1287SOL    HW2 4761   6.173   4.862   5.304
 1288SOL     OW 4762   4.953   4.748   0.120
 1288SOL    HW1 4763   4.914   4.673   0.066
 1288SOL    HW2 4764   5.040   4.718   0.161
 1289SOL     OW 4765   6.519   0.106   0.473
 1289SOL    HW1 4766   6.533   0.013   0.439
 1289SOL    HW2 4767   6.548   0.111   0.568
 1290SOL     OW 4768   1.346   6.516   5.647
 1290SOL    HW1 4769   1.395   6.576   5.710
 1290SOL    HW2 4770   1.253   6.502   5.681
 1291SOL     OW 4771   6.021   5.300   3.995
 1291SOL    HW1 4772   6.112   5.334   4.021
 1291SOL    HW2 4773   6.011   5.205   4.027
 1292SOL     OW 4774   0.806   0.156   2.273
 1292SOL    HW1 4775   0.842   0.078   2.223
 1292SOL    HW2 4776   0.852   0.164   2.361
 1293SOL     OW 4777   4.955   0.858   0.660
 1293SOL    HW1 4778   4.979   0.930   0.725
 1293SOL    HW2 4779   4.901   0.788   0.707
 1294SOL     OW 4780   1.935   4.829   4.801
 1294SOL    HW1 4781   1.994   4.753   4.774
 1294SOL    HW2 4782   1.840   4.801   4.795
 1295SOL     OW 4783   6.951   4.425   0.555
 1295SOL    HW1 4784   6.898   4.342   0.568
 1295SOL    HW2 4785   6.983   4.458   0.644
 1296SOL     OW 4786   4.882   6.743   6.000
 1296SOL    HW1 4787   4.854   6.647   5.999
 1296SOL    HW2 4788   4.981   6.749   6.008
 1297SOL     OW 4789   6.359   0.106   0.829
 1297SOL    HW1 4790   6.400   0.197   0.825
 1297SOL    HW2 4791   6.425   0.041   0.867
 1298SOL     OW 4792   5.285   0.654   3.030
 1298SOL    HW1 4793   5.205   0.647   2.971
 1298SOL    HW2 4794   5.351   0.583   3.006
 1299SOL     OW 4795   0.927   3.526   4.209
 1299SOL    HW1 4796   0.889   3.442   4.245
 1299SOL    HW2 4797   0.908   3.601   4.272
 1300SOL     OW 4798   0.519   5.666   1.036
 1300SOL    HW1 4799   0.553   5.670   1.130
 1300SOL    HW2 4800   0.552   5.746   0.985
 1301SOL     OW 4801   6.497   0.485   0.118
 1301SOL    HW1 4802   6.559   0.457   0.191
 1301SOL    HW2 4803   6.458   0.403   0.075
 1302SOL     OW 4804   6.411   0.240   5.236
 1302SOL    HW1 4805   6.312   0.245   5.223
 1302SOL    HW2 4806   6.454   0.323   5.200
 1303SOL     OW 4807   2.885   6.399   1.652
 1303SOL    HW1 4808   2.937   6.482   1.673
 1303SOL    HW2 4809   2.947   6.328   1.621
 1304SOL     OW 4810   0.059   0.789   0.870
 1304SOL    HW1 4811   0.101   0.757   0.955
 1304SOL    HW2 4812   0.117   0.763   0.793
 1305SOL     OW 4813   4.024   4.724   6.020
 1305SOL    HW1 4814   4.073   4.659   6.079
 1305SOL    HW2 4815   3.965   4.674   5.957
 1306SOL     OW 4816   3.027   5.800   3.896
 1306SOL    HW1 4817   3.106   5.836   3.946
 1306SOL    HW2 4818   2.958   5.871   3.887
 1307SOL     OW 4819   2.012   3.203   4.192
 1307SOL    HW1 4820   1.934   3.140   4.191
 1307SOL    HW2 4821   2.047   3.213   4.285
 1308SOL     OW 4822   6.697   3.529   6.419
 1308SOL    HW1 4823   6.759   3.525   6.497
 1308SOL    HW2 4824   6.748   3.512   6.334
 1309SOL     OW 4825   6.046   3.834   6.743
 1309SOL    HW1 4826   5.999   3.914   6.782
 1309SOL    HW2 4827   5.988   3.793   6.673
 1310SOL     OW 4828   1.715   4.394   3.293
 1310SOL    HW1 4829   1.753   4.333   3.363
 1310SOL    HW2 4830   1.775   4.474   3.282
 1311SOL     OW 4831   5.251   5.231   0.230
 1311SOL    HW1 4832   5.220   5.146   0.272
 1311SOL    HW2 4833   5.286   5.293   0.300
 1312SOL     OW 4834   2.596   1.131   6.227
 1312SOL    HW1 4835   2.609   1.137   6.129
 1312SOL    HW2 4836   2.606   1.036   6.257
 1313SOL     OW 4837   6.639   5.478   1.342
 1313SOL    HW1 4838   6.597   5.560   1.383
 1313SOL    HW2 4839   6.737   5.493   1.333
 1314SOL     OW 4840   2.173   1.498   4.041
 1314SOL    HW1 4841   2.109   1.571   4.015
 1314SOL    HW2 4842   2.125   1.430   4.097
 1315SOL     OW 4843   6.312   0.949   2.694
 1315SOL    HW1 4844   6.264   0.958   2.781
 1315SOL    HW2 4845   6.409   0.929   2.712
 1316SOL     OW 4846   5.053   6.896   6.734
 1316SOL    HW1 4847   5.141   6.849   6.742
 1316SOL    HW2 4848   5.067   6.995   6.736
 1317SOL     OW 4849   3.188   3.137   5.490
 1317SOL    HW1 4850   3.278   3.179   5.486
 1317SOL    HW2 4851   3.193   3.043   5.456
 1318SOL     OW 4852   1.905   1.423   6.033
 1318SOL    HW1 4853   1.959   1.449   5.953
 1318SOL    HW2 4854   1.819   1.474   6.032
 1319SOL     OW 4855   6.860   0.590   0.293
 1319SOL    HW1 4856   6.941   0.542   0.260
 1319SOL    HW2 4857   6.782   0.527   0.292
 1320SOL     OW 4858   3.242   3.281   6.365
 1320SOL    HW1 4859   3.201   3.192   6.346
 1320SOL    HW2 4860   3.213   3.347   6.296
 1321SOL     OW 4861   0.184   2.867   0.576
 1321SOL    HW1 4862   0.277   2.880   0.542
 1321SOL    HW2 4863   0.129   2.819   0.507
 1322SOL     OW 4864   3.767   2.462   6.941
 1322SOL    HW1 4865   3.830   2.534   6.913
 1322SOL    HW2 4866   3.819   2.386   6.979
 1323SOL     OW 4867   3.849   0.046   1.392
 1323SOL    HW1 4868   3.766   0.102   1.403
 1323SOL    HW2 4869   3.919   0.099   1.344
 1324SOL     OW 4870   2.260   4.109   5.972
 1324SOL    HW1 4871   2.278   4.050   6.051
 1324SOL    HW2 4872   2.234   4.053   5.894
 1325SOL     OW 4873   3.430   6.016   4.926
 1325SOL    HW1 4874   3.521   5.975   4.938
 1325SOL    HW2 4875   3.370   5.951   4.880
 1326SOL     OW 4876   5.336   1.594   4.769
 1326SOL    HW1 4877   5.303   1.557   4.856
 1326SOL    HW2 4878   5.434   1.576   4.760
 1327SOL     OW 4879   4.787   5.431   2.659
 1327SOL    HW1 4880   4.718   5.503   2.669
 1327SOL    HW2 4881   4.832   5.415   2.747
 1328SOL     OW 4882   2.253   2.092   6.222
 1328SOL    HW1 4883   2.238   2.189   6.202
 1328SOL    HW2 4884   2.224   2.037   6.144
 1329SOL     OW 4885   0.773   2.828   3.858
 1329SOL    HW1 4886   0.782   2.731   3.882
 1329SOL    HW2 4887   0.852   2.879   3.892
 1330SOL     OW 4888   5.954   3.257   2.718
 1330SOL    HW1 4889   6.012   3.301   2.787
 1330SOL    HW2 4890   6.009   3.192   2.666
 1331SOL     OW 4891   4.766   2.387   3.560
 1331SOL    HW1 4892   4.815   2.376   3.473
 1331SOL    HW2 4893   4.765   2.300   3.609
 1332SOL     OW 4894   1.765   5.486   0.647
 1332SOL    HW1 4895   1.765   5.583   0.671
 1332SOL    HW2 4896   1.760   5.431   0.731
 1333SOL     OW 4897   3.729   3.733   2.734
 1333SOL    HW1 4898   3.742   3.783   2.648
 1333SOL    HW2 4899   3.777   3.646   2.729
 1334SOL     OW 4900   6.900   3.277   1.637
 1334SOL    HW1 4901   6.998   3.264   1.657
 1334SOL    HW2 4902   6.879   3.374   1.638
 1335SOL     OW 4903   0.714   3.378   3.318
 1335SOL    HW1 4904   0.725   3.372   3.219
 1335SOL    HW2 4905   0.706   3.474   3.346
 1336SOL     OW 4906   2.010   0.279   5.540
 1336SOL    HW1 4907   2.055   0.338   5.473
 1336SOL    HW2 4908   1.928   0.240   5.500
 1337SOL     OW 4909   6.967   6.853   2.186
 1337SOL    HW1 4910   6.904   6.919   2.144
 1337SOL    HW2 4911   6.915   6.780   2.230
 1338SOL     OW 4912   6.620   4.054   5.247
 1338SOL    HW1 4913   6.711   4.091   5.262
 1338SOL    HW2 4914   6.626   3.955   5.235
 1339SOL     OW 4915   5.947   0.733   6.558
 1339SOL    HW1 4916   5.998   0.818   6.572
 1339SOL    HW2 4917   5.868   0.750   6.499
 1340SOL     OW 4918   3.681   3.014   1.782
 1340SOL    HW1 4919   3.767   3.063   1.793
 1340SOL    HW2 4920   3.665   2.996   1.685
 1341SOL     OW 4921   4.884   5.639   6.530
 1341SOL    HW1 4922   4.908   5.673   6.622
 1341SOL    HW2 4923   4.948   5.678   6.463
 1342SOL     OW 4924   1.566   6.175   1.560
 1342SOL    HW1 4925   1.653   6.136   1.590
 1342SOL    HW2 4926   1.553   6.264   1.604
 1343SOL     OW 4927   5.381   5.801   2.916
 1343SOL    HW1 4928   5.438   5.849   2.983
 1343SOL    HW2 4929   5.285   5.813   2.940
 1344SOL     OW 4930   1.030   0.792   4.439
 1344SOL    HW1 4931   1.091   0.764   4.364
 1344SOL    HW2 4932   0.935   0.782   4.410
 1345SOL     OW 4933   0.848   6.753   6.667
 1345SOL    HW1 4934   0.864   6.808   6.749
 1345SOL    HW2 4935   0.778   6.797   6.611
 1346SOL     OW 4936   3.127   5.070   4.406
 1346SOL    HW1 4937   3.033   5.068   4.372
 1346SOL    HW2 4938   3.182   5.130   4.347
 1347SOL     OW 4939   1.757   0.638   6.352
 1347SOL    HW1 4940   1.724   0.579   6.278
 1347SOL    HW2 4941   1.727   0.601   6.440
 1348SOL     OW 4942   0.858   6.397   5.147
 1348SOL    HW1 4943   0.836   6.463   5.075
 1348SOL    HW2 4944   0.955   6.401   5.168
 1349SOL     OW 4945   5.269   3.529   4.039
 1349SOL    HW1 4946   5.343   3.587   4.074
 1349SOL    HW2 4947   5.182   3.576   4.051
 1350SOL     OW 4948   4.550   4.787   6.900
 1350SOL    HW1 4949   4.541   4.740   6.812
 1350SOL    HW2 4950   4.630   4.752   6.948
 1351SOL     OW 4951   6.764   2.576   6.105
 1351SOL    HW1 4952   6.785   2.549   6.010
 1351SOL    HW2 4953   6.700   2.510   6.144
 1352SOL     OW 4954   0.217   0.864   3.064
 1352SOL    HW1 4955   0.313   0.892   3.054
 1352SOL    HW2 4956   0.174   0.861   2.974
 1353SOL     OW 4957   0.050   1.009   0.188
 1353SOL    HW1 4958   0.137   0.967   0.161
 1353SOL    HW2 4959   0.067   1.080   0.257
 1354SOL     OW 4960   4.921   5.101   2.431
 1354SOL    HW1 4961   4.855   5.169   2.463
 1354SOL    HW2 4962   4.964   5.134   2.347
 1355SOL     OW 4963   4.709   3.296   5.420
 1355SOL    HW1 4964   4.750   3.387   5.411
 1355SOL    HW2 4965   4.723   3.245   5.335
 1356SOL     OW 4966   2.840   3.158   0.129
 1356SOL    HW1 4967   2.905   3.231   0.110
 1356SOL    HW2 4968   2.846   3.088   0.058
 1357SOL     OW 4969   1.309   2.707   5.864
 1357SOL    HW1 4970   1.326   2.723   5.961
 1357SOL    HW2 4971   1.395   2.683   5.818
 1358SOL     OW 4972   1.985   6.527   0.168
 1358SOL    HW1 4973   1.970   6.448   0.108
 1358SOL    HW2 4974   1.898   6.576   0.180
 1359SOL     OW 4975   6.332   4.041   0.809
 1359SOL    HW1 4976   6.347   4.136   0.838
 1359SOL    HW2 4977   6.341   3.980   0.887
 1360SOL     OW 4978   2.332   2.672   0.283
 1360SOL    HW1 4979   2.416   2.683   0.335
 1360SOL    HW2 4980   2.267   2.618   0.336
 1361SOL     OW 4981   6.478   4.602   4.835
 1361SOL    HW1 4982   6.499   4.512   4.874
 1361SOL    HW2 4983   6.544   4.622   4.762
 1362SOL     OW 4984   3.197   3.907   3.277
 1362SOL    HW1 4985   3.285   3.933   3.237
 1362SOL    HW2 4986   3.186   3.807   3.270
 1363SOL     OW 4987   1.083   6.526   4.449
 1363SOL    HW1 4988   1.105   6.514   4.546
 1363SOL    HW2 4989   0.985   6.512   4.435
 1364SOL     OW 4990   4.637   4.261   0.769
 1364SOL    HW1 4991   4.668   4.275   0.863
 1364SOL    HW2 4992   4.557   4.201   0.769
 1365SOL     OW 4993   6.165   2.723   6.799
 1365SOL    HW1 4994   6.181   2.754   6.893
 1365SOL    HW2 4995   6.133   2.800   6.743
 1366SOL     OW 4996   2.363   0.334   5.660
 1366SOL    HW1 4997   2.282   0.337   5.602
 1366SOL    HW2 4998   2.393   0.427   5.680
 1367SOL     OW 4999   2.839   1.654   1.931
 1367SOL    HW1 5000   2.924   1.602   1.928
 1367SOL    HW2 5001   2.849   1.733   1.992
 1368SOL     OW 5002   6.211   6.653   3.279
 1368SOL    HW1 5003   6.301   6.690   3.255
 1368SOL    HW2 5004   6.215   6.611   3.369
 1369SOL     OW 5005   1.173   0.441   2.540
 1369SOL    HW1 5006   1.249   0.506   2.531
 1369SOL    HW2 5007   1.176   0.376   2.463
 1370SOL     OW 5008   2.721   1.303   2.043
 1370SOL    HW1 5009   2.680   1.221   2.083
 1370SOL    HW2 5010   2.664   1.382   2.062
 1371SOL     OW 5011   3.644   0.305   6.246
 1371SOL    HW1 5012   3.645   0.222   6.300
 1371SOL    HW2 5013   3.584   0.373   6.288
 1372SOL     OW 5014   2.642   2.470   1.874
 1372SOL    HW1 5015   2.690   2.534   1.815
 1372SOL    HW2 5016   2.708   2.425   1.934
 1373SOL     OW 5017   1.677   5.675   6.433
 1373SOL    HW1 5018   1.773   5.668   6.459
 1373SOL    HW2 5019   1.670   5.723   6.345
 1374SOL     OW 5020   4.946   4.066   0.113
 1374SOL    HW1 5021   4.914   4.155   0.081
 1374SOL    HW2 5022   4.996   4.020   0.040
 1375SOL     OW 5023   0.988   4.370   5.020
 1375SOL    HW1 5024   1.061   4.406   4.962
 1375SOL    HW2 5025   0.912   4.435   5.022
 1376SOL     OW 5026   4.854   0.649   2.537
 1376SOL    HW1 5027   4.786   0.594   2.585
 1376SOL    HW2 5028   4.888   0.721   2.598
 1377SOL     OW 5029   0.755   4.695   4.153
 1377SOL    HW1 5030   0.822   4.690   4.079
 1377SOL    HW2 5031   0.688   4.621   4.143
 1378SOL     OW 5032   2.063   2.659   6.880
 1378SOL    HW1 5033   2.060   2.685   6.977
 1378SOL    HW2 5034   2.002   2.719   6.828
 1379SOL     OW 5035   4.021   6.172   1.517
 1379SOL    HW1 5036   4.101   6.227   1.542
 1379SOL    HW2 5037   3.950   6.232   1.480
 1380SOL     OW 5038   5.923   5.194   2.829
 1380SOL    HW1 5039   6.016   5.205   2.795
 1380SOL    HW2 5040   5.923   5.137   2.911
 1381SOL     OW 5041   6.019   6.931   2.096
 1381SOL    HW1 5042   6.115   6.959   2.091
 1381SOL    HW2 5043   5.981   6.928   2.004
 1382SOL     OW 5044   0.319   3.831   6.234
 1382SOL    HW1 5045   0.349   3.735   6.233
 1382SOL    HW2 5046   0.399   3.891   6.227
 1383SOL     OW 5047   2.617   0.352   0.267
 1383SOL    HW1 5048   2.690   0.415   0.293
 1383SOL    HW2 5049   2.649   0.258   0.278
 1384SOL     OW 5050   1.713   2.210   2.359
 1384SOL    HW1 5051   1.776   2.183   2.432
 1384SOL    HW2 5052   1.697   2.132   2.298
 1385SOL     OW 5053   5.197   3.266   4.043
 1385SOL    HW1 5054   5.177   3.235   3.951
 1385SOL    HW2 5055   5.242   3.355   4.040
 1386SOL     OW 5056   2.316   2.901   3.656
 1386SOL    HW1 5057   2.322   2.896   3.557
 1386SOL    HW2 5058   2.329   2.810   3.696
 1387SOL     OW 5059   3.125   0.414   4.314
 1387SOL    HW1 5060   3.046   0.400   4.253
 1387SOL    HW2 5061   3.099   0.475   4.388
 1388SOL     OW 5062   5.430   1.541   3.861
 1388SOL    HW1 5063   5.335   1.535   3.829
 1388SOL    HW2 5064   5.441   1.483   3.942
 1389SOL     OW 5065   7.015   0.085   3.852
 1389SOL    HW1 5066   0.073   0.115   3.906
 1389SOL    HW2 5067   6.950   0.038   3.910
 1390SOL     OW 5068   4.442   2.495   2.743
 1390SOL    HW1 5069   4.400   2.504   2.652
 1390SOL    HW2 5070   4.465   2.586   2.777
 1391SOL     OW 5071   5.341   0.688   4.584
 1391SOL    HW1 5072   5.321   0.759   4.652
 1391SOL    HW2 5073   5.436   0.659   4.593
 1392SOL     OW 5074   4.189   6.544   5.783
 1392SOL    HW1 5075   4.171   6.487   5.703
 1392SOL    HW2 5076   4.180   6.641   5.759
 1393SOL     OW 5077   4.721   6.979   6.929
 1393SOL    HW1 5078   4.662   0.040   6.930
 1393SOL    HW2 5079   4.815   7.006   6.953
 1394SOL     OW 5080   4.253   0.097   3.983
 1394SOL    HW1 5081   4.167   0.148   3.988
 1394SOL    HW2 5082   4.327   0.153   4.021
 1395SOL     OW 5083   6.800   4.961   2.547
 1395SOL    HW1 5084   6.889   4.920   2.526
 1395SOL    HW2 5085   6.813   5.056   2.574
 1396SOL     OW 5086   0.766   2.097   3.531
 1396SOL    HW1 5087   0.749   2.123   3.436
 1396SOL    HW2 5088   0.827   2.018   3.534
 1397SOL     OW 5089   1.971   5.494   4.849
 1397SOL    HW1 5090   1.916   5.417   4.878
 1397SOL    HW2 5091   1.987   5.489   4.750
 1398SOL     OW 5092   2.261   6.953   6.606
 1398SOL    HW1 5093   2.338   6.889   6.602
 1398SOL    HW2 5094   2.268   7.008   6.689
 1399SOL     OW 5095   3.602   0.163   0.104
 1399SOL    HW1 5096   3.515   0.201   0.134
 1399SOL    HW2 5097   3.597   0.141   0.006
 1400SOL     OW 5098   0.422   0.610   5.351
 1400SOL    HW1 5099   0.420   0.646   5.444
 1400SOL    HW2 5100   0.507   0.638   5.307
 1401SOL     OW 5101   5.668   6.962   1.981
 1401SOL    HW1 5102   5.729   7.007   1.916
 1401SOL    HW2 5103   5.685   6.863   1.980
 1402SOL     OW 5104   6.129   4.832   2.140
 1402SOL    HW1 5105   6.155   4.848   2.045
 1402SOL    HW2 5106   6.057   4.895   2.166
 1403SOL     OW 5107   3.072   3.914   6.341
 1403SOL    HW1 5108   3.166   3.935   6.365
 1403SOL    HW2 5109   3.069   3.829   6.288
 1404SOL     OW 5110   4.018   6.400   0.783
 1404SOL    HW1 5111   4.030   6.318   0.727
 1404SOL    HW2 5112   4.033   6.481   0.726
 1405SOL     OW 5113   1.121   3.536   6.951
 1405SOL    HW1 5114   1.042   3.520   6.892
 1405SOL    HW2 5115   1.151   3.449   6.990
 1406SOL     OW 5116   2.376   2.333   6.868
 1406SOL    HW1 5117   2.295   2.378   6.906
 1406SOL    HW2 5118   2.455   2.393   6.879
 1407SOL     OW 5119   0.203   2.424   0.961
 1407SOL    HW1 5120   0.275   2.466   0.905
 1407SOL    HW2 5121   0.152   2.359   0.906
 1408SOL     OW 5122   5.200   6.313   0.697
 1408SOL    HW1 5123   5.174   6.409   0.684
 1408SOL    HW2 5124   5.177   6.261   0.614
 1409SOL     OW 5125   6.035   1.672   5.746
 1409SOL    HW1 5126   6.001   1.753   5.698
 1409SOL    HW2 5127   6.082   1.613   5.681
 1410SOL     OW 5128   2.860   0.802   0.478
 1410SOL    HW1 5129   2.911   0.875   0.524
 1410SOL    HW2 5130   2.863   0.719   0.532
 1411SOL     OW 5131   3.763   5.390   6.937
 1411SOL    HW1 5132   3.816   5.409   6.854
 1411SOL    HW2 5133   3.797   5.448   7.011
 1412SOL     OW 5134   2.436   1.904   0.174
 1412SOL    HW1 5135   2.336   1.905   0.177
 1412SOL    HW2 5136   2.472   1.955   0.252
 1413SOL     OW 5137   2.339   1.301   5.469
 1413SOL    HW1 5138   2.322   1.209   5.506
 1413SOL    HW2 5139   2.390   1.294   5.384
 1414SOL     OW 5140   0.177   5.008   2.159
 1414SOL    HW1 5141   0.272   5.024   2.186
 1414SOL    HW2 5142   0.118   5.073   2.208
 1415SOL     OW 5143   3.716   1.564   4.971
 1415SOL    HW1 5144   3.676   1.646   4.931
 1415SOL    HW2 5145   3.750   1.584   5.063
 1416SOL     OW 5146   4.715   0.415   4.897
 1416SOL    HW1 5147   4.767   0.490   4.858
 1416SOL    HW2 5148   4.618   0.426   4.875
 1417SOL     OW 5149   3.517   3.358   4.426
 1417SOL    HW1 5150   3.465   3.276   4.449
 1417SOL    HW2 5151   3.486   3.434   4.484
 1418SOL     OW 5152   3.042   3.601   4.850
 1418SOL    HW1 5153   2.973   3.643   4.908
 1418SOL    HW2 5154   3.093   3.672   4.801
 1419SOL     OW 5155   0.928   5.981   2.054
 1419SOL    HW1 5156   0.984   6.009   1.977
 1419SOL    HW2 5157   0.941   5.883   2.071
 1420SOL     OW 5158   2.799   6.121   3.196
 1420SOL    HW1 5159   2.866   6.193   3.216
 1420SOL    HW2 5160   2.844   6.046   3.147
 1421SOL     OW 5161   1.686   5.458   0.394
 1421SOL    HW1 5162   1.749   5.483   0.320
 1421SOL    HW2 5163   1.722   5.492   0.481
 1422SOL     OW 5164   1.920   3.758   6.975
 1422SOL    HW1 5165   2.017   3.754   6.951
 1422SOL    HW2 5166   1.893   3.854   6.987
 1423SOL     OW 5167   4.706   0.942   4.708
 1423SOL    HW1 5168   4.618   0.941   4.756
 1423SOL    HW2 5169   4.695   0.984   4.618
 1424SOL     OW 5170   6.192   2.516   1.518
 1424SOL    HW1 5171   6.199   2.565   1.604
 1424SOL    HW2 5172   6.226   2.422   1.530
 1425SOL     OW 5173   5.846   6.866   3.275
 1425SOL    HW1 5174   5.895   6.907   3.352
 1425SOL    HW2 5175   5.840   6.932   3.200
 1426SOL     OW 5176   3.845   1.214   0.897
 1426SOL    HW1 5177   3.913   1.179   0.962
 1426SOL    HW2 5178   3.892   1.262   0.823
 1427SOL     OW 5179   1.192   0.690   4.250
 1427SOL    HW1 5180   1.177   0.741   4.166
 1427SOL    HW2 5181   1.247   0.609   4.231
 1428SOL     OW 5182   2.211   4.005   3.730
 1428SOL    HW1 5183   2.194   4.050   3.643
 1428SOL    HW2 5184   2.211   3.906   3.717
 1429SOL     OW 5185   6.061   0.278   2.293
 1429SOL    HW1 5186   6.035   0.229   2.377
 1429SOL    HW2 5187   5.979   0.298   2.240
 1430SOL     OW 5188   2.062   4.025   4.522
 1430SOL    HW1 5189   1.966   4.047   4.540
 1430SOL    HW2 5190   2.068   3.963   4.444
 1431SOL     OW 5191   3.380   1.781   0.526
 1431SOL    HW1 5192   3.294   1.739   0.495
 1431SOL    HW2 5193   3.381   1.785   0.626
 1432SOL     OW 5194   4.639   0.185   3.168
 1432SOL    HW1 5195   4.557   0.242   3.160
 1432SOL    HW2 5196   4.613   0.089   3.167
 1433SOL     OW 5197   3.019   2.177   3.802
 1433SOL    HW1 5198   3.067   2.090   3.814
 1433SOL    HW2 5199   3.082   2.245   3.763
 1434SOL     OW 5200   5.398   3.523   0.885
 1434SOL    HW1 5201   5.387   3.423   0.881
 1434SOL    HW2 5202   5.395   3.553   0.980
 1435SOL     OW 5203   0.673   6.484   4.125
 1435SOL    HW1 5204   0.651   6.413   4.191
 1435SOL    HW2 5205   0.595   6.497   4.063
 1436SOL     OW 5206   5.237   0.592   0.280
 1436SOL    HW1 5207   5.309   0.639   0.229
 1436SOL    HW2 5208   5.263   0.496   0.291
 1437SOL     OW 5209   4.462   1.223   0.224
 1437SOL    HW1 5210   4.538   1.228   0.289
 1437SOL    HW2 5211   4.430   1.129   0.217
 1438SOL     OW 5212   2.160   0.325   2.775
 1438SOL    HW1 5213   2.199   0.417   2.772
 1438SOL    HW2 5214   2.081   0.320   2.713
 1439SOL     OW 5215   0.742   5.419   5.126
 1439SOL    HW1 5216   0.830   5.465   5.120
 1439SOL    HW2 5217   0.687   5.439   5.045
 1440SOL     OW 5218   3.850   3.039   2.111
 1440SOL    HW1 5219   3.845   3.119   2.172
 1440SOL    HW2 5220   3.832   2.956   2.164
 1441SOL     OW 5221   6.576   2.070   5.801
 1441SOL    HW1 5222   6.643   2.017   5.853
 1441SOL    HW2 5223   6.489   2.020   5.798
 1442SOL     OW 5224   5.219   6.094   0.183
 1442SOL    HW1 5225   5.190   6.189   0.195
 1442SOL    HW2 5226   5.209   6.068   0.087
 1443SOL     OW 5227   1.592   2.787   3.506
 1443SOL    HW1 5228   1.570   2.816   3.599
 1443SOL    HW2 5229   1.651   2.855   3.463
 1444SOL     OW 5230   5.372   6.410   4.803
 1444SOL    HW1 5231   5.308   6.351   4.853
 1444SOL    HW2 5232   5.367   6.503   4.840
 1445SOL     OW 5233   6.909   2.062   6.880
 1445SOL    HW1 5234   6.820   2.035   6.918
 1445SOL    HW2 5235   6.971   1.984   6.880
 1446SOL     OW 5236   3.874   6.112   2.004
 1446SOL    HW1 5237   3.791   6.095   1.952
 1446SOL    HW2 5238   3.852   6.167   2.084
 1447SOL     OW 5239   6.896   0.723   4.709
 1447SOL    HW1 5240   6.979   0.779   4.705
 1447SOL    HW2 5241   6.885   0.685   4.800
 1448SOL     OW 5242   5.468   0.685   0.125
 1448SOL    HW1 5243   5.560   0.698   0.162
 1448SOL    HW2 5244   5.463   0.722   0.032
 1449SOL     OW 5245   4.393   5.683   0.381
 1449SOL    HW1 5246   4.307   5.715   0.343
 1449SOL    HW2 5247   4.466   5.694   0.313
 1450SOL     OW 5248   5.859   1.501   3.981
 1450SOL    HW1 5249   5.914   1.545   4.052
 1450SOL    HW2 5250   5.821   1.570   3.920
 1451SOL     OW 5251   1.262   6.872   1.854
 1451SOL    HW1 5252   1.228   6.851   1.946
 1451SOL    HW2 5253   1.330   6.945   1.859
 1452SOL     OW 5254   3.320   0.371   5.889
 1452SOL    HW1 5255   3.278   0.281   5.904
 1452SOL    HW2 5256   3.266   0.441   5.936
 1453SOL     OW 5257   5.273   4.210   4.312
 1453SOL    HW1 5258   5.336   4.132   4.315
 1453SOL    HW2 5259   5.322   4.292   4.284
 1454SOL     OW 5260   5.391   3.551   1.188
 1454SOL    HW1 5261   5.480   3.521   1.223
 1454SOL    HW2 5262   5.393   3.649   1.170
 1455SOL     OW 5263   1.827   1.954   1.494
 1455SOL    HW1 5264   1.875   2.027   1.542
 1455SOL    HW2 5265   1.740   1.989   1.459
 1456SOL     OW 5266   5.995   5.547   5.375
 1456SOL    HW1 5267   5.934   5.555   5.453
 1456SOL    HW2 5268   5.944   5.565   5.290
 1457SOL     OW 5269   1.919   0.690   4.314
 1457SOL    HW1 5270   2.000   0.746   4.329
 1457SOL    HW2 5271   1.863   0.731   4.242
 1458SOL     OW 5272   0.505   5.397   6.724
 1458SOL    HW1 5273   0.474   5.473   6.781
 1458SOL    HW2 5274   0.474   5.311   6.765
 1459SOL     OW 5275   2.599   6.949   1.481
 1459SOL    HW1 5276   2.647   6.916   1.563
 1459SOL    HW2 5277   2.636   6.903   1.400
 1460SOL     OW 5278   0.182   7.011   6.822
 1460SOL    HW1 5279   0.094   0.035   6.806
 1460SOL    HW2 5280   0.252   0.033   6.764
 1461SOL     OW 5281   4.850   5.310   2.192
 1461SOL    HW1 5282   4.915   5.338   2.121
 1461SOL    HW2 5283   4.838   5.384   2.258
 1462SOL     OW 5284   5.385   6.931   5.131
 1462SOL    HW1 5285   5.331   7.001   5.180
 1462SOL    HW2 5286   5.353   6.925   5.036
 1463SOL     OW 5287   0.700   2.505   5.613
 1463SOL    HW1 5288   0.609   2.477   5.583
 1463SOL    HW2 5289   0.694   2.548   5.703
 1464SOL     OW 5290   0.792   0.757   1.369
 1464SOL    HW1 5291   0.699   0.783   1.341
 1464SOL    HW2 5292   0.787   0.708   1.456
 1465SOL     OW 5293   1.385   1.170   3.821
 1465SOL    HW1 5294   1.387   1.148   3.723
 1465SOL    HW2 5295   1.447   1.109   3.870
 1466SOL     OW 5296   5.677   5.400   4.671
 1466SOL    HW1 5297   5.758   5.354   4.635
 1466SOL    HW2 5298   5.696   5.498   4.681
 1467SOL     OW 5299   6.427   4.105   4.088
 1467SOL    HW1 5300   6.518   4.086   4.126
 1467SOL    HW2 5301   6.436   4.145   3.997
 1468SOL     OW 5302   4.527   0.217   2.558
 1468SOL    HW1 5303   4.609   0.174   2.519
 1468SOL    HW2 5304   4.451   0.210   2.494
 1469SOL     OW 5305   0.896   0.529   2.016
 1469SOL    HW1 5306   0.889   0.595   1.941
 1469SOL    HW2 5307   0.817   0.536   2.076
 1470SOL     OW 5308   6.898   6.780   2.679
 1470SOL    HW1 5309   6.965   6.816   2.614
 1470SOL    HW2 5310   6.942   6.766   2.767
 1471SOL     OW 5311   5.732   1.090   1.021
 1471SOL    HW1 5312   5.652   1.038   0.992
 1471SOL    HW2 5313   5.728   1.105   1.120
 1472SOL     OW 5314   4.667   5.183   4.697
 1472SOL    HW1 5315   4.713   5.133   4.624
 1472SOL    HW2 5316   4.732   5.204   4.770
 1473SOL     OW 5317   6.270   3.568   3.756
 1473SOL    HW1 5318   6.332   3.577   3.678
 1473SOL    HW2 5319   6.251   3.471   3.773
 1474SOL     OW 5320   4.467   5.280   3.209
 1474SOL    HW1 5321   4.503   5.373   3.209
 1474SOL    HW2 5322   4.516   5.224   3.143
 1475SOL     OW 5323   6.469   6.526   3.250
 1475SOL    HW1 5324   6.458   6.436   3.293
 1475SOL    HW2 5325   6.501   6.514   3.156
 1476SOL     OW 5326   0.747   2.692   1.233
 1476SOL    HW1 5327   0.847   2.701   1.237
 1476SOL    HW2 5328   0.707   2.782   1.216
 1477SOL     OW 5329   3.038   6.547   4.408
 1477SOL    HW1 5330   3.124   6.585   4.375
 1477SOL    HW2 5331   3.043   6.447   4.408
 1478SOL     OW 5332   6.813   3.475   1.333
 1478SOL    HW1 5333   6.802   3.575   1.336
 1478SOL    HW2 5334   6.740   3.433   1.388
 1479SOL     OW 5335   1.083   5.256   0.484
 1479SOL    HW1 5336   1.134   5.329   0.440
 1479SOL    HW2 5337   1.057   5.187   0.416
 1480SOL     OW 5338   2.484   1.090   6.946
 1480SOL    HW1 5339   2.404   1.031   6.937
 1480SOL    HW2 5340   2.461   1.183   6.916
 1481SOL     OW 5341   0.659   3.753   6.891
 1481SOL    HW1 5342   0.567   3.791   6.877
 1481SOL    HW2 5343   0.688   3.705   6.809
 1482SOL     OW 5344   5.562   0.277   6.290
 1482SOL    HW1 5345   5.644   0.305   6.339
 1482SOL    HW2 5346   5.541   0.181   6.310
 1483SOL     OW 5347   6.267   1.647   6.246
 1483SOL    HW1 5348   6.215   1.723   6.208
 1483SOL    HW2 5349   6.359   1.678   6.271
 1484SOL     OW 5350   6.439   6.301   2.530
 1484SOL    HW1 5351   6.444   6.206   2.499
 1484SOL    HW2 5352   6.455   6.362   2.452
 1485SOL     OW 5353   5.603   3.330   4.083
 1485SOL    HW1 5354   5.522   3.283   4.118
 1485SOL    HW2 5355   5.632   3.288   3.997
 1486SOL     OW 5356   5.386   2.229   2.279
 1486SOL    HW1 5357   5.352   2.222   2.373
 1486SOL    HW2 5358   5.309   2.245   2.217
 1487SOL     OW 5359   6.963   0.203   5.510
 1487SOL    HW1 5360   6.894   0.137   5.481
 1487SOL    HW2 5361   0.006   0.160   5.574
 1488SOL     OW 5362   5.531   2.131   4.483
 1488SOL    HW1 5363   5.498   2.108   4.575
 1488SOL    HW2 5364   5.623   2.093   4.470
 1489SOL     OW 5365   3.562   5.203   4.387
 1489SOL    HW1 5366   3.662   5.197   4.394
 1489SOL    HW2 5367   3.529   5.282   4.438
 1490SOL     OW 5368   2.727   2.298   1.502
 1490SOL    HW1 5369   2.750   2.371   1.566
 1490SOL    HW2 5370   2.792   2.223   1.513
 1491SOL     OW 5371   0.410   2.237   5.084
 1491SOL    HW1 5372   0.370   2.145   5.091
 1491SOL    HW2 5373   0.389   2.275   4.994
 1492SOL     OW 5374   6.953   2.498   1.228
 1492SOL    HW1 5375   6.970   2.458   1.138
 1492SOL    HW2 5376   6.863   2.470   1.261
 1493SOL     OW 5377   5.829   2.186   5.591
 1493SOL    HW1 5378   5.820   2.242   5.673
 1493SOL    HW2 5379   5.809   2.091   5.613
 1494SOL     OW 5380   5.570   1.412   4.211
 1494SOL    HW1 5381   5.546   1.359   4.130
 1494SOL    HW2 5382   5.486   1.441   4.258
 1495SOL     OW 5383   1.197   3.769   2.212
 1495SOL    HW1 5384   1.295   3.754   2.229
 1495SOL    HW2 5385   1.166   3.707   2.141
 1496SOL     OW 5386   1.129   0.569   2.125
 1496SOL    HW1 5387   1.113   0.624   2.207
 1496SOL    HW2 5388   1.041   0.544   2.084
 1497SOL     OW 5389   5.473   5.348   5.795
 1497SOL    HW1 5390   5.416   5.429   5.812
 1497SOL    HW2 5391   5.430   5.268   5.838
 1498SOL     OW 5392   2.326   5.538   0.654
 1498SOL    HW1 5393   2.333   5.542   0.555
 1498SOL    HW2 5394   2.383   5.610   0.695
 1499SOL     OW 5395   0.818   4.203   4.576
 1499SOL    HW1 5396   0.769   4.132   4.525
 1499SOL    HW2 5397   0.816   4.181   4.674
 1500SOL     OW 5398   3.801   6.717   5.364
 1500SOL    HW1 5399   3.740   6.638   5.352
 1500SOL    HW2 5400   3.879   6.709   5.301
 1501SOL     OW 5401   3.759   0.651   0.919
 1501SOL    HW1 5402   3.737   0.735   0.969
 1501SOL    HW2 5403   3.739   0.572   0.978
 1502SOL     OW 5404   0.725   6.305   5.673
 1502SOL    HW1 5405   0.780   6.362   5.733
 1502SOL    HW2 5406   0.753   6.321   5.578
 1503SOL     OW 5407   3.382   3.911   5.504
 1503SOL    HW1 5408   3.427   3.883   5.419
 1503SOL    HW2 5409   3.421   3.997   5.536
 1504SOL     OW 5410   3.003   6.787   4.055
 1504SOL    HW1 5411   2.950   6.712   4.094
 1504SOL    HW2 5412   3.035   6.847   4.128
 1505SOL     OW 5413   4.902   0.214   2.492
 1505SOL    HW1 5414   4.951   0.134   2.528
 1505SOL    HW2 5415   4.809   0.188   2.467
 1506SOL     OW 5416   1.085   6.533   3.468
 1506SOL    HW1 5417   1.136   6.614   3.498
 1506SOL    HW2 5418   0.989   6.558   3.453
 1507SOL     OW 5419   2.005   2.146   6.872
 1507SOL    HW1 5420   2.011   2.231   6.923
 1507SOL    HW2 5421   2.028   2.162   6.776
 1508SOL     OW 5422   4.674   6.949   1.339
 1508SOL    HW1 5423   4.604   6.878   1.325
 1508SOL    HW2 5424   4.636   0.018   1.316
 1509SOL     OW 5425   5.686   1.731   6.211
 1509SOL    HW1 5426   5.728   1.641   6.197
 1509SOL    HW2 5427   5.639   1.759   6.127
 1510SOL     OW 5428   6.681   1.293   2.828
 1510SOL    HW1 5429   6.670   1.388   2.857
 1510SOL    HW2 5430   6.616   1.273   2.754
 1511SOL     OW 5431   1.488   2.623   0.039
 1511SOL    HW1 5432   1.505   2.561   0.116
 1511SOL    HW2 5433   1.551   2.700   0.044
 1512SOL     OW 5434   6.873   1.264   1.822
 1512SOL    HW1 5435   6.903   1.256   1.917
 1512SOL    HW2 5436   6.785   1.312   1.818
 1513SOL     OW 5437   2.678   0.965   2.855
 1513SOL    HW1 5438   2.679   0.910   2.939
 1513SOL    HW2 5439   2.651   1.059   2.878
 1514SOL     OW 5440   4.650   0.355   6.132
 1514SOL    HW1 5441   4.727   0.291   6.136
 1514SOL    HW2 5442   4.585   0.325   6.062
 1515SOL     OW 5443   5.654   4.714   5.694
 1515SOL    HW1 5444   5.748   4.717   5.730
 1515SOL    HW2 5445   5.596   4.661   5.757
 1516SOL     OW 5446   0.191   1.479   1.038
 1516SOL    HW1 5447   0.120   1.514   0.977
 1516SOL    HW2 5448   0.276   1.531   1.023
 1517SOL     OW 5449   3.159   5.831   2.836
 1517SOL    HW1 5450   3.164   5.762   2.908
 1517SOL    HW2 5451   3.157   5.787   2.746
 1518SOL     OW 5452   0.325   4.581   0.552
 1518SOL    HW1 5453   0.375   4.526   0.486
 1518SOL    HW2 5454   0.275   4.653   0.505
 1519SOL     OW 5455   0.454   3.823   0.877
 1519SOL    HW1 5456   0.455   3.756   0.802
 1519SOL    HW2 5457   0.543   3.868   0.882
 1520SOL     OW 5458   1.596   2.956   2.929
 1520SOL    HW1 5459   1.508   2.999   2.946
 1520SOL    HW2 5460   1.656   3.019   2.880
 1521SOL     OW 5461   2.485   4.540   5.141
 1521SOL    HW1 5462   2.394   4.535   5.100
 1521SOL    HW2 5463   2.552   4.567   5.072
 1522SOL     OW 5464   1.539   1.775   6.239
 1522SOL    HW1 5465   1.537   1.738   6.332
 1522SOL    HW2 5466   1.452   1.756   6.194
 1523SOL     OW 5467   5.775   1.523   1.009
 1523SOL    HW1 5468   5.761   1.490   0.916
 1523SOL    HW2 5469   5.868   1.501   1.039
 1524SOL     OW 5470   7.020   1.177   1.448
 1524SOL    HW1 5471   7.017   1.134   1.538
 1524SOL    HW2 5472   0.090   1.163   1.407
 1525SOL     OW 5473   4.696   1.567   5.942
 1525SOL    HW1 5474   4.662   1.646   5.890
 1525SOL    HW2 5475   4.660   1.570   6.035
 1526SOL     OW 5476   6.055   1.232   0.356
 1526SOL    HW1 5477   6.063   1.309   0.420
 1526SOL    HW2 5478   6.133   1.232   0.294
 1527SOL     OW 5479   3.223   1.547   6.087
 1527SOL    HW1 5480   3.148   1.519   6.027
 1527SOL    HW2 5481   3.205   1.512   6.180
 1528SOL     OW 5482   5.505   5.399   3.843
 1528SOL    HW1 5483   5.540   5.492   3.849
 1528SOL    HW2 5484   5.575   5.334   3.871
 1529SOL     OW 5485   2.037   0.054   5.687
 1529SOL    HW1 5486   2.047   0.065   5.786
 1529SOL    HW2 5487   2.041   0.144   5.643
 1530SOL     OW 5488   2.677   6.497   1.341
 1530SOL    HW1 5489   2.756   6.437   1.329
 1530SOL    HW2 5490   2.658   6.509   1.438
 1531SOL     OW 5491   5.641   0.508   6.543
 1531SOL    HW1 5492   5.732   0.469   6.532
 1531SOL    HW2 5493   5.586   0.450   6.602
 1532SOL     OW 5494   2.776   2.106   5.439
 1532SOL    HW1 5495   2.803   2.021   5.484
 1532SOL    HW2 5496   2.855   2.147   5.396
 1533SOL     OW 5497   4.526   3.056   0.095
 1533SOL    HW1 5498   4.561   3.062   0.002
 1533SOL    HW2 5499   4.426   3.054   0.093
 1534SOL     OW 5500   6.945   0.578   1.398
 1534SOL    HW1 5501   6.984   0.555   1.487
 1534SOL    HW2 5502   6.929   0.677   1.394
 1535SOL     OW 5503   5.126   4.389   4.614
 1535SOL    HW1 5504   5.062   4.335   4.560
 1535SOL    HW2 5505   5.138   4.479   4.572
 1536SOL     OW 5506   3.524   6.415   3.243
 1536SOL    HW1 5507   3.447   6.478   3.231
 1536SOL    HW2 5508   3.608   6.467   3.258
 1537SOL     OW 5509   3.148   5.482   4.599
 1537SOL    HW1 5510   3.173   5.396   4.556
 1537SOL    HW2 5511   3.066   5.469   4.655
 1538SOL     OW 5512   3.054   5.581   6.719
 1538SOL    HW1 5513   2.975   5.543   6.670
 1538SOL    HW2 5514   3.037   5.577   6.817
 1539SOL     OW 5515   2.828   6.359   1.962
 1539SOL    HW1 5516   2.887   6.349   1.882
 1539SOL    HW2 5517   2.817   6.271   2.007
 1540SOL     OW 5518   5.968   6.929   5.100
 1540SOL    HW1 5519   5.931   6.976   5.020
 1540SOL    HW2 5520   5.909   6.850   5.121
 1541SOL     OW 5521   5.225   1.676   1.321
 1541SOL    HW1 5522   5.281   1.758   1.333
 1541SOL    HW2 5523   5.128   1.701   1.324
 1542SOL     OW 5524   6.977   6.452   1.340
 1542SOL    HW1 5525   7.015   6.404   1.419
 1542SOL    HW2 5526   0.019   6.445   1.263
 1543SOL     OW 5527   3.484   3.387   3.359
 1543SOL    HW1 5528   3.533   3.429   3.284
 1543SOL    HW2 5529   3.393   3.359   3.328
 1544SOL     OW 5530   3.634   3.798   2.335
 1544SOL    HW1 5531   3.605   3.711   2.375
 1544SOL    HW2 5532   3.559   3.864   2.341
 1545SOL     OW 5533   6.900   0.126   4.916
 1545SOL    HW1 5534   6.983   0.080   4.947
 1545SOL    HW2 5535   6.874   0.091   4.826
 1546SOL     OW 5536   6.159   6.650   6.434
 1546SOL    HW1 5537   6.137   6.709   6.512
 1546SOL    HW2 5538   6.201   6.566   6.468
 1547SOL     OW 5539   3.284   5.659   6.953
 1547SOL    HW1 5540   3.243   5.671   0.023
 1547SOL    HW2 5541   3.345   5.580   6.953
 1548SOL     OW 5542   6.534   3.838   3.415
 1548SOL    HW1 5543   6.537   3.791   3.327
 1548SOL    HW2 5544   6.612   3.900   3.421
 1549SOL     OW 5545   6.820   2.163   0.678
 1549SOL    HW1 5546   6.834   2.080   0.625
 1549SOL    HW2 5547   6.722   2.179   0.691
 1550SOL     OW 5548   2.747   5.231   2.586
 1550SOL    HW1 5549   2.658   5.222   2.631
 1550SOL    HW2 5550   2.819   5.240   2.655
 1551SOL     OW 5551   0.444   2.745   1.471
 1551SOL    HW1 5552   0.368   2.683   1.452
 1551SOL    HW2 5553   0.513   2.698   1.527
 1552SOL     OW 5554   1.205   6.626   2.419
 1552SOL    HW1 5555   1.273   6.690   2.453
 1552SOL    HW2 5556   1.205   6.544   2.477
 1553SOL     OW 5557   5.491   1.172   5.991
 1553SOL    HW1 5558   5.430   1.149   6.067
 1553SOL    HW2 5559   5.563   1.233   6.023
 1554SOL     OW 5560   3.042   2.672   0.612
 1554SOL    HW1 5561   3.088   2.616   0.680
 1554SOL    HW2 5562   2.966   2.622   0.571
 1555SOL     OW 5563   4.257   1.196   0.624
 1555SOL    HW1 5564   4.222   1.152   0.542
 1555SOL    HW2 5565   4.181   1.236   0.676
 1556SOL     OW 5566   3.567   2.276   0.229
 1556SOL    HW1 5567   3.615   2.194   0.196
 1556SOL    HW2 5568   3.553   2.339   0.152
 1557SOL     OW 5569   1.927   2.907   0.316
 1557SOL    HW1 5570   1.914   2.937   0.222
 1557SOL    HW2 5571   1.998   2.837   0.319
 1558SOL     OW 5572   4.958   2.565   6.685
 1558SOL    HW1 5573   4.954   2.471   6.650
 1558SOL    HW2 5574   4.963   2.629   6.609
 1559SOL     OW 5575   2.807   6.516   3.642
 1559SOL    HW1 5576   2.790   6.614   3.653
 1559SOL    HW2 5577   2.740   6.478   3.579
 1560SOL     OW 5578   4.264   3.184   1.297
 1560SOL    HW1 5579   4.170   3.153   1.282
 1560SOL    HW2 5580   4.327   3.123   1.250
 1561SOL     OW 5581   5.473   6.163   1.081
 1561SOL    HW1 5582   5.413   6.087   1.104
 1561SOL    HW2 5583   5.445   6.202   0.994
 1562SOL     OW 5584   2.516   0.488   2.360
 1562SOL    HW1 5585   2.491   0.412   2.299
 1562SOL    HW2 5586   2.515   0.456   2.455
 1563SOL     OW 5587   2.074   3.397   3.653
 1563SOL    HW1 5588   2.002   3.340   3.612
 1563SOL    HW2 5589   2.074   3.384   3.752
 1564SOL     OW 5590   0.666   2.001   2.806
 1564SOL    HW1 5591   0.746   1.942   2.798
 1564SOL    HW2 5592   0.675   2.061   2.885
 1565SOL     OW 5593   4.589   1.949   5.314
 1565SOL    HW1 5594   4.560   2.036   5.274
 1565SOL    HW2 5595   4.575   1.952   5.413
 1566SOL     OW 5596   0.750   3.639   3.392
 1566SOL    HW1 5597   0.666   3.680   3.429
 1566SOL    HW2 5598   0.793   3.703   3.328
 1567SOL     OW 5599   5.270   0.092   5.306
 1567SOL    HW1 5600   5.328   0.078   5.386
 1567SOL    HW2 5601   5.285   0.183   5.269
 1568SOL     OW 5602   2.518   4.515   0.839
 1568SOL    HW1 5603   2.466   4.444   0.886
 1568SOL    HW2 5604   2.561   4.574   0.907
 1569SOL     OW 5605   2.090   1.187   2.820
 1569SOL    HW1 5606   2.111   1.218   2.728
 1569SOL    HW2 5607   2.137   1.100   2.837
 1570SOL     OW 5608   2.668   5.931   6.494
 1570SOL    HW1 5609   2.732   5.874   6.442
 1570SOL    HW2 5610   2.651   5.888   6.583
 1571SOL     OW 5611   6.642   2.551   4.170
 1571SOL    HW1 5612   6.626   2.504   4.084
 1571SOL    HW2 5613   6.607   2.495   4.246
 1572SOL     OW 5614   2.224   6.297   2.854
 1572SOL    HW1 5615   2.276   6.349   2.921
 1572SOL    HW2 5616   2.134   6.275   2.892
 1573SOL     OW 5617   5.390   5.419   0.404
 1573SOL    HW1 5618   5.350   5.510   0.396
 1573SOL    HW2 5619   5.471   5.413   0.346
 1574SOL     OW 5620   1.181   4.489   3.055
 1574SOL    HW1 5621   1.258   4.436   3.019
 1574SOL    HW2 5622   1.216   4.556   3.121
 1575SOL     OW 5623   6.660   2.468   0.438
 1575SOL    HW1 5624   6.712   2.417   0.370
 1575SOL    HW2 5625   6.704   2.460   0.527
 1576SOL     OW 5626   1.614   5.734   1.909
 1576SOL    HW1 5627   1.659   5.789   1.979
 1576SOL    HW2 5628   1.536   5.785   1.871
 1577SOL     OW 5629   4.843   5.657   3.816
 1577SOL    HW1 5630   4.827   5.733   3.879
 1577SOL    HW2 5631   4.828   5.571   3.865
 1578SOL     OW 5632   5.454   2.055   1.699
 1578SOL    HW1 5633   5.503   1.971   1.674
 1578SOL    HW2 5634   5.357   2.045   1.674
 1579SOL     OW 5635   1.678   3.019   2.021
 1579SOL    HW1 5636   1.732   3.064   1.949
 1579SOL    HW2 5637   1.729   3.021   2.107
 1580SOL     OW 5638   3.418   3.984   3.079
 1580SOL    HW1 5639   3.377   4.037   3.005
 1580SOL    HW2 5640   3.480   4.042   3.132
 1581SOL     OW 5641   5.569   4.149   4.869
 1581SOL    HW1 5642   5.501   4.131   4.939
 1581SOL    HW2 5643   5.532   4.126   4.779
 1582SOL     OW 5644   4.282   5.851   4.933
 1582SOL    HW1 5645   4.318   5.943   4.952
 1582SOL    HW2 5646   4.256   5.807   5.019
 1583SOL     OW 5647   1.484   4.828   5.280
 1583SOL    HW1 5648   1.568   4.783   5.310
 1583SOL    HW2 5649   1.419   4.834   5.356
 1584SOL     OW 5650   0.222   3.925   6.903
 1584SOL    HW1 5651   0.156   3.961   6.970
 1584SOL    HW2 5652   0.307   3.977   6.909
 1585SOL     OW 5653   5.088   6.519   4.219
 1585SOL    HW1 5654   5.041   6.561   4.141
 1585SOL    HW2 5655   5.036   6.536   4.302
 1586SOL     OW 5656   2.644   5.925   3.320
 1586SOL    HW1 5657   2.659   5.909   3.417
 1586SOL    HW2 5658   2.709   5.994   3.287
 1587SOL     OW 5659   3.310   6.356   6.941
 1587SOL    HW1 5660   3.338   6.275   6.993
 1587SOL    HW2 5661   3.282   6.328   6.849
 1588SOL     OW 5662   6.292   1.975   3.435
 1588SOL    HW1 5663   6.288   2.069   3.469
 1588SOL    HW2 5664   6.355   1.970   3.357
 1589SOL     OW 5665   0.018   2.501   4.970
 1589SOL    HW1 5666   6.956   2.539   5.011
 1589SOL    HW2 5667   0.006   2.493   4.871
 1590SOL     OW 5668   5.612   0.635   3.372
 1590SOL    HW1 5669   5.531   0.636   3.313
 1590SOL    HW2 5670   5.587   0.664   3.464
 1591SOL     OW 5671   0.739   5.675   0.351
 1591SOL    HW1 5672   0.669   5.726   0.302
 1591SOL    HW2 5673   0.758   5.590   0.303
 1592SOL     OW 5674   6.883   3.945   4.929
 1592SOL    HW1 5675   6.980   3.922   4.934
 1592SOL    HW2 5676   6.843   3.941   5.021
 1593SOL     OW 5677   3.742   6.090   1.293
 1593SOL    HW1 5678   3.759   5.994   1.269
 1593SOL    HW2 5679   3.697   6.095   1.382
 1594SOL     OW 5680   4.925   0.810   2.723
 1594SOL    HW1 5681   4.847   0.858   2.764
 1594SOL    HW2 5682   4.985   0.877   2.678
 1595SOL     OW 5683   0.957   3.563   6.536
 1595SOL    HW1 5684   0.917   3.520   6.617
 1595SOL    HW2 5685   0.968   3.494   6.464
 1596SOL     OW 5686   4.733   4.172   3.988
 1596SOL    HW1 5687   4.751   4.101   3.920
 1596SOL    HW2 5688   4.818   4.222   4.007
 1597SOL     OW 5689   3.398   5.624   0.262
 1597SOL    HW1 5690   3.402   5.555   0.189
 1597SOL    HW2 5691   3.459   5.598   0.336
 1598SOL     OW 5692   1.242   4.603   6.079
 1598SOL    HW1 5693   1.291   4.522   6.113
 1598SOL    HW2 5694   1.280   4.685   6.121
 1599SOL     OW 5695   4.885   5.295   3.682
 1599SOL    HW1 5696   4.848   5.335   3.767
 1599SOL    HW2 5697   4.969   5.343   3.657
 1600SOL     OW 5698   4.432   0.527   1.644
 1600SOL    HW1 5699   4.405   0.609   1.593
 1600SOL    HW2 5700   4.452   0.453   1.579
 1601SOL     OW 5701   6.378   0.991   4.763
 1601SOL    HW1 5702   6.369   0.892   4.752
 1601SOL    HW2 5703   6.369   1.036   4.674
 1602SOL     OW 5704   4.462   5.453   3.575
 1602SOL    HW1 5705   4.543   5.402   3.546
 1602SOL    HW2 5706   4.444   5.436   3.671
 1603SOL     OW 5707   3.189   5.011   2.182
 1603SOL    HW1 5708   3.135   5.081   2.228
 1603SOL    HW2 5709   3.132   4.930   2.166
 1604SOL     OW 5710   4.373   4.959   2.700
 1604SOL    HW1 5711   4.390   4.996   2.608
 1604SOL    HW2 5712   4.437   4.884   2.718
 1605SOL     OW 5713   4.640   5.338   0.161
 1605SOL    HW1 5714   4.631   5.264   0.228
 1605SOL    HW2 5715   4.690   5.305   0.082
 1606SOL     OW 5716   3.127   5.904   4.961
 1606SOL    HW1 5717   3.189   5.842   4.912
 1606SOL    HW2 5718   3.034   5.868   4.958
 1607SOL     OW 5719   4.835   4.003   3.826
 1607SOL    HW1 5720   4.879   3.913   3.836
 1607SOL    HW2 5721   4.808   4.016   3.731
 1608SOL     OW 5722   5.668   2.714   3.692
 1608SOL    HW1 5723   5.618   2.751   3.770
 1608SOL    HW2 5724   5.624   2.744   3.607
 1609SOL     OW 5725   1.643   0.328   0.823
 1609SOL    HW1 5726   1.713   0.393   0.793
 1609SOL    HW2 5727   1.554   0.354   0.785
 1610SOL     OW 5728   5.494   6.648   0.590
 1610SOL    HW1 5729   5.593   6.635   0.603
 1610SOL    HW2 5730   5.456   6.569   0.542
 1611SOL     OW 5731   0.966   4.144   7.018
 1611SOL    HW1 5732   0.973   4.132   0.097
 1611SOL    HW2 5733   1.023   4.076   6.972
 1612SOL     OW 5734   4.706   1.112   2.373
 1612SOL    HW1 5735   4.682   1.015   2.366
 1612SOL    HW2 5736   4.805   1.122   2.363
 1613SOL     OW 5737   0.329   5.840   2.742
 1613SOL    HW1 5738   0.311   5.852   2.644
 1613SOL    HW2 5739   0.418   5.795   2.754
 1614SOL     OW 5740   6.557   1.371   5.515
 1614SOL    HW1 5741   6.465   1.357   5.480
 1614SOL    HW2 5742   6.615   1.293   5.488
 1615SOL     OW 5743   0.137   3.238   5.423
 1615SOL    HW1 5744   0.209   3.292   5.380
 1615SOL    HW2 5745   0.177   3.169   5.483
 1616SOL     OW 5746   0.978   1.155   3.645
 1616SOL    HW1 5747   0.981   1.252   3.621
 1616SOL    HW2 5748   0.896   1.113   3.606
 1617SOL     OW 5749   6.548   5.521   3.838
 1617SOL    HW1 5750   6.613   5.471   3.895
 1617SOL    HW2 5751   6.581   5.524   3.744
 1618SOL     OW 5752   3.435   5.610   3.053
 1618SOL    HW1 5753   3.374   5.537   3.022
 1618SOL    HW2 5754   3.496   5.636   2.978
 1619SOL     OW 5755   1.264   3.884   6.574
 1619SOL    HW1 5756   1.166   3.875   6.590
 1619SOL    HW2 5757   1.281   3.894   6.475
 1620SOL     OW 5758   3.367   6.865   4.231
 1620SOL    HW1 5759   3.338   6.889   4.138
 1620SOL    HW2 5760   3.323   6.927   4.297
 1621SOL     OW 5761   4.763   5.427   0.685
 1621SOL    HW1 5762   4.810   5.497   0.740
 1621SOL    HW2 5763   4.722   5.469   0.605
 1622SOL     OW 5764   6.104   4.393   4.213
 1622SOL    HW1 5765   6.130   4.489   4.226
 1622SOL    HW2 5766   6.023   4.388   4.155
 1623SOL     OW 5767   0.381   2.675   3.831
 1623SOL    HW1 5768   0.299   2.653   3.779
 1623SOL    HW2 5769   0.441   2.733   3.776
 1624SOL     OW 5770   3.469   3.269   0.573
 1624SOL    HW1 5771   3.471   3.360   0.531
 1624SOL    HW2 5772   3.559   3.226   0.563
 1625SOL     OW 5773   0.745   6.569   0.398
 1625SOL    HW1 5774   0.667   6.536   0.344
 1625SOL    HW2 5775   0.830   6.547   0.351
 1626SOL     OW 5776   2.599   2.011   1.784
 1626SOL    HW1 5777   2.531   2.042   1.718
 1626SOL    HW2 5778   2.669   2.082   1.795
 1627SOL     OW 5779   4.208   1.825   5.867
 1627SOL    HW1 5780   4.209   1.803   5.769
 1627SOL    HW2 5781   4.249   1.749   5.918
 1628SOL     OW 5782   5.371   6.492   1.010
 1628SOL    HW1 5783   5.401   6.500   1.105
 1628SOL    HW2 5784   5.362   6.584   0.970
 1629SOL     OW 5785   1.802   6.926   3.244
 1629SOL    HW1 5786   1.739   7.003   3.255
 1629SOL    HW2 5787   1.868   6.926   3.319
 1630SOL     OW 5788   0.732   3.731   5.636
 1630SOL    HW1 5789   0.752   3.634   5.625
 1630SOL    HW2 5790   0.817   3.784   5.638
 1631SOL     OW 5791   5.728   3.142   0.806
 1631SOL    HW1 5792   5.681   3.072   0.752
 1631SOL    HW2 5793   5.748   3.107   0.897
 1632SOL     OW 5794   6.346   6.253   2.153
 1632SOL    HW1 5795   6.252   6.275   2.180
 1632SOL    HW2 5796   6.410   6.298   2.216
 1633SOL     OW 5797   5.392   3.604   4.873
 1633SOL    HW1 5798   5.420   3.534   4.939
 1633SOL    HW2 5799   5.460   3.677   4.871
 1634SOL     OW 5800   1.084   3.476   5.563
 1634SOL    HW1 5801   1.149   3.400   5.567
 1634SOL    HW2 5802   1.006   3.449   5.506
 1635SOL     OW 5803   3.001   0.400   3.687
 1635SOL    HW1 5804   3.084   0.384   3.632
 1635SOL    HW2 5805   3.023   0.392   3.784
 1636SOL     OW 5806   6.919   5.785   1.340
 1636SOL    HW1 5807   6.836   5.835   1.315
 1636SOL    HW2 5808   6.942   5.807   1.435
 1637SOL     OW 5809   1.269   1.443   2.701
 1637SOL    HW1 5810   1.286   1.535   2.665
 1637SOL    HW2 5811   1.193   1.447   2.767
 1638SOL     OW 5812   5.308   2.332   3.236
 1638SOL    HW1 5813   5.233   2.288   3.186
 1638SOL    HW2 5814   5.277   2.357   3.328
 1639SOL     OW 5815   4.653   2.207   1.940
 1639SOL    HW1 5816   4.591   2.285   1.954
 1639SOL    HW2 5817   4.652   2.180   1.844
 1640SOL     OW 5818   5.731   0.722   6.343
 1640SOL    HW1 5819   5.698   0.812   6.370
 1640SOL    HW2 5820   5.692   0.652   6.403
 1641SOL     OW 5821   6.185   1.452   3.093
 1641SOL    HW1 5822   6.192   1.354   3.114
 1641SOL    HW2 5823   6.266   1.500   3.129
 1642SOL     OW 5824   0.116   3.515   6.281
 1642SOL    HW1 5825   0.177   3.450   6.235
 1642SOL    HW2 5826   0.022   3.483   6.272
 1643SOL     OW 5827   1.792   5.258   3.667
 1643SOL    HW1 5828   1.700   5.286   3.694
 1643SOL    HW2 5829   1.845   5.232   3.747
 1644SOL     OW 5830   6.150   1.773   1.552
 1644SOL    HW1 5831   6.115   1.859   1.514
 1644SOL    HW2 5832   6.133   1.699   1.487
 1645SOL     OW 5833   2.589   0.671   4.778
 1645SOL    HW1 5834   2.654   0.747   4.781
 1645SOL    HW2 5835   2.585   0.627   4.868
 1646SOL     OW 5836   0.759   5.381   1.119
 1646SOL    HW1 5837   0.771   5.292   1.161
 1646SOL    HW2 5838   0.697   5.374   1.041
 1647SOL     OW 5839   6.087   3.260   4.890
 1647SOL    HW1 5840   6.108   3.176   4.840
 1647SOL    HW2 5841   6.108   3.247   4.987
 1648SOL     OW 5842   5.790   6.041   1.660
 1648SOL    HW1 5843   5.885   6.027   1.689
 1648SOL    HW2 5844   5.780   6.132   1.622
 1649SOL     OW 5845   3.724   1.410   2.962
 1649SOL    HW1 5846   3.774   1.371   2.886
 1649SOL    HW2 5847   3.787   1.456   3.025
 1650SOL     OW 5848   2.658   2.531   5.459
 1650SOL    HW1 5849   2.687   2.586   5.381
 1650SOL    HW2 5850   2.702   2.566   5.542
 1651SOL     OW 5851   1.093   2.096   4.069
 1651SOL    HW1 5852   1.051   2.134   3.986
 1651SOL    HW2 5853   1.100   2.167   4.138
 1652SOL     OW 5854   0.377   3.669   1.554
 1652SOL    HW1 5855   0.293   3.638   1.510
 1652SOL    HW2 5856   0.450   3.674   1.486
 1653SOL     OW 5857   0.217   4.157   1.716
 1653SOL    HW1 5858   0.308   4.197   1.724
 1653SOL    HW2 5859   0.220   4.080   1.652
 1654SOL     OW 5860   0.489   3.972   1.620
 1654SOL    HW1 5861   0.569   3.971   1.560
 1654SOL    HW2 5862   0.443   3.883   1.616
 1655SOL     OW 5863   0.116   0.854   5.703
 1655SOL    HW1 5864   0.085   0.888   5.791
 1655SOL    HW2 5865   0.149   0.930   5.647
 1656SOL     OW 5866   2.421   4.389   3.398
 1656SOL    HW1 5867   2.331   4.424   3.373
 1656SOL    HW2 5868   2.473   4.367   3.316
 1657SOL     OW 5869   0.555   0.108   5.978
 1657SOL    HW1 5870   0.624   0.155   5.923
 1657SOL    HW2 5871   0.584   0.107   6.074
 1658SOL     OW 5872   5.248   6.459   6.135
 1658SOL    HW1 5873   5.313   6.388   6.107
 1658SOL    HW2 5874   5.163   6.416   6.163
 1659SOL     OW 5875   3.951   6.921   5.801
 1659SOL    HW1 5876   3.947   6.856   5.877
 1659SOL    HW2 5877   3.862   6.966   5.791
 1660SOL     OW 5878   2.467   0.714   1.738
 1660SOL    HW1 5879   2.421   0.718   1.650
 1660SOL    HW2 5880   2.545   0.777   1.738
 1661SOL     OW 5881   4.732   4.231   2.945
 1661SOL    HW1 5882   4.749   4.142   2.901
 1661SOL    HW2 5883   4.749   4.304   2.880
 1662SOL     OW 5884   0.043   1.900   3.806
 1662SOL    HW1 5885   0.116   1.881   3.741
 1662SOL    HW2 5886   6.984   1.844   3.784
 1663SOL     OW 5887   5.578   4.057   1.088
 1663SOL    HW1 5888   5.585   4.022   0.995
 1663SOL    HW2 5889   5.669   4.062   1.130
 1664SOL     OW 5890   1.450   0.774   6.122
 1664SOL    HW1 5891   1.528   0.807   6.175
 1664SOL    HW2 5892   1.483   0.738   6.034
 1665SOL     OW 5893   2.543   4.030   6.511
 1665SOL    HW1 5894   2.587   4.020   6.422
 1665SOL    HW2 5895   2.445   4.015   6.503
 1666SOL     OW 5896   5.365   6.186   6.322
 1666SOL    HW1 5897   5.289   6.125   6.342
 1666SOL    HW2 5898   5.449   6.150   6.364
 1667SOL     OW 5899   0.077   5.347   0.510
 1667SOL    HW1 5900   0.099   5.298   0.426
 1667SOL    HW2 5901   6.999   5.346   0.525
 1668SOL     OW 5902   5.856   3.163   2.216
 1668SOL    HW1 5903   5.852   3.112   2.302
 1668SOL    HW2 5904   5.866   3.261   2.236
 1669SOL     OW 5905   6.437   2.614   6.006
 1669SOL    HW1 5906   6.462   2.580   5.915
 1669SOL    HW2 5907   6.341   2.642   6.006
 1670SOL     OW 5908   3.467   4.470   6.005
 1670SOL    HW1 5909   3.537   4.490   5.937
 1670SOL    HW2 5910   3.411   4.394   5.974
 1671SOL     OW 5911   5.691   2.159   0.522
 1671SOL    HW1 5912   5.646   2.245   0.501
 1671SOL    HW2 5913   5.728   2.162   0.615
 1672SOL     OW 5914   0.276   2.508   1.506
 1672SOL    HW1 5915   0.364   2.479   1.543
 1672SOL    HW2 5916   0.270   2.483   1.410
 1673SOL     OW 5917   1.371   0.772   4.434
 1673SOL    HW1 5918   1.300   0.735   4.375
 1673SOL    HW2 5919   1.447   0.805   4.379
 1674SOL     OW 5920   4.717   2.127   3.642
 1674SOL    HW1 5921   4.641   2.063   3.630
 1674SOL    HW2 5922   4.790   2.104   3.578
 1675SOL     OW 5923   5.555   0.280   1.829
 1675SOL    HW1 5924   5.603   0.264   1.915
 1675SOL    HW2 5925   5.508   0.368   1.832
 1676SOL     OW 5926   0.768   2.301   3.733
 1676SOL    HW1 5927   0.798   2.220   3.684
 1676SOL    HW2 5928   0.769   2.380   3.672
 1677SOL     OW 5929   2.943   3.519   2.921
 1677SOL    HW1 5930   2.941   3.618   2.933
 1677SOL    HW2 5931   2.922   3.496   2.826
 1678SOL     OW 5932   0.349   6.489   0.100
 1678SOL    HW1 5933   0.322   6.438   0.019
 1678SOL    HW2 5934   0.271   6.499   0.161
 1679SOL     OW 5935   6.388   1.472   6.969
 1679SOL    HW1 5936   6.333   1.527   0.011
 1679SOL    HW2 5937   6.350   1.480   6.876
 1680SOL     OW 5938   6.091   2.799   2.940
 1680SOL    HW1 5939   6.166   2.864   2.951
 1680SOL    HW2 5940   6.088   2.739   3.021
 1681SOL     OW 5941   3.613   6.418   4.538
 1681SOL    HW1 5942   3.653   6.436   4.628
 1681SOL    HW2 5943   3.608   6.320   4.522
 1682SOL     OW 5944   4.367   0.908   4.635
 1682SOL    HW1 5945   4.297   0.958   4.686
 1682SOL    HW2 5946   4.412   0.842   4.695
 1683SOL     OW 5947   0.118   2.668   3.059
 1683SOL    HW1 5948   0.217   2.667   3.046
 1683SOL    HW2 5949   0.087   2.763   3.066
 1684SOL     OW 5950   2.478   5.674   1.212
 1684SOL    HW1 5951   2.453   5.647   1.119
 1684SOL    HW2 5952   2.503   5.593   1.265
 1685SOL     OW 5953   0.074   1.205   5.348
 1685SOL    HW1 5954   7.020   1.141   5.331
 1685SOL    HW2 5955   0.141   1.199   5.275
 1686SOL     OW 5956   3.473   5.355   2.015
 1686SOL    HW1 5957   3.423   5.269   2.011
 1686SOL    HW2 5958   3.563   5.344   1.973
 1687SOL     OW 5959   5.056   3.878   1.149
 1687SOL    HW1 5960   5.130   3.817   1.121
 1687SOL    HW2 5961   5.095   3.960   1.191
 1688SOL     OW 5962   2.337   0.013   3.207
 1688SOL    HW1 5963   2.358   6.945   3.167
 1688SOL    HW2 5964   2.327   0.004   3.306
 1689SOL     OW 5965   3.628   0.842   2.116
 1689SOL    HW1 5966   3.615   0.938   2.093
 1689SOL    HW2 5967   3.539   0.800   2.136
 1690SOL     OW 5968   6.349   4.829   3.994
 1690SOL    HW1 5969   6.431   4.777   4.017
 1690SOL    HW2 5970   6.332   4.897   4.066
 1691SOL     OW 5971   4.017   2.721   5.336
 1691SOL    HW1 5972   4.080   2.788   5.373
 1691SOL    HW2 5973   4.068   2.647   5.293
 1692SOL     OW 5974   5.626   5.290   1.177
 1692SOL    HW1 5975   5.673   5.209   1.214
 1692SOL    HW2 5976   5.612   5.356   1.250
 1693SOL     OW 5977   5.158   6.773   5.927
 1693SOL    HW1 5978   5.247   6.787   5.971
 1693SOL    HW2 5979   5.154   6.825   5.842
 1694SOL     OW 5980   4.649   1.415   6.561
 1694SOL    HW1 5981   4.672   1.497   6.612
 1694SOL    HW2 5982   4.733   1.371   6.527
 1695SOL     OW 5983   4.135   0.585   5.685
 1695SOL    HW1 5984   4.133   0.500   5.634
 1695SOL    HW2 5985   4.187   0.653   5.633
 1696SOL     OW 5986   4.360   0.396   0.995
 1696SOL    HW1 5987   4.440   0.412   0.937
 1696SOL    HW2 5988   4.361   0.462   1.071
 1697SOL     OW 5989   4.692   2.823   1.731
 1697SOL    HW1 5990   4.679   2.880   1.813
 1697SOL    HW2 5991   4.605   2.783   1.703
 1698SOL     OW 5992   4.046   1.586   1.873
 1698SOL    HW1 5993   4.035   1.652   1.947
 1698SOL    HW2 5994   3.958   1.568   1.831
 1699SOL     OW 5995   1.960   0.736   0.543
 1699SOL    HW1 5996   1.874   0.766   0.584
 1699SOL    HW2 5997   2.033   0.798   0.570
 1700SOL     OW 5998   4.859   3.370   2.831
 1700SOL    HW1 5999   4.848   3.291   2.891
 1700SOL    HW2 6000   4.866   3.453   2.887
 1701SOL     OW 6001   1.260   5.801   4.953
 1701SOL    HW1 6002   1.320   5.828   4.877
 1701SOL    HW2 6003   1.301   5.724   5.002
 1702SOL     OW 6004   2.168   2.989   6.535
 1702SOL    HW1 6005   2.077   2.974   6.497
 1702SOL    HW2 6006   2.201   2.904   6.576
 1703SOL     OW 6007   1.261   2.320   1.877
 1703SOL    HW1 6008   1.200   2.400   1.873
 1703SOL    HW2 6009   1.210   2.238   1.853
 1704SOL     OW 6010   2.735   2.715   6.625
 1704SOL    HW1 6011   2.736   2.615   6.628
 1704SOL    HW2 6012   2.766   2.752   6.713
 1705SOL     OW 6013   5.198   3.135   0.978
 1705SOL    HW1 6014   5.275   3.162   0.921
 1705SOL    HW2 6015   5.220   3.051   1.028
 1706SOL     OW 6016   5.692   1.330   6.114
 1706SOL    HW1 6017   5.784   1.292   6.109
 1706SOL    HW2 6018   5.659   1.326   6.209
 1707SOL     OW 6019   3.895   1.226   2.430
 1707SOL    HW1 6020   3.991   1.224   2.457
 1707SOL    HW2 6021   3.876   1.147   2.371
 1708SOL     OW 6022   2.584   4.532   1.867
 1708SOL    HW1 6023   2.665   4.556   1.920
 1708SOL    HW2 6024   2.504   4.532   1.927
 1709SOL     OW 6025   5.219   4.878   0.747
 1709SOL    HW1 6026   5.261   4.856   0.834
 1709SOL    HW2 6027   5.119   4.869   0.755
 1710SOL     OW 6028   4.820   2.922   2.210
 1710SOL    HW1 6029   4.780   2.931   2.119
 1710SOL    HW2 6030   4.861   3.009   2.238
 1711SOL     OW 6031   3.976   5.558   0.408
 1711SOL    HW1 6032   4.034   5.531   0.484
 1711SOL    HW2 6033   3.892   5.504   0.409
 1712SOL     OW 6034   0.215   1.950   1.916
 1712SOL    HW1 6035   0.182   1.956   1.822
 1712SOL    HW2 6036   0.247   1.856   1.934
 1713SOL     OW 6037   2.405   1.826   2.351
 1713SOL    HW1 6038   2.391   1.882   2.270
 1713SOL    HW2 6039   2.386   1.730   2.329
 1714SOL     OW 6040   2.694   4.133   0.868
 1714SOL    HW1 6041   2.601   4.121   0.833
 1714SOL    HW2 6042   2.705   4.079   0.951
 1715SOL     OW 6043   0.835   5.776   0.791
 1715SOL    HW1 6044   0.913   5.838   0.786
 1715SOL    HW2 6045   0.869   5.682   0.804
 1716SOL     OW 6046   5.095   1.741   2.964
 1716SOL    HW1 6047   5.148   1.686   3.029
 1716SOL    HW2 6048   5.158   1.793   2.906
 1717SOL     OW 6049   4.007   6.320   3.840
 1717SOL    HW1 6050   4.016   6.262   3.921
 1717SOL    HW2 6051   4.012   6.263   3.757
 1718SOL     OW 6052   1.713   3.681   1.718
 1718SOL    HW1 6053   1.808   3.693   1.690
 1718SOL    HW2 6054   1.710   3.638   1.808
 1719SOL     OW 6055   1.715   5.548   2.905
 1719SOL    HW1 6056   1.715   5.480   2.831
 1719SOL    HW2 6057   1.621   5.576   2.923
 1720SOL     OW 6058   0.916   2.881   5.264
 1720SOL    HW1 6059   0.966   2.928   5.337
 1720SOL    HW2 6060   0.859   2.809   5.303
 1721SOL     OW 6061   2.214   2.338   0.171
 1721SOL    HW1 6062   2.225   2.389   0.256
 1721SOL    HW2 6063   2.206   2.240   0.192
 1722SOL     OW 6064   2.419   2.641   3.482
 1722SOL    HW1 6065   2.454   2.683   3.565
 1722SOL    HW2 6066   2.481   2.567   3.454
 1723SOL     OW 6067   5.557   4.623   1.273
 1723SOL    HW1 6068   5.506   4.615   1.359
 1723SOL    HW2 6069   5.499   4.595   1.197
 1724SOL     OW 6070   5.635   2.744   0.957
 1724SOL    HW1 6071   5.581   2.662   0.978
 1724SOL    HW2 6072   5.721   2.716   0.913
 1725SOL     OW 6073   2.269   6.815   5.870
 1725SOL    HW1 6074   2.266   6.716   5.884
 1725SOL    HW2 6075   2.223   6.839   5.785
 1726SOL     OW 6076   4.735   4.325   3.419
 1726SOL    HW1 6077   4.704   4.280   3.503
 1726SOL    HW2 6078   4.762   4.256   3.353
 1727SOL     OW 6079   3.452   3.242   2.936
 1727SOL    HW1 6080   3.508   3.264   3.016
 1727SOL    HW2 6081   3.370   3.299   2.935
 1728SOL     OW 6082   5.713   2.163   4.125
 1728SOL    HW1 6083   5.728   2.261   4.113
 1728SOL    HW2 6084   5.621   2.147   4.161
 1729SOL     OW 6085   1.231   2.576   2.749
 1729SOL    HW1 6086   1.158   2.547   2.811
 1729SOL    HW2 6087   1.239   2.510   2.674
 1730SOL     OW 6088   2.591   6.703   5.053
 1730SOL    HW1 6089   2.552   6.767   5.120
 1730SOL    HW2 6090   2.638   6.754   4.981
 1731SOL     OW 6091   4.988   4.247   4.071
 1731SOL    HW1 6092   5.080   4.241   4.033
 1731SOL    HW2 6093   4.991   4.291   4.161
 1732SOL     OW 6094   3.604   3.585   5.076
 1732SOL    HW1 6095   3.529   3.633   5.031
 1732SOL    HW2 6096   3.567   3.517   5.140
 1733SOL     OW 6097   1.806   2.404   6.702
 1733SOL    HW1 6098   1.890   2.406   6.648
 1733SOL    HW2 6099   1.794   2.492   6.748
 1734SOL     OW 6100   0.236   3.946   0.945
 1734SOL    HW1 6101   0.174   3.876   0.983
 1734SOL    HW2 6102   0.327   3.907   0.934
 1735SOL     OW 6103   3.096   5.270   6.107
 1735SOL    HW1 6104   3.149   5.337   6.055
 1735SOL    HW2 6105   3.051   5.207   6.044
 1736SOL     OW 6106   5.009   2.467   6.362
 1736SOL    HW1 6107   5.005   2.567   6.356
 1736SOL    HW2 6108   5.083   2.433   6.305
 1737SOL     OW 6109   2.962   0.893   5.892
 1737SOL    HW1 6110   2.988   0.882   5.988
 1737SOL    HW2 6111   2.867   0.863   5.880
 1738SOL     OW 6112   1.639   4.016   2.199
 1738SOL    HW1 6113   1.698   3.935   2.196
 1738SOL    HW2 6114   1.544   3.988   2.180
 1739SOL     OW 6115   4.939   5.409   2.879
 1739SOL    HW1 6116   4.936   5.318   2.838
 1739SOL    HW2 6117   4.985   5.404   2.968
 1740SOL     OW 6118   6.936   2.960   5.016
 1740SOL    HW1 6119   6.986   2.996   5.094
 1740SOL    HW2 6120   6.994   2.960   4.935
 1741SOL     OW 6121   0.783   2.912   4.835
 1741SOL    HW1 6122   0.827   2.977   4.773
 1741SOL    HW2 6123   0.778   2.951   4.927
 1742SOL     OW 6124   6.346   6.982   0.134
 1742SOL    HW1 6125   6.309   6.903   0.183
 1742SOL    HW2 6126   6.425   7.018   0.184
 1743SOL     OW 6127   1.443   2.403   1.525
 1743SOL    HW1 6128   1.460   2.329   1.590
 1743SOL    HW2 6129   1.367   2.379   1.465
 1744SOL     OW 6130   3.181   2.195   5.521
 1744SOL    HW1 6131   3.100   2.252   5.532
 1744SOL    HW2 6132   3.247   2.242   5.462
 1745SOL     OW 6133   6.654   6.692   0.594
 1745SOL    HW1 6134   6.584   6.751   0.555
 1745SOL    HW2 6135   6.614   6.634   0.664
 1746SOL     OW 6136   2.382   5.130   2.912
 1746SOL    HW1 6137   2.402   5.226   2.890
 1746SOL    HW2 6138   2.447   5.098   2.980
 1747SOL     OW 6139   3.754   0.011   2.216
 1747SOL    HW1 6140   3.772   0.109   2.229
 1747SOL    HW2 6141   3.660   7.019   2.186
 1748SOL     OW 6142   6.804   1.972   4.107
 1748SOL    HW1 6143   6.785   2.071   4.111
 1748SOL    HW2 6144   6.721   1.924   4.079
 1749SOL     OW 6145   6.454   5.170   2.052
 1749SOL    HW1 6146   6.480   5.179   1.956
 1749SOL    HW2 6147   6.359   5.200   2.064
 1750SOL     OW 6148   3.117   0.883   0.739
 1750SOL    HW1 6149   3.097   0.945   0.663
 1750SOL    HW2 6150   3.106   0.932   0.826
 1751SOL     OW 6151   5.409   4.048   5.069
 1751SOL    HW1 6152   5.315   4.076   5.052
 1751SOL    HW2 6153   5.410   3.975   5.137
 1752SOL     OW 6154   6.651   0.795   2.444
 1752SOL    HW1 6155   6.717   0.730   2.480
 1752SOL    HW2 6156   6.568   0.746   2.416
 1753SOL     OW 6157   6.784   1.961   1.775
 1753SOL    HW1 6158   6.782   1.989   1.679
 1753SOL    HW2 6159   6.796   1.862   1.781
 1754SOL     OW 6160   3.196   5.618   3.736
 1754SOL    HW1 6161   3.103   5.632   3.770
 1754SOL    HW2 6162   3.260   5.617   3.813
 1755SOL     OW 6163   6.574   0.429   5.148
 1755SOL    HW1 6164   6.596   0.493   5.221
 1755SOL    HW2 6165   6.638   0.352   5.150
 1756SOL     OW 6166   4.374   5.996   1.565
 1756SOL    HW1 6167   4.352   5.958   1.655
 1756SOL    HW2 6168   4.455   6.053   1.572
 1757SOL     OW 6169   3.122   4.832   5.017
 1757SOL    HW1 6170   3.057   4.869   5.084
 1757SOL    HW2 6171   3.086   4.746   4.980
 1758SOL     OW 6172   1.043   6.042   3.707
 1758SOL    HW1 6173   1.041   6.134   3.668
 1758SOL    HW2 6174   1.055   5.975   3.634
 1759SOL     OW 6175   1.086   5.147   6.964
 1759SOL    HW1 6176   1.128   5.195   6.887
 1759SOL    HW2 6177   1.013   5.087   6.930
 1760SOL     OW 6178   6.218   1.608   4.513
 1760SOL    HW1 6179   6.194   1.563   4.599
 1760SOL    HW2 6180   6.252   1.540   4.448
 1761SOL     OW 6181   5.276   1.402   3.523
 1761SOL    HW1 6182   5.364   1.361   3.501
 1761SOL    HW2 6183   5.284   1.502   3.522
 1762SOL     OW 6184   1.129   1.643   5.786
 1762SOL    HW1 6185   1.164   1.737   5.791
 1762SOL    HW2 6186   1.185   1.590   5.722
 1763SOL     OW 6187   1.688   5.248   3.368
 1763SOL    HW1 6188   1.754   5.226   3.296
 1763SOL    HW2 6189   1.736   5.253   3.456
 1764SOL     OW 6190   1.024   6.055   3.307
 1764SOL    HW1 6191   1.092   6.100   3.248
 1764SOL    HW2 6192   1.070   5.987   3.364
 1765SOL     OW 6193   5.375   4.412   2.376
 1765SOL    HW1 6194   5.290   4.432   2.426
 1765SOL    HW2 6195   5.356   4.410   2.278
 1766SOL     OW 6196   4.890   4.473   4.269
 1766SOL    HW1 6197   4.881   4.512   4.361
 1766SOL    HW2 6198   4.964   4.521   4.221
 1767SOL     OW 6199   0.441   4.756   1.755
 1767SOL    HW1 6200   0.348   4.792   1.757
 1767SOL    HW2 6201   0.463   4.722   1.664
 1768SOL     OW 6202   4.157   4.715   2.530
 1768SOL    HW1 6203   4.136   4.772   2.609
 1768SOL    HW2 6204   4.207   4.633   2.560
 1769SOL     OW 6205   5.157   0.386   1.108
 1769SOL    HW1 6206   5.189   0.393   1.202
 1769SOL    HW2 6207   5.234   0.402   1.045
 1770SOL     OW 6208   1.837   5.216   0.473
 1770SOL    HW1 6209   1.926   5.257   0.454
 1770SOL    HW2 6210   1.775   5.286   0.507
 1771SOL     OW 6211   1.513   2.924   6.601
 1771SOL    HW1 6212   1.595   2.981   6.601
 1771SOL    HW2 6213   1.521   2.855   6.528
 1772SOL     OW 6214   2.144   4.426   3.085
 1772SOL    HW1 6215   2.181   4.435   2.992
 1772SOL    HW2 6216   2.211   4.458   3.151
 1773SOL     OW 6217   2.434   6.497   5.166
 1773SOL    HW1 6218   2.472   6.570   5.109
 1773SOL    HW2 6219   2.507   6.431   5.187
 1774SOL     OW 6220   5.577   5.590   1.665
 1774SOL    HW1 6221   5.662   5.573   1.715
 1774SOL    HW2 6222   5.499   5.573   1.725
 1775SOL     OW 6223   1.107   6.169   0.618
 1775SOL    HW1 6224   1.017   6.158   0.575
 1775SOL    HW2 6225   1.178   6.138   0.554
 1776SOL     OW 6226   4.322   3.825   6.057
 1776SOL    HW1 6227   4.300   3.853   5.963
 1776SOL    HW2 6228   4.359   3.903   6.107
 1777SOL     OW 6229   4.200   6.103   0.184
 1777SOL    HW1 6230   4.217   6.200   0.167
 1777SOL    HW2 6231   4.198   6.053   0.097
 1778SOL     OW 6232   6.556   0.133   3.597
 1778SOL    HW1 6233   6.613   0.186   3.535
 1778SOL    HW2 6234   6.599   0.131   3.688
 1779SOL     OW 6235   6.061   0.424   4.481
 1779SOL    HW1 6236   6.090   0.416   4.385
 1779SOL    HW2 6237   5.962   0.419   4.486
 1780SOL     OW 6238   3.257   6.176   4.754
 1780SOL    HW1 6239   3.174   6.164   4.809
 1780SOL    HW2 6240   3.326   6.110   4.783
 1781SOL     OW 6241   4.296   1.172   5.923
 1781SOL    HW1 6242   4.209   1.163   5.874
 1781SOL    HW2 6243   4.371   1.145   5.862
 1782SOL     OW 6244   5.038   0.545   2.334
 1782SOL    HW1 6245   5.103   0.490   2.386
 1782SOL    HW2 6246   4.966   0.577   2.396
 1783SOL     OW 6247   1.898   3.923   6.663
 1783SOL    HW1 6248   1.815   3.887   6.620
 1783SOL    HW2 6249   1.874   3.974   6.746
 1784SOL     OW 6250   2.519   6.351   1.183
 1784SOL    HW1 6251   2.577   6.414   1.234
 1784SOL    HW2 6252   2.536   6.361   1.085
 1785SOL     OW 6253   1.827   5.892   4.361
 1785SOL    HW1 6254   1.859   5.956   4.291
 1785SOL    HW2 6255   1.866   5.918   4.449
 1786SOL     OW 6256   0.762   5.926   1.505
 1786SOL    HW1 6257   0.838   5.884   1.456
 1786SOL    HW2 6258   0.737   6.012   1.461
 1787SOL     OW 6259   2.108   2.315   5.498
 1787SOL    HW1 6260   2.185   2.271   5.544
 1787SOL    HW2 6261   2.143   2.377   5.427
 1788SOL     OW 6262   3.906   4.042   0.492
 1788SOL    HW1 6263   3.842   4.003   0.558
 1788SOL    HW2 6264   3.918   3.979   0.416
 1789SOL     OW 6265   5.732   3.063   1.890
 1789SOL    HW1 6266   5.692   2.972   1.899
 1789SOL    HW2 6267   5.823   3.064   1.932
 1790SOL     OW 6268   2.155   1.937   4.633
 1790SOL    HW1 6269   2.168   1.914   4.729
 1790SOL    HW2 6270   2.210   2.018   4.611
 1791SOL     OW 6271   5.542   0.419   3.738
 1791SOL    HW1 6272   5.453   0.397   3.698
 1791SOL    HW2 6273   5.613   0.409   3.669
 1792SOL     OW 6274   6.630   2.378   6.598
 1792SOL    HW1 6275   6.672   2.414   6.681
 1792SOL    HW2 6276   6.583   2.452   6.549
 1793SOL     OW 6277   0.057   1.129   4.485
 1793SOL    HW1 6278   0.032   1.226   4.489
 1793SOL    HW2 6279   0.042   1.095   4.392
 1794SOL     OW 6280   0.486   1.610   6.353
 1794SOL    HW1 6281   0.421   1.684   6.335
 1794SOL    HW2 6282   0.539   1.592   6.270
 1795SOL     OW 6283   5.511   4.720   0.679
 1795SOL    HW1 6284   5.578   4.791   0.701
 1795SOL    HW2 6285   5.422   4.746   0.716
 1796SOL     OW 6286   5.810   0.055   0.803
 1796SOL    HW1 6287   5.818   0.155   0.806
 1796SOL    HW2 6288   5.887   0.015   0.853
 1797SOL     OW 6289   3.076   6.002   5.556
 1797SOL    HW1 6290   3.072   6.088   5.505
 1797SOL    HW2 6291   3.027   6.012   5.642
 1798SOL     OW 6292   2.216   3.516   6.005
 1798SOL    HW1 6293   2.272   3.551   5.930
 1798SOL    HW2 6294   2.272   3.459   6.065
 1799SOL     OW 6295   3.442   1.353   2.122
 1799SOL    HW1 6296   3.454   1.452   2.131
 1799SOL    HW2 6297   3.477   1.308   2.204
 1800SOL     OW 6298   6.246   2.945   6.095
 1800SOL    HW1 6299   6.245   2.888   6.013
 1800SOL    HW2 6300   6.202   2.897   6.171
 1801SOL     OW 6301   0.139   1.399   2.538
 1801SOL    HW1 6302   0.100   1.360   2.622
 1801SOL    HW2 6303   0.239   1.400   2.544
 1802SOL     OW 6304   5.977   4.676   4.214
 1802SOL    HW1 6305   5.892   4.727   4.209
 1802SOL    HW2 6306   6.024   4.695   4.300
 1803SOL     OW 6307   0.273   6.760   4.192
 1803SOL    HW1 6308   0.317   6.842   4.155
 1803SOL    HW2 6309   0.183   6.783   4.227
 1804SOL     OW 6310   1.243   2.729   6.669
 1804SOL    HW1 6311   1.212   2.813   6.713
 1804SOL    HW2 6312   1.273   2.750   6.576
 1805SOL     OW 6313   5.862   4.623   6.851
 1805SOL    HW1 6314   5.789   4.558   6.871
 1805SOL    HW2 6315   5.944   4.573   6.824
 1806SOL     OW 6316   0.685   1.960   1.464
 1806SOL    HW1 6317   0.728   1.983   1.377
 1806SOL    HW2 6318   0.693   2.038   1.527
 1807SOL     OW 6319   5.929   2.931   2.380
 1807SOL    HW1 6320   5.989   2.943   2.459
 1807SOL    HW2 6321   5.839   2.901   2.411
 1808SOL     OW 6322   5.698   0.968   6.433
 1808SOL    HW1 6323   5.721   1.042   6.496
 1808SOL    HW2 6324   5.603   0.980   6.402
 1809SOL     OW 6325   5.003   0.325   5.549
 1809SOL    HW1 6326   4.912   0.313   5.589
 1809SOL    HW2 6327   5.065   0.257   5.588
 1810SOL     OW 6328   1.258   1.257   4.638
 1810SOL    HW1 6329   1.177   1.256   4.697
 1810SOL    HW2 6330   1.327   1.318   4.678
 1811SOL     OW 6331   3.024   5.757   2.341
 1811SOL    HW1 6332   3.108   5.779   2.291
 1811SOL    HW2 6333   2.946   5.796   2.293
 1812SOL     OW 6334   4.022   0.432   6.158
 1812SOL    HW1 6335   4.024   0.447   6.059
 1812SOL    HW2 6336   4.027   0.520   6.205
 1813SOL     OW 6337   5.137   3.691   1.635
 1813SOL    HW1 6338   5.167   3.664   1.726
 1813SOL    HW2 6339   5.055   3.748   1.642
 1814SOL     OW 6340   6.779   5.900   0.741
 1814SOL    HW1 6341   6.802   5.992   0.709
 1814SOL    HW2 6342   6.806   5.890   0.836
 1815SOL     OW 6343   6.246   5.178   1.012
 1815SOL    HW1 6344   6.256   5.138   0.922
 1815SOL    HW2 6345   6.172   5.246   1.011
 1816SOL     OW 6346   3.799   5.242   4.133
 1816SOL    HW1 6347   3.740   5.322   4.144
 1816SOL    HW2 6348   3.893   5.268   4.153
 1817SOL     OW 6349   6.500   2.865   3.454
 1817SOL    HW1 6350   6.580   2.810   3.479
 1817SOL    HW2 6351   6.513   2.959   3.486
 1818SOL     OW 6352   2.186   1.446   0.676
 1818SOL    HW1 6353   2.143   1.356   0.671
 1818SOL    HW2 6354   2.180   1.491   0.587
 1819SOL     OW 6355   0.750   3.994   1.572
 1819SOL    HW1 6356   0.780   3.997   1.477
 1819SOL    HW2 6357   0.704   4.079   1.596
 1820SOL     OW 6358   4.180   6.917   5.145
 1820SOL    HW1 6359   4.194   6.845   5.212
 1820SOL    HW2 6360   4.231   6.896   5.061
 1821SOL     OW 6361   4.067   1.488   2.914
 1821SOL    HW1 6362   4.006   1.559   2.878
 1821SOL    HW2 6363   4.121   1.449   2.839
 1822SOL     OW 6364   1.841   3.908   4.114
 1822SOL    HW1 6365   1.748   3.923   4.081
 1822SOL    HW2 6366   1.905   3.959   4.057
 1823SOL     OW 6367   3.336   6.620   3.492
 1823SOL    HW1 6368   3.368   6.526   3.502
 1823SOL    HW2 6369   3.414   6.680   3.475
 1824SOL     OW 6370   4.678   3.164   1.637
 1824SOL    HW1 6371   4.661   3.262   1.624
 1824SOL    HW2 6372   4.633   3.133   1.721
 1825SOL     OW 6373   1.367   3.625   0.056
 1825SOL    HW1 6374   1.275   3.597   0.028
 1825SOL    HW2 6375   1.434   3.558   0.022
 1826SOL     OW 6376   3.667   2.771   0.751
 1826SOL    HW1 6377   3.575   2.779   0.713
 1826SOL    HW2 6378   3.734   2.794   0.680
 1827SOL     OW 6379   4.934   4.399   0.367
 1827SOL    HW1 6380   5.027   4.437   0.363
 1827SOL    HW2 6381   4.919   4.355   0.455
 1828SOL     OW 6382   2.569   4.653   4.805
 1828SOL    HW1 6383   2.646   4.611   4.852
 1828SOL    HW2 6384   2.568   4.752   4.823
 1829SOL     OW 6385   2.459   6.260   1.928
 1829SOL    HW1 6386   2.535   6.321   1.950
 1829SOL    HW2 6387   2.447   6.193   2.002
 1830SOL     OW 6388   4.266   1.146   6.625
 1830SOL    HW1 6389   4.227   1.089   6.553
 1830SOL    HW2 6390   4.264   1.096   6.712
 1831SOL     OW 6391   3.636   4.738   0.234
 1831SOL    HW1 6392   3.554   4.690   0.203
 1831SOL    HW2 6393   3.684   4.776   0.155
 1832SOL     OW 6394   1.845   3.746   5.307
 1832SOL    HW1 6395   1.892   3.813   5.365
 1832SOL    HW2 6396   1.780   3.793   5.248
 1833SOL     OW 6397   5.650   0.940   0.127
 1833SOL    HW1 6398   5.709   0.944   0.047
 1833SOL    HW2 6399   5.701   0.901   0.204
 1834SOL     OW 6400   1.615   3.838   6.558
 1834SOL    HW1 6401   1.531   3.784   6.550
 1834SOL    HW2 6402   1.636   3.881   6.471
 1835SOL     OW 6403   6.614   6.429   1.089
 1835SOL    HW1 6404   6.666   6.514   1.090
 1835SOL    HW2 6405   6.663   6.361   1.033
 1836SOL     OW 6406   6.043   2.033   2.992
 1836SOL    HW1 6407   5.991   1.948   2.999
 1836SOL    HW2 6408   6.094   2.033   2.906
 1837SOL     OW 6409   1.680   1.903   0.116
 1837SOL    HW1 6410   1.694   1.804   0.113
 1837SOL    HW2 6411   1.583   1.924   0.104
 1838SOL     OW 6412   4.749   0.216   0.589
 1838SOL    HW1 6413   4.809   0.230   0.667
 1838SOL    HW2 6414   4.776   0.277   0.514
 1839SOL     OW 6415   6.662   0.710   6.762
 1839SOL    HW1 6416   6.667   0.752   6.853
 1839SOL    HW2 6417   6.743   0.736   6.709
 1840SOL     OW 6418   3.844   6.965   5.042
 1840SOL    HW1 6419   3.921   6.960   5.105
 1840SOL    HW2 6420   3.768   7.014   5.086
 1841SOL     OW 6421   2.100   0.795   1.643
 1841SOL    HW1 6422   2.146   0.883   1.648
 1841SOL    HW2 6423   2.068   0.769   1.734
 1842SOL     OW 6424   6.943   5.144   1.233
 1842SOL    HW1 6425   6.957   5.167   1.137
 1842SOL    HW2 6426   6.850   5.169   1.260
 1843SOL     OW 6427   2.848   1.369   6.986
 1843SOL    HW1 6428   2.758   1.400   7.017
 1843SOL    HW2 6429   2.874   1.420   6.904
 1844SOL     OW 6430   5.170   3.231   0.357
 1844SOL    HW1 6431   5.235   3.305   0.377
 1844SOL    HW2 6432   5.103   3.226   0.431
 1845SOL     OW 6433   1.256   2.669   4.066
 1845SOL    HW1 6434   1.231   2.578   4.098
 1845SOL    HW2 6435   1.322   2.710   4.130
 1846SOL     OW 6436   3.508   1.621   2.120
 1846SOL    HW1 6437   3.530   1.619   2.217
 1846SOL    HW2 6438   3.462   1.707   2.098
 1847SOL     OW 6439   2.106   6.264   6.771
 1847SOL    HW1 6440   2.042   6.274   6.695
 1847SOL    HW2 6441   2.117   6.167   6.792
 1848SOL     OW 6442   3.984   6.574   3.768
 1848SOL    HW1 6443   4.040   6.637   3.823
 1848SOL    HW2 6444   4.000   6.480   3.799
 1849SOL     OW 6445   4.910   2.959   2.845
 1849SOL    HW1 6446   5.000   2.945   2.886
 1849SOL    HW2 6447   4.866   2.871   2.828
 1850SOL     OW 6448   4.445   1.482   0.891
 1850SOL    HW1 6449   4.383   1.475   0.969
 1850SOL    HW2 6450   4.492   1.570   0.893
 1851SOL     OW 6451   0.406   5.046   4.357
 1851SOL    HW1 6452   0.494   5.061   4.402
 1851SOL    HW2 6453   0.337   5.106   4.397
 1852SOL     OW 6454   0.832   6.627   3.443
 1852SOL    HW1 6455   0.808   6.591   3.353
 1852SOL    HW2 6456   0.859   6.723   3.434
 1853SOL     OW 6457   1.077   1.924   5.866
 1853SOL    HW1 6458   1.141   1.953   5.937
 1853SOL    HW2 6459   1.121   1.935   5.776
 1854SOL     OW 6460   0.545   0.292   4.197
 1854SOL    HW1 6461   0.475   0.237   4.243
 1854SOL    HW2 6462   0.501   0.352   4.130
 1855SOL     OW 6463   6.743   1.823   4.830
 1855SOL    HW1 6464   6.748   1.757   4.905
 1855SOL    HW2 6465   6.656   1.814   4.783
 1856SOL     OW 6466   4.988   4.269   6.748
 1856SOL    HW1 6467   5.029   4.311   6.829
 1856SOL    HW2 6468   5.013   4.322   6.666
 1857SOL     OW 6469   3.908   1.415   6.358
 1857SOL    HW1 6470   3.981   1.357   6.321
 1857SOL    HW2 6471   3.949   1.490   6.409
 1858SOL     OW 6472   5.441   1.775   5.281
 1858SOL    HW1 6473   5.425   1.756   5.184
 1858SOL    HW2 6474   5.521   1.724   5.312
 1859SOL     OW 6475   6.721   6.626   2.481
 1859SOL    HW1 6476   6.770   6.650   2.565
 1859SOL    HW2 6477   6.629   6.666   2.484
 1860SOL     OW 6478   2.657   0.878   6.301
 1860SOL    HW1 6479   2.651   0.883   6.401
 1860SOL    HW2 6480   2.726   0.811   6.275
 1861SOL     OW 6481   6.575   6.500   5.447
 1861SOL    HW1 6482   6.535   6.410   5.463
 1861SOL    HW2 6483   6.544   6.535   5.358
 1862SOL     OW 6484   3.276   5.991   6.320
 1862SOL    HW1 6485   3.340   5.982   6.396
 1862SOL    HW2 6486   3.328   6.003   6.235
 1863SOL     OW 6487   0.013   1.449   1.674
 1863SOL    HW1 6488   7.009   1.378   1.740
 1863SOL    HW2 6489   6.964   1.454   1.603
 1864SOL     OW 6490   2.170   6.842   2.150
 1864SOL    HW1 6491   2.199   6.757   2.193
 1864SOL    HW2 6492   2.116   6.896   2.214
 1865SOL     OW 6493   6.390   2.139   6.082
 1865SOL    HW1 6494   6.294   2.148   6.105
 1865SOL    HW2 6495   6.415   2.207   6.013
 1866SOL     OW 6496   6.951   4.522   3.797
 1866SOL    HW1 6497   7.000   4.436   3.788
 1866SOL    HW2 6498   7.001   4.595   3.750
 1867SOL     OW 6499   1.415   1.034   1.878
 1867SOL    HW1 6500   1.393   1.077   1.790
 1867SOL    HW2 6501   1.443   0.939   1.862
 1868SOL     OW 6502   4.746   4.059   6.102
 1868SOL    HW1 6503   4.820   4.033   6.163
 1868SOL    HW2 6504   4.700   3.977   6.068
 1869SOL     OW 6505   5.533   0.591   5.231
 1869SOL    HW1 6506   5.454   0.592   5.292
 1869SOL    HW2 6507   5.604   0.652   5.268
 1870SOL     OW 6508   6.171   0.391   6.142
 1870SOL    HW1 6509   6.106   0.453   6.187
 1870SOL    HW2 6510   6.121   0.329   6.081
 1871SOL     OW 6511   1.241   5.530   6.753
 1871SOL    HW1 6512   1.156   5.481   6.736
 1871SOL    HW2 6513   1.245   5.556   6.850
 1872SOL     OW 6514   2.292   3.321   1.022
 1872SOL    HW1 6515   2.236   3.314   1.104
 1872SOL    HW2 6516   2.268   3.404   0.972
 1873SOL     OW 6517   5.900   1.698   2.273
 1873SOL    HW1 6518   5.903   1.766   2.346
 1873SOL    HW2 6519   5.858   1.738   2.192
 1874SOL     OW 6520   1.447   6.081   6.158
 1874SOL    HW1 6521   1.415   5.999   6.204
 1874SOL    HW2 6522   1.546   6.078   6.146
 1875SOL     OW 6523   0.928   6.487   2.447
 1875SOL    HW1 6524   0.921   6.434   2.532
 1875SOL    HW2 6525   1.004   6.552   2.455
 1876SOL     OW 6526   0.743   4.525   0.514
 1876SOL    HW1 6527   0.840   4.541   0.496
 1876SOL    HW2 6528   0.711   4.588   0.585
 1877SOL     OW 6529   1.192   1.067   2.938
 1877SOL    HW1 6530   1.269   1.131   2.936
 1877SOL    HW2 6531   1.162   1.054   3.033
 1878SOL     OW 6532   5.520   3.585   4.406
 1878SOL    HW1 6533   5.609   3.618   4.440
 1878SOL    HW2 6534   5.465   3.553   4.484
 1879SOL     OW 6535   4.385   6.329   5.265
 1879SOL    HW1 6536   4.291   6.349   5.237
 1879SOL    HW2 6537   4.448   6.351   5.191
 1880SOL     OW 6538   1.392   2.872   4.249
 1880SOL    HW1 6539   1.399   2.962   4.207
 1880SOL    HW2 6540   1.320   2.872   4.318
 1881SOL     OW 6541   1.966   1.321   4.129
 1881SOL    HW1 6542   1.906   1.331   4.208
 1881SOL    HW2 6543   1.921   1.359   4.048
 1882SOL     OW 6544   3.299   5.596   0.790
 1882SOL    HW1 6545   3.202   5.607   0.767
 1882SOL    HW2 6546   3.352   5.670   0.749
 1883SOL     OW 6547   1.988   3.443   2.410
 1883SOL    HW1 6548   1.908   3.383   2.419
 1883SOL    HW2 6549   2.002   3.493   2.495
 1884SOL     OW 6550   4.836   0.306   0.303
 1884SOL    HW1 6551   4.776   0.308   0.223
 1884SOL    HW2 6552   4.924   0.346   0.280
 1885SOL     OW 6553   0.118   1.220   0.352
 1885SOL    HW1 6554   0.182   1.260   0.286
 1885SOL    HW2 6555   0.166   1.202   0.438
 1886SOL     OW 6556   3.582   2.888   5.639
 1886SOL    HW1 6557   3.594   2.793   5.670
 1886SOL    HW2 6558   3.638   2.949   5.696
 1887SOL     OW 6559   0.701   5.911   4.770
 1887SOL    HW1 6560   0.707   5.813   4.751
 1887SOL    HW2 6561   0.793   5.949   4.774
 1888SOL     OW 6562   1.664   1.557   5.899
 1888SOL    HW1 6563   1.667   1.622   5.975
 1888SOL    HW2 6564   1.569   1.541   5.873
 1889SOL     OW 6565   3.614   2.780   6.930
 1889SOL    HW1 6566   3.675   2.827   6.995
 1889SOL    HW2 6567   3.660   2.771   6.842
 1890SOL     OW 6568   6.247   5.885   6.361
 1890SOL    HW1 6569   6.307   5.941   6.304
 1890SOL    HW2 6570   6.208   5.811   6.306
 1891SOL     OW 6571   5.297   3.389   0.084
 1891SOL    HW1 6572   5.317   3.360   0.178
 1891SOL    HW2 6573   5.380   3.379   0.029
 1892SOL     OW 6574   3.895   0.397   3.344
 1892SOL    HW1 6575   3.948   0.348   3.275
 1892SOL    HW2 6576   3.798   0.373   3.336
 1893SOL     OW 6577   2.629   0.863   6.626
 1893SOL    HW1 6578   2.544   0.828   6.586
 1893SOL    HW2 6579   2.692   0.787   6.643
 1894SOL     OW 6580   4.996   2.860   0.474
 1894SOL    HW1 6581   5.042   2.804   0.405
 1894SOL    HW2 6582   4.934   2.924   0.429
 1895SOL     OW 6583   5.038   5.391   3.169
 1895SOL    HW1 6584   5.075   5.307   3.209
 1895SOL    HW2 6585   4.966   5.428   3.228
 1896SOL     OW 6586   6.845   1.888   5.189
 1896SOL    HW1 6587   6.800   1.827   5.123
 1896SOL    HW2 6588   6.944   1.887   5.174
 1897SOL     OW 6589   4.933   4.952   3.410
 1897SOL    HW1 6590   5.017   4.903   3.432
 1897SOL    HW2 6591   4.891   4.986   3.494
 1898SOL     OW 6592   5.593   6.506   6.897
 1898SOL    HW1 6593   5.671   6.518   6.958
 1898SOL    HW2 6594   5.511   6.548   6.937
 1899SOL     OW 6595   2.158   2.919   3.313
 1899SOL    HW1 6596   2.172   2.982   3.389
 1899SOL    HW2 6597   2.140   2.970   3.230
 1900SOL     OW 6598   1.993   5.464   1.541
 1900SOL    HW1 6599   1.936   5.511   1.609
 1900SOL    HW2 6600   1.936   5.434   1.465
 1901SOL     OW 6601   1.734   0.468   5.307
 1901SOL    HW1 6602   1.826   0.504   5.288
 1901SOL    HW2 6603   1.691   0.439   5.221
 1902SOL     OW 6604   1.026   3.055   3.774
 1902SOL    HW1 6605   1.077   3.141   3.779
 1902SOL    HW2 6606   1.056   2.994   3.848
 1903SOL     OW 6607   6.650   4.854   3.825
 1903SOL    HW1 6608   6.612   4.790   3.758
 1903SOL    HW2 6609   6.591   4.934   3.832
 1904SOL     OW 6610   0.951   0.372   4.014
 1904SOL    HW1 6611   1.036   0.387   3.963
 1904SOL    HW2 6612   0.880   0.432   3.978
 1905SOL     OW 6613   6.118   2.666   4.965
 1905SOL    HW1 6614   6.041   2.602   4.974
 1905SOL    HW2 6615   6.086   2.759   4.978
 1906SOL     OW 6616   2.230   6.910   5.611
 1906SOL    HW1 6617   2.301   6.957   5.558
 1906SOL    HW2 6618   2.150   6.970   5.620
 1907SOL     OW 6619   4.280   6.998   3.272
 1907SOL    HW1 6620   4.224   6.965   3.196
 1907SOL    HW2 6621   4.288   6.927   3.342
 1908SOL     OW 6622   4.505   5.693   1.118
 1908SOL    HW1 6623   4.483   5.746   1.036
 1908SOL    HW2 6624   4.533   5.754   1.192
 1909SOL     OW 6625   5.244   5.174   3.592
 1909SOL    HW1 6626   5.239   5.084   3.635
 1909SOL    HW2 6627   5.339   5.206   3.594
 1910SOL     OW 6628   4.901   3.354   4.305
 1910SOL    HW1 6629   4.922   3.296   4.383
 1910SOL    HW2 6630   4.915   3.303   4.220
 1911SOL     OW 6631   0.671   2.636   5.866
 1911SOL    HW1 6632   0.627   2.601   5.948
 1911SOL    HW2 6633   0.757   2.682   5.891
 1912SOL     OW 6634   3.562   6.248   3.024
 1912SOL    HW1 6635   3.585   6.308   2.947
 1912SOL    HW2 6636   3.560   6.300   3.109
 1913SOL     OW 6637   2.339   4.132   5.619
 1913SOL    HW1 6638   2.429   4.109   5.583
 1913SOL    HW2 6639   2.336   4.229   5.644
 1914SOL     OW 6640   4.391   1.731   4.733
 1914SOL    HW1 6641   4.326   1.807   4.725
 1914SOL    HW2 6642   4.368   1.675   4.813
 1915SOL     OW 6643   3.099   0.220   5.558
 1915SOL    HW1 6644   3.033   0.246   5.629
 1915SOL    HW2 6645   3.136   0.129   5.578
 1916SOL     OW 6646   3.399   6.379   2.631
 1916SOL    HW1 6647   3.307   6.366   2.667
 1916SOL    HW2 6648   3.463   6.391   2.706
 1917SOL     OW 6649   3.448   3.826   4.243
 1917SOL    HW1 6650   3.435   3.917   4.204
 1917SOL    HW2 6651   3.419   3.757   4.177
 1918SOL     OW 6652   6.987   6.364   5.347
 1918SOL    HW1 6653   6.988   6.325   5.254
 1918SOL    HW2 6654   0.030   6.312   5.405
 1919SOL     OW 6655   6.674   0.979   2.638
 1919SOL    HW1 6656   6.640   0.928   2.718
 1919SOL    HW2 6657   6.680   0.917   2.559
 1920SOL     OW 6658   6.331   6.483   5.108
 1920SOL    HW1 6659   6.321   6.454   5.203
 1920SOL    HW2 6660   6.253   6.449   5.055
 1921SOL     OW 6661   2.173   6.691   0.046
 1921SOL    HW1 6662   2.127   6.630   0.110
 1921SOL    HW2 6663   2.128   6.688   6.978
 1922SOL     OW 6664   3.456   4.214   0.737
 1922SOL    HW1 6665   3.451   4.245   0.832
 1922SOL    HW2 6666   3.433   4.290   0.677
 1923SOL     OW 6667   1.671   2.732   0.800
 1923SOL    HW1 6668   1.631   2.738   0.708
 1923SOL    HW2 6669   1.756   2.681   0.796
 1924SOL     OW 6670   0.936   3.876   1.109
 1924SOL    HW1 6671   1.021   3.823   1.109
 1924SOL    HW2 6672   0.879   3.849   1.032
 1925SOL     OW 6673   3.189   4.613   0.268
 1925SOL    HW1 6674   3.101   4.579   0.300
 1925SOL    HW2 6675   3.225   4.552   0.197
 1926SOL     OW 6676   0.499   0.737   3.719
 1926SOL    HW1 6677   0.440   0.792   3.661
 1926SOL    HW2 6678   0.514   0.784   3.806
 1927SOL     OW 6679   5.124   3.356   1.552
 1927SOL    HW1 6680   5.149   3.278   1.610
 1927SOL    HW2 6681   5.029   3.380   1.568
 1928SOL     OW 6682   0.058   5.658   4.462
 1928SOL    HW1 6683   7.006   5.723   4.484
 1928SOL    HW2 6684   0.058   5.583   4.528
 1929SOL     OW 6685   1.496   5.688   2.908
 1929SOL    HW1 6686   1.459   5.764   2.961
 1929SOL    HW2 6687   1.435   5.668   2.831
 1930SOL     OW 6688   6.854   5.504   6.155
 1930SOL    HW1 6689   6.878   5.601   6.149
 1930SOL    HW2 6690   6.898   5.464   6.235
 1931SOL     OW 6691   0.868   2.452   4.242
 1931SOL    HW1 6692   0.775   2.418   4.227
 1931SOL    HW2 6693   0.908   2.407   4.321
 1932SOL     OW 6694   5.890   3.578   2.565
 1932SOL    HW1 6695   5.912   3.508   2.498
 1932SOL    HW2 6696   5.814   3.548   2.622
 1933SOL     OW 6697   2.806   5.099   0.229
 1933SOL    HW1 6698   2.841   5.175   0.283
 1933SOL    HW2 6699   2.859   5.091   0.144
 1934SOL     OW 6700   0.061   6.069   3.001
 1934SOL    HW1 6701   6.990   6.035   3.024
 1934SOL    HW2 6702   0.128   5.996   3.010
 1935SOL     OW 6703   1.996   1.318   3.427
 1935SOL    HW1 6704   1.913   1.374   3.423
 1935SOL    HW2 6705   1.973   1.227   3.462
 1936SOL     OW 6706   6.896   5.915   5.296
 1936SOL    HW1 6707   6.987   5.903   5.258
 1936SOL    HW2 6708   6.893   5.999   5.350
 1937SOL     OW 6709   4.110   1.074   3.198
 1937SOL    HW1 6710   4.185   1.008   3.192
 1937SOL    HW2 6711   4.088   1.109   3.107
 1938SOL     OW 6712   5.794   0.417   4.485
 1938SOL    HW1 6713   5.754   0.354   4.419
 1938SOL    HW2 6714   5.756   0.508   4.471
 1939SOL     OW 6715   2.876   0.414   4.769
 1939SOL    HW1 6716   2.875   0.351   4.846
 1939SOL    HW2 6717   2.783   0.430   4.737
 1940SOL     OW 6718   6.250   6.268   6.347
 1940SOL    HW1 6719   6.286   6.350   6.302
 1940SOL    HW2 6720   6.165   6.240   6.303
 1941SOL     OW 6721   4.698   4.892   2.476
 1941SOL    HW1 6722   4.780   4.948   2.492
 1941SOL    HW2 6723   4.666   4.855   2.563
 1942SOL     OW 6724   0.306   3.833   3.151
 1942SOL    HW1 6725   0.316   3.742   3.191
 1942SOL    HW2 6726   0.321   3.902   3.222
 1943SOL     OW 6727   2.917   5.775   3.452
 1943SOL    HW1 6728   2.933   5.782   3.353
 1943SOL    HW2 6729   2.947   5.859   3.496
 1944SOL     OW 6730   6.977   6.617   1.976
 1944SOL    HW1 6731   6.984   6.526   2.015
 1944SOL    HW2 6732   0.035   6.672   2.002
 1945SOL     OW 6733   3.188   4.961   3.079
 1945SOL    HW1 6734   3.147   4.896   3.143
 1945SOL    HW2 6735   3.187   4.923   2.987
 1946SOL     OW 6736   1.198   6.772   6.821
 1946SOL    HW1 6737   1.148   6.720   6.751
 1946SOL    HW2 6738   1.288   6.798   6.786
 1947SOL     OW 6739   4.595   0.027   3.484
 1947SOL    HW1 6740   4.695   0.028   3.486
 1947SOL    HW2 6741   4.560   0.119   3.500
 1948SOL     OW 6742   6.292   3.695   4.910
 1948SOL    HW1 6743   6.340   3.762   4.853
 1948SOL    HW2 6744   6.304   3.720   5.006
 1949SOL     OW 6745   4.313   4.495   6.664
 1949SOL    HW1 6746   4.240   4.518   6.599
 1949SOL    HW2 6747   4.306   4.556   6.743
 1950SOL     OW 6748   3.681   5.343   1.032
 1950SOL    HW1 6749   3.721   5.251   1.031
 1950SOL    HW2 6750   3.752   5.411   1.014
 1951SOL     OW 6751   6.403   2.492   0.723
 1951SOL    HW1 6752   6.357   2.550   0.656
 1951SOL    HW2 6753   6.502   2.509   0.720
 1952SOL     OW 6754   3.132   3.033   4.629
 1952SOL    HW1 6755   3.094   2.945   4.659
 1952SOL    HW2 6756   3.088   3.061   4.544
 1953SOL     OW 6757   0.359   2.806   4.649
 1953SOL    HW1 6758   0.385   2.824   4.554
 1953SOL    HW2 6759   0.332   2.892   4.693
 1954SOL     OW 6760   2.623   1.777   3.809
 1954SOL    HW1 6761   2.618   1.877   3.815
 1954SOL    HW2 6762   2.639   1.739   3.900
 1955SOL     OW 6763   6.033   5.562   1.697
 1955SOL    HW1 6764   5.954   5.575   1.758
 1955SOL    HW2 6765   6.013   5.604   1.608
 1956SOL     OW 6766   5.086   5.840   2.518
 1956SOL    HW1 6767   5.138   5.914   2.562
 1956SOL    HW2 6768   5.068   5.769   2.586
 1957SOL     OW 6769   1.697   6.596   4.462
 1957SOL    HW1 6770   1.674   6.504   4.494
 1957SOL    HW2 6771   1.721   6.654   4.540
 1958SOL     OW 6772   3.946   3.680   5.694
 1958SOL    HW1 6773   3.862   3.626   5.695
 1958SOL    HW2 6774   3.932   3.765   5.745
 1959SOL     OW 6775   2.120   0.983   0.490
 1959SOL    HW1 6776   2.041   0.961   0.432
 1959SOL    HW2 6777   2.199   1.002   0.432
 1960SOL     OW 6778   5.577   5.819   2.701
 1960SOL    HW1 6779   5.637   5.887   2.743
 1960SOL    HW2 6780   5.488   5.821   2.747
 1961SOL     OW 6781   6.007   5.100   5.313
 1961SOL    HW1 6782   6.064   5.023   5.286
 1961SOL    HW2 6783   6.065   5.177   5.339
 1962SOL     OW 6784   0.050   6.767   3.921
 1962SOL    HW1 6785   0.063   6.707   4.000
 1962SOL    HW2 6786   0.138   6.808   3.896
 1963SOL     OW 6787   2.480   0.785   3.728
 1963SOL    HW1 6788   2.385   0.804   3.704
 1963SOL    HW2 6789   2.496   0.687   3.726
 1964SOL     OW 6790   5.968   3.396   2.374
 1964SOL    HW1 6791   6.024   3.369   2.453
 1964SOL    HW2 6792   6.026   3.401   2.293
 1965SOL     OW 6793   2.225   6.278   3.289
 1965SOL    HW1 6794   2.243   6.353   3.225
 1965SOL    HW2 6795   2.243   6.310   3.382
 1966SOL     OW 6796   6.131   0.264   6.891
 1966SOL    HW1 6797   6.046   0.259   6.943
 1966SOL    HW2 6798   6.137   0.353   6.846
 1967SOL     OW 6799   5.278   3.609   5.225
 1967SOL    HW1 6800   5.330   3.643   5.147
 1967SOL    HW2 6801   5.182   3.597   5.199
 1968SOL     OW 6802   3.836   5.010   4.676
 1968SOL    HW1 6803   3.825   4.988   4.579
 1968SOL    HW2 6804   3.747   5.002   4.721
 1969SOL     OW 6805   6.699   1.488   1.902
 1969SOL    HW1 6806   6.622   1.488   1.965
 1969SOL    HW2 6807   6.784   1.478   1.952
 1970SOL     OW 6808   1.992   0.768   3.432
 1970SOL    HW1 6809   1.979   0.867   3.424
 1970SOL    HW2 6810   1.904   0.722   3.429
 1971SOL     OW 6811   0.307   1.303   6.140
 1971SOL    HW1 6812   0.402   1.320   6.166
 1971SOL    HW2 6813   0.298   1.307   6.041
 1972SOL     OW 6814   1.490   0.453   3.245
 1972SOL    HW1 6815   1.580   0.451   3.289
 1972SOL    HW2 6816   1.486   0.383   3.174
 1973SOL     OW 6817   2.689   3.494   0.075
 1973SOL    HW1 6818   2.609   3.551   0.059
 1973SOL    HW2 6819   2.663   3.398   0.079
 1974SOL     OW 6820   5.880   6.886   4.474
 1974SOL    HW1 6821   5.938   6.890   4.392
 1974SOL    HW2 6822   5.922   6.940   4.547
 1975SOL     OW 6823   2.755   0.301   3.643
 1975SOL    HW1 6824   2.733   0.246   3.723
 1975SOL    HW2 6825   2.842   0.349   3.658
 1976SOL     OW 6826   6.348   3.852   6.554
 1976SOL    HW1 6827   6.395   3.766   6.536
 1976SOL    HW2 6828   6.414   3.922   6.579
 1977SOL     OW 6829   2.947   1.872   5.552
 1977SOL    HW1 6830   2.997   1.807   5.609
 1977SOL    HW2 6831   3.010   1.913   5.486
 1978SOL     OW 6832   0.000   2.256   5.411
 1978SOL    HW1 6833   6.935   2.209   5.428
 1978SOL    HW2 6834   0.075   2.190   5.411
 1979SOL     OW 6835   6.153   4.063   2.190
 1979SOL    HW1 6836   6.148   4.087   2.287
 1979SOL    HW2 6837   6.241   4.019   2.171
 1980SOL     OW 6838   3.020   1.287   2.052
 1980SOL    HW1 6839   3.040   1.216   1.985
 1980SOL    HW2 6840   2.922   1.288   2.071
 1981SOL     OW 6841   5.258   3.338   2.004
 1981SOL    HW1 6842   5.195   3.261   1.998
 1981SOL    HW2 6843   5.313   3.330   2.088
 1982SOL     OW 6844   6.870   6.797   5.303
 1982SOL    HW1 6845   6.847   6.709   5.345
 1982SOL    HW2 6846   6.825   6.804   5.213
 1983SOL     OW 6847   0.538   4.280   2.602
 1983SOL    HW1 6848   0.498   4.248   2.516
 1983SOL    HW2 6849   0.502   4.371   2.623
 1984SOL     OW 6850   4.867   0.600   4.780
 1984SOL    HW1 6851   4.874   0.582   4.682
 1984SOL    HW2 6852   4.958   0.597   4.821
 1985SOL     OW 6853   1.617   6.199   1.264
 1985SOL    HW1 6854   1.583   6.187   1.357
 1985SOL    HW2 6855   1.576   6.281   1.224
 1986SOL     OW 6856   0.291   2.430   6.938
 1986SOL    HW1 6857   0.349   2.473   6.869
 1986SOL    HW2 6858   0.274   2.495   7.012
 1987SOL     OW 6859   2.636   4.666   6.893
 1987SOL    HW1 6860   2.570   4.737   6.870
 1987SOL    HW2 6861   2.613   4.582   6.842
 1988SOL     OW 6862   4.474   3.386   0.340
 1988SOL    HW1 6863   4.380   3.361   0.364
 1988SOL    HW2 6864   4.523   3.413   0.422
 1989SOL     OW 6865   2.067   2.120   4.384
 1989SOL    HW1 6866   1.992   2.069   4.425
 1989SOL    HW2 6867   2.034   2.210   4.354
 1990SOL     OW 6868   1.493   0.662   2.795
 1990SOL    HW1 6869   1.546   0.747   2.800
 1990SOL    HW2 6870   1.403   0.676   2.836
 1991SOL     OW 6871   4.342   5.672   2.987
 1991SOL    HW1 6872   4.276   5.598   2.970
 1991SOL    HW2 6873   4.433   5.641   2.962
 1992SOL     OW 6874   2.652   6.331   5.250
 1992SOL    HW1 6875   2.723   6.285   5.303
 1992SOL    HW2 6876   2.636   6.280   5.165
 1993SOL     OW 6877   3.016   3.574   3.942
 1993SOL    HW1 6878   3.080   3.532   3.877
 1993SOL    HW2 6879   3.034   3.540   4.034
 1994SOL     OW 6880   6.365   2.422   1.902
 1994SOL    HW1 6881   6.419   2.372   1.834
 1994SOL    HW2 6882   6.401   2.404   1.993
 1995SOL     OW 6883   3.993   2.074   1.438
 1995SOL    HW1 6884   3.909   2.105   1.394
 1995SOL    HW2 6885   4.056   2.041   1.368
 1996SOL     OW 6886   2.837   4.145   5.306
 1996SOL    HW1 6887   2.841   4.082   5.228
 1996SOL    HW2 6888   2.747   4.187   5.311
 1997SOL     OW 6889   5.693   6.574   3.474
 1997SOL    HW1 6890   5.776   6.549   3.426
 1997SOL    HW2 6891   5.694   6.535   3.566
 1998SOL     OW 6892   3.400   5.250   5.022
 1998SOL    HW1 6893   3.350   5.335   5.007
 1998SOL    HW2 6894   3.360   5.201   5.100
 1999SOL     OW 6895   2.430   1.497   1.903
 1999SOL    HW1 6896   2.495   1.510   1.978
 1999SOL    HW2 6897   2.478   1.475   1.819
 2000SOL     OW 6898   3.317   1.365   4.875
 2000SOL    HW1 6899   3.265   1.290   4.916
 2000SOL    HW2 6900   3.325   1.349   4.776
 2001SOL     OW 6901   2.224   3.505   0.018
 2001SOL    HW1 6902   2.130   3.521   0.049
 2001SOL    HW2 6903   2.228   3.417   6.990
 2002SOL     OW 6904   1.626   5.360   4.928
 2002SOL    HW1 6905   1.608   5.372   4.831
 2002SOL    HW2 6906   1.548   5.315   4.972
 2003SOL     OW 6907   6.763   4.358   3.235
 2003SOL    HW1 6908   6.785   4.293   3.308
 2003SOL    HW2 6909   6.675   4.402   3.255
 2004SOL     OW 6910   3.126   0.021   6.718
 2004SOL    HW1 6911   3.040   6.993   6.732
 2004SOL    HW2 6912   3.112   0.119   6.734
 2005SOL     OW 6913   2.998   6.864   5.343
 2005SOL    HW1 6914   3.017   6.950   5.295
 2005SOL    HW2 6915   2.974   6.883   5.438
 2006SOL     OW 6916   5.098   6.470   3.190
 2006SOL    HW1 6917   5.007   6.493   3.227
 2006SOL    HW2 6918   5.088   6.437   3.096
 2007SOL     OW 6919   6.478   5.621   0.065
 2007SOL    HW1 6920   6.458   5.696   0.003
 2007SOL    HW2 6921   6.502   5.540   0.013
 2008SOL     OW 6922   0.198   6.131   5.246
 2008SOL    HW1 6923   0.291   6.148   5.212
 2008SOL    HW2 6924   0.165   6.044   5.210
 2009SOL     OW 6925   0.997   0.331   6.696
 2009SOL    HW1 6926   0.987   0.366   6.603
 2009SOL    HW2 6927   0.907   0.309   6.733
 2010SOL     OW 6928   1.665   0.854   1.394
 2010SOL    HW1 6929   1.694   0.900   1.310
 2010SOL    HW2 6930   1.719   0.770   1.405
 2011SOL     OW 6931   0.331   1.993   5.149
 2011SOL    HW1 6932   0.346   1.966   5.244
 2011SOL    HW2 6933   0.329   1.912   5.090
 2012SOL     OW 6934   6.897   3.160   0.757
 2012SOL    HW1 6935   6.977   3.116   0.716
 2012SOL    HW2 6936   6.926   3.235   0.817
 2013SOL     OW 6937   4.075   2.167   2.023
 2013SOL    HW1 6938   3.983   2.170   2.064
 2013SOL    HW2 6939   4.070   2.193   1.927
 2014SOL     OW 6940   3.182   6.074   3.693
 2014SOL    HW1 6941   3.219   5.982   3.676
 2014SOL    HW2 6942   3.225   6.111   3.776
 2015SOL     OW 6943   2.943   6.471   0.124
 2015SOL    HW1 6944   3.040   6.490   0.111
 2015SOL    HW2 6945   2.926   6.373   0.110
 2016SOL     OW 6946   6.458   5.859   4.218
 2016SOL    HW1 6947   6.363   5.876   4.192
 2016SOL    HW2 6948   6.489   5.928   4.283
 2017SOL     OW 6949   2.165   4.968   2.002
 2017SOL    HW1 6950   2.255   4.924   1.996
 2017SOL    HW2 6951   2.174   5.066   1.981
 2018SOL     OW 6952   0.599   4.008   5.970
 2018SOL    HW1 6953   0.567   4.034   6.061
 2018SOL    HW2 6954   0.520   3.991   5.910
 2019SOL     OW 6955   5.916   1.787   3.059
 2019SOL    HW1 6956   5.985   1.798   3.132
 2019SOL    HW2 6957   5.918   1.693   3.025
 2020SOL     OW 6958   1.972   5.577   2.801
 2020SOL    HW1 6959   1.907   5.506   2.774
 2020SOL    HW2 6960   1.928   5.643   2.860
 2021SOL     OW 6961   2.264   0.312   1.750
 2021SOL    HW1 6962   2.171   0.347   1.750
 2021SOL    HW2 6963   2.279   0.254   1.670
 2022SOL     OW 6964   2.664   5.061   1.089
 2022SOL    HW1 6965   2.757   5.036   1.117
 2022SOL    HW2 6966   2.599   4.998   1.132
 2023SOL     OW 6967   6.377   1.188   6.318
 2023SOL    HW1 6968   6.351   1.207   6.223
 2023SOL    HW2 6969   6.308   1.129   6.360
 2024SOL     OW 6970   6.057   0.492   2.862
 2024SOL    HW1 6971   6.074   0.394   2.854
 2024SOL    HW2 6972   6.096   0.540   2.784
 2025SOL     OW 6973   6.128   0.885   0.917
 2025SOL    HW1 6974   6.092   0.978   0.920
 2025SOL    HW2 6975   6.202   0.876   0.983
 2026SOL     OW 6976   1.577   2.104   4.881
 2026SOL    HW1 6977   1.530   2.031   4.830
 2026SOL    HW2 6978   1.529   2.190   4.866
 2027SOL     OW 6979   0.716   1.149   2.476
 2027SOL    HW1 6980   0.785   1.090   2.518
 2027SOL    HW2 6981   0.736   1.162   2.379
 2028SOL     OW 6982   3.541   4.242   5.861
 2028SOL    HW1 6983   3.597   4.323   5.879
 2028SOL    HW2 6984   3.511   4.202   5.947
 2029SOL     OW 6985   1.551   0.426   0.460
 2029SOL    HW1 6986   1.592   0.509   0.423
 2029SOL    HW2 6987   1.623   0.357   0.474
 2030SOL     OW 6988   1.888   2.653   3.297
 2030SOL    HW1 6989   1.929   2.707   3.371
 2030SOL    HW2 6990   1.960   2.614   3.240
 2031SOL     OW 6991   5.867   0.171   2.778
 2031SOL    HW1 6992   5.768   0.168   2.766
 2031SOL    HW2 6993   5.910   0.202   2.694
 2032SOL     OW 6994   4.680   6.184   1.806
 2032SOL    HW1 6995   4.686   6.206   1.709
 2032SOL    HW2 6996   4.585   6.195   1.837
 2033SOL     OW 6997   0.226   4.858   6.877
 2033SOL    HW1 6998   0.156   4.898   6.937
 2033SOL    HW2 6999   0.196   4.768   6.847
 2034SOL     OW 7000   2.250   6.367   3.543
 2034SOL    HW1 7001   2.277   6.295   3.606
 2034SOL    HW2 7002   2.269   6.456   3.584
 2035SOL     OW 7003   6.918   2.493   1.891
 2035SOL    HW1 7004   6.978   2.487   1.811
 2035SOL    HW2 7005   6.852   2.419   1.889
 2036SOL     OW 7006   0.377   4.372   0.733
 2036SOL    HW1 7007   0.299   4.319   0.698
 2036SOL    HW2 7008   0.371   4.466   0.699
 2037SOL     OW 7009   0.314   1.812   6.427
 2037SOL    HW1 7010   0.355   1.888   6.479
 2037SOL    HW2 7011   0.220   1.834   6.405
 2038SOL     OW 7012   1.116   0.046   4.901
 2038SOL    HW1 7013   1.147   0.138   4.879
 2038SOL    HW2 7014   1.104   0.037   5.000
 2039SOL     OW 7015   1.184   5.753   1.882
 2039SOL    HW1 7016   1.194   5.674   1.821
 2039SOL    HW2 7017   1.115   5.733   1.951
 2040SOL     OW 7018   3.876   3.927   4.112
 2040SOL    HW1 7019   3.797   3.901   4.057
 2040SOL    HW2 7020   3.845   3.972   4.196
 2041SOL     OW 7021   5.701   3.194   0.222
 2041SOL    HW1 7022   5.672   3.220   0.130
 2041SOL    HW2 7023   5.740   3.273   0.268
 2042SOL     OW 7024   3.322   5.781   0.496
 2042SOL    HW1 7025   3.361   5.789   0.588
 2042SOL    HW2 7026   3.381   5.723   0.440
 2043SOL     OW 7027   4.395   5.076   2.439
 2043SOL    HW1 7028   4.436   5.014   2.372
 2043SOL    HW2 7029   4.446   5.162   2.440
 2044SOL     OW 7030   6.461   0.991   1.906
 2044SOL    HW1 7031   6.518   0.909   1.910
 2044SOL    HW2 7032   6.372   0.971   1.947
 2045SOL     OW 7033   2.652   6.387   6.258
 2045SOL    HW1 7034   2.604   6.310   6.299
 2045SOL    HW2 7035   2.586   6.453   6.222
 2046SOL     OW 7036   6.148   0.308   5.236
 2046SOL    HW1 7037   6.103   0.369   5.170
 2046SOL    HW2 7038   6.194   0.363   5.306
 2047SOL     OW 7039   4.927   2.531   0.239
 2047SOL    HW1 7040   4.876   2.616   0.231
 2047SOL    HW2 7041   4.921   2.480   0.153
 2048SOL     OW 7042   4.757   6.233   5.650
 2048SOL    HW1 7043   4.713   6.219   5.561
 2048SOL    HW2 7044   4.705   6.185   5.721
 2049SOL     OW 7045   4.790   6.292   0.313
 2049SOL    HW1 7046   4.787   6.387   0.344
 2049SOL    HW2 7047   4.758   6.287   0.218
 2050SOL     OW 7048   5.635   0.417   4.005
 2050SOL    HW1 7049   5.600   0.418   3.911
 2050SOL    HW2 7050   5.589   0.488   4.059
 2051SOL     OW 7051   2.569   5.311   1.083
 2051SOL    HW1 7052   2.610   5.222   1.064
 2051SOL    HW2 7053   2.476   5.298   1.118
 2052SOL     OW 7054   1.350   2.919   0.670
 2052SOL    HW1 7055   1.432   2.954   0.716
 2052SOL    HW2 7056   1.279   2.990   0.672
 2053SOL     OW 7057   5.518   1.251   0.503
 2053SOL    HW1 7058   5.437   1.224   0.450
 2053SOL    HW2 7059   5.496   1.329   0.561
 2054SOL     OW 7060   0.065   3.558   1.473
 2054SOL    HW1 7061   0.082   3.470   1.429
 2054SOL    HW2 7062   7.005   3.551   1.532
 2055SOL     OW 7063   6.326   1.815   4.022
 2055SOL    HW1 7064   6.276   1.841   4.105
 2055SOL    HW2 7065   6.291   1.866   3.944
 2056SOL     OW 7066   1.150   0.172   1.753
 2056SOL    HW1 7067   1.074   0.197   1.813
 2056SOL    HW2 7068   1.230   0.150   1.808
 2057SOL     OW 7069   6.042   2.331   4.317
 2057SOL    HW1 7070   6.061   2.284   4.403
 2057SOL    HW2 7071   6.122   2.385   4.290
 2058SOL     OW 7072   0.873   1.872   1.886
 2058SOL    HW1 7073   0.817   1.927   1.825
 2058SOL    HW2 7074   0.880   1.918   1.975
 2059SOL     OW 7075   1.489   0.428   6.385
 2059SOL    HW1 7076   1.420   0.486   6.341
 2059SOL    HW2 7077   1.549   0.484   6.442
 2060SOL     OW 7078   0.178   5.517   1.941
 2060SOL    HW1 7079   0.257   5.537   1.884
 2060SOL    HW2 7080   0.144   5.601   1.984
 2061SOL     OW 7081   0.855   1.128   1.339
 2061SOL    HW1 7082   0.802   1.072   1.276
 2061SOL    HW2 7083   0.943   1.151   1.297
 2062SOL     OW 7084   4.178   0.450   3.869
 2062SOL    HW1 7085   4.159   0.403   3.955
 2062SOL    HW2 7086   4.094   0.456   3.815
 2063SOL     OW 7087   2.355   1.965   0.819
 2063SOL    HW1 7088   2.434   1.933   0.766
 2063SOL    HW2 7089   2.313   1.887   0.865
 2064SOL     OW 7090   1.036   1.845   0.154
 2064SOL    HW1 7091   0.970   1.899   0.101
 2064SOL    HW2 7092   1.030   1.870   0.250
 2065SOL     OW 7093   6.470   3.460   2.614
 2065SOL    HW1 7094   6.534   3.514   2.559
 2065SOL    HW2 7095   6.386   3.512   2.626
 2066SOL     OW 7096   1.553   6.715   3.070
 2066SOL    HW1 7097   1.491   6.780   3.025
 2066SOL    HW2 7098   1.646   6.752   3.069
 2067SOL     OW 7099   6.834   0.120   0.528
 2067SOL    HW1 7100   6.852   0.023   0.542
 2067SOL    HW2 7101   6.786   0.157   0.607
 2068SOL     OW 7102   2.216   1.459   4.844
 2068SOL    HW1 7103   2.229   1.482   4.748
 2068SOL    HW2 7104   2.208   1.360   4.854
 2069SOL     OW 7105   1.369   1.889   1.783
 2069SOL    HW1 7106   1.455   1.937   1.768
 2069SOL    HW2 7107   1.384   1.813   1.846
 2070SOL     OW 7108   0.867   0.961   2.640
 2070SOL    HW1 7109   0.922   0.883   2.669
 2070SOL    HW2 7110   0.901   1.044   2.684
 2071SOL     OW 7111   2.032   6.110   4.826
 2071SOL    HW1 7112   1.954   6.144   4.878
 2071SOL    HW2 7113   2.011   6.110   4.729
 2072SOL     OW 7114   4.589   4.830   1.965
 2072SOL    HW1 7115   4.572   4.912   1.911
 2072SOL    HW2 7116   4.572   4.848   2.062
 2073SOL     OW 7117   3.311   6.383   5.304
 2073SOL    HW1 7118   3.294   6.480   5.284
 2073SOL    HW2 7119   3.313   6.331   5.219
 2074SOL     OW 7120   6.144   2.129   2.248
 2074SOL    HW1 7121   6.091   2.078   2.180
 2074SOL    HW2 7122   6.228   2.162   2.206
 2075SOL     OW 7123   3.597   3.732   6.246
 2075SOL    HW1 7124   3.654   3.723   6.164
 2075SOL    HW2 7125   3.576   3.828   6.262
 2076SOL     OW 7126   4.744   0.271   1.145
 2076SOL    HW1 7127   4.657   0.224   1.159
 2076SOL    HW2 7128   4.730   0.352   1.088
 2077SOL     OW 7129   4.852   1.300   3.556
 2077SOL    HW1 7130   4.844   1.399   3.545
 2077SOL    HW2 7131   4.841   1.255   3.467
 2078SOL     OW 7132   4.128   5.516   4.973
 2078SOL    HW1 7133   4.052   5.473   5.023
 2078SOL    HW2 7134   4.099   5.533   4.879
 2079SOL     OW 7135   5.698   0.418   3.526
 2079SOL    HW1 7136   5.663   0.467   3.447
 2079SOL    HW2 7137   5.758   0.478   3.578
 2080SOL     OW 7138   2.833   1.875   4.116
 2080SOL    HW1 7139   2.921   1.857   4.071
 2080SOL    HW2 7140   2.762   1.819   4.073
 2081SOL     OW 7141   1.068   6.206   4.405
 2081SOL    HW1 7142   1.081   6.176   4.310
 2081SOL    HW2 7143   1.078   6.305   4.410
 2082SOL     OW 7144   4.761   0.742   2.038
 2082SOL    HW1 7145   4.711   0.774   2.119
 2082SOL    HW2 7146   4.720   0.656   2.007
 2083SOL     OW 7147   3.431   4.936   5.778
 2083SOL    HW1 7148   3.396   4.905   5.690
 2083SOL    HW2 7149   3.365   4.913   5.850
 2084SOL     OW 7150   6.813   2.745   2.386
 2084SOL    HW1 7151   6.833   2.792   2.471
 2084SOL    HW2 7152   6.889   2.684   2.363
 2085SOL     OW 7153   5.458   5.915   6.760
 2085SOL    HW1 7154   5.442   5.998   6.706
 2085SOL    HW2 7155   5.555   5.893   6.760
 2086SOL     OW 7156   3.445   5.347   0.241
 2086SOL    HW1 7157   3.401   5.385   0.322
 2086SOL    HW2 7158   3.401   5.261   0.217
 2087SOL     OW 7159   6.108   5.889   3.483
 2087SOL    HW1 7160   6.066   5.970   3.442
 2087SOL    HW2 7161   6.037   5.833   3.526
 2088SOL     OW 7162   2.239   0.203   0.799
 2088SOL    HW1 7163   2.207   0.244   0.713
 2088SOL    HW2 7164   2.213   0.261   0.875
 2089SOL     OW 7165   2.711   1.081   6.763
 2089SOL    HW1 7166   2.702   1.001   6.703
 2089SOL    HW2 7167   2.655   1.067   6.844
 2090SOL     OW 7168   3.181   3.035   3.711
 2090SOL    HW1 7169   3.110   3.105   3.702
 2090SOL    HW2 7170   3.173   2.990   3.800
 2091SOL     OW 7171   2.113   5.397   0.850
 2091SOL    HW1 7172   2.117   5.496   0.836
 2091SOL    HW2 7173   2.166   5.351   0.778
 2092SOL     OW 7174   0.078   6.391   1.625
 2092SOL    HW1 7175   0.118   6.307   1.588
 2092SOL    HW2 7176   0.136   6.469   1.601
 2093SOL     OW 7177   1.107   2.613   1.505
 2093SOL    HW1 7178   1.172   2.590   1.578
 2093SOL    HW2 7179   1.149   2.595   1.416
 2094SOL     OW 7180   6.308   0.522   1.893
 2094SOL    HW1 7181   6.216   0.527   1.854
 2094SOL    HW2 7182   6.302   0.490   1.987
 2095SOL     OW 7183   6.927   4.571   4.853
 2095SOL    HW1 7184   6.882   4.644   4.802
 2095SOL    HW2 7185   7.012   4.605   4.894
 2096SOL     OW 7186   5.024   3.835   3.457
 2096SOL    HW1 7187   5.072   3.765   3.510
 2096SOL    HW2 7188   4.975   3.792   3.381
 2097SOL     OW 7189   6.258   3.674   6.834
 2097SOL    HW1 7190   6.306   3.631   6.757
 2097SOL    HW2 7191   6.204   3.751   6.801
 2098SOL     OW 7192   4.459   0.264   4.065
 2098SOL    HW1 7193   4.480   0.328   3.992
 2098SOL    HW2 7194   4.495   0.173   4.041
 2099SOL     OW 7195   2.955   2.172   3.211
 2099SOL    HW1 7196   3.049   2.206   3.215
 2099SOL    HW2 7197   2.949   2.102   3.139
 2100SOL     OW 7198   3.469   4.526   6.674
 2100SOL    HW1 7199   3.517   4.613   6.685
 2100SOL    HW2 7200   3.505   4.479   6.593
 2101SOL     OW 7201   0.285   0.652   2.412
 2101SOL    HW1 7202   0.340   0.568   2.415
 2101SOL    HW2 7203   0.298   0.697   2.324
 2102SOL     OW 7204   6.943   4.802   2.107
 2102SOL    HW1 7205   7.001   4.843   2.178
 2102SOL    HW2 7206   6.928   4.869   2.034
 2103SOL     OW 7207   2.705   3.368   6.217
 2103SOL    HW1 7208   2.679   3.453   6.263
 2103SOL    HW2 7209   2.788   3.332   6.260
 2104SOL     OW 7210   1.274   4.023   5.345
 2104SOL    HW1 7211   1.347   3.969   5.387
 2104SOL    HW2 7212   1.264   3.998   5.249
 2105SOL     OW 7213   6.125   5.923   1.559
 2105SOL    HW1 7214   6.217   5.908   1.522
 2105SOL    HW2 7215   6.120   6.013   1.601
 2106SOL     OW 7216   5.969   5.288   6.553
 2106SOL    HW1 7217   5.874   5.292   6.524
 2106SOL    HW2 7218   5.994   5.375   6.596
 2107SOL     OW 7219   2.820   4.690   0.096
 2107SOL    HW1 7220   2.893   4.757   0.084
 2107SOL    HW2 7221   2.757   4.693   0.018
 2108SOL     OW 7222   5.705   4.318   5.817
 2108SOL    HW1 7223   5.789   4.345   5.769
 2108SOL    HW2 7224   5.694   4.219   5.811
 2109SOL     OW 7225   5.744   6.053   2.701
 2109SOL    HW1 7226   5.745   6.120   2.627
 2109SOL    HW2 7227   5.836   6.014   2.712
 2110SOL     OW 7228   2.116   5.142   4.720
 2110SOL    HW1 7229   2.074   5.051   4.731
 2110SOL    HW2 7230   2.044   5.211   4.720
 2111SOL     OW 7231   2.091   2.734   0.124
 2111SOL    HW1 7232   2.177   2.700   0.162
 2111SOL    HW2 7233   2.108   2.821   0.077
 2112SOL     OW 7234   5.953   3.358   1.094
 2112SOL    HW1 7235   6.050   3.334   1.089
 2112SOL    HW2 7236   5.924   3.394   1.005
 2113SOL     OW 7237   6.705   1.499   3.218
 2113SOL    HW1 7238   6.777   1.559   3.254
 2113SOL    HW2 7239   6.720   1.484   3.120
 2114SOL     OW 7240   1.753   3.480   0.504
 2114SOL    HW1 7241   1.807   3.419   0.446
 2114SOL    HW2 7242   1.689   3.426   0.558
 2115SOL     OW 7243   2.814   5.550   1.695
 2115SOL    HW1 7244   2.854   5.641   1.695
 2115SOL    HW2 7245   2.887   5.482   1.689
 2116SOL     OW 7246   0.320   4.249   3.425
 2116SOL    HW1 7247   0.268   4.276   3.343
 2116SOL    HW2 7248   0.414   4.282   3.417
 2117SOL     OW 7249   0.211   5.720   6.521
 2117SOL    HW1 7250   0.222   5.644   6.457
 2117SOL    HW2 7251   0.246   5.804   6.479
 2118SOL     OW 7252   6.839   3.354   2.077
 2118SOL    HW1 7253   6.848   3.290   2.154
 2118SOL    HW2 7254   6.817   3.303   1.994
 2119SOL     OW 7255   3.698   6.217   1.022
 2119SOL    HW1 7256   3.675   6.168   1.106
 2119SOL    HW2 7257   3.728   6.151   0.953
 2120SOL     OW 7258   6.655   4.590   2.363
 2120SOL    HW1 7259   6.630   4.677   2.404
 2120SOL    HW2 7260   6.622   4.515   2.420
 2121SOL     OW 7261   0.741   3.922   4.564
 2121SOL    HW1 7262   0.691   3.839   4.538
 2121SOL    HW2 7263   0.832   3.897   4.598
 2122SOL     OW 7264   4.529   4.730   5.684
 2122SOL    HW1 7265   4.491   4.711   5.775
 2122SOL    HW2 7266   4.456   4.746   5.619
 2123SOL     OW 7267   4.439   4.502   3.702
 2123SOL    HW1 7268   4.432   4.514   3.801
 2123SOL    HW2 7269   4.498   4.424   3.682
 2124SOL     OW 7270   3.080   1.853   1.651
 2124SOL    HW1 7271   2.988   1.884   1.630
 2124SOL    HW2 7272   3.130   1.838   1.565
 2125SOL     OW 7273   4.104   6.807   0.825
 2125SOL    HW1 7274   4.030   6.825   0.890
 2125SOL    HW2 7275   4.066   6.779   0.738
 2126SOL     OW 7276   2.864   0.919   2.009
 2126SOL    HW1 7277   2.881   0.881   2.100
 2126SOL    HW2 7278   2.944   0.970   1.978
 2127SOL     OW 7279   5.523   2.803   5.005
 2127SOL    HW1 7280   5.524   2.818   5.104
 2127SOL    HW2 7281   5.502   2.888   4.958
 2128SOL     OW 7282   0.604   4.242   4.010
 2128SOL    HW1 7283   0.587   4.224   3.913
 2128SOL    HW2 7284   0.686   4.300   4.019
 2129SOL     OW 7285   4.143   2.205   5.439
 2129SOL    HW1 7286   4.183   2.135   5.498
 2129SOL    HW2 7287   4.114   2.164   5.352
 2130SOL     OW 7288   4.891   0.902   3.487
 2130SOL    HW1 7289   4.823   0.834   3.513
 2130SOL    HW2 7290   4.915   0.958   3.566
 2131SOL     OW 7291   5.174   1.761   6.577
 2131SOL    HW1 7292   5.215   1.710   6.652
 2131SOL    HW2 7293   5.213   1.853   6.574
 2132SOL     OW 7294   1.853   3.555   0.999
 2132SOL    HW1 7295   1.827   3.564   0.903
 2132SOL    HW2 7296   1.842   3.643   1.045
 2133SOL     OW 7297   2.404   3.467   5.785
 2133SOL    HW1 7298   2.412   3.385   5.728
 2133SOL    HW2 7299   2.471   3.462   5.859
 2134SOL     OW 7300   0.187   6.849   1.103
 2134SOL    HW1 7301   0.106   6.863   1.158
 2134SOL    HW2 7302   0.181   6.761   1.056
 2135SOL     OW 7303   6.875   4.148   5.488
 2135SOL    HW1 7304   6.927   4.062   5.489
 2135SOL    HW2 7305   6.801   4.143   5.555
 2136SOL     OW 7306   0.677   4.682   0.723
 2136SOL    HW1 7307   0.763   4.674   0.772
 2136SOL    HW2 7308   0.600   4.675   0.787
 2137SOL     OW 7309   1.436   6.270   4.018
 2137SOL    HW1 7310   1.426   6.210   4.097
 2137SOL    HW2 7311   1.379   6.351   4.030
 2138SOL     OW 7312   5.031   2.049   2.145
 2138SOL    HW1 7313   5.012   2.053   2.243
 2138SOL    HW2 7314   4.953   2.008   2.097
 2139SOL     OW 7315   2.955   0.117   5.303
 2139SOL    HW1 7316   2.861   0.145   5.321
 2139SOL    HW2 7317   3.019   0.182   5.344
 2140SOL     OW 7318   2.549   1.520   4.251
 2140SOL    HW1 7319   2.529   1.441   4.309
 2140SOL    HW2 7320   2.472   1.584   4.254
 2141SOL     OW 7321   6.535   3.174   3.262
 2141SOL    HW1 7322   6.583   3.125   3.335
 2141SOL    HW2 7323   6.480   3.247   3.301
 2142SOL     OW 7324   1.711   2.631   2.575
 2142SOL    HW1 7325   1.695   2.537   2.605
 2142SOL    HW2 7326   1.745   2.630   2.481
 2143SOL     OW 7327   0.420   4.809   5.832
 2143SOL    HW1 7328   0.374   4.897   5.842
 2143SOL    HW2 7329   0.501   4.820   5.774
 2144SOL     OW 7330   6.480   4.306   3.246
 2144SOL    HW1 7331   6.519   4.260   3.166
 2144SOL    HW2 7332   6.424   4.383   3.216
 2145SOL     OW 7333   4.018   1.294   3.343
 2145SOL    HW1 7334   4.069   1.297   3.429
 2145SOL    HW2 7335   4.034   1.206   3.298
 2146SOL     OW 7336   2.530   2.613   6.771
 2146SOL    HW1 7337   2.604   2.651   6.716
 2146SOL    HW2 7338   2.442   2.643   6.735
 2147SOL     OW 7339   6.097   6.520   3.802
 2147SOL    HW1 7340   6.018   6.463   3.824
 2147SOL    HW2 7341   6.176   6.490   3.854
 2148SOL     OW 7342   0.203   3.129   5.899
 2148SOL    HW1 7343   0.181   3.056   5.835
 2148SOL    HW2 7344   0.285   3.177   5.867
 2149SOL     OW 7345   0.629   6.968   6.821
 2149SOL    HW1 7346   0.703   6.927   6.874
 2149SOL    HW2 7347   0.664   7.003   6.735
 2150SOL     OW 7348   1.716   3.321   1.051
 2150SOL    HW1 7349   1.770   3.404   1.035
 2150SOL    HW2 7350   1.680   3.287   0.964
 2151SOL     OW 7351   0.903   4.861   0.310
 2151SOL    HW1 7352   0.975   4.929   0.301
 2151SOL    HW2 7353   0.893   4.811   0.223
 2152SOL     OW 7354   5.237   5.977   3.894
 2152SOL    HW1 7355   5.242   5.925   3.979
 2152SOL    HW2 7356   5.328   5.987   3.856
 2153SOL     OW 7357   5.355   0.022   4.315
 2153SOL    HW1 7358   5.365   6.944   4.301
 2153SOL    HW2 7359   5.369   0.070   4.229
 2154SOL     OW 7360   2.478   0.324   2.592
 2154SOL    HW1 7361   2.525   0.236   2.593
 2154SOL    HW2 7362   2.379   0.308   2.592
 2155SOL     OW 7363   4.233   0.638   1.099
 2155SOL    HW1 7364   4.185   0.582   1.167
 2155SOL    HW2 7365   4.166   0.692   1.047
 2156SOL     OW 7366   5.436   2.076   4.756
 2156SOL    HW1 7367   5.429   1.985   4.717
 2156SOL    HW2 7368   5.502   2.075   4.832
 2157SOL     OW 7369   4.081   6.343   4.328
 2157SOL    HW1 7370   4.013   6.369   4.259
 2157SOL    HW2 7371   4.111   6.424   4.377
 2158SOL     OW 7372   2.840   0.041   0.339
 2158SOL    HW1 7373   2.756   7.009   0.355
 2158SOL    HW2 7374   2.895   7.015   0.269
 2159SOL     OW 7375   0.656   1.231   5.436
 2159SOL    HW1 7376   0.747   1.259   5.407
 2159SOL    HW2 7377   0.588   1.288   5.391
 2160SOL     OW 7378   5.243   6.929   0.085
 2160SOL    HW1 7379   5.155   6.969   0.058
 2160SOL    HW2 7380   5.316   6.996   0.070
 2161SOL     OW 7381   1.693   3.238   0.669
 2161SOL    HW1 7382   1.664   3.148   0.701
 2161SOL    HW2 7383   1.789   3.233   0.640
 2162SOL     OW 7384   1.654   0.568   1.634
 2162SOL    HW1 7385   1.567   0.554   1.588
 2162SOL    HW2 7386   1.721   0.503   1.600
 2163SOL     OW 7387   1.496   3.565   3.043
 2163SOL    HW1 7388   1.467   3.521   2.958
 2163SOL    HW2 7389   1.416   3.606   3.087
 2164SOL     OW 7390   2.078   3.597   2.208
 2164SOL    HW1 7391   2.118   3.550   2.130
 2164SOL    HW2 7392   2.038   3.530   2.271
 2165SOL     OW 7393   6.323   1.210   4.584
 2165SOL    HW1 7394   6.316   1.259   4.498
 2165SOL    HW2 7395   6.401   1.245   4.636
 2166SOL     OW 7396   7.014   3.175   2.339
 2166SOL    HW1 7397   0.071   3.129   2.382
 2166SOL    HW2 7398   7.006   3.146   2.244
 2167SOL     OW 7399   1.989   1.820   3.150
 2167SOL    HW1 7400   1.988   1.899   3.089
 2167SOL    HW2 7401   1.976   1.736   3.097
 2168SOL     OW 7402   2.012   1.976   3.640
 2168SOL    HW1 7403   2.003   2.035   3.720
 2168SOL    HW2 7404   2.084   2.010   3.580
 2169SOL     OW 7405   6.622   6.995   1.370
 2169SOL    HW1 7406   6.645   0.050   1.432
 2169SOL    HW2 7407   6.553   0.004   1.305
 2170SOL     OW 7408   1.535   3.435   6.035
 2170SOL    HW1 7409   1.582   3.447   5.948
 2170SOL    HW2 7410   1.454   3.494   6.037
 2171SOL     OW 7411   6.829   6.165   1.026
 2171SOL    HW1 7412   6.817   6.188   1.123
 2171SOL    HW2 7413   6.802   6.069   1.011
 2172SOL     OW 7414   2.410   1.745   5.279
 2172SOL    HW1 7415   2.344   1.712   5.212
 2172SOL    HW2 7416   2.474   1.808   5.235
 2173SOL     OW 7417   5.170   0.559   4.911
 2173SOL    HW1 7418   5.141   0.653   4.896
 2173SOL    HW2 7419   5.269   0.557   4.926
 2174SOL     OW 7420   5.533   0.264   6.008
 2174SOL    HW1 7421   5.548   0.350   5.959
 2174SOL    HW2 7422   5.534   0.281   6.107
 2175SOL     OW 7423   2.732   3.891   5.231
 2175SOL    HW1 7424   2.760   3.928   5.319
 2175SOL    HW2 7425   2.639   3.922   5.210
 2176SOL     OW 7426   5.256   2.169   2.838
 2176SOL    HW1 7427   5.199   2.227   2.897
 2176SOL    HW2 7428   5.352   2.187   2.857
 2177SOL     OW 7429   0.888   1.005   4.673
 2177SOL    HW1 7430   0.942   0.921   4.664
 2177SOL    HW2 7431   0.950   1.082   4.683
 2178SOL     OW 7432   1.515   2.162   2.963
 2178SOL    HW1 7433   1.603   2.125   2.992
 2178SOL    HW2 7434   1.527   2.257   2.932
 2179SOL     OW 7435   1.858   4.056   6.902
 2179SOL    HW1 7436   1.873   4.149   6.869
 2179SOL    HW2 7437   1.804   4.059   6.986
 2180SOL     OW 7438   0.683   6.018   2.764
 2180SOL    HW1 7439   0.639   5.932   2.789
 2180SOL    HW2 7440   0.782   6.004   2.757
 2181SOL     OW 7441   4.138   4.780   4.619
 2181SOL    HW1 7442   4.173   4.861   4.574
 2181SOL    HW2 7443   4.085   4.807   4.700
 2182SOL     OW 7444   0.238   6.207   1.427
 2182SOL    HW1 7445   0.282   6.130   1.382
 2182SOL    HW2 7446   0.307   6.270   1.462
 2183SOL     OW 7447   3.133   3.231   6.696
 2183SOL    HW1 7448   3.209   3.269   6.644
 2183SOL    HW2 7449   3.118   3.136   6.668
 2184SOL     OW 7450   6.438   1.279   0.807
 2184SOL    HW1 7451   6.521   1.293   0.861
 2184SOL    HW2 7452   6.386   1.364   0.804
 2185SOL     OW 7453   0.816   0.960   5.900
 2185SOL    HW1 7454   0.826   0.867   5.863
 2185SOL    HW2 7455   0.811   1.025   5.824
 2186SOL     OW 7456   6.567   6.203   5.492
 2186SOL    HW1 7457   6.516   6.119   5.511
 2186SOL    HW2 7458   6.598   6.203   5.397
 2187SOL     OW 7459   6.208   5.412   1.841
 2187SOL    HW1 7460   6.284   5.408   1.776
 2187SOL    HW2 7461   6.132   5.461   1.799
 2188SOL     OW 7462   2.790   0.859   0.794
 2188SOL    HW1 7463   2.833   0.859   0.884
 2188SOL    HW2 7464   2.747   0.770   0.778
 2189SOL     OW 7465   1.818   0.989   1.770
 2189SOL    HW1 7466   1.868   1.074   1.751
 2189SOL    HW2 7467   1.751   0.973   1.698
 2190SOL     OW 7468   6.786   4.116   1.697
 2190SOL    HW1 7469   6.827   4.100   1.607
 2190SOL    HW2 7470   6.850   4.165   1.755
 2191SOL     OW 7471   3.019   0.727   6.744
 2191SOL    HW1 7472   2.979   0.723   6.835
 2191SOL    HW2 7473   3.073   0.810   6.735
 2192SOL     OW 7474   4.839   1.882   2.018
 2192SOL    HW1 7475   4.867   1.799   2.067
 2192SOL    HW2 7476   4.784   1.857   1.939
 2193SOL     OW 7477   2.582   0.012   5.041
 2193SOL    HW1 7478   2.491   0.004   5.083
 2193SOL    HW2 7479   2.580   0.083   4.971
 2194SOL     OW 7480   0.612   3.732   6.366
 2194SOL    HW1 7481   0.535   3.673   6.343
 2194SOL    HW2 7482   0.682   3.724   6.296
 2195SOL     OW 7483   0.269   3.943   4.750
 2195SOL    HW1 7484   0.186   3.892   4.728
 2195SOL    HW2 7485   0.273   4.026   4.695
 2196SOL     OW 7486   3.529   0.958   0.034
 2196SOL    HW1 7487   3.517   0.887   0.103
 2196SOL    HW2 7488   3.555   1.044   0.078
 2197SOL     OW 7489   3.395   6.035   6.085
 2197SOL    HW1 7490   3.311   6.004   6.041
 2197SOL    HW2 7491   3.422   6.124   6.048
 2198SOL     OW 7492   1.233   0.970   6.669
 2198SOL    HW1 7493   1.138   0.983   6.697
 2198SOL    HW2 7494   1.256   1.036   6.598
 2199SOL     OW 7495   4.104   6.864   3.862
 2199SOL    HW1 7496   4.094   6.791   3.929
 2199SOL    HW2 7497   4.179   6.925   3.890
 2200SOL     OW 7498   2.787   2.241   3.938
 2200SOL    HW1 7499   2.737   2.156   3.922
 2200SOL    HW2 7500   2.870   2.242   3.883
 2201SOL     OW 7501   5.601   3.750   5.246
 2201SOL    HW1 7502   5.624   3.652   5.243
 2201SOL    HW2 7503   5.683   3.803   5.225
 2202SOL     OW 7504   3.485   0.087   3.131
 2202SOL    HW1 7505   3.494   0.186   3.139
 2202SOL    HW2 7506   3.558   0.052   3.072
 2203SOL     OW 7507   1.318   4.843   0.986
 2203SOL    HW1 7508   1.366   4.815   0.902
 2203SOL    HW2 7509   1.353   4.789   1.063
 2204SOL     OW 7510   6.066   2.521   0.773
 2204SOL    HW1 7511   6.048   2.468   0.856
 2204SOL    HW2 7512   6.127   2.470   0.713
 2205SOL     OW 7513   6.873   5.459   1.040
 2205SOL    HW1 7514   6.916   5.524   0.978
 2205SOL    HW2 7515   6.787   5.498   1.075
 2206SOL     OW 7516   3.591   2.608   5.763
 2206SOL    HW1 7517   3.657   2.597   5.837
 2206SOL    HW2 7518   3.572   2.520   5.721
 2207SOL     OW 7519   4.801   5.878   1.638
 2207SOL    HW1 7520   4.798   5.862   1.736
 2207SOL    HW2 7521   4.825   5.973   1.620
 2208SOL     OW 7522   0.231   6.845   2.902
 2208SOL    HW1 7523   0.284   6.849   2.986
 2208SOL    HW2 7524   0.160   6.775   2.910
 2209SOL     OW 7525   3.259   5.887   4.069
 2209SOL    HW1 7526   3.266   5.984   4.092
 2209SOL    HW2 7527   3.307   5.870   3.983
 2210SOL     OW 7528   4.836   0.324   1.517
 2210SOL    HW1 7529   4.836   0.230   1.482
 2210SOL    HW2 7530   4.788   0.328   1.605
 2211SOL     OW 7531   1.689   1.941   1.162
 2211SOL    HW1 7532   1.646   1.943   1.072
 2211SOL    HW2 7533   1.629   1.985   1.229
 2212SOL     OW 7534   2.701   5.634   6.432
 2212SOL    HW1 7535   2.642   5.564   6.393
 2212SOL    HW2 7536   2.655   5.677   6.510
 2213SOL     OW 7537   3.568   2.027   5.065
 2213SOL    HW1 7538   3.508   2.030   5.145
 2213SOL    HW2 7539   3.656   2.066   5.088
 2214SOL     OW 7540   3.904   4.259   6.435
 2214SOL    HW1 7541   3.992   4.306   6.428
 2214SOL    HW2 7542   3.844   4.288   6.361
 2215SOL     OW 7543   4.412   6.480   0.544
 2215SOL    HW1 7544   4.363   6.554   0.498
 2215SOL    HW2 7545   4.380   6.472   0.638
 2216SOL     OW 7546   0.331   6.558   6.604
 2216SOL    HW1 7547   0.425   6.542   6.574
 2216SOL    HW2 7548   0.331   6.622   6.681
 2217SOL     OW 7549   4.475   1.350   3.870
 2217SOL    HW1 7550   4.405   1.390   3.930
 2217SOL    HW2 7551   4.474   1.250   3.882
 2218SOL     OW 7552   6.916   5.244   5.293
 2218SOL    HW1 7553   6.817   5.253   5.277
 2218SOL    HW2 7554   6.932   5.206   5.384
 2219SOL     OW 7555   5.387   1.011   0.785
 2219SOL    HW1 7556   5.453   1.009   0.710
 2219SOL    HW2 7557   5.397   1.097   0.835
 2220SOL     OW 7558   0.228   6.047   4.291
 2220SOL    HW1 7559   0.260   6.142   4.292
 2220SOL    HW2 7560   0.129   6.045   4.276
 2221SOL     OW 7561   5.938   1.141   4.294
 2221SOL    HW1 7562   5.902   1.050   4.314
 2221SOL    HW2 7563   6.029   1.150   4.334
 2222SOL     OW 7564   4.498   0.147   2.810
 2222SOL    HW1 7565   4.497   0.177   2.715
 2222SOL    HW2 7566   4.592   0.130   2.839
 2223SOL     OW 7567   0.792   6.729   5.447
 2223SOL    HW1 7568   0.738   6.764   5.523
 2223SOL    HW2 7569   0.733   6.717   5.367
 2224SOL     OW 7570   4.925   3.754   0.421
 2224SOL    HW1 7571   4.901   3.673   0.368
 2224SOL    HW2 7572   4.964   3.823   0.360
 2225SOL     OW 7573   6.710   6.769   1.683
 2225SOL    HW1 7574   6.766   6.844   1.649
 2225SOL    HW2 7575   6.765   6.686   1.690
 2226SOL     OW 7576   2.426   4.511   0.022
 2226SOL    HW1 7577   2.458   4.518   0.116
 2226SOL    HW2 7578   2.435   4.600   6.998
 2227SOL     OW 7579   4.028   1.933   2.200
 2227SOL    HW1 7580   4.081   1.988   2.136
 2227SOL    HW2 7581   3.948   1.985   2.230
 2228SOL     OW 7582   5.689   5.375   6.561
 2228SOL    HW1 7583   5.689   5.443   6.488
 2228SOL    HW2 7584   5.636   5.295   6.533
 2229SOL     OW 7585   3.003   3.261   3.716
 2229SOL    HW1 7586   2.917   3.280   3.669
 2229SOL    HW2 7587   3.070   3.330   3.692
 2230SOL     OW 7588   6.422   0.759   6.580
 2230SOL    HW1 7589   6.342   0.775   6.638
 2230SOL    HW2 7590   6.498   0.727   6.636
 2231SOL     OW 7591   1.610   6.927   6.152
 2231SOL    HW1 7592   1.674   6.938   6.076
 2231SOL    HW2 7593   1.660   6.915   6.237
 2232SOL     OW 7594   1.714   0.604   5.754
 2232SOL    HW1 7595   1.642   0.592   5.823
 2232SOL    HW2 7596   1.772   0.522   5.753
 2233SOL     OW 7597   3.173   5.016   0.734
 2233SOL    HW1 7598   3.088   4.971   0.761
 2233SOL    HW2 7599   3.213   5.062   0.813
 2234SOL     OW 7600   4.789   2.037   1.590
 2234SOL    HW1 7601   4.720   2.071   1.527
 2234SOL    HW2 7602   4.800   2.101   1.666
 2235SOL     OW 7603   0.512   1.814   2.962
 2235SOL    HW1 7604   0.562   1.859   2.888
 2235SOL    HW2 7605   0.520   1.715   2.952
 2236SOL     OW 7606   2.700   5.093   5.332
 2236SOL    HW1 7607   2.794   5.092   5.365
 2236SOL    HW2 7608   2.664   5.187   5.337
 2237SOL     OW 7609   6.323   6.175   5.998
 2237SOL    HW1 7610   6.238   6.127   6.019
 2237SOL    HW2 7611   6.318   6.210   5.905
 2238SOL     OW 7612   6.026   3.584   2.055
 2238SOL    HW1 7613   5.951   3.631   2.102
 2238SOL    HW2 7614   6.013   3.485   2.063
 2239SOL     OW 7615   4.725   6.185   3.204
 2239SOL    HW1 7616   4.792   6.174   3.277
 2239SOL    HW2 7617   4.650   6.244   3.236
 2240SOL     OW 7618   5.088   4.989   1.720
 2240SOL    HW1 7619   5.008   4.932   1.740
 2240SOL    HW2 7620   5.058   5.080   1.689
 2241SOL     OW 7621   0.227   1.627   2.889
 2241SOL    HW1 7622   0.256   1.544   2.842
 2241SOL    HW2 7623   0.238   1.705   2.827
 2242SOL     OW 7624   5.429   2.144   4.167
 2242SOL    HW1 7625   5.389   2.222   4.120
 2242SOL    HW2 7626   5.454   2.171   4.260
 2243SOL     OW 7627   2.319   0.056   0.496
 2243SOL    HW1 7628   2.253   0.012   0.557
 2243SOL    HW2 7629   2.271   0.098   0.420
 2244SOL     OW 7630   1.944   1.607   0.769
 2244SOL    HW1 7631   2.034   1.638   0.739
 2244SOL    HW2 7632   1.914   1.661   0.847
 2245SOL     OW 7633   0.226   0.579   0.112
 2245SOL    HW1 7634   0.166   0.572   0.033
 2245SOL    HW2 7635   0.177   0.547   0.194
 2246SOL     OW 7636   3.839   2.120   5.169
 2246SOL    HW1 7637   3.932   2.153   5.158
 2246SOL    HW2 7638   3.791   2.176   5.237
 2247SOL     OW 7639   2.911   3.229   2.193
 2247SOL    HW1 7640   2.832   3.217   2.132
 2247SOL    HW2 7641   2.896   3.308   2.252
 2248SOL     OW 7642   4.789   4.016   4.991
 2248SOL    HW1 7643   4.734   4.033   5.073
 2248SOL    HW2 7644   4.842   3.933   5.003
 2249SOL     OW 7645   2.250   6.645   2.825
 2249SOL    HW1 7646   2.207   6.569   2.776
 2249SOL    HW2 7647   2.181   6.711   2.853
 2250SOL     OW 7648   4.360   6.036   6.660
 2250SOL    HW1 7649   4.459   6.044   6.647
 2250SOL    HW2 7650   4.337   5.944   6.691
 2251SOL     OW 7651   4.796   6.606   4.891
 2251SOL    HW1 7652   4.779   6.670   4.966
 2251SOL    HW2 7653   4.894   6.604   4.870
 2252SOL     OW 7654   3.715   0.802   2.592
 2252SOL    HW1 7655   3.670   0.840   2.672
 2252SOL    HW2 7656   3.689   0.855   2.511
 2253SOL     OW 7657   0.172   3.356   1.332
 2253SOL    HW1 7658   0.234   3.286   1.297
 2253SOL    HW2 7659   0.214   3.446   1.324
 2254SOL     OW 7660   4.130   3.274   2.864
 2254SOL    HW1 7661   4.124   3.306   2.958
 2254SOL    HW2 7662   4.079   3.189   2.854
 2255SOL     OW 7663   1.767   3.066   6.599
 2255SOL    HW1 7664   1.838   3.023   6.542
 2255SOL    HW2 7665   1.805   3.147   6.643
 2256SOL     OW 7666   5.490   0.336   1.408
 2256SOL    HW1 7667   5.538   0.274   1.345
 2256SOL    HW2 7668   5.451   0.283   1.483
 2257SOL     OW 7669   6.583   0.572   5.404
 2257SOL    HW1 7670   6.537   0.500   5.456
 2257SOL    HW2 7671   6.665   0.602   5.453
 2258SOL     OW 7672   2.504   6.556   4.050
 2258SOL    HW1 7673   2.576   6.497   4.015
 2258SOL    HW2 7674   2.508   6.645   4.003
 2259SOL     OW 7675   6.218   1.970   5.276
 2259SOL    HW1 7676   6.164   1.912   5.338
 2259SOL    HW2 7677   6.207   1.937   5.182
 2260SOL     OW 7678   0.921   3.627   1.561
 2260SOL    HW1 7679   0.881   3.701   1.614
 2260SOL    HW2 7680   0.955   3.556   1.622
 2261SOL     OW 7681   5.440   4.013   0.178
 2261SOL    HW1 7682   5.392   3.991   0.093
 2261SOL    HW2 7683   5.435   3.935   0.239
 2262SOL     OW 7684   6.573   0.038   4.849
 2262SOL    HW1 7685   6.521   0.118   4.818
 2262SOL    HW2 7686   6.641   0.014   4.781
 2263SOL     OW 7687   2.325   4.488   6.407
 2263SOL    HW1 7688   2.414   4.458   6.372
 2263SOL    HW2 7689   2.261   4.496   6.331
 2264SOL     OW 7690   2.921   0.254   5.737
 2264SOL    HW1 7691   2.843   0.311   5.763
 2264SOL    HW2 7692   2.936   0.184   5.806
 2265SOL     OW 7693   7.015   6.343   4.244
 2265SOL    HW1 7694   0.020   6.272   4.309
 2265SOL    HW2 7695   6.979   6.301   4.161
 2266SOL     OW 7696   4.068   2.829   6.798
 2266SOL    HW1 7697   4.046   2.921   6.766
 2266SOL    HW2 7698   4.167   2.819   6.809
 2267SOL     OW 7699   5.494   2.609   4.497
 2267SOL    HW1 7700   5.462   2.627   4.590
 2267SOL    HW2 7701   5.475   2.514   4.473
 2268SOL     OW 7702   1.541   6.023   4.526
 2268SOL    HW1 7703   1.626   6.025   4.578
 2268SOL    HW2 7704   1.557   6.054   4.433
 2269SOL     OW 7705   1.787   2.418   5.518
 2269SOL    HW1 7706   1.733   2.428   5.434
 2269SOL    HW2 7707   1.769   2.328   5.558
 2270SOL     OW 7708   4.672   1.514   6.273
 2270SOL    HW1 7709   4.747   1.450   6.290
 2270SOL    HW2 7710   4.591   1.484   6.324
 2271SOL     OW 7711   4.634   5.580   5.486
 2271SOL    HW1 7712   4.609   5.582   5.390
 2271SOL    HW2 7713   4.677   5.493   5.508
 2272SOL     OW 7714   5.326   1.144   5.763
 2272SOL    HW1 7715   5.380   1.163   5.845
 2272SOL    HW2 7716   5.384   1.099   5.695
 2273SOL     OW 7717   0.972   2.695   3.314
 2273SOL    HW1 7718   1.063   2.655   3.326
 2273SOL    HW2 7719   0.926   2.699   3.403
 2274SOL     OW 7720   1.184   1.409   0.006
 2274SOL    HW1 7721   1.158   1.356   0.087
 2274SOL    HW2 7722   1.173   1.353   6.945
 2275SOL     OW 7723   5.555   3.939   2.926
 2275SOL    HW1 7724   5.507   4.025   2.942
 2275SOL    HW2 7725   5.534   3.906   2.834
 2276SOL     OW 7726   1.942   1.949   1.070
 2276SOL    HW1 7727   1.863   1.928   1.128
 2276SOL    HW2 7728   2.012   1.995   1.125
 2277SOL     OW 7729   3.810   3.020   3.573
 2277SOL    HW1 7730   3.762   3.106   3.559
 2277SOL    HW2 7731   3.746   2.944   3.561
 2278SOL     OW 7732   0.252   2.958   3.960
 2278SOL    HW1 7733   0.346   2.964   3.926
 2278SOL    HW2 7734   0.228   2.863   3.976
 2279SOL     OW 7735   0.835   5.814   5.540
 2279SOL    HW1 7736   0.837   5.715   5.548
 2279SOL    HW2 7737   0.834   5.840   5.443
 2280SOL     OW 7738   4.462   2.004   5.954
 2280SOL    HW1 7739   4.375   1.966   5.920
 2280SOL    HW2 7740   4.442   2.080   6.016
 2281SOL     OW 7741   5.882   6.627   2.412
 2281SOL    HW1 7742   5.948   6.602   2.483
 2281SOL    HW2 7743   5.897   6.721   2.384
 2282SOL     OW 7744   3.618   6.598   5.961
 2282SOL    HW1 7745   3.518   6.602   5.966
 2282SOL    HW2 7746   3.649   6.627   5.870
 2283SOL     OW 7747   0.201   0.893   3.830
 2283SOL    HW1 7748   0.209   0.895   3.730
 2283SOL    HW2 7749   0.139   0.967   3.859
 2284SOL     OW 7750   1.227   2.572   6.973
 2284SOL    HW1 7751   1.326   2.585   6.964
 2284SOL    HW2 7752   1.180   2.656   6.945
 2285SOL     OW 7753   1.725   4.510   6.475
 2285SOL    HW1 7754   1.677   4.531   6.389
 2285SOL    HW2 7755   1.778   4.426   6.464
 2286SOL     OW 7756   4.769   4.820   3.257
 2286SOL    HW1 7757   4.763   4.733   3.306
 2286SOL    HW2 7758   4.827   4.883   3.308
 2287SOL     OW 7759   1.158   1.407   3.495
 2287SOL    HW1 7760   1.203   1.481   3.445
 2287SOL    HW2 7761   1.169   1.423   3.593
 2288SOL     OW 7762   0.157   5.358   2.777
 2288SOL    HW1 7763   0.185   5.325   2.868
 2288SOL    HW2 7764   0.190   5.451   2.764
 2289SOL     OW 7765   0.432   5.658   0.596
 2289SOL    HW1 7766   0.385   5.694   0.676
 2289SOL    HW2 7767   0.516   5.613   0.624
 2290SOL     OW 7768   0.979   5.366   0.034
 2290SOL    HW1 7769   1.021   5.300   6.993
 2290SOL    HW2 7770   0.902   5.411   7.010
 2291SOL     OW 7771   1.792   1.357   6.862
 2291SOL    HW1 7772   1.786   1.374   6.960
 2291SOL    HW2 7773   1.881   1.389   6.828
 2292SOL     OW 7774   2.249   1.532   4.585
 2292SOL    HW1 7775   2.184   1.592   4.538
 2292SOL    HW2 7776   2.342   1.564   4.569
 2293SOL     OW 7777   5.274   3.938   2.448
 2293SOL    HW1 7778   5.187   3.972   2.483
 2293SOL    HW2 7779   5.331   4.015   2.419
 2294SOL     OW 7780   3.615   5.924   7.015
 2294SOL    HW1 7781   3.613   5.921   0.095
 2294SOL    HW2 7782   3.678   5.996   6.986
 2295SOL     OW 7783   0.540   2.366   1.677
 2295SOL    HW1 7784   0.586   2.300   1.618
 2295SOL    HW2 7785   0.587   2.454   1.670
 2296SOL     OW 7786   3.578   6.937   0.856
 2296SOL    HW1 7787   3.514   6.862   0.840
 2296SOL    HW2 7788   3.529   7.014   0.897
 2297SOL     OW 7789   4.716   6.360   6.636
 2297SOL    HW1 7790   4.727   6.310   6.722
 2297SOL    HW2 7791   4.623   6.396   6.630
 2298SOL     OW 7792   4.252   3.108   6.377
 2298SOL    HW1 7793   4.193   3.177   6.418
 2298SOL    HW2 7794   4.345   3.119   6.411
 2299SOL     OW 7795   4.675   6.679   7.009
 2299SOL    HW1 7796   4.674   6.760   6.950
 2299SOL    HW2 7797   4.583   6.641   7.014
 2300SOL     OW 7798   0.939   4.369   1.374
 2300SOL    HW1 7799   0.846   4.399   1.395
 2300SOL    HW2 7800   0.946   4.349   1.276
 2301SOL     OW 7801   4.036   3.512   1.890
 2301SOL    HW1 7802   3.943   3.481   1.868
 2301SOL    HW2 7803   4.032   3.581   1.962
 2302SOL     OW 7804   2.446   6.044   3.150
 2302SOL    HW1 7805   2.447   6.138   3.185
 2302SOL    HW2 7806   2.493   5.984   3.214
 2303SOL     OW 7807   0.449   3.265   4.833
 2303SOL    HW1 7808   0.514   3.259   4.757
 2303SOL    HW2 7809   0.435   3.361   4.858
 2304SOL     OW 7810   2.145   0.396   4.042
 2304SOL    HW1 7811   2.213   0.451   4.090
 2304SOL    HW2 7812   2.054   0.419   4.075
 2305SOL     OW 7813   3.952   5.194   1.799
 2305SOL    HW1 7814   3.887   5.139   1.747
 2305SOL    HW2 7815   3.952   5.164   1.895
 2306SOL     OW 7816   0.568   4.089   0.615
 2306SOL    HW1 7817   0.639   4.044   0.560
 2306SOL    HW2 7818   0.602   4.178   0.646
 2307SOL     OW 7819   6.989   1.542   2.917
 2307SOL    HW1 7820   6.985   1.593   2.831
 2307SOL    HW2 7821   0.046   1.573   2.971
 2308SOL     OW 7822   0.213   0.086   0.434
 2308SOL    HW1 7823   0.285   0.027   0.471
 2308SOL    HW2 7824   0.187   0.154   0.502
 2309SOL     OW 7825   3.276   5.416   5.957
 2309SOL    HW1 7826   3.348   5.380   6.017
 2309SOL    HW2 7827   3.259   5.352   5.883
 2310SOL     OW 7828   5.820   1.865   2.809
 2310SOL    HW1 7829   5.774   1.952   2.823
 2310SOL    HW2 7830   5.828   1.817   2.897
 2311SOL     OW 7831   2.487   0.490   2.977
 2311SOL    HW1 7832   2.478   0.399   3.016
 2311SOL    HW2 7833   2.396   0.529   2.963
 2312SOL     OW 7834   2.504   0.937   2.645
 2312SOL    HW1 7835   2.579   0.922   2.710
 2312SOL    HW2 7836   2.511   1.029   2.607
 2313SOL     OW 7837   5.590   4.174   1.587
 2313SOL    HW1 7838   5.590   4.211   1.680
 2313SOL    HW2 7839   5.520   4.220   1.533
 2314SOL     OW 7840   6.506   6.781   3.214
 2314SOL    HW1 7841   6.594   6.824   3.236
 2314SOL    HW2 7842   6.503   6.689   3.253
 2315SOL     OW 7843   4.257   5.864   5.211
 2315SOL    HW1 7844   4.177   5.848   5.269
 2315SOL    HW2 7845   4.340   5.842   5.262
 2316SOL     OW 7846   2.741   1.825   6.098
 2316SOL    HW1 7847   2.784   1.908   6.133
 2316SOL    HW2 7848   2.785   1.745   6.140
 2317SOL     OW 7849   6.776   5.778   3.372
 2317SOL    HW1 7850   6.874   5.792   3.357
 2317SOL    HW2 7851   6.724   5.826   3.302
 2318SOL     OW 7852   1.683   4.654   5.415
 2318SOL    HW1 7853   1.666   4.698   5.503
 2318SOL    HW2 7854   1.781   4.634   5.406
 2319SOL     OW 7855   2.345   4.964   3.731
 2319SOL    HW1 7856   2.322   4.997   3.640
 2319SOL    HW2 7857   2.262   4.928   3.775
 2320SOL     OW 7858   1.072   2.446   5.400
 2320SOL    HW1 7859   1.136   2.506   5.448
 2320SOL    HW2 7860   1.095   2.350   5.419
 2321SOL     OW 7861   2.621   4.827   5.927
 2321SOL    HW1 7862   2.655   4.921   5.927
 2321SOL    HW2 7863   2.695   4.765   5.953
 2322SOL     OW 7864   1.592   4.352   1.613
 2322SOL    HW1 7865   1.639   4.440   1.618
 2322SOL    HW2 7866   1.627   4.300   1.535
 2323SOL     OW 7867   2.339   5.131   1.595
 2323SOL    HW1 7868   2.416   5.086   1.550
 2323SOL    HW2 7869   2.270   5.063   1.620
 2324SOL     OW 7870   6.949   5.238   2.725
 2324SOL    HW1 7871   0.019   5.277   2.739
 2324SOL    HW2 7872   6.888   5.268   2.799
 2325SOL     OW 7873   6.862   4.961   1.897
 2325SOL    HW1 7874   6.805   4.908   1.835
 2325SOL    HW2 7875   6.929   5.014   1.844
 2326SOL     OW 7876   1.857   0.764   6.949
 2326SOL    HW1 7877   1.762   0.793   6.953
 2326SOL    HW2 7878   1.891   0.746   0.020
 2327SOL     OW 7879   0.411   0.386   2.407
 2327SOL    HW1 7880   0.452   0.341   2.328
 2327SOL    HW2 7881   0.374   0.318   2.469
 2328SOL     OW 7882   2.030   2.776   3.063
 2328SOL    HW1 7883   2.038   2.870   3.097
 2328SOL    HW2 7884   1.974   2.775   2.981
 2329SOL     OW 7885   0.439   5.160   3.191
 2329SOL    HW1 7886   0.515   5.174   3.127
 2329SOL    HW2 7887   0.462   5.199   3.279
 2330SOL     OW 7888   6.675   2.920   0.491
 2330SOL    HW1 7889   6.596   2.876   0.446
 2330SOL    HW2 7890   6.721   2.980   0.425
 2331SOL     OW 7891   4.262   6.216   0.855
 2331SOL    HW1 7892   4.227   6.236   0.946
 2331SOL    HW2 7893   4.336   6.280   0.833
 2332SOL     OW 7894   5.700   6.781   5.719
 2332SOL    HW1 7895   5.749   6.836   5.786
 2332SOL    HW2 7896   5.602   6.792   5.732
 2333SOL     OW 7897   0.202   4.601   2.606
 2333SOL    HW1 7898   0.175   4.572   2.697
 2333SOL    HW2 7899   0.300   4.586   2.593
 2334SOL     OW 7900   2.943   1.550   6.565
 2334SOL    HW1 7901   2.888   1.633   6.563
 2334SOL    HW2 7902   2.974   1.529   6.472
 2335SOL     OW 7903   6.324   1.384   3.477
 2335SOL    HW1 7904   6.250   1.316   3.478
 2335SOL    HW2 7905   6.404   1.345   3.433
 2336SOL     OW 7906   2.063   2.000   2.889
 2336SOL    HW1 7907   2.094   1.931   2.824
 2336SOL    HW2 7908   2.054   2.088   2.843
 2337SOL     OW 7909   4.678   1.749   1.318
 2337SOL    HW1 7910   4.610   1.788   1.380
 2337SOL    HW2 7911   4.647   1.660   1.286
 2338SOL     OW 7912   6.814   3.797   3.731
 2338SOL    HW1 7913   6.730   3.811   3.785
 2338SOL    HW2 7914   6.851   3.887   3.705
 2339SOL     OW 7915   3.548   2.849   3.022
 2339SOL    HW1 7916   3.581   2.763   2.983
 2339SOL    HW2 7917   3.519   2.834   3.116
 2340SOL     OW 7918   2.027   5.419   6.528
 2340SOL    HW1 7919   1.996   5.338   6.578
 2340SOL    HW2 7920   1.977   5.428   6.442
 2341SOL     OW 7921   2.462   4.380   3.674
 2341SOL    HW1 7922   2.536   4.422   3.728
 2341SOL    HW2 7923   2.494   4.366   3.580
 2342SOL     OW 7924   3.261   0.140   4.116
 2342SOL    HW1 7925   3.186   0.107   4.174
 2342SOL    HW2 7926   3.308   0.216   4.161
 2343SOL     OW 7927   1.323   0.124   1.984
 2343SOL    HW1 7928   1.293   0.079   2.068
 2343SOL    HW2 7929   1.376   0.206   2.007
 2344SOL     OW 7930   5.573   3.953   0.847
 2344SOL    HW1 7931   5.595   4.037   0.797
 2344SOL    HW2 7932   5.474   3.942   0.852
 2345SOL     OW 7933   2.966   5.400   4.763
 2345SOL    HW1 7934   2.994   5.313   4.804
 2345SOL    HW2 7935   2.879   5.430   4.804
 2346SOL     OW 7936   3.985   4.030   6.649
 2346SOL    HW1 7937   3.975   4.078   6.562
 2346SOL    HW2 7938   4.060   4.071   6.701
 2347SOL     OW 7939   1.166   2.157   2.142
 2347SOL    HW1 7940   1.084   2.212   2.154
 2347SOL    HW2 7941   1.170   2.122   2.048
 2348SOL     OW 7942   7.002   4.998   2.880
 2348SOL    HW1 7943   6.947   4.918   2.854
 2348SOL    HW2 7944   6.994   5.068   2.809
 2349SOL     OW 7945   0.699   4.327   5.844
 2349SOL    HW1 7946   0.640   4.278   5.780
 2349SOL    HW2 7947   0.793   4.293   5.835
 2350SOL     OW 7948   5.713   3.594   6.836
 2350SOL    HW1 7949   5.811   3.584   6.818
 2350SOL    HW2 7950   5.682   3.684   6.805
 2351SOL     OW 7951   2.880   5.272   2.819
 2351SOL    HW1 7952   2.831   5.309   2.898
 2351SOL    HW2 7953   2.978   5.265   2.841
 2352SOL     OW 7954   0.118   2.807   3.589
 2352SOL    HW1 7955   0.115   2.738   3.517
 2352SOL    HW2 7956   0.208   2.851   3.590
 2353SOL     OW 7957   3.574   5.730   4.738
 2353SOL    HW1 7958   3.657   5.756   4.688
 2353SOL    HW2 7959   3.578   5.768   4.830
 2354SOL     OW 7960   2.185   2.208   3.822
 2354SOL    HW1 7961   2.229   2.200   3.732
 2354SOL    HW2 7962   2.088   2.227   3.810
 2355SOL     OW 7963   2.600   5.896   5.249
 2355SOL    HW1 7964   2.651   5.969   5.294
 2355SOL    HW2 7965   2.537   5.936   5.182
 2356SOL     OW 7966   0.061   3.431   0.135
 2356SOL    HW1 7967   7.017   3.430   0.211
 2356SOL    HW2 7968   0.128   3.505   0.149
 2357SOL     OW 7969   2.461   6.829   2.299
 2357SOL    HW1 7970   2.456   6.748   2.358
 2357SOL    HW2 7971   2.420   6.907   2.347
 2358SOL     OW 7972   3.481   4.964   6.671
 2358SOL    HW1 7973   3.493   4.878   6.622
 2358SOL    HW2 7974   3.399   5.011   6.638
 2359SOL     OW 7975   1.373   0.102   4.441
 2359SOL    HW1 7976   1.436   0.133   4.512
 2359SOL    HW2 7977   1.404   0.014   4.404
 2360SOL     OW 7978   6.553   3.605   0.484
 2360SOL    HW1 7979   6.590   3.576   0.572
 2360SOL    HW2 7980   6.454   3.595   0.485
 2361SOL     OW 7981   3.434   1.310   6.510
 2361SOL    HW1 7982   3.517   1.292   6.457
 2361SOL    HW2 7983   3.414   1.408   6.507
 2362SOL     OW 7984   3.774   5.512   3.245
 2362SOL    HW1 7985   3.870   5.502   3.219
 2362SOL    HW2 7986   3.734   5.421   3.259
 2363SOL     OW 7987   3.890   1.259   4.653
 2363SOL    HW1 7988   3.844   1.223   4.571
 2363SOL    HW2 7989   3.972   1.310   4.626
 2364SOL     OW 7990   1.282   2.733   1.107
 2364SOL    HW1 7991   1.283   2.660   1.038
 2364SOL    HW2 7992   1.273   2.821   1.062
 2365SOL     OW 7993   5.776   2.075   6.618
 2365SOL    HW1 7994   5.700   2.018   6.588
 2365SOL    HW2 7995   5.788   2.066   6.716
 2366SOL     OW 7996   3.941   5.297   0.517
 2366SOL    HW1 7997   3.920   5.266   0.610
 2366SOL    HW2 7998   4.028   5.345   0.517
 2367SOL     OW 7999   2.908   3.321   6.524
 2367SOL    HW1 8000   2.904   3.264   6.441
 2367SOL    HW2 8001   2.961   3.273   6.594
 2368SOL     OW 8002   6.729   5.914   2.784
 2368SOL    HW1 8003   6.687   5.823   2.787
 2368SOL    HW2 8004   6.811   5.911   2.728
 2369SOL     OW 8005   2.247   0.850   3.581
 2369SOL    HW1 8006   2.242   0.948   3.563
 2369SOL    HW2 8007   2.159   0.807   3.558
 2370SOL     OW 8008   5.891   2.108   6.866
 2370SOL    HW1 8009   5.979   2.139   6.901
 2370SOL    HW2 8010   5.892   2.009   6.853
 2371SOL     OW 8011   2.629   6.510   1.629
 2371SOL    HW1 8012   2.607   6.574   1.703
 2371SOL    HW2 8013   2.719   6.469   1.645
 2372SOL     OW 8014   6.756   3.459   2.717
 2372SOL    HW1 8015   6.809   3.534   2.677
 2372SOL    HW2 8016   6.676   3.440   2.659
 2373SOL     OW 8017   2.109   3.163   6.189
 2373SOL    HW1 8018   2.078   3.068   6.180
 2373SOL    HW2 8019   2.051   3.210   6.255
 2374SOL     OW 8020   5.922   2.910   4.779
 2374SOL    HW1 8021   5.983   2.893   4.701
 2374SOL    HW2 8022   5.974   2.948   4.855
 2375SOL     OW 8023   3.213   6.051   5.172
 2375SOL    HW1 8024   3.264   6.128   5.134
 2375SOL    HW2 8025   3.182   5.992   5.097
 2376SOL     OW 8026   6.402   3.269   4.625
 2376SOL    HW1 8027   6.407   3.244   4.722
 2376SOL    HW2 8028   6.480   3.231   4.576
 2377SOL     OW 8029   3.378   3.605   4.076
 2377SOL    HW1 8030   3.347   3.600   3.981
 2377SOL    HW2 8031   3.449   3.536   4.093
 2378SOL     OW 8032   5.231   2.440   6.760
 2378SOL    HW1 8033   5.278   2.382   6.827
 2378SOL    HW2 8034   5.227   2.392   6.672
 2379SOL     OW 8035   6.567   6.871   0.387
 2379SOL    HW1 8036   6.494   6.806   0.364
 2379SOL    HW2 8037   6.644   6.857   0.325
 2380SOL     OW 8038   6.195   1.589   2.214
 2380SOL    HW1 8039   6.229   1.522   2.279
 2380SOL    HW2 8040   6.111   1.631   2.250
 2381SOL     OW 8041   1.751   6.489   3.323
 2381SOL    HW1 8042   1.843   6.517   3.350
 2381SOL    HW2 8043   1.684   6.546   3.371
 2382SOL     OW 8044   1.700   3.549   4.920
 2382SOL    HW1 8045   1.750   3.582   4.840
 2382SOL    HW2 8046   1.744   3.468   4.956
 2383SOL     OW 8047   6.298   5.811   1.355
 2383SOL    HW1 8048   6.290   5.872   1.276
 2383SOL    HW2 8049   6.245   5.727   1.337
 2384SOL     OW 8050   4.543   1.634   1.729
 2384SOL    HW1 8051   4.614   1.570   1.757
 2384SOL    HW2 8052   4.459   1.615   1.780
 2385SOL     OW 8053   0.687   2.118   6.074
 2385SOL    HW1 8054   0.603   2.089   6.121
 2385SOL    HW2 8055   0.719   2.204   6.113
 2386SOL     OW 8056   4.810   5.774   4.127
 2386SOL    HW1 8057   4.840   5.856   4.175
 2386SOL    HW2 8058   4.762   5.713   4.190
 2387SOL     OW 8059   1.894   1.703   3.694
 2387SOL    HW1 8060   1.927   1.797   3.686
 2387SOL    HW2 8061   1.817   1.689   3.632
 2388SOL     OW 8062   6.133   1.851   4.475
 2388SOL    HW1 8063   6.210   1.900   4.514
 2388SOL    HW2 8064   6.153   1.753   4.473
 2389SOL     OW 8065   4.028   5.519   3.081
 2389SOL    HW1 8066   4.088   5.468   3.019
 2389SOL    HW2 8067   4.004   5.606   3.040
 2390SOL     OW 8068   3.249   4.149   1.782
 2390SOL    HW1 8069   3.216   4.107   1.698
 2390SOL    HW2 8070   3.203   4.106   1.861
 2391SOL     OW 8071   4.182   5.096   5.273
 2391SOL    HW1 8072   4.236   5.078   5.355
 2391SOL    HW2 8073   4.215   5.180   5.230
 2392SOL     OW 8074   3.700   1.250   6.766
 2392SOL    HW1 8075   3.669   1.182   6.699
 2392SOL    HW2 8076   3.729   1.202   6.849
 2393SOL     OW 8077   4.136   4.971   5.642
 2393SOL    HW1 8078   4.104   4.975   5.736
 2393SOL    HW2 8079   4.221   5.024   5.633
 2394SOL     OW 8080   0.660   4.146   5.060
 2394SOL    HW1 8081   0.566   4.124   5.033
 2394SOL    HW2 8082   0.661   4.230   5.114
 2395SOL     OW 8083   4.295   0.121   5.895
 2395SOL    HW1 8084   4.334   0.030   5.884
 2395SOL    HW2 8085   4.261   0.132   5.988
 2396SOL     OW 8086   4.308   4.396   0.612
 2396SOL    HW1 8087   4.396   4.365   0.576
 2396SOL    HW2 8088   4.235   4.341   0.573
 2397SOL     OW 8089   0.071   3.792   4.613
 2397SOL    HW1 8090   0.037   3.706   4.650
 2397SOL    HW2 8091   0.120   3.774   4.528
 2398SOL     OW 8092   3.865   4.824   5.612
 2398SOL    HW1 8093   3.860   4.823   5.512
 2398SOL    HW2 8094   3.937   4.887   5.641
 2399SOL     OW 8095   4.207   1.742   1.704
 2399SOL    HW1 8096   4.135   1.693   1.754
 2399SOL    HW2 8097   4.238   1.819   1.759
 2400SOL     OW 8098   2.466   5.145   1.834
 2400SOL    HW1 8099   2.399   5.169   1.763
 2400SOL    HW2 8100   2.497   5.051   1.820
 2401SOL     OW 8101   6.587   6.428   6.060
 2401SOL    HW1 8102   6.507   6.452   6.115
 2401SOL    HW2 8103   6.569   6.342   6.012
 2402SOL     OW 8104   6.910   6.481   4.649
 2402SOL    HW1 8105   6.934   6.460   4.744
 2402SOL    HW2 8106   6.914   6.398   4.594
 2403SOL     OW 8107   0.554   1.732   5.080
 2403SOL    HW1 8108   0.576   1.760   5.174
 2403SOL    HW2 8109   0.600   1.793   5.015
 2404SOL     OW 8110   0.880   0.168   0.212
 2404SOL    HW1 8111   0.892   0.140   0.308
 2404SOL    HW2 8112   0.797   0.127   0.175
 2405SOL     OW 8113   2.534   3.953   1.633
 2405SOL    HW1 8114   2.587   4.020   1.581
 2405SOL    HW2 8115   2.592   3.913   1.704
 2406SOL     OW 8116   4.917   1.107   1.281
 2406SOL    HW1 8117   4.979   1.029   1.291
 2406SOL    HW2 8118   4.970   1.192   1.280
 2407SOL     OW 8119   5.495   0.672   3.630
 2407SOL    HW1 8120   5.451   0.758   3.658
 2407SOL    HW2 8121   5.516   0.618   3.711
 2408SOL     OW 8122   4.606   4.459   2.231
 2408SOL    HW1 8123   4.565   4.546   2.206
 2408SOL    HW2 8124   4.584   4.391   2.161
 2409SOL     OW 8125   1.462   4.017   0.474
 2409SOL    HW1 8126   1.525   4.094   0.477
 2409SOL    HW2 8127   1.489   3.955   0.400
 2410SOL     OW 8128   3.537   2.878   2.718
 2410SOL    HW1 8129   3.549   2.978   2.718
 2410SOL    HW2 8130   3.622   2.834   2.746
 2411SOL     OW 8131   5.119   6.828   4.448
 2411SOL    HW1 8132   5.055   6.895   4.485
 2411SOL    HW2 8133   5.156   6.863   4.361
 2412SOL     OW 8134   4.263   3.170   0.920
 2412SOL    HW1 8135   4.309   3.246   0.966
 2412SOL    HW2 8136   4.265   3.185   0.821
 2413SOL     OW 8137   4.671   0.070   2.370
 2413SOL    HW1 8138   4.682   0.128   2.290
 2413SOL    HW2 8139   4.641   6.999   2.342
 2414SOL     OW 8140   5.500   3.647   4.135
 2414SOL    HW1 8141   5.530   3.569   4.080
 2414SOL    HW2 8142   5.517   3.629   4.232
 2415SOL     OW 8143   4.243   0.964   3.673
 2415SOL    HW1 8144   4.333   0.963   3.716
 2415SOL    HW2 8145   4.248   0.921   3.583
 2416SOL     OW 8146   5.020   1.875   5.884
 2416SOL    HW1 8147   4.992   1.780   5.871
 2416SOL    HW2 8148   4.940   1.930   5.909
 2417SOL     OW 8149   3.194   4.020   4.089
 2417SOL    HW1 8150   3.224   4.044   4.182
 2417SOL    HW2 8151   3.114   3.960   4.095
 2418SOL     OW 8152   3.433   2.850   3.281
 2418SOL    HW1 8153   3.335   2.849   3.264
 2418SOL    HW2 8154   3.456   2.777   3.346
 2419SOL     OW 8155   6.818   0.047   2.943
 2419SOL    HW1 8156   6.801   0.066   3.039
 2419SOL    HW2 8157   6.916   0.052   2.925
 2420SOL     OW 8158   2.222   0.213   1.989
 2420SOL    HW1 8159   2.248   0.249   1.899
 2420SOL    HW2 8160   2.289   0.145   2.019
 2421SOL     OW 8161   3.364   2.089   3.706
 2421SOL    HW1 8162   3.313   2.103   3.621
 2421SOL    HW2 8163   3.459   2.065   3.684
 2422SOL     OW 8164   4.870   1.226   0.817
 2422SOL    HW1 8165   4.895   1.130   0.809
 2422SOL    HW2 8166   4.800   1.248   0.749
 2423SOL     OW 8167   2.186   5.266   2.342
 2423SOL    HW1 8168   2.187   5.279   2.243
 2423SOL    HW2 8169   2.277   5.241   2.373
 2424SOL     OW 8170   6.212   0.606   1.449
 2424SOL    HW1 8171   6.246   0.643   1.535
 2424SOL    HW2 8172   6.274   0.534   1.418
 2425SOL     OW 8173   6.859   6.737   4.539
 2425SOL    HW1 8174   6.875   6.642   4.566
 2425SOL    HW2 8175   6.764   6.748   4.510
 2426SOL     OW 8176   2.703   5.014   4.031
 2426SOL    HW1 8177   2.764   4.948   4.077
 2426SOL    HW2 8178   2.682   4.981   3.939
 2427SOL     OW 8179   6.169   6.987   5.484
 2427SOL    HW1 8180   6.167   0.048   5.542
 2427SOL    HW2 8181   6.255   6.986   5.432
 2428SOL     OW 8182   6.572   0.606   0.565
 2428SOL    HW1 8183   6.586   0.705   0.569
 2428SOL    HW2 8184   6.623   0.563   0.639
 2429SOL     OW 8185   5.061   5.391   1.993
 2429SOL    HW1 8186   5.050   5.409   1.896
 2429SOL    HW2 8187   5.151   5.424   2.024
 2430SOL     OW 8188   5.265   0.537   2.723
 2430SOL    HW1 8189   5.175   0.497   2.705
 2430SOL    HW2 8190   5.307   0.491   2.802
 2431SOL     OW 8191   4.429   0.326   2.202
 2431SOL    HW1 8192   4.390   0.239   2.231
 2431SOL    HW2 8193   4.503   0.310   2.137
 2432SOL     OW 8194   2.324   6.345   2.432
 2432SOL    HW1 8195   2.364   6.299   2.353
 2432SOL    HW2 8196   2.374   6.320   2.515
 2433SOL     OW 8197   4.097   0.160   0.587
 2433SOL    HW1 8198   4.012   0.140   0.637
 2433SOL    HW2 8199   4.098   0.256   0.561
 2434SOL     OW 8200   3.814   3.372   5.431
 2434SOL    HW1 8201   3.799   3.467   5.457
 2434SOL    HW2 8202   3.818   3.315   5.513
 2435SOL     OW 8203   6.218   5.941   5.579
 2435SOL    HW1 8204   6.316   5.942   5.560
 2435SOL    HW2 8205   6.192   5.851   5.616
 2436SOL     OW 8206   2.892   5.378   0.858
 2436SOL    HW1 8207   2.888   5.394   0.956
 2436SOL    HW2 8208   2.867   5.284   0.838
 2437SOL     OW 8209   6.996   0.342   5.912
 2437SOL    HW1 8210   6.954   0.274   5.972
 2437SOL    HW2 8211   6.934   0.362   5.836
 2438SOL     OW 8212   2.842   3.156   1.101
 2438SOL    HW1 8213   2.851   3.136   1.004
 2438SOL    HW2 8214   2.748   3.184   1.121
 2439SOL     OW 8215   5.687   3.866   5.889
 2439SOL    HW1 8216   5.600   3.882   5.841
 2439SOL    HW2 8217   5.758   3.842   5.822
 2440SOL     OW 8218   6.102   5.159   5.856
 2440SOL    HW1 8219   6.153   5.151   5.942
 2440SOL    HW2 8220   6.147   5.227   5.798
 2441SOL     OW 8221   6.380   1.827   0.835
 2441SOL    HW1 8222   6.350   1.919   0.860
 2441SOL    HW2 8223   6.480   1.821   0.841
 2442SOL     OW 8224   0.024   2.642   5.615
 2442SOL    HW1 8225   0.009   2.733   5.579
 2442SOL    HW2 8226   6.961   2.608   5.658
 2443SOL     OW 8227   2.896   4.844   5.173
 2443SOL    HW1 8228   2.891   4.744   5.179
 2443SOL    HW2 8229   2.805   4.880   5.153
 2444SOL     OW 8230   3.649   3.063   5.434
 2444SOL    HW1 8231   3.624   3.020   5.347
 2444SOL    HW2 8232   3.635   2.997   5.508
 2445SOL     OW 8233   0.386   0.269   0.684
 2445SOL    HW1 8234   0.408   0.360   0.651
 2445SOL    HW2 8235   0.317   0.275   0.756
 2446SOL     OW 8236   5.266   3.184   6.338
 2446SOL    HW1 8237   5.354   3.215   6.302
 2446SOL    HW2 8238   5.205   3.262   6.347
 2447SOL     OW 8239   0.735   2.943   6.681
 2447SOL    HW1 8240   0.772   2.935   6.588
 2447SOL    HW2 8241   0.636   2.931   6.679
 2448SOL     OW 8242   0.392   0.127   4.364
 2448SOL    HW1 8243   0.399   0.207   4.423
 2448SOL    HW2 8244   0.372   0.046   4.419
 2449SOL     OW 8245   0.702   3.055   4.585
 2449SOL    HW1 8246   0.622   3.022   4.534
 2449SOL    HW2 8247   0.674   3.131   4.644
 2450SOL     OW 8248   2.053   3.056   1.649
 2450SOL    HW1 8249   2.075   3.047   1.746
 2450SOL    HW2 8250   2.071   2.969   1.603
 2451SOL     OW 8251   2.617   6.597   4.394
 2451SOL    HW1 8252   2.603   6.503   4.363
 2451SOL    HW2 8253   2.579   6.661   4.327
 2452SOL     OW 8254   2.283   2.409   4.158
 2452SOL    HW1 8255   2.352   2.337   4.149
 2452SOL    HW2 8256   2.316   2.493   4.115
 2453SOL     OW 8257   0.367   3.504   1.795
 2453SOL    HW1 8258   0.451   3.454   1.820
 2453SOL    HW2 8259   0.386   3.565   1.719
 2454SOL     OW 8260   2.372   0.122   1.583
 2454SOL    HW1 8261   2.346   0.032   1.549
 2454SOL    HW2 8262   2.391   0.183   1.506
 2455SOL     OW 8263   5.457   3.298   1.368
 2455SOL    HW1 8264   5.520   3.374   1.355
 2455SOL    HW2 8265   5.448   3.277   1.465
 2456SOL     OW 8266   2.423   0.078   1.107
 2456SOL    HW1 8267   2.443   0.088   1.009
 2456SOL    HW2 8268   2.359   0.003   1.120
 2457SOL     OW 8269   5.986   5.879   1.195
 2457SOL    HW1 8270   5.975   5.873   1.294
 2457SOL    HW2 8271   5.898   5.897   1.152
 2458SOL     OW 8272   0.439   5.915   2.464
 2458SOL    HW1 8273   0.485   5.838   2.509
 2458SOL    HW2 8274   0.497   5.949   2.390
 2459SOL     OW 8275   0.742   1.480   0.531
 2459SOL    HW1 8276   0.769   1.505   0.624
 2459SOL    HW2 8277   0.758   1.557   0.469
 2460SOL     OW 8278   3.081   4.784   1.242
 2460SOL    HW1 8279   3.159   4.784   1.179
 2460SOL    HW2 8280   3.078   4.698   1.292
 2461SOL     OW 8281   4.846   1.505   3.080
 2461SOL    HW1 8282   4.927   1.452   3.055
 2461SOL    HW2 8283   4.805   1.545   2.998
 2462SOL     OW 8284   2.583   3.758   6.103
 2462SOL    HW1 8285   2.595   3.857   6.115
 2462SOL    HW2 8286   2.645   3.710   6.165
 2463SOL     OW 8287   1.057   2.476   4.958
 2463SOL    HW1 8288   1.054   2.563   4.909
 2463SOL    HW2 8289   0.997   2.481   5.038
 2464SOL     OW 8290   1.477   3.678   0.766
 2464SOL    HW1 8291   1.383   3.698   0.741
 2464SOL    HW2 8292   1.488   3.579   0.778
 2465SOL     OW 8293   5.900   5.278   2.106
 2465SOL    HW1 8294   5.895   5.332   2.189
 2465SOL    HW2 8295   5.810   5.276   2.062
 2466SOL     OW 8296   3.790   1.500   1.741
 2466SOL    HW1 8297   3.771   1.588   1.697
 2466SOL    HW2 8298   3.708   1.469   1.788
 2467SOL     OW 8299   0.248   1.360   4.741
 2467SOL    HW1 8300   0.226   1.265   4.763
 2467SOL    HW2 8301   0.345   1.366   4.715
 2468SOL     OW 8302   6.298   4.524   6.983
 2468SOL    HW1 8303   6.378   4.583   6.996
 2468SOL    HW2 8304   6.239   4.530   0.044
 2469SOL     OW 8305   3.408   2.777   5.930
 2469SOL    HW1 8306   3.487   2.785   5.869
 2469SOL    HW2 8307   3.334   2.834   5.898
 2470SOL     OW 8308   5.398   2.500   0.887
 2470SOL    HW1 8309   5.304   2.470   0.870
 2470SOL    HW2 8310   5.402   2.546   0.976
 2471SOL     OW 8311   0.492   1.156   3.288
 2471SOL    HW1 8312   0.401   1.194   3.303
 2471SOL    HW2 8313   0.491   1.099   3.206
 2472SOL     OW 8314   5.625   1.456   3.695
 2472SOL    HW1 8315   5.568   1.509   3.758
 2472SOL    HW2 8316   5.572   1.436   3.612
 2473SOL     OW 8317   0.512   6.220   5.273
 2473SOL    HW1 8318   0.533   6.145   5.210
 2473SOL    HW2 8319   0.512   6.185   5.367
 2474SOL     OW 8320   6.242   6.637   4.238
 2474SOL    HW1 8321   6.208   6.601   4.325
 2474SOL    HW2 8322   6.164   6.660   4.179
 2475SOL     OW 8323   4.127   2.211   6.325
 2475SOL    HW1 8324   4.043   2.158   6.337
 2475SOL    HW2 8325   4.125   2.258   6.237
 2476SOL     OW 8326   0.689   1.350   3.527
 2476SOL    HW1 8327   0.602   1.365   3.480
 2476SOL    HW2 8328   0.724   1.259   3.504
 2477SOL     OW 8329   4.417   5.104   2.146
 2477SOL    HW1 8330   4.448   5.018   2.187
 2477SOL    HW2 8331   4.492   5.147   2.097
 2478SOL     OW 8332   0.155   6.911   2.549
 2478SOL    HW1 8333   0.146   6.811   2.545
 2478SOL    HW2 8334   0.223   6.941   2.482
 2479SOL     OW 8335   0.551   2.021   6.894
 2479SOL    HW1 8336   0.498   2.080   6.955
 2479SOL    HW2 8337   0.620   1.973   6.946
 2480SOL     OW 8338   7.018   5.132   1.757
 2480SOL    HW1 8339   0.071   5.172   1.811
 2480SOL    HW2 8340   0.030   5.113   1.665
 2481SOL     OW 8341   3.786   5.176   2.315
 2481SOL    HW1 8342   3.795   5.105   2.385
 2481SOL    HW2 8343   3.698   5.166   2.269
 2482SOL     OW 8344   5.162   2.481   4.728
 2482SOL    HW1 8345   5.142   2.579   4.717
 2482SOL    HW2 8346   5.134   2.432   4.645
 2483SOL     OW 8347   0.685   2.554   0.006
 2483SOL    HW1 8348   0.629   2.603   6.960
 2483SOL    HW2 8349   0.726   2.620   0.070
 2484SOL     OW 8350   3.919   4.281   5.882
 2484SOL    HW1 8351   3.907   4.249   5.788
 2484SOL    HW2 8352   3.861   4.226   5.943
 2485SOL     OW 8353   0.342   6.124   6.955
 2485SOL    HW1 8354   0.362   6.134   6.857
 2485SOL    HW2 8355   0.314   6.030   6.973
 2486SOL     OW 8356   0.461   5.226   3.631
 2486SOL    HW1 8357   0.476   5.129   3.614
 2486SOL    HW2 8358   0.463   5.244   3.729
 2487SOL     OW 8359   3.757   1.761   1.596
 2487SOL    HW1 8360   3.836   1.816   1.623
 2487SOL    HW2 8361   3.751   1.758   1.496
 2488SOL     OW 8362   3.086   6.165   6.424
 2488SOL    HW1 8363   3.123   6.198   6.511
 2488SOL    HW2 8364   3.134   6.081   6.398
 2489SOL     OW 8365   0.304   5.979   4.038
 2489SOL    HW1 8366   0.239   6.026   3.979
 2489SOL    HW2 8367   0.278   5.994   4.134
 2490SOL     OW 8368   5.546   2.815   1.647
 2490SOL    HW1 8369   5.618   2.781   1.707
 2490SOL    HW2 8370   5.480   2.741   1.630
 2491SOL     OW 8371   0.153   4.418   2.923
 2491SOL    HW1 8372   0.132   4.503   2.970
 2491SOL    HW2 8373   0.102   4.414   2.836
 2492SOL     OW 8374   4.120   1.236   6.321
 2492SOL    HW1 8375   4.091   1.182   6.242
 2492SOL    HW2 8376   4.220   1.231   6.329
 2493SOL     OW 8377   0.050   0.927   4.705
 2493SOL    HW1 8378   0.078   0.995   4.636
 2493SOL    HW2 8379   0.130   0.897   4.756
 2494SOL     OW 8380   4.310   5.215   0.857
 2494SOL    HW1 8381   4.273   5.202   0.765
 2494SOL    HW2 8382   4.307   5.128   0.906
 2495SOL     OW 8383   0.098   0.730   2.808
 2495SOL    HW1 8384   0.028   0.782   2.758
 2495SOL    HW2 8385   0.056   0.687   2.888
 2496SOL     OW 8386   1.450   5.360   0.165
 2496SOL    HW1 8387   1.453   5.386   0.068
 2496SOL    HW2 8388   1.531   5.306   0.187
 2497SOL     OW 8389   5.863   0.392   6.833
 2497SOL    HW1 8390   5.809   0.311   6.808
 2497SOL    HW2 8391   5.832   0.427   6.921
 2498SOL     OW 8392   1.060   3.355   4.725
 2498SOL    HW1 8393   1.129   3.326   4.791
 2498SOL    HW2 8394   1.004   3.428   4.764
 2499SOL     OW 8395   5.269   0.957   0.119
 2499SOL    HW1 8396   5.176   0.922   0.116
 2499SOL    HW2 8397   5.317   0.918   0.198
 2500SOL     OW 8398   4.188   4.067   6.440
 2500SOL    HW1 8399   4.242   3.992   6.479
 2500SOL    HW2 8400   4.232   4.154   6.464
 2501SOL     OW 8401   6.751   5.046   0.787
 2501SOL    HW1 8402   6.747   5.062   0.688
 2501SOL    HW2 8403   6.801   5.120   0.831
 2502SOL     OW 8404   0.618   0.513   3.606
 2502SOL    HW1 8405   0.578   0.441   3.662
 2502SOL    HW2 8406   0.587   0.602   3.639
 2503SOL     OW 8407   5.351   6.465   4.065
 2503SOL    HW1 8408   5.262   6.435   4.100
 2503SOL    HW2 8409   5.343   6.558   4.029
 2504SOL     OW 8410   2.458   4.380   3.123
 2504SOL    HW1 8411   2.453   4.299   3.064
 2504SOL    HW2 8412   2.474   4.461   3.066
 2505SOL     OW 8413   5.009   4.512   4.864
 2505SOL    HW1 8414   4.944   4.442   4.895
 2505SOL    HW2 8415   5.042   4.489   4.773
 2506SOL     OW 8416   0.573   1.084   0.512
 2506SOL    HW1 8417   0.607   0.990   0.514
 2506SOL    HW2 8418   0.568   1.119   0.606
 2507SOL     OW 8419   6.144   6.760   0.103
 2507SOL    HW1 8420   6.062   6.772   0.159
 2507SOL    HW2 8421   6.140   6.822   0.024
 2508SOL     OW 8422   1.683   2.307   1.460
 2508SOL    HW1 8423   1.598   2.358   1.464
 2508SOL    HW2 8424   1.745   2.339   1.532
 2509SOL     OW 8425   5.775   1.176   3.320
 2509SOL    HW1 8426   5.729   1.256   3.281
 2509SOL    HW2 8427   5.837   1.137   3.252
 2510SOL     OW 8428   3.929   5.795   2.442
 2510SOL    HW1 8429   3.886   5.857   2.376
 2510SOL    HW2 8430   3.914   5.831   2.534
 2511SOL     OW 8431   1.096   6.894   3.633
 2511SOL    HW1 8432   1.047   6.948   3.564
 2511SOL    HW2 8433   1.074   6.929   3.724
 2512SOL     OW 8434   5.777   3.684   4.505
 2512SOL    HW1 8435   5.794   3.604   4.563
 2512SOL    HW2 8436   5.816   3.765   4.547
 2513SOL     OW 8437   6.876   4.574   0.989
 2513SOL    HW1 8438   6.815   4.539   0.918
 2513SOL    HW2 8439   6.836   4.656   1.029
 2514SOL     OW 8440   6.903   2.408   3.409
 2514SOL    HW1 8441   6.951   2.342   3.468
 2514SOL    HW2 8442   6.966   2.481   3.384
 2515SOL     OW 8443   1.130   4.385   6.874
 2515SOL    HW1 8444   1.195   4.309   6.871
 2515SOL    HW2 8445   1.066   4.371   6.949
 2516SOL     OW 8446   5.279   6.541   3.722
 2516SOL    HW1 8447   5.239   6.620   3.675
 2516SOL    HW2 8448   5.229   6.458   3.698
 2517SOL     OW 8449   1.603   5.340   0.833
 2517SOL    HW1 8450   1.532   5.411   0.836
 2517SOL    HW2 8451   1.561   5.252   0.810
 2518SOL     OW 8452   2.264   2.729   6.688
 2518SOL    HW1 8453   2.250   2.681   6.602
 2518SOL    HW2 8454   2.198   2.695   6.756
 2519SOL     OW 8455   5.887   3.800   5.160
 2519SOL    HW1 8456   5.966   3.739   5.161
 2519SOL    HW2 8457   5.873   3.835   5.068
 2520SOL     OW 8458   3.410   5.735   1.915
 2520SOL    HW1 8459   3.479   5.749   1.986
 2520SOL    HW2 8460   3.450   5.682   1.840
 2521SOL     OW 8461   5.740   6.447   5.800
 2521SOL    HW1 8462   5.726   6.508   5.722
 2521SOL    HW2 8463   5.765   6.501   5.880
 2522SOL     OW 8464   2.106   5.286   4.461
 2522SOL    HW1 8465   2.154   5.238   4.535
 2522SOL    HW2 8466   2.083   5.221   4.388
 2523SOL     OW 8467   1.113   2.174   5.456
 2523SOL    HW1 8468   1.100   2.144   5.362
 2523SOL    HW2 8469   1.143   2.097   5.512
 2524SOL     OW 8470   1.715   6.902   4.255
 2524SOL    HW1 8471   1.769   6.818   4.250
 2524SOL    HW2 8472   1.750   6.968   4.188
 2525SOL     OW 8473   2.693   4.672   2.542
 2525SOL    HW1 8474   2.699   4.762   2.585
 2525SOL    HW2 8475   2.762   4.611   2.581
 2526SOL     OW 8476   1.603   2.506   4.688
 2526SOL    HW1 8477   1.625   2.460   4.774
 2526SOL    HW2 8478   1.679   2.495   4.624
 2527SOL     OW 8479   6.679   6.999   4.328
 2527SOL    HW1 8480   6.666   6.916   4.382
 2527SOL    HW2 8481   6.590   0.021   4.310
 2528SOL     OW 8482   5.351   5.685   0.201
 2528SOL    HW1 8483   5.423   5.632   0.158
 2528SOL    HW2 8484   5.264   5.665   0.156
 2529SOL     OW 8485   4.910   4.111   5.554
 2529SOL    HW1 8486   4.845   4.186   5.546
 2529SOL    HW2 8487   4.908   4.056   5.470
 2530SOL     OW 8488   1.210   6.249   3.194
 2530SOL    HW1 8489   1.135   6.312   3.176
 2530SOL    HW2 8490   1.263   6.236   3.110
 2531SOL     OW 8491   5.096   1.527   6.449
 2531SOL    HW1 8492   5.177   1.471   6.467
 2531SOL    HW2 8493   5.099   1.609   6.506
 2532SOL     OW 8494   0.887   4.875   5.574
 2532SOL    HW1 8495   0.904   4.781   5.545
 2532SOL    HW2 8496   0.889   4.936   5.495
 2533SOL     OW 8497   5.798   0.117   5.512
 2533SOL    HW1 8498   5.849   0.074   5.587
 2533SOL    HW2 8499   5.851   0.110   5.427
 2534SOL     OW 8500   6.547   1.493   3.611
 2534SOL    HW1 8501   6.560   1.475   3.709
 2534SOL    HW2 8502   6.471   1.438   3.577
 2535SOL     OW 8503   2.709   1.692   2.365
 2535SOL    HW1 8504   2.678   1.757   2.434
 2535SOL    HW2 8505   2.805   1.711   2.343
 2536SOL     OW 8506   6.843   0.551   4.427
 2536SOL    HW1 8507   6.850   0.580   4.522
 2536SOL    HW2 8508   6.788   0.618   4.376
 2537SOL     OW 8509   3.734   6.231   2.618
 2537SOL    HW1 8510   3.682   6.149   2.641
 2537SOL    HW2 8511   3.712   6.259   2.525
 2538SOL     OW 8512   0.580   5.187   5.507
 2538SOL    HW1 8513   0.611   5.224   5.595
 2538SOL    HW2 8514   0.655   5.191   5.441
 2539SOL     OW 8515   2.006   0.575   5.247
 2539SOL    HW1 8516   2.057   0.546   5.166
 2539SOL    HW2 8517   2.061   0.642   5.297
 2540SOL     OW 8518   4.684   2.031   2.322
 2540SOL    HW1 8519   4.779   2.014   2.349
 2540SOL    HW2 8520   4.677   2.119   2.276
 2541SOL     OW 8521   1.115   1.347   6.286
 2541SOL    HW1 8522   1.178   1.411   6.330
 2541SOL    HW2 8523   1.085   1.279   6.353
 2542SOL     OW 8524   3.783   1.985   3.822
 2542SOL    HW1 8525   3.727   1.919   3.771
 2542SOL    HW2 8526   3.857   1.936   3.868
 2543SOL     OW 8527   6.198   0.705   4.964
 2543SOL    HW1 8528   6.124   0.736   5.023
 2543SOL    HW2 8529   6.165   0.694   4.871
 2544SOL     OW 8530   0.308   6.670   1.641
 2544SOL    HW1 8531   0.304   6.712   1.550
 2544SOL    HW2 8532   0.296   6.740   1.711
 2545SOL     OW 8533   0.037   1.478   0.378
 2545SOL    HW1 8534   0.067   1.382   0.372
 2545SOL    HW2 8535   6.965   1.486   0.341
 2546SOL     OW 8536   6.255   3.497   2.386
 2546SOL    HW1 8537   6.254   3.532   2.480
 2546SOL    HW2 8538   6.312   3.414   2.382
 2547SOL     OW 8539   6.007   3.671   1.059
 2547SOL    HW1 8540   5.981   3.640   0.967
 2547SOL    HW2 8541   5.977   3.604   1.126
 2548SOL     OW 8542   6.409   0.781   5.356
 2548SOL    HW1 8543   6.489   0.720   5.358
 2548SOL    HW2 8544   6.405   0.833   5.441
 2549SOL     OW 8545   2.673   5.237   0.561
 2549SOL    HW1 8546   2.743   5.241   0.632
 2549SOL    HW2 8547   2.669   5.145   0.522
 2550SOL     OW 8548   3.675   6.862   1.424
 2550SOL    HW1 8549   3.738   6.936   1.402
 2550SOL    HW2 8550   3.720   6.774   1.409
 2551SOL     OW 8551   3.374   4.843   1.462
 2551SOL    HW1 8552   3.410   4.845   1.368
 2551SOL    HW2 8553   3.332   4.931   1.483
 2552SOL     OW 8554   2.398   4.394   1.257
 2552SOL    HW1 8555   2.300   4.383   1.268
 2552SOL    HW2 8556   2.418   4.488   1.229
 2553SOL     OW 8557   5.085   1.017   6.848
 2553SOL    HW1 8558   5.163   1.074   6.875
 2553SOL    HW2 8559   5.059   0.959   6.925
 2554SOL     OW 8560   0.817   5.477   1.385
 2554SOL    HW1 8561   0.835   5.389   1.430
 2554SOL    HW2 8562   0.760   5.461   1.304
 2555SOL     OW 8563   0.745   6.634   4.658
 2555SOL    HW1 8564   0.753   6.731   4.676
 2555SOL    HW2 8565   0.655   6.601   4.690
 2556SOL     OW 8566   4.491   0.163   1.221
 2556SOL    HW1 8567   4.473   0.069   1.194
 2556SOL    HW2 8568   4.434   0.224   1.166
 2557SOL     OW 8569   2.718   1.111   0.102
 2557SOL    HW1 8570   2.633   1.079   0.062
 2557SOL    HW2 8571   2.772   1.159   0.033
 2558SOL     OW 8572   5.278   2.025   1.342
 2558SOL    HW1 8573   5.251   2.089   1.270
 2558SOL    HW2 8574   5.377   2.031   1.357
 2559SOL     OW 8575   6.103   5.297   3.444
 2559SOL    HW1 8576   6.004   5.280   3.442
 2559SOL    HW2 8577   6.124   5.366   3.513
 2560SOL     OW 8578   4.810   2.524   2.176
 2560SOL    HW1 8579   4.753   2.577   2.112
 2560SOL    HW2 8580   4.854   2.586   2.240
 2561SOL     OW 8581   3.482   6.937   4.928
 2561SOL    HW1 8582   3.423   7.017   4.930
 2561SOL    HW2 8583   3.463   6.884   4.845
 2562SOL     OW 8584   2.031   6.747   4.842
 2562SOL    HW1 8585   2.041   6.682   4.917
 2562SOL    HW2 8586   1.934   6.765   4.826
 2563SOL     OW 8587   3.988   2.442   6.402
 2563SOL    HW1 8588   3.940   2.462   6.317
 2563SOL    HW2 8589   4.021   2.347   6.400
 2564SOL     OW 8590   1.370   1.367   0.509
 2564SOL    HW1 8591   1.367   1.458   0.468
 2564SOL    HW2 8592   1.465   1.339   0.521
 2565SOL     OW 8593   0.645   0.798   0.905
 2565SOL    HW1 8594   0.566   0.843   0.863
 2565SOL    HW2 8595   0.726   0.816   0.850
 2566SOL     OW 8596   3.136   1.023   0.987
 2566SOL    HW1 8597   3.051   1.071   1.005
 2566SOL    HW2 8598   3.194   1.024   1.069
 2567SOL     OW 8599   1.994   0.701   6.209
 2567SOL    HW1 8600   1.986   0.716   6.110
 2567SOL    HW2 8601   1.907   0.721   6.253
 2568SOL     OW 8602   1.753   5.187   1.095
 2568SOL    HW1 8603   1.736   5.286   1.096
 2568SOL    HW2 8604   1.665   5.138   1.094
 2569SOL     OW 8605   1.710   6.338   6.728
 2569SOL    HW1 8606   1.625   6.353   6.677
 2569SOL    HW2 8607   1.691   6.280   6.808
 2570SOL     OW 8608   0.871   6.886   4.046
 2570SOL    HW1 8609   0.904   6.810   3.990
 2570SOL    HW2 8610   0.916   6.884   4.135
 2571SOL     OW 8611   3.949   3.578   3.073
 2571SOL    HW1 8612   4.002   3.526   3.140
 2571SOL    HW2 8613   3.992   3.568   2.983
 2572SOL     OW 8614   2.352   6.021   2.536
 2572SOL    HW1 8615   2.357   5.992   2.440
 2572SOL    HW2 8616   2.274   6.082   2.548
 2573SOL     OW 8617   0.086   1.064   3.216
 2573SOL    HW1 8618   0.142   1.130   3.265
 2573SOL    HW2 8619   0.145   0.997   3.171
 2574SOL     OW 8620   0.459   3.085   2.098
 2574SOL    HW1 8621   0.373   3.061   2.055
 2574SOL    HW2 8622   0.472   3.030   2.181
 2575SOL     OW 8623   4.615   3.840   5.429
 2575SOL    HW1 8624   4.602   3.929   5.386
 2575SOL    HW2 8625   4.605   3.848   5.528
 2576SOL     OW 8626   1.011   0.074   3.086
 2576SOL    HW1 8627   1.014   7.006   3.132
 2576SOL    HW2 8628   0.974   0.062   2.994
 2577SOL     OW 8629   1.230   4.572   1.562
 2577SOL    HW1 8630   1.278   4.501   1.613
 2577SOL    HW2 8631   1.142   4.591   1.605
 2578SOL     OW 8632   4.554   2.609   5.152
 2578SOL    HW1 8633   4.653   2.611   5.163
 2578SOL    HW2 8634   4.531   2.604   5.055
 2579SOL     OW 8635   0.236   1.204   6.631
 2579SOL    HW1 8636   0.213   1.255   6.548
 2579SOL    HW2 8637   0.334   1.216   6.651
 2580SOL     OW 8638   1.864   1.398   5.544
 2580SOL    HW1 8639   1.833   1.491   5.562
 2580SOL    HW2 8640   1.924   1.398   5.463
 2581SOL     OW 8641   5.884   6.167   4.667
 2581SOL    HW1 8642   5.932   6.252   4.690
 2581SOL    HW2 8643   5.880   6.109   4.748
 2582SOL     OW 8644   6.811   4.517   3.014
 2582SOL    HW1 8645   6.811   4.462   3.097
 2582SOL    HW2 8646   6.779   4.462   2.937
 2583SOL     OW 8647   2.705   0.891   0.243
 2583SOL    HW1 8648   2.774   0.859   0.308
 2583SOL    HW2 8649   2.719   0.988   0.225
 2584SOL     OW 8650   3.950   0.888   3.320
 2584SOL    HW1 8651   3.892   0.917   3.396
 2584SOL    HW2 8652   4.010   0.964   3.294
 2585SOL     OW 8653   3.881   0.804   2.058
 2585SOL    HW1 8654   3.782   0.805   2.074
 2585SOL    HW2 8655   3.913   0.709   2.052
 2586SOL     OW 8656   0.177   1.466   4.155
 2586SOL    HW1 8657   0.207   1.371   4.166
 2586SOL    HW2 8658   0.161   1.507   4.245
 2587SOL     OW 8659   6.828   5.348   2.967
 2587SOL    HW1 8660   6.765   5.310   3.035
 2587SOL    HW2 8661   6.856   5.440   2.994
 2588SOL     OW 8662   3.910   6.783   2.614
 2588SOL    HW1 8663   4.005   6.751   2.617
 2588SOL    HW2 8664   3.897   6.844   2.537
 2589SOL     OW 8665   4.593   6.169   1.547
 2589SOL    HW1 8666   4.551   6.180   1.457
 2589SOL    HW2 8667   4.692   6.176   1.539
 2590SOL     OW 8668   3.574   6.003   3.949
 2590SOL    HW1 8669   3.659   6.020   3.900
 2590SOL    HW2 8670   3.526   6.090   3.963
 2591SOL     OW 8671   6.210   0.455   0.338
 2591SOL    HW1 8672   6.268   0.537   0.334
 2591SOL    HW2 8673   6.265   0.375   0.314
 2592SOL     OW 8674   2.745   4.635   1.656
 2592SOL    HW1 8675   2.658   4.622   1.704
 2592SOL    HW2 8676   2.820   4.611   1.717
 2593SOL     OW 8677   3.355   7.010   3.498
 2593SOL    HW1 8678   3.449   0.002   3.530
 2593SOL    HW2 8679   3.336   0.054   3.425
 2594SOL     OW 8680   1.544   5.542   6.630
 2594SOL    HW1 8681   1.597   5.589   6.559
 2594SOL    HW2 8682   1.520   5.607   6.702
 2595SOL     OW 8683   6.842   3.091   4.284
 2595SOL    HW1 8684   6.876   2.997   4.290
 2595SOL    HW2 8685   6.913   3.153   4.317
 2596SOL     OW 8686   3.778   1.625   0.921
 2596SOL    HW1 8687   3.867   1.581   0.931
 2596SOL    HW2 8688   3.710   1.574   0.973
 2597SOL     OW 8689   2.147   2.473   6.027
 2597SOL    HW1 8690   2.127   2.376   6.041
 2597SOL    HW2 8691   2.192   2.485   5.938
 2598SOL     OW 8692   6.980   0.585   2.976
 2598SOL    HW1 8693   6.999   0.519   3.049
 2598SOL    HW2 8694   6.917   0.655   3.009
 2599SOL     OW 8695   4.837   5.836   6.177
 2599SOL    HW1 8696   4.848   5.743   6.213
 2599SOL    HW2 8697   4.748   5.871   6.204
 2600SOL     OW 8698   0.594   2.573   4.553
 2600SOL    HW1 8699   0.590   2.621   4.640
 2600SOL    HW2 8700   0.515   2.512   4.545
 2601SOL     OW 8701   4.289   3.804   5.270
 2601SOL    HW1 8702   4.377   3.760   5.287
 2601SOL    HW2 8703   4.236   3.749   5.206
 2602SOL     OW 8704   6.001   6.459   6.260
 2602SOL    HW1 8705   6.018   6.556   6.277
 2602SOL    HW2 8706   6.071   6.424   6.197
 2603SOL     OW 8707   1.333   2.150   6.478
 2603SOL    HW1 8708   1.407   2.127   6.415
 2603SOL    HW2 8709   1.246   2.119   6.439
 2604SOL     OW 8710   5.856   1.807   0.997
 2604SOL    HW1 8711   5.808   1.720   1.010
 2604SOL    HW2 8712   5.789   1.880   0.982
 2605SOL     OW 8713   6.115   3.280   4.578
 2605SOL    HW1 8714   6.075   3.263   4.668
 2605SOL    HW2 8715   6.214   3.282   4.586
 2606SOL     OW 8716   6.545   4.385   1.289
 2606SOL    HW1 8717   6.640   4.370   1.261
 2606SOL    HW2 8718   6.543   4.436   1.375
 2607SOL     OW 8719   1.064   1.526   4.241
 2607SOL    HW1 8720   0.983   1.585   4.233
 2607SOL    HW2 8721   1.041   1.434   4.209
 2608SOL     OW 8722   5.045   6.938   0.511
 2608SOL    HW1 8723   4.999   6.913   0.597
 2608SOL    HW2 8724   5.120   7.001   0.531
 2609SOL     OW 8725   0.746   2.841   3.018
 2609SOL    HW1 8726   0.649   2.855   3.036
 2609SOL    HW2 8727   0.800   2.901   3.077
 2610SOL     OW 8728   5.199   5.928   4.379
 2610SOL    HW1 8729   5.118   5.904   4.432
 2610SOL    HW2 8730   5.205   6.028   4.371
 2611SOL     OW 8731   2.675   5.615   2.223
 2611SOL    HW1 8732   2.700   5.583   2.132
 2611SOL    HW2 8733   2.620   5.546   2.270
 2612SOL     OW 8734   0.579   6.867   5.559
 2612SOL    HW1 8735   0.593   6.965   5.541
 2612SOL    HW2 8736   0.494   6.837   5.516
 2613SOL     OW 8737   3.584   1.111   0.883
 2613SOL    HW1 8738   3.537   1.109   0.795
 2613SOL    HW2 8739   3.673   1.155   0.872
 2614SOL     OW 8740   6.470   6.022   6.602
 2614SOL    HW1 8741   6.512   6.070   6.679
 2614SOL    HW2 8742   6.397   6.077   6.563
 2615SOL     OW 8743   5.826   4.239   1.419
 2615SOL    HW1 8744   5.895   4.278   1.481
 2615SOL    HW2 8745   5.743   4.219   1.470
 2616SOL     OW 8746   4.132   3.239   2.024
 2616SOL    HW1 8747   4.125   3.224   2.123
 2616SOL    HW2 8748   4.126   3.336   2.004
 2617SOL     OW 8749   2.342   6.668   1.058
 2617SOL    HW1 8750   2.243   6.654   1.058
 2617SOL    HW2 8751   2.389   6.580   1.054
 2618SOL     OW 8752   1.009   6.716   0.161
 2618SOL    HW1 8753   0.922   6.763   0.143
 2618SOL    HW2 8754   0.993   6.617   0.163
 2619SOL     OW 8755   6.132   1.557   1.364
 2619SOL    HW1 8756   6.071   1.504   1.305
 2619SOL    HW2 8757   6.208   1.499   1.395
 2620SOL     OW 8758   1.271   5.948   3.933
 2620SOL    HW1 8759   1.218   5.977   3.853
 2620SOL    HW2 8760   1.367   5.936   3.906
 2621SOL     OW 8761   0.509   5.441   4.234
 2621SOL    HW1 8762   0.451   5.489   4.169
 2621SOL    HW2 8763   0.588   5.402   4.187
 2622SOL     OW 8764   2.555   2.278   5.193
 2622SOL    HW1 8765   2.645   2.302   5.156
 2622SOL    HW2 8766   2.542   2.325   5.281
 2623SOL     OW 8767   3.308   0.267   6.463
 2623SOL    HW1 8768   3.286   0.276   6.560
 2623SOL    HW2 8769   3.342   0.175   6.445
 2624SOL     OW 8770   6.211   2.249   4.060
 2624SOL    HW1 8771   6.135   2.187   4.081
 2624SOL    HW2 8772   6.213   2.323   4.127
 2625SOL     OW 8773   3.585   0.278   5.843
 2625SOL    HW1 8774   3.634   0.356   5.804
 2625SOL    HW2 8775   3.487   0.298   5.842
 2626SOL     OW 8776   1.861   0.102   2.849
 2626SOL    HW1 8777   1.950   0.057   2.855
 2626SOL    HW2 8778   1.864   0.189   2.900
 2627SOL     OW 8779   0.879   0.204   5.092
 2627SOL    HW1 8780   0.888   0.267   5.014
 2627SOL    HW2 8781   0.832   0.121   5.062
 2628SOL     OW 8782   3.671   5.924   0.269
 2628SOL    HW1 8783   3.624   5.945   0.355
 2628SOL    HW2 8784   3.766   5.900   0.288
 2629SOL     OW 8785   2.984   3.714   1.922
 2629SOL    HW1 8786   2.998   3.795   1.979
 2629SOL    HW2 8787   3.033   3.636   1.961
 2630SOL     OW 8788   2.658   2.363   2.637
 2630SOL    HW1 8789   2.703   2.350   2.726
 2630SOL    HW2 8790   2.606   2.449   2.638
 2631SOL     OW 8791   4.148   6.016   4.477
 2631SOL    HW1 8792   4.103   6.090   4.526
 2631SOL    HW2 8793   4.225   6.053   4.425
 2632SOL     OW 8794   4.710   1.312   1.124
 2632SOL    HW1 8795   4.720   1.327   1.026
 2632SOL    HW2 8796   4.792   1.269   1.161
 2633SOL     OW 8797   6.874   2.684   6.492
 2633SOL    HW1 8798   6.824   2.757   6.540
 2633SOL    HW2 8799   6.937   2.725   6.425
 2634SOL     OW 8800   3.270   5.073   0.983
 2634SOL    HW1 8801   3.265   5.094   1.080
 2634SOL    HW2 8802   3.345   5.125   0.942
 2635SOL     OW 8803   6.170   4.643   3.401
 2635SOL    HW1 8804   6.234   4.613   3.330
 2635SOL    HW2 8805   6.197   4.734   3.433
 2636SOL     OW 8806   6.029   6.038   5.384
 2636SOL    HW1 8807   6.083   5.989   5.453
 2636SOL    HW2 8808   6.085   6.056   5.304
 2637SOL     OW 8809   5.225   6.397   2.450
 2637SOL    HW1 8810   5.265   6.320   2.498
 2637SOL    HW2 8811   5.190   6.464   2.516
 2638SOL     OW 8812   5.000   5.963   0.848
 2638SOL    HW1 8813   4.923   5.903   0.827
 2638SOL    HW2 8814   5.077   5.940   0.788
 2639SOL     OW 8815   0.045   6.074   6.291
 2639SOL    HW1 8816   6.985   6.127   6.317
 2639SOL    HW2 8817   0.115   6.084   6.361
 2640SOL     OW 8818   6.494   0.017   6.363
 2640SOL    HW1 8819   6.467   0.103   6.321
 2640SOL    HW2 8820   6.592   0.020   6.385
 2641SOL     OW 8821   6.553   5.762   0.290
 2641SOL    HW1 8822   6.541   5.686   0.225
 2641SOL    HW2 8823   6.494   5.748   0.369
 2642SOL     OW 8824   6.428   0.483   3.975
 2642SOL    HW1 8825   6.364   0.558   3.991
 2642SOL    HW2 8826   6.513   0.500   4.025
 2643SOL     OW 8827   2.215   0.459   2.105
 2643SOL    HW1 8828   2.223   0.369   2.062
 2643SOL    HW2 8829   2.237   0.530   2.038
 2644SOL     OW 8830   6.728   5.807   5.066
 2644SOL    HW1 8831   6.770   5.875   5.127
 2644SOL    HW2 8832   6.789   5.728   5.057
 2645SOL     OW 8833   5.767   5.838   6.310
 2645SOL    HW1 8834   5.778   5.768   6.380
 2645SOL    HW2 8835   5.808   5.806   6.224
 2646SOL     OW 8836   5.736   5.856   6.836
 2646SOL    HW1 8837   5.804   5.811   6.895
 2646SOL    HW2 8838   5.762   5.844   6.740
 2647SOL     OW 8839   3.077   3.303   0.107
 2647SOL    HW1 8840   3.102   3.398   0.087
 2647SOL    HW2 8841   3.083   3.250   0.022
 2648SOL     OW 8842   3.806   1.525   3.759
 2648SOL    HW1 8843   3.894   1.489   3.789
 2648SOL    HW2 8844   3.813   1.555   3.664
 2649SOL     OW 8845   2.920   3.515   5.199
 2649SOL    HW1 8846   2.900   3.598   5.147
 2649SOL    HW2 8847   2.910   3.435   5.139
 2650SOL     OW 8848   0.047   6.473   2.707
 2650SOL    HW1 8849   0.073   6.548   2.646
 2650SOL    HW2 8850   0.128   6.421   2.732
 2651SOL     OW 8851   0.752   0.361   3.445
 2651SOL    HW1 8852   0.849   0.367   3.468
 2651SOL    HW2 8853   0.703   0.437   3.486
 2652SOL     OW 8854   2.867   3.410   2.639
 2652SOL    HW1 8855   2.775   3.377   2.618
 2652SOL    HW2 8856   2.933   3.364   2.580
 2653SOL     OW 8857   6.638   6.367   0.045
 2653SOL    HW1 8858   6.642   6.380   6.967
 2653SOL    HW2 8859   6.569   6.428   0.084
 2654SOL     OW 8860   6.541   1.669   5.905
 2654SOL    HW1 8861   6.631   1.682   5.862
 2654SOL    HW2 8862   6.478   1.740   5.872
 2655SOL     OW 8863   5.318   5.244   4.879
 2655SOL    HW1 8864   5.254   5.320   4.887
 2655SOL    HW2 8865   5.409   5.273   4.909
 2656SOL     OW 8866   5.675   3.472   5.263
 2656SOL    HW1 8867   5.605   3.437   5.201
 2656SOL    HW2 8868   5.660   3.437   5.355
 2657SOL     OW 8869   3.593   1.875   6.116
 2657SOL    HW1 8870   3.519   1.810   6.102
 2657SOL    HW2 8871   3.589   1.912   6.209
 2658SOL     OW 8872   6.149   4.176   5.357
 2658SOL    HW1 8873   6.177   4.119   5.435
 2658SOL    HW2 8874   6.226   4.191   5.297
 2659SOL     OW 8875   6.620   1.519   3.901
 2659SOL    HW1 8876   6.609   1.434   3.953
 2659SOL    HW2 8877   6.716   1.529   3.874
 2660SOL     OW 8878   0.202   2.294   3.203
 2660SOL    HW1 8879   0.182   2.370   3.265
 2660SOL    HW2 8880   0.147   2.304   3.120
 2661SOL     OW 8881   3.686   0.006   2.948
 2661SOL    HW1 8882   3.602   6.998   2.901
 2661SOL    HW2 8883   3.765   6.984   2.904
 2662SOL     OW 8884   3.418   1.081   3.770
 2662SOL    HW1 8885   3.460   1.077   3.860
 2662SOL    HW2 8886   3.464   1.149   3.714
 2663SOL     OW 8887   0.462   4.472   2.903
 2663SOL    HW1 8888   0.411   4.386   2.900
 2663SOL    HW2 8889   0.556   4.455   2.930
 2664SOL     OW 8890   4.209   4.062   1.687
 2664SOL    HW1 8891   4.201   4.027   1.594
 2664SOL    HW2 8892   4.233   4.159   1.684
 2665SOL     OW 8893   4.570   0.150   4.802
 2665SOL    HW1 8894   4.519   0.134   4.886
 2665SOL    HW2 8895   4.536   0.233   4.758
 2666SOL     OW 8896   5.145   6.527   1.856
 2666SOL    HW1 8897   5.236   6.492   1.881
 2666SOL    HW2 8898   5.083   6.450   1.842
 2667SOL     OW 8899   2.037   5.297   2.995
 2667SOL    HW1 8900   2.107   5.367   2.979
 2667SOL    HW2 8901   1.957   5.317   2.938
 2668SOL     OW 8902   6.493   2.468   5.707
 2668SOL    HW1 8903   6.522   2.388   5.655
 2668SOL    HW2 8904   6.459   2.538   5.644
 2669SOL     OW 8905   4.322   5.503   5.486
 2669SOL    HW1 8906   4.369   5.527   5.401
 2669SOL    HW2 8907   4.226   5.531   5.479
 2670SOL     OW 8908   2.876   6.775   4.544
 2670SOL    HW1 8909   2.855   6.870   4.522
 2670SOL    HW2 8910   2.837   6.716   4.473
 2671SOL     OW 8911   2.976   4.322   6.369
 2671SOL    HW1 8912   2.991   4.420   6.360
 2671SOL    HW2 8913   2.944   4.302   6.461
 2672SOL     OW 8914   1.065   4.018   0.243
 2672SOL    HW1 8915   1.077   3.929   0.201
 2672SOL    HW2 8916   1.014   4.008   0.329
 2673SOL     OW 8917   3.929   2.173   3.533
 2673SOL    HW1 8918   3.859   2.243   3.546
 2673SOL    HW2 8919   3.992   2.173   3.611
 2674SOL     OW 8920   6.425   5.630   5.277
 2674SOL    HW1 8921   6.464   5.574   5.204
 2674SOL    HW2 8922   6.336   5.666   5.249
 2675SOL     OW 8923   0.697   4.410   5.450
 2675SOL    HW1 8924   0.655   4.336   5.502
 2675SOL    HW2 8925   0.797   4.400   5.453
 2676SOL     OW 8926   4.520   0.220   1.959
 2676SOL    HW1 8927   4.516   0.120   1.965
 2676SOL    HW2 8928   4.434   0.255   1.923
 2677SOL     OW 8929   2.376   4.728   2.269
 2677SOL    HW1 8930   2.403   4.717   2.173
 2677SOL    HW2 8931   2.454   4.709   2.328
 2678SOL     OW 8932   6.871   6.229   6.432
 2678SOL    HW1 8933   6.792   6.284   6.404
 2678SOL    HW2 8934   6.862   6.205   6.529
 2679SOL     OW 8935   2.508   5.007   1.433
 2679SOL    HW1 8936   2.435   4.960   1.382
 2679SOL    HW2 8937   2.565   5.058   1.370
 2680SOL     OW 8938   1.413   2.501   1.221
 2680SOL    HW1 8939   1.390   2.586   1.174
 2680SOL    HW2 8940   1.330   2.446   1.232
 2681SOL     OW 8941   1.773   1.743   2.141
 2681SOL    HW1 8942   1.711   1.669   2.115
 2681SOL    HW2 8943   1.799   1.795   2.060
 2682SOL     OW 8944   6.304   2.759   4.067
 2682SOL    HW1 8945   6.284   2.787   3.973
 2682SOL    HW2 8946   6.394   2.794   4.094
 2683SOL     OW 8947   1.265   7.003   0.232
 2683SOL    HW1 8948   1.214   0.068   0.234
 2683SOL    HW2 8949   1.278   6.975   0.137
 2684SOL     OW 8950   2.721   5.429   3.012
 2684SOL    HW1 8951   2.742   5.405   3.107
 2684SOL    HW2 8952   2.758   5.520   2.992
 2685SOL     OW 8953   5.173   5.788   5.354
 2685SOL    HW1 8954   5.090   5.737   5.334
 2685SOL    HW2 8955   5.172   5.874   5.302
 2686SOL     OW 8956   1.190   2.889   4.433
 2686SOL    HW1 8957   1.205   2.984   4.459
 2686SOL    HW2 8958   1.116   2.883   4.366
 2687SOL     OW 8959   4.760   4.589   3.375
 2687SOL    HW1 8960   4.747   4.490   3.376
 2687SOL    HW2 8961   4.720   4.628   3.458
 2688SOL     OW 8962   3.645   4.793   5.828
 2688SOL    HW1 8963   3.561   4.848   5.830
 2688SOL    HW2 8964   3.690   4.804   5.739
 2689SOL     OW 8965   6.746   3.382   4.417
 2689SOL    HW1 8966   6.672   3.447   4.433
 2689SOL    HW2 8967   6.834   3.430   4.417
 2690SOL     OW 8968   3.016   3.161   3.055
 2690SOL    HW1 8969   2.948   3.125   2.992
 2690SOL    HW2 8970   2.981   3.244   3.099
 2691SOL     OW 8971   1.058   6.009   1.821
 2691SOL    HW1 8972   1.114   6.050   1.749
 2691SOL    HW2 8973   1.088   5.916   1.838
 2692SOL     OW 8974   7.008   5.481   3.210
 2692SOL    HW1 8975   0.009   5.571   3.248
 2692SOL    HW2 8976   0.069   5.441   3.169
 2693SOL     OW 8977   1.698   3.464   3.189
 2693SOL    HW1 8978   1.614   3.501   3.149
 2693SOL    HW2 8979   1.766   3.536   3.196
 2694SOL     OW 8980   2.189   1.440   2.862
 2694SOL    HW1 8981   2.174   1.344   2.836
 2694SOL    HW2 8982   2.248   1.484   2.794
 2695SOL     OW 8983   4.196   2.217   2.770
 2695SOL    HW1 8984   4.121   2.194   2.831
 2695SOL    HW2 8985   4.160   2.241   2.680
 2696SOL     OW 8986   4.226   4.080   5.340
 2696SOL    HW1 8987   4.245   3.982   5.329
 2696SOL    HW2 8988   4.312   4.131   5.341
 2697SOL     OW 8989   2.513   1.354   4.907
 2697SOL    HW1 8990   2.567   1.430   4.943
 2697SOL    HW2 8991   2.416   1.377   4.909
 2698SOL     OW 8992   1.922   2.895   6.418
 2698SOL    HW1 8993   1.900   2.910   6.322
 2698SOL    HW2 8994   1.947   2.799   6.432
 2699SOL     OW 8995   2.086   6.159   2.594
 2699SOL    HW1 8996   2.104   6.074   2.644
 2699SOL    HW2 8997   2.019   6.213   2.644
 2700SOL     OW 8998   1.759   4.604   2.860
 2700SOL    HW1 8999   1.836   4.647   2.813
 2700SOL    HW2 9000   1.764   4.504   2.849
 2701SOL     OW 9001   3.736   0.503   5.789
 2701SOL    HW1 9002   3.729   0.591   5.742
 2701SOL    HW2 9003   3.833   0.480   5.802
 2702SOL     OW 9004   0.037   6.122   2.723
 2702SOL    HW1 9005   0.041   6.125   2.823
 2702SOL    HW2 9006   6.992   6.189   2.690
 2703SOL     OW 9007   1.860   1.868   3.383
 2703SOL    HW1 9008   1.906   1.840   3.298
 2703SOL    HW2 9009   1.929   1.899   3.448
 2704SOL     OW 9010   1.140   6.352   0.389
 2704SOL    HW1 9011   1.149   6.347   0.489
 2704SOL    HW2 9012   1.044   6.368   0.365
 2705SOL     OW 9013   0.436   4.170   2.849
 2705SOL    HW1 9014   0.505   4.210   2.788
 2705SOL    HW2 9015   0.456   4.073   2.862
 2706SOL     OW 9016   6.493   2.078   2.806
 2706SOL    HW1 9017   6.525   2.171   2.790
 2706SOL    HW2 9018   6.464   2.068   2.901
 2707SOL     OW 9019   2.723   1.172   5.961
 2707SOL    HW1 9020   2.819   1.179   5.991
 2707SOL    HW2 9021   2.690   1.262   5.934
 2708SOL     OW 9022   1.526   4.368   0.560
 2708SOL    HW1 9023   1.575   4.317   0.490
 2708SOL    HW2 9024   1.449   4.417   0.517
 2709SOL     OW 9025   4.159   6.829   1.807
 2709SOL    HW1 9026   4.146   6.880   1.892
 2709SOL    HW2 9027   4.073   6.824   1.757
 2710SOL     OW 9028   6.505   4.104   2.665
 2710SOL    HW1 9029   6.590   4.066   2.700
 2710SOL    HW2 9030   6.466   4.043   2.596
 2711SOL     OW 9031   1.290   7.008   2.214
 2711SOL    HW1 9032   1.311   6.912   2.231
 2711SOL    HW2 9033   1.369   0.044   2.238
 2712SOL     OW 9034   3.539   5.383   2.582
 2712SOL    HW1 9035   3.527   5.346   2.491
 2712SOL    HW2 9036   3.592   5.468   2.577
 2713SOL     OW 9037   1.927   2.427   5.262
 2713SOL    HW1 9038   1.890   2.518   5.241
 2713SOL    HW2 9039   2.027   2.430   5.257
 2714SOL     OW 9040   5.391   6.834   6.040
 2714SOL    HW1 9041   5.461   6.906   6.037
 2714SOL    HW2 9042   5.436   6.745   6.050
 2715SOL     OW 9043   6.052   0.166   0.127
 2715SOL    HW1 9044   6.107   0.117   0.196
 2715SOL    HW2 9045   5.980   0.106   0.093
 2716SOL     OW 9046   6.880   6.310   2.598
 2716SOL    HW1 9047   6.833   6.343   2.516
 2716SOL    HW2 9048   6.945   6.379   2.629
 2717SOL     OW 9049   0.512   0.210   2.992
 2717SOL    HW1 9050   0.563   0.129   2.962
 2717SOL    HW2 9051   0.566   0.292   2.973
 2718SOL     OW 9052   0.557   4.344   3.290
 2718SOL    HW1 9053   0.602   4.424   3.329
 2718SOL    HW2 9054   0.612   4.308   3.215
 2719SOL     OW 9055   4.311   4.602   2.970
 2719SOL    HW1 9056   4.377   4.651   3.027
 2719SOL    HW2 9057   4.221   4.644   2.980
 2720SOL     OW 9058   0.815   6.357   3.891
 2720SOL    HW1 9059   0.854   6.448   3.903
 2720SOL    HW2 9060   0.736   6.362   3.830
 2721SOL     OW 9061   5.008   6.537   3.924
 2721SOL    HW1 9062   5.099   6.548   3.885
 2721SOL    HW2 9063   4.979   6.442   3.913
 2722SOL     OW 9064   1.379   6.084   1.386
 2722SOL    HW1 9065   1.392   5.985   1.388
 2722SOL    HW2 9066   1.436   6.127   1.457
 2723SOL     OW 9067   2.060   1.720   4.485
 2723SOL    HW1 9068   2.077   1.794   4.550
 2723SOL    HW2 9069   2.021   1.758   4.401
 2724SOL     OW 9070   3.749   6.175   6.101
 2724SOL    HW1 9071   3.752   6.105   6.173
 2724SOL    HW2 9072   3.657   6.215   6.098
 2725SOL     OW 9073   2.944   4.879   3.829
 2725SOL    HW1 9074   3.044   4.882   3.829
 2725SOL    HW2 9075   2.909   4.950   3.890
 2726SOL     OW 9076   4.599   6.778   2.310
 2726SOL    HW1 9077   4.632   6.742   2.223
 2726SOL    HW2 9078   4.546   6.708   2.357
 2727SOL     OW 9079   2.251   5.714   3.410
 2727SOL    HW1 9080   2.182   5.758   3.352
 2727SOL    HW2 9081   2.307   5.652   3.355
 2728SOL     OW 9082   3.490   6.879   5.291
 2728SOL    HW1 9083   3.565   6.813   5.293
 2728SOL    HW2 9084   3.527   6.972   5.293
 2729SOL     OW 9085   6.880   4.722   2.751
 2729SOL    HW1 9086   6.839   4.737   2.661
 2729SOL    HW2 9087   6.816   4.748   2.823
 2730SOL     OW 9088   0.990   4.708   1.636
 2730SOL    HW1 9089   1.035   4.763   1.707
 2730SOL    HW2 9090   0.906   4.668   1.673
 2731SOL     OW 9091   3.130   3.875   1.190
 2731SOL    HW1 9092   3.090   3.892   1.100
 2731SOL    HW2 9093   3.143   3.776   1.202
 2732SOL     OW 9094   5.294   3.063   4.506
 2732SOL    HW1 9095   5.309   3.130   4.434
 2732SOL    HW2 9096   5.210   3.011   4.487
 2733SOL     OW 9097   2.359   0.502   6.069
 2733SOL    HW1 9098   2.456   0.485   6.050
 2733SOL    HW2 9099   2.340   0.483   6.165
 2734SOL     OW 9100   2.588   0.127   3.818
 2734SOL    HW1 9101   2.554   0.074   3.896
 2734SOL    HW2 9102   2.565   0.079   3.733
 2735SOL     OW 9103   1.477   5.111   1.089
 2735SOL    HW1 9104   1.415   5.184   1.117
 2735SOL    HW2 9105   1.444   5.070   1.004
 2736SOL     OW 9106   3.364   6.938   6.698
 2736SOL    HW1 9107   3.384   6.900   6.788
 2736SOL    HW2 9108   3.275   6.983   6.701
 2737SOL     OW 9109   4.649   3.339   5.680
 2737SOL    HW1 9110   4.688   3.338   5.588
 2737SOL    HW2 9111   4.609   3.428   5.697
 2738SOL     OW 9112   5.691   4.195   4.272
 2738SOL    HW1 9113   5.689   4.163   4.367
 2738SOL    HW2 9114   5.655   4.123   4.212
 2739SOL     OW 9115   4.822   4.298   0.130
 2739SOL    HW1 9116   4.725   4.294   0.153
 2739SOL    HW2 9117   4.874   4.331   0.209
 2740SOL     OW 9118   6.168   2.493   3.495
 2740SOL    HW1 9119   6.187   2.583   3.455
 2740SOL    HW2 9120   6.112   2.505   3.577
 2741SOL     OW 9121   2.171   3.293   4.707
 2741SOL    HW1 9122   2.227   3.302   4.789
 2741SOL    HW2 9123   2.074   3.303   4.731
 2742SOL     OW 9124   2.641   6.113   5.632
 2742SOL    HW1 9125   2.703   6.161   5.570
 2742SOL    HW2 9126   2.651   6.150   5.724
 2743SOL     OW 9127   6.219   4.310   0.232
 2743SOL    HW1 9128   6.135   4.257   0.244
 2743SOL    HW2 9129   6.215   4.391   0.292
 2744SOL     OW 9130   4.343   0.562   0.629
 2744SOL    HW1 9131   4.373   0.478   0.582
 2744SOL    HW2 9132   4.310   0.628   0.561
 2745SOL     OW 9133   2.180   5.601   1.270
 2745SOL    HW1 9134   2.134   5.524   1.226
 2745SOL    HW2 9135   2.278   5.596   1.254
 2746SOL     OW 9136   1.068   2.494   6.172
 2746SOL    HW1 9137   1.119   2.489   6.086
 2746SOL    HW2 9138   1.000   2.567   6.166
 2747SOL     OW 9139   5.376   5.593   3.624
 2747SOL    HW1 9140   5.391   5.621   3.719
 2747SOL    HW2 9141   5.454   5.619   3.568
 2748SOL     OW 9142   4.967   0.581   4.523
 2748SOL    HW1 9143   4.980   0.523   4.442
 2748SOL    HW2 9144   4.983   0.676   4.498
 2749SOL     OW 9145   4.956   4.286   3.729
 2749SOL    HW1 9146   4.927   4.198   3.768
 2749SOL    HW2 9147   4.996   4.272   3.639
 2750SOL     OW 9148   0.474   6.695   0.381
 2750SOL    HW1 9149   0.471   6.676   0.283
 2750SOL    HW2 9150   0.570   6.697   0.411
 2751SOL     OW 9151   1.753   0.239   6.684
 2751SOL    HW1 9152   1.713   0.160   6.729
 2751SOL    HW2 9153   1.828   0.276   6.739
 2752SOL     OW 9154   0.122   6.602   5.794
 2752SOL    HW1 9155   0.103   6.507   5.819
 2752SOL    HW2 9156   0.038   6.647   5.765
 2753SOL     OW 9157   3.626   5.073   5.416
 2753SOL    HW1 9158   3.725   5.075   5.397
 2753SOL    HW2 9159   3.610   5.100   5.511
 2754SOL     OW 9160   1.077   6.076   4.140
 2754SOL    HW1 9161   0.989   6.119   4.160
 2754SOL    HW2 9162   1.106   6.101   4.047
 2755SOL     OW 9163   4.708   5.763   2.457
 2755SOL    HW1 9164   4.776   5.836   2.445
 2755SOL    HW2 9165   4.618   5.798   2.432
 2756SOL     OW 9166   0.449   2.818   5.417
 2756SOL    HW1 9167   0.395   2.751   5.366
 2756SOL    HW2 9168   0.484   2.776   5.501
 2757SOL     OW 9169   4.795   3.985   6.557
 2757SOL    HW1 9170   4.730   3.910   6.540
 2757SOL    HW2 9171   4.745   4.065   6.590
 2758SOL     OW 9172   6.768   6.861   1.991
 2758SOL    HW1 9173   6.811   6.771   2.001
 2758SOL    HW2 9174   6.802   6.905   1.908
 2759SOL     OW 9175   3.289   3.559   5.386
 2759SOL    HW1 9176   3.206   3.536   5.438
 2759SOL    HW2 9177   3.278   3.530   5.291
 2760SOL     OW 9178   5.610   5.537   2.741
 2760SOL    HW1 9179   5.583   5.476   2.667
 2760SOL    HW2 9180   5.601   5.632   2.712
 2761SOL     OW 9181   1.498   3.261   3.813
 2761SOL    HW1 9182   1.499   3.209   3.728
 2761SOL    HW2 9183   1.568   3.225   3.875
 2762SOL     OW 9184   4.056   1.360   1.379
 2762SOL    HW1 9185   4.025   1.271   1.411
 2762SOL    HW2 9186   4.155   1.368   1.394
 2763SOL     OW 9187   5.793   1.259   3.772
 2763SOL    HW1 9188   5.833   1.269   3.863
 2763SOL    HW2 9189   5.749   1.345   3.746
 2764SOL     OW 9190   0.358   2.926   3.447
 2764SOL    HW1 9191   0.444   2.915   3.397
 2764SOL    HW2 9192   0.284   2.946   3.382
 2765SOL     OW 9193   6.406   6.315   5.776
 2765SOL    HW1 9194   6.407   6.413   5.794
 2765SOL    HW2 9195   6.494   6.274   5.801
 2766SOL     OW 9196   4.447   0.255   0.299
 2766SOL    HW1 9197   4.438   0.156   0.297
 2766SOL    HW2 9198   4.494   0.286   0.217
 2767SOL     OW 9199   0.247   5.441   6.050
 2767SOL    HW1 9200   0.291   5.353   6.069
 2767SOL    HW2 9201   0.244   5.456   5.952
 2768SOL     OW 9202   3.400   6.216   1.851
 2768SOL    HW1 9203   3.476   6.154   1.872
 2768SOL    HW2 9204   3.363   6.253   1.937
 2769SOL     OW 9205   0.506   4.718   5.454
 2769SOL    HW1 9206   0.553   4.705   5.542
 2769SOL    HW2 9207   0.562   4.680   5.381
 2770SOL     OW 9208   2.011   0.157   0.581
 2770SOL    HW1 9209   1.919   0.196   0.571
 2770SOL    HW2 9210   2.005   0.069   0.628
 2771SOL     OW 9211   4.416   6.578   5.477
 2771SOL    HW1 9212   4.436   6.499   5.420
 2771SOL    HW2 9213   4.477   6.579   5.556
 2772SOL     OW 9214   5.085   1.351   3.301
 2772SOL    HW1 9215   5.161   1.343   3.366
 2772SOL    HW2 9216   5.028   1.269   3.305
 2773SOL     OW 9217   5.421   2.222   6.025
 2773SOL    HW1 9218   5.414   2.129   6.062
 2773SOL    HW2 9219   5.428   2.217   5.925
 2774SOL     OW 9220   6.467   0.199   3.911
 2774SOL    HW1 9221   6.400   0.196   3.837
 2774SOL    HW2 9222   6.462   0.288   3.957
 2775SOL     OW 9223   0.265   2.429   4.886
 2775SOL    HW1 9224   0.191   2.445   4.951
 2775SOL    HW2 9225   0.349   2.471   4.921
 2776SOL     OW 9226   4.680   4.525   5.962
 2776SOL    HW1 9227   4.776   4.547   5.983
 2776SOL    HW2 9228   4.668   4.426   5.960
 2777SOL     OW 9229   2.068   2.395   6.974
 2777SOL    HW1 9230   2.141   2.393   0.022
 2777SOL    HW2 9231   2.046   2.490   6.952
 2778SOL     OW 9232   3.396   0.471   6.272
 2778SOL    HW1 9233   3.377   0.383   6.316
 2778SOL    HW2 9234   3.398   0.543   6.341
 2779SOL     OW 9235   5.277   1.119   2.185
 2779SOL    HW1 9236   5.302   1.168   2.101
 2779SOL    HW2 9237   5.185   1.081   2.175
 2780SOL     OW 9238   0.075   1.110   4.973
 2780SOL    HW1 9239   7.003   1.098   4.939
 2780SOL    HW2 9240   0.140   1.076   4.905
 2781SOL     OW 9241   0.132   0.393   3.170
 2781SOL    HW1 9242   0.189   0.464   3.128
 2781SOL    HW2 9243   0.147   0.306   3.123
 2782SOL     OW 9244   5.494   6.972   5.451
 2782SOL    HW1 9245   5.477   6.892   5.510
 2782SOL    HW2 9246   5.552   6.945   5.375
 2783SOL     OW 9247   5.829   2.982   1.400
 2783SOL    HW1 9248   5.738   3.016   1.424
 2783SOL    HW2 9249   5.860   3.025   1.316
 2784SOL     OW 9250   0.021   2.949   1.781
 2784SOL    HW1 9251   0.052   2.866   1.733
 2784SOL    HW2 9252   6.943   2.943   1.797
 2785SOL     OW 9253   4.958   3.654   3.016
 2785SOL    HW1 9254   5.025   3.695   2.955
 2785SOL    HW2 9255   4.960   3.554   3.005
 2786SOL     OW 9256   0.683   5.860   0.525
 2786SOL    HW1 9257   0.736   5.834   0.605
 2786SOL    HW2 9258   0.682   5.785   0.459
 2787SOL     OW 9259   0.499   5.788   5.574
 2787SOL    HW1 9260   0.400   5.791   5.560
 2787SOL    HW2 9261   0.531   5.879   5.602
 2788SOL     OW 9262   2.991   6.714   0.219
 2788SOL    HW1 9263   3.028   6.777   0.151
 2788SOL    HW2 9264   2.959   6.631   0.173
 2789SOL     OW 9265   1.829   2.237   4.069
 2789SOL    HW1 9266   1.768   2.160   4.091
 2789SOL    HW2 9267   1.852   2.286   4.154
 2790SOL     OW 9268   0.250   5.261   1.501
 2790SOL    HW1 9269   0.182   5.197   1.464
 2790SOL    HW2 9270   0.203   5.329   1.557
 2791SOL     OW 9271   0.785   3.478   4.701
 2791SOL    HW1 9272   0.801   3.551   4.635
 2791SOL    HW2 9273   0.816   3.507   4.792
 2792SOL     OW 9274   2.936   1.655   6.219
 2792SOL    HW1 9275   2.988   1.729   6.262
 2792SOL    HW2 9276   2.996   1.575   6.207
 2793SOL     OW 9277   3.639   3.686   6.827
 2793SOL    HW1 9278   3.664   3.715   6.734
 2793SOL    HW2 9279   3.575   3.752   6.866
 2794SOL     OW 9280   2.163   1.883   0.180
 2794SOL    HW1 9281   2.083   1.865   0.123
 2794SOL    HW2 9282   2.138   1.878   0.277
 2795SOL     OW 9283   1.410   6.586   0.872
 2795SOL    HW1 9284   1.359   6.582   0.786
 2795SOL    HW2 9285   1.351   6.620   0.945
 2796SOL     OW 9286   2.319   6.057   6.875
 2796SOL    HW1 9287   2.318   5.977   6.815
 2796SOL    HW2 9288   2.380   6.038   6.953
 2797SOL     OW 9289   5.163   3.894   3.975
 2797SOL    HW1 9290   5.263   3.903   3.975
 2797SOL    HW2 9291   5.127   3.920   4.065
 2798SOL     OW 9292   4.901   2.101   1.833
 2798SOL    HW1 9293   4.869   2.007   1.821
 2798SOL    HW2 9294   4.836   2.152   1.888
 2799SOL     OW 9295   3.490   6.351   5.568
 2799SOL    HW1 9296   3.461   6.299   5.487
 2799SOL    HW2 9297   3.448   6.441   5.566
 2800SOL     OW 9298   4.690   0.761   6.494
 2800SOL    HW1 9299   4.745   0.843   6.510
 2800SOL    HW2 9300   4.700   0.699   6.572
 2801SOL     OW 9301   0.505   4.593   3.790
 2801SOL    HW1 9302   0.475   4.525   3.856
 2801SOL    HW2 9303   0.542   4.548   3.709
 2802SOL     OW 9304   1.280   5.027   4.637
 2802SOL    HW1 9305   1.209   4.960   4.616
 2802SOL    HW2 9306   1.361   4.981   4.673
 2803SOL     OW 9307   3.820   2.474   6.606
 2803SOL    HW1 9308   3.900   2.471   6.546
 2803SOL    HW2 9309   3.815   2.389   6.658
 2804SOL     OW 9310   6.266   2.748   3.459
 2804SOL    HW1 9311   6.361   2.780   3.449
 2804SOL    HW2 9312   6.206   2.804   3.402
 2805SOL     OW 9313   4.335   4.476   0.283
 2805SOL    HW1 9314   4.366   4.532   0.206
 2805SOL    HW2 9315   4.293   4.535   0.352
 2806SOL     OW 9316   0.252   3.374   5.175
 2806SOL    HW1 9317   0.334   3.409   5.130
 2806SOL    HW2 9318   0.197   3.323   5.109
 2807SOL     OW 9319   4.590   1.639   3.812
 2807SOL    HW1 9320   4.664   1.692   3.853
 2807SOL    HW2 9321   4.581   1.552   3.860
 2808SOL     OW 9322   1.126   6.177   5.640
 2808SOL    HW1 9323   1.048   6.120   5.665
 2808SOL    HW2 9324   1.159   6.151   5.550
 2809SOL     OW 9325   0.850   5.790   1.107
 2809SOL    HW1 9326   0.837   5.881   1.145
 2809SOL    HW2 9327   0.943   5.782   1.070
 2810SOL     OW 9328   0.800   6.003   3.046
 2810SOL    HW1 9329   0.707   6.018   3.082
 2810SOL    HW2 9330   0.799   6.018   2.947
 2811SOL     OW 9331   0.519   1.163   0.764
 2811SOL    HW1 9332   0.447   1.204   0.820
 2811SOL    HW2 9333   0.509   1.064   0.764
 2812SOL     OW 9334   1.582   1.285   1.037
 2812SOL    HW1 9335   1.633   1.200   1.053
 2812SOL    HW2 9336   1.617   1.329   0.954
 2813SOL     OW 9337   0.005   2.328   0.631
 2813SOL    HW1 9338   6.938   2.282   0.648
 2813SOL    HW2 9339   0.053   2.282   0.557
 2814SOL     OW 9340   2.592   4.506   6.650
 2814SOL    HW1 9341   2.615   4.448   6.572
 2814SOL    HW2 9342   2.542   4.587   6.618
 2815SOL     OW 9343   0.086   5.423   4.607
 2815SOL    HW1 9344   0.150   5.362   4.561
 2815SOL    HW2 9345   0.101   5.420   4.706
 2816SOL     OW 9346   1.244   5.075   4.962
 2816SOL    HW1 9347   1.258   5.114   4.871
 2816SOL    HW2 9348   1.333   5.060   5.005
 2817SOL     OW 9349   2.631   0.900   2.368
 2817SOL    HW1 9350   2.620   0.929   2.463
 2817SOL    HW2 9351   2.567   0.825   2.348
 2818SOL     OW 9352   1.173   0.983   0.189
 2818SOL    HW1 9353   1.092   0.925   0.188
 2818SOL    HW2 9354   1.214   0.985   0.098
 2819SOL     OW 9355   0.399   7.017   6.453
 2819SOL    HW1 9356   0.377   0.081   6.404
 2819SOL    HW2 9357   0.341   6.943   6.420
 2820SOL     OW 9358   2.288   1.721   6.916
 2820SOL    HW1 9359   2.238   1.678   6.841
 2820SOL    HW2 9360   2.286   1.820   6.905
 2821SOL     OW 9361   3.328   2.381   5.818
 2821SOL    HW1 9362   3.260   2.435   5.868
 2821SOL    HW2 9363   3.325   2.405   5.721
 2822SOL     OW 9364   3.964   2.814   0.844
 2822SOL    HW1 9365   4.059   2.785   0.843
 2822SOL    HW2 9366   3.912   2.763   0.775
 2823SOL     OW 9367   5.623   3.932   1.940
 2823SOL    HW1 9368   5.559   3.867   1.898
 2823SOL    HW2 9369   5.576   3.981   2.014
 2824SOL     OW 9370   0.972   4.426   5.429
 2824SOL    HW1 9371   1.053   4.409   5.373
 2824SOL    HW2 9372   0.959   4.525   5.439
 2825SOL     OW 9373   5.162   2.199   5.871
 2825SOL    HW1 9374   5.148   2.197   5.970
 2825SOL    HW2 9375   5.102   2.131   5.828
 2826SOL     OW 9376   2.534   3.596   6.786
 2826SOL    HW1 9377   2.597   3.520   6.796
 2826SOL    HW2 9378   2.494   3.618   6.874
 2827SOL     OW 9379   6.118   1.456   6.358
 2827SOL    HW1 9380   6.171   1.527   6.312
 2827SOL    HW2 9381   6.179   1.395   6.407
 2828SOL     OW 9382   1.484   4.129   0.874
 2828SOL    HW1 9383   1.398   4.135   0.924
 2828SOL    HW2 9384   1.475   4.063   0.800
 2829SOL     OW 9385   3.409   3.881   1.992
 2829SOL    HW1 9386   3.465   3.800   1.974
 2829SOL    HW2 9387   3.327   3.879   1.936
 2830SOL     OW 9388   3.567   6.136   4.542
 2830SOL    HW1 9389   3.513   6.052   4.548
 2830SOL    HW2 9390   3.661   6.114   4.518
 2831SOL     OW 9391   6.492   1.544   2.146
 2831SOL    HW1 9392   6.486   1.643   2.135
 2831SOL    HW2 9393   6.401   1.504   2.141
 2832SOL     OW 9394   1.381   3.450   1.800
 2832SOL    HW1 9395   1.454   3.384   1.789
 2832SOL    HW2 9396   1.381   3.485   1.894
 2833SOL     OW 9397   6.540   2.881   3.125
 2833SOL    HW1 9398   6.636   2.867   3.146
 2833SOL    HW2 9399   6.505   2.958   3.179
 2834SOL     OW 9400   3.804   0.821   4.354
 2834SOL    HW1 9401   3.717   0.868   4.368
 2834SOL    HW2 9402   3.862   0.833   4.435
 2835SOL     OW 9403   6.823   1.132   6.924
 2835SOL    HW1 9404   6.822   1.137   0.003
 2835SOL    HW2 9405   6.917   1.142   6.891
 2836SOL     OW 9406   2.710   5.520   1.965
 2836SOL    HW1 9407   2.810   5.515   1.956
 2836SOL    HW2 9408   2.668   5.503   1.876
 2837SOL     OW 9409   5.390   4.065   1.853
 2837SOL    HW1 9410   5.357   4.084   1.945
 2837SOL    HW2 9411   5.381   3.968   1.834
 2838SOL     OW 9412   6.863   3.493   6.175
 2838SOL    HW1 9413   6.845   3.408   6.126
 2838SOL    HW2 9414   6.856   3.570   6.112
 2839SOL     OW 9415   6.017   2.604   6.519
 2839SOL    HW1 9416   6.005   2.563   6.428
 2839SOL    HW2 9417   5.934   2.589   6.573
 2840SOL     OW 9418   5.567   6.269   4.957
 2840SOL    HW1 9419   5.554   6.318   5.043
 2840SOL    HW2 9420   5.532   6.323   4.881
 2841SOL     OW 9421   5.388   3.835   2.690
 2841SOL    HW1 9422   5.331   3.899   2.638
 2841SOL    HW2 9423   5.440   3.778   2.626
 2842SOL     OW 9424   0.721   6.900   3.367
 2842SOL    HW1 9425   0.721   6.979   3.428
 2842SOL    HW2 9426   0.740   6.931   3.273
 2843SOL     OW 9427   2.071   2.630   4.661
 2843SOL    HW1 9428   2.158   2.656   4.618
 2843SOL    HW2 9429   2.087   2.609   4.757
 2844SOL     OW 9430   4.876   3.397   0.532
 2844SOL    HW1 9431   4.936   3.318   0.542
 2844SOL    HW2 9432   4.926   3.481   0.553
 2845SOL     OW 9433   3.248   1.854   1.423
 2845SOL    HW1 9434   3.263   1.844   1.325
 2845SOL    HW2 9435   3.336   1.844   1.471
 2846SOL     OW 9436   5.253   6.455   6.828
 2846SOL    HW1 9437   5.195   6.536   6.840
 2846SOL    HW2 9438   5.289   6.426   6.916
 2847SOL     OW 9439   5.151   5.086   1.389
 2847SOL    HW1 9440   5.139   5.164   1.328
 2847SOL    HW2 9441   5.232   5.099   1.446
 2848SOL     OW 9442   0.472   4.051   6.721
 2848SOL    HW1 9443   0.566   4.018   6.707
 2848SOL    HW2 9444   0.473   4.151   6.728
 2849SOL     OW 9445   5.177   0.453   1.739
 2849SOL    HW1 9446   5.132   0.425   1.824
 2849SOL    HW2 9447   5.267   0.491   1.760
 2850SOL     OW 9448   0.626   1.253   1.460
 2850SOL    HW1 9449   0.639   1.336   1.513
 2850SOL    HW2 9450   0.714   1.205   1.451
 2851SOL     OW 9451   3.542   3.269   1.808
 2851SOL    HW1 9452   3.467   3.330   1.834
 2851SOL    HW2 9453   3.529   3.238   1.714
 2852SOL     OW 9454   0.213   5.446   5.175
 2852SOL    HW1 9455   0.235   5.539   5.204
 2852SOL    HW2 9456   0.202   5.444   5.076
 2853SOL     OW 9457   0.171   4.275   4.989
 2853SOL    HW1 9458   0.236   4.351   4.983
 2853SOL    HW2 9459   0.103   4.284   4.917
 2854SOL     OW 9460   3.088   0.659   6.459
 2854SOL    HW1 9461   3.004   0.659   6.406
 2854SOL    HW2 9462   3.075   0.710   6.544
 2855SOL     OW 9463   1.998   1.760   4.210
 2855SOL    HW1 9464   2.004   1.728   4.116
 2855SOL    HW2 9465   2.053   1.843   4.220
 2856SOL     OW 9466   1.216   5.776   4.459
 2856SOL    HW1 9467   1.272   5.815   4.533
 2856SOL    HW2 9468   1.251   5.686   4.435
 2857SOL     OW 9469   6.830   4.113   0.566
 2857SOL    HW1 9470   6.741   4.159   0.568
 2857SOL    HW2 9471   6.849   4.074   0.656
 2858SOL     OW 9472   5.746   4.767   3.670
 2858SOL    HW1 9473   5.691   4.686   3.649
 2858SOL    HW2 9474   5.837   4.739   3.701
 2859SOL     OW 9475   6.028   5.109   1.430
 2859SOL    HW1 9476   6.100   5.119   1.500
 2859SOL    HW2 9477   6.063   5.053   1.355
 2860SOL     OW 9478   1.386   6.825   3.313
 2860SOL    HW1 9479   1.461   6.760   3.309
 2860SOL    HW2 9480   1.329   6.805   3.393
 2861SOL     OW 9481   5.282   3.993   5.511
 2861SOL    HW1 9482   5.237   4.077   5.482
 2861SOL    HW2 9483   5.321   3.946   5.432
 2862SOL     OW 9484   4.373   0.778   0.341
 2862SOL    HW1 9485   4.398   0.737   0.254
 2862SOL    HW2 9486   4.451   0.830   0.377
 2863SOL     OW 9487   5.470   2.151   5.762
 2863SOL    HW1 9488   5.550   2.095   5.740
 2863SOL    HW2 9489   5.409   2.155   5.682
 2864SOL     OW 9490   4.240   4.152   1.324
 2864SOL    HW1 9491   4.268   4.129   1.231
 2864SOL    HW2 9492   4.230   4.068   1.377
 2865SOL     OW 9493   5.814   5.069   5.863
 2865SOL    HW1 9494   5.908   5.102   5.875
 2865SOL    HW2 9495   5.814   4.987   5.807
 2866SOL     OW 9496   3.783   5.066   0.975
 2866SOL    HW1 9497   3.789   4.983   0.920
 2866SOL    HW2 9498   3.796   5.043   1.072
 2867SOL     OW 9499   6.960   5.901   2.610
 2867SOL    HW1 9500   0.011   5.834   2.594
 2867SOL    HW2 9501   6.996   5.977   2.664
 2868SOL     OW 9502   0.388   6.786   5.379
 2868SOL    HW1 9503   0.440   6.728   5.317
 2868SOL    HW2 9504   0.301   6.741   5.400
 2869SOL     OW 9505   5.955   4.775   5.056
 2869SOL    HW1 9506   5.945   4.690   5.003
 2869SOL    HW2 9507   5.913   4.763   5.145
 2870SOL     OW 9508   1.075   1.567   1.266
 2870SOL    HW1 9509   1.050   1.477   1.229
 2870SOL    HW2 9510   1.154   1.558   1.326
 2871SOL     OW 9511   4.726   1.372   3.298
 2871SOL    HW1 9512   4.775   1.433   3.236
 2871SOL    HW2 9513   4.714   1.417   3.386
 2872SOL     OW 9514   3.156   1.862   2.516
 2872SOL    HW1 9515   3.075   1.863   2.457
 2872SOL    HW2 9516   3.235   1.829   2.465
 2873SOL     OW 9517   0.812   6.897   2.552
 2873SOL    HW1 9518   0.752   6.892   2.472
 2873SOL    HW2 9519   0.853   6.988   2.558
 2874SOL     OW 9520   2.182   1.442   3.570
 2874SOL    HW1 9521   2.160   1.540   3.575
 2874SOL    HW2 9522   2.117   1.397   3.508
 2875SOL     OW 9523   2.338   0.207   3.456
 2875SOL    HW1 9524   2.367   0.150   3.533
 2875SOL    HW2 9525   2.402   0.283   3.444
 2876SOL     OW 9526   0.988   6.775   1.059
 2876SOL    HW1 9527   1.018   6.847   0.997
 2876SOL    HW2 9528   0.891   6.755   1.043
 2877SOL     OW 9529   1.572   3.077   5.117
 2877SOL    HW1 9530   1.584   3.040   5.024
 2877SOL    HW2 9531   1.637   3.032   5.178
 2878SOL     OW 9532   3.375   2.998   5.009
 2878SOL    HW1 9533   3.302   2.929   5.016
 2878SOL    HW2 9534   3.348   3.068   4.944
 2879SOL     OW 9535   4.910   5.183   0.385
 2879SOL    HW1 9536   4.898   5.226   0.296
 2879SOL    HW2 9537   4.980   5.111   0.379
 2880SOL     OW 9538   1.223   2.205   3.391
 2880SOL    HW1 9539   1.316   2.240   3.389
 2880SOL    HW2 9540   1.195   2.177   3.298
 2881SOL     OW 9541   5.335   5.114   0.613
 2881SOL    HW1 9542   5.309   5.027   0.656
 2881SOL    HW2 9543   5.286   5.189   0.656
 2882SOL     OW 9544   4.335   6.828   6.822
 2882SOL    HW1 9545   4.409   6.790   6.766
 2882SOL    HW2 9546   4.339   6.928   6.821
 2883SOL     OW 9547   5.342   6.216   3.495
 2883SOL    HW1 9548   5.403   6.201   3.573
 2883SOL    HW2 9549   5.278   6.140   3.487
 2884SOL     OW 9550   6.130   5.455   3.666
 2884SOL    HW1 9551   6.037   5.490   3.676
 2884SOL    HW2 9552   6.187   5.492   3.739
 2885SOL     OW 9553   7.015   3.197   3.494
 2885SOL    HW1 9554   0.016   3.157   3.583
 2885SOL    HW2 9555   0.074   3.195   3.435
 2886SOL     OW 9556   2.310   4.373   4.973
 2886SOL    HW1 9557   2.251   4.328   4.905
 2886SOL    HW2 9558   2.357   4.304   5.027
 2887SOL     OW 9559   6.871   5.550   2.657
 2887SOL    HW1 9560   6.885   5.453   2.675
 2887SOL    HW2 9561   6.813   5.561   2.576
 2888SOL     OW 9562   4.882   6.431   6.892
 2888SOL    HW1 9563   4.870   6.493   6.970
 2888SOL    HW2 9564   4.946   6.471   6.827
 2889SOL     OW 9565   4.561   6.209   4.490
 2889SOL    HW1 9566   4.528   6.301   4.510
 2889SOL    HW2 9567   4.551   6.151   4.571
 2890SOL     OW 9568   1.532   2.304   0.082
 2890SOL    HW1 9569   1.487   2.267   0.000
 2890SOL    HW2 9570   1.482   2.274   0.163
 2891SOL     OW 9571   0.887   1.331   5.294
 2891SOL    HW1 9572   0.847   1.336   5.202
 2891SOL    HW2 9573   0.937   1.416   5.313
 2892SOL     OW 9574   5.461   4.639   2.181
 2892SOL    HW1 9575   5.394   4.624   2.253
 2892SOL    HW2 9576   5.508   4.726   2.197
 2893SOL     OW 9577   6.727   5.128   4.825
 2893SOL    HW1 9578   6.761   5.049   4.876
 2893SOL    HW2 9579   6.771   5.132   4.736
 2894SOL     OW 9580   1.615   5.500   1.220
 2894SOL    HW1 9581   1.536   5.442   1.240
 2894SOL    HW2 9582   1.626   5.568   1.292
 2895SOL     OW 9583   4.518   6.324   6.235
 2895SOL    HW1 9584   4.551   6.398   6.293
 2895SOL    HW2 9585   4.564   6.328   6.146
 2896SOL     OW 9586   6.365   0.455   4.936
 2896SOL    HW1 9587   6.333   0.549   4.927
 2896SOL    HW2 9588   6.418   0.447   5.021
 2897SOL     OW 9589   3.576   5.677   3.322
 2897SOL    HW1 9590   3.651   5.618   3.290
 2897SOL    HW2 9591   3.511   5.692   3.247
 2898SOL     OW 9592   5.412   2.895   3.531
 2898SOL    HW1 9593   5.435   2.991   3.512
 2898SOL    HW2 9594   5.485   2.836   3.497
 2899SOL     OW 9595   6.631   3.098   0.697
 2899SOL    HW1 9596   6.648   3.045   0.614
 2899SOL    HW2 9597   6.712   3.098   0.755
 2900SOL     OW 9598   2.414   2.628   5.581
 2900SOL    HW1 9599   2.441   2.721   5.606
 2900SOL    HW2 9600   2.491   2.580   5.539
 2901SOL     OW 9601   1.371   3.962   2.106
 2901SOL    HW1 9602   1.311   3.889   2.138
 2901SOL    HW2 9603   1.332   4.004   2.024
 2902SOL     OW 9604   5.741   5.940   3.452
 2902SOL    HW1 9605   5.649   5.979   3.458
 2902SOL    HW2 9606   5.785   5.970   3.366
 2903SOL     OW 9607   0.141   4.758   0.461
 2903SOL    HW1 9608   0.103   4.721   0.377
 2903SOL    HW2 9609   0.067   4.788   0.522
 2904SOL     OW 9610   2.712   4.895   4.884
 2904SOL    HW1 9611   2.650   4.931   4.954
 2904SOL    HW2 9612   2.742   4.803   4.909
 2905SOL     OW 9613   0.709   5.289   1.712
 2905SOL    HW1 9614   0.774   5.215   1.697
 2905SOL    HW2 9615   0.616   5.255   1.699
 2906SOL     OW 9616   0.313   6.350   5.867
 2906SOL    HW1 9617   0.320   6.398   5.780
 2906SOL    HW2 9618   0.382   6.384   5.930
 2907SOL     OW 9619   0.010   0.803   5.306
 2907SOL    HW1 9620   0.101   0.843   5.309
 2907SOL    HW2 9621   0.017   0.704   5.297
 2908SOL     OW 9622   4.569   0.009   4.061
 2908SOL    HW1 9623   4.630   6.996   3.990
 2908SOL    HW2 9624   4.560   6.960   4.133
 2909SOL     OW 9625   0.112   0.152   1.890
 2909SOL    HW1 9626   0.030   0.209   1.881
 2909SOL    HW2 9627   0.129   0.134   1.987
 2910SOL     OW 9628   1.277   1.030   4.397
 2910SOL    HW1 9629   1.242   1.081   4.475
 2910SOL    HW2 9630   1.304   0.938   4.427
 2911SOL     OW 9631   0.081   3.809   5.031
 2911SOL    HW1 9632   0.147   3.755   4.978
 2911SOL    HW2 9633   0.007   3.750   5.062
 2912SOL     OW 9634   0.645   1.783   2.110
 2912SOL    HW1 9635   0.560   1.825   2.077
 2912SOL    HW2 9636   0.713   1.854   2.129
 2913SOL     OW 9637   0.801   6.568   3.026
 2913SOL    HW1 9638   0.725   6.522   2.980
 2913SOL    HW2 9639   0.792   6.667   3.015
 2914SOL     OW 9640   3.932   4.536   1.401
 2914SOL    HW1 9641   3.958   4.439   1.396
 2914SOL    HW2 9642   3.838   4.544   1.435
 2915SOL     OW 9643   2.213   0.521   3.797
 2915SOL    HW1 9644   2.199   0.476   3.885
 2915SOL    HW2 9645   2.125   0.528   3.749
 2916SOL     OW 9646   0.733   4.954   6.329
 2916SOL    HW1 9647   0.658   4.960   6.395
 2916SOL    HW2 9648   0.754   4.858   6.312
 2917SOL     OW 9649   2.279   0.551   3.238
 2917SOL    HW1 9650   2.375   0.568   3.219
 2917SOL    HW2 9651   2.242   0.623   3.296
 2918SOL     OW 9652   5.099   2.291   1.340
 2918SOL    HW1 9653   5.103   2.366   1.406
 2918SOL    HW2 9654   5.096   2.204   1.390
 2919SOL     OW 9655   0.529   6.240   4.784
 2919SOL    HW1 9656   0.541   6.268   4.879
 2919SOL    HW2 9657   0.617   6.206   4.749
 2920SOL     OW 9658   2.794   2.631   1.694
 2920SOL    HW1 9659   2.797   2.731   1.688
 2920SOL    HW2 9660   2.869   2.599   1.752
 2921SOL     OW 9661   1.045   6.248   3.527
 2921SOL    HW1 9662   1.056   6.336   3.481
 2921SOL    HW2 9663   1.003   6.183   3.464
 2922SOL     OW 9664   3.808   5.122   3.548
 2922SOL    HW1 9665   3.782   5.026   3.537
 2922SOL    HW2 9666   3.726   5.178   3.559
 2923SOL     OW 9667   1.496   5.584   4.264
 2923SOL    HW1 9668   1.450   5.646   4.200
 2923SOL    HW2 9669   1.587   5.562   4.229
 2924SOL     OW 9670   5.186   1.220   6.460
 2924SOL    HW1 9671   5.105   1.230   6.402
 2924SOL    HW2 9672   5.262   1.273   6.422
 2925SOL     OW 9673   5.706   6.578   4.727
 2925SOL    HW1 9674   5.690   6.616   4.818
 2925SOL    HW2 9675   5.699   6.650   4.658
 2926SOL     OW 9676   6.522   2.752   4.597
 2926SOL    HW1 9677   6.542   2.828   4.535
 2926SOL    HW2 9678   6.602   2.733   4.653
 2927SOL     OW 9679   1.394   1.653   2.585
 2927SOL    HW1 9680   1.379   1.752   2.577
 2927SOL    HW2 9681   1.479   1.636   2.635
 2928SOL     OW 9682   5.027   3.622   0.623
 2928SOL    HW1 9683   4.976   3.667   0.697
 2928SOL    HW2 9684   5.005   3.667   0.536
 2929SOL     OW 9685   2.477   1.623   3.232
 2929SOL    HW1 9686   2.485   1.556   3.306
 2929SOL    HW2 9687   2.395   1.679   3.247
 2930SOL     OW 9688   0.496   3.546   4.232
 2930SOL    HW1 9689   0.431   3.590   4.170
 2930SOL    HW2 9690   0.495   3.447   4.216
 2931SOL     OW 9691   6.317   4.590   5.764
 2931SOL    HW1 9692   6.411   4.579   5.795
 2931SOL    HW2 9693   6.296   4.686   5.751
 2932SOL     OW 9694   6.582   5.572   1.066
 2932SOL    HW1 9695   6.540   5.662   1.081
 2932SOL    HW2 9696   6.568   5.515   1.146
 2933SOL     OW 9697   0.766   0.241   6.805
 2933SOL    HW1 9698   0.750   0.186   6.723
 2933SOL    HW2 9699   0.722   0.197   6.883
 2934SOL     OW 9700   5.681   5.432   1.429
 2934SOL    HW1 9701   5.781   5.436   1.433
 2934SOL    HW2 9702   5.644   5.464   1.517
 2935SOL     OW 9703   0.877   3.316   5.450
 2935SOL    HW1 9704   0.909   3.224   5.429
 2935SOL    HW2 9705   0.832   3.355   5.369
 2936SOL     OW 9706   4.356   6.475   2.182
 2936SOL    HW1 9707   4.398   6.516   2.101
 2936SOL    HW2 9708   4.260   6.455   2.163
 2937SOL     OW 9709   5.966   3.784   3.406
 2937SOL    HW1 9710   5.988   3.807   3.311
 2937SOL    HW2 9711   5.867   3.786   3.419
 2938SOL     OW 9712   0.522   4.859   0.067
 2938SOL    HW1 9713   0.431   4.866   0.029
 2938SOL    HW2 9714   0.517   4.820   0.160
 2939SOL     OW 9715   6.842   6.152   1.848
 2939SOL    HW1 9716   6.937   6.156   1.819
 2939SOL    HW2 9717   6.823   6.063   1.890
 2940SOL     OW 9718   4.344   6.731   4.114
 2940SOL    HW1 9719   4.304   6.751   4.204
 2940SOL    HW2 9720   4.421   6.793   4.098
 2941SOL     OW 9721   2.716   4.718   3.132
 2941SOL    HW1 9722   2.656   4.739   3.210
 2941SOL    HW2 9723   2.811   4.719   3.162
 2942SOL     OW 9724   3.431   2.121   1.803
 2942SOL    HW1 9725   3.422   2.199   1.741
 2942SOL    HW2 9726   3.499   2.143   1.874
 2943SOL     OW 9727   6.931   3.703   3.486
 2943SOL    HW1 9728   6.911   3.610   3.454
 2943SOL    HW2 9729   6.900   3.713   3.580
 2944SOL     OW 9730   1.660   5.977   3.066
 2944SOL    HW1 9731   1.638   6.074   3.069
 2944SOL    HW2 9732   1.703   5.950   3.152
 2945SOL     OW 9733   6.016   3.734   1.384
 2945SOL    HW1 9734   5.996   3.644   1.423
 2945SOL    HW2 9735   6.100   3.728   1.329
 2946SOL     OW 9736   3.353   3.135   4.325
 2946SOL    HW1 9737   3.385   3.048   4.289
 2946SOL    HW2 9738   3.259   3.124   4.360
 2947SOL     OW 9739   6.359   5.411   0.286
 2947SOL    HW1 9740   6.262   5.409   0.262
 2947SOL    HW2 9741   6.405   5.485   0.236
 2948SOL     OW 9742   6.888   4.157   1.210
 2948SOL    HW1 9743   6.809   4.111   1.170
 2948SOL    HW2 9744   6.940   4.091   1.265
 2949SOL     OW 9745   1.366   6.508   0.560
 2949SOL    HW1 9746   1.432   6.563   0.509
 2949SOL    HW2 9747   1.288   6.566   0.585
 2950SOL     OW 9748   5.870   5.449   2.728
 2950SOL    HW1 9749   5.868   5.352   2.751
 2950SOL    HW2 9750   5.777   5.487   2.733
 2951SOL     OW 9751   0.615   2.447   1.219
 2951SOL    HW1 9752   0.647   2.542   1.214
 2951SOL    HW2 9753   0.683   2.393   1.268
 2952SOL     OW 9754   0.052   1.599   3.947
 2952SOL    HW1 9755   0.042   1.693   3.980
 2952SOL    HW2 9756   0.081   1.540   4.022
 2953SOL     OW 9757   1.961   6.277   2.937
 2953SOL    HW1 9758   2.007   6.207   2.992
 2953SOL    HW2 9759   1.942   6.357   2.994
 2954SOL     OW 9760   0.866   3.988   5.952
 2954SOL    HW1 9761   0.767   3.999   5.944
 2954SOL    HW2 9762   0.893   3.903   5.907
 2955SOL     OW 9763   1.842   4.749   6.546
 2955SOL    HW1 9764   1.796   4.664   6.521
 2955SOL    HW2 9765   1.830   4.766   6.643
 2956SOL     OW 9766   5.250   3.968   4.651
 2956SOL    HW1 9767   5.231   3.928   4.741
 2956SOL    HW2 9768   5.203   3.915   4.581
 2957SOL     OW 9769   2.070   5.592   2.011
 2957SOL    HW1 9770   2.128   5.674   2.010
 2957SOL    HW2 9771   2.116   5.518   1.961
 2958SOL     OW 9772   1.554   4.687   2.239
 2958SOL    HW1 9773   1.633   4.737   2.202
 2958SOL    HW2 9774   1.579   4.592   2.257
 2959SOL     OW 9775   6.858   4.121   3.716
 2959SOL    HW1 9776   6.813   4.069   3.789
 2959SOL    HW2 9777   6.790   4.172   3.665
 2960SOL     OW 9778   4.498   6.713   1.336
 2960SOL    HW1 9779   4.401   6.705   1.356
 2960SOL    HW2 9780   4.545   6.629   1.365
 2961SOL     OW 9781   5.404   2.557   1.625
 2961SOL    HW1 9782   5.319   2.546   1.677
 2961SOL    HW2 9783   5.460   2.474   1.635
 2962SOL     OW 9784   0.264   0.177   3.988
 2962SOL    HW1 9785   0.295   0.272   3.988
 2962SOL    HW2 9786   0.337   0.118   4.023
 2963SOL     OW 9787   1.612   1.047   5.373
 2963SOL    HW1 9788   1.693   1.105   5.367
 2963SOL    HW2 9789   1.599   1.000   5.286
 2964SOL     OW 9790   1.488   0.169   6.355
 2964SOL    HW1 9791   1.582   0.148   6.329
 2964SOL    HW2 9792   1.477   0.268   6.363
 2965SOL     OW 9793   5.889   0.547   6.201
 2965SOL    HW1 9794   5.858   0.621   6.261
 2965SOL    HW2 9795   5.861   0.459   6.240
 2966SOL     OW 9796   3.977   5.187   2.813
 2966SOL    HW1 9797   3.974   5.240   2.897
 2966SOL    HW2 9798   3.893   5.202   2.761
 2967SOL     OW 9799   5.679   6.896   4.828
 2967SOL    HW1 9800   5.599   6.892   4.767
 2967SOL    HW2 9801   5.665   6.834   4.905
 2968SOL     OW 9802   1.325   4.209   1.456
 2968SOL    HW1 9803   1.300   4.296   1.415
 2968SOL    HW2 9804   1.424   4.196   1.448
 2969SOL     OW 9805   4.694   2.818   4.301
 2969SOL    HW1 9806   4.611   2.820   4.246
 2969SOL    HW2 9807   4.756   2.889   4.269
 2970SOL     OW 9808   2.522   2.872   5.656
 2970SOL    HW1 9809   2.516   2.934   5.577
 2970SOL    HW2 9810   2.611   2.826   5.655
 2971SOL     OW 9811   4.604   4.167   6.659
 2971SOL    HW1 9812   4.655   4.243   6.618
 2971SOL    HW2 9813   4.524   4.147   6.603
 2972SOL     OW 9814   0.140   5.497   6.737
 2972SOL    HW1 9815   0.194   5.559   6.680
 2972SOL    HW2 9816   0.042   5.514   6.719
 2973SOL     OW 9817   5.505   0.606   4.177
 2973SOL    HW1 9818   5.437   0.613   4.250
 2973SOL    HW2 9819   5.467   0.644   4.092
 2974SOL     OW 9820   5.735   6.357   1.950
 2974SOL    HW1 9821   5.660   6.417   1.975
 2974SOL    HW2 9822   5.818   6.385   2.000
 2975SOL     OW 9823   6.791   3.236   5.108
 2975SOL    HW1 9824   6.724   3.163   5.123
 2975SOL    HW2 9825   6.800   3.254   5.010
 2976SOL     OW 9826   3.505   0.904   1.518
 2976SOL    HW1 9827   3.574   0.840   1.552
 2976SOL    HW2 9828   3.414   0.871   1.545
 2977SOL     OW 9829   1.641   1.364   1.845
 2977SOL    HW1 9830   1.567   1.297   1.855
 2977SOL    HW2 9831   1.724   1.318   1.815
 2978SOL     OW 9832   3.498   6.000   0.453
 2978SOL    HW1 9833   3.428   5.929   0.440
 2978SOL    HW2 9834   3.491   6.036   0.546
 2979SOL     OW 9835   2.770   0.970   5.408
 2979SOL    HW1 9836   2.721   1.047   5.367
 2979SOL    HW2 9837   2.834   1.004   5.476
 2980SOL     OW 9838   3.445   2.914   4.205
 2980SOL    HW1 9839   3.488   2.881   4.289
 2980SOL    HW2 9840   3.512   2.913   4.131
 2981SOL     OW 9841   3.121   2.040   1.864
 2981SOL    HW1 9842   3.083   1.981   1.793
 2981SOL    HW2 9843   3.189   2.101   1.823
 2982SOL     OW 9844   1.511   0.756   0.692
 2982SOL    HW1 9845   1.484   0.792   0.603
 2982SOL    HW2 9846   1.473   0.664   0.703
 2983SOL     OW 9847   6.339   2.458   6.330
 2983SOL    HW1 9848   6.347   2.520   6.251
 2983SOL    HW2 9849   6.375   2.504   6.412
 2984SOL     OW 9850   0.701   6.128   1.312
 2984SOL    HW1 9851   0.736   6.220   1.325
 2984SOL    HW2 9852   0.672   6.117   1.216
 2985SOL     OW 9853   6.390   0.887   5.613
 2985SOL    HW1 9854   6.431   0.886   5.704
 2985SOL    HW2 9855   6.313   0.952   5.612
 2986SOL     OW 9856   3.408   3.276   2.192
 2986SOL    HW1 9857   3.458   3.230   2.119
 2986SOL    HW2 9858   3.312   3.289   2.164
 2987SOL     OW 9859   2.451   5.772   4.667
 2987SOL    HW1 9860   2.383   5.704   4.644
 2987SOL    HW2 9861   2.540   5.744   4.632
 2988SOL     OW 9862   6.807   1.968   5.928
 2988SOL    HW1 9863   6.854   1.880   5.934
 2988SOL    HW2 9864   6.809   2.013   6.018
 2989SOL     OW 9865   5.645   3.404   5.546
 2989SOL    HW1 9866   5.652   3.480   5.610
 2989SOL    HW2 9867   5.727   3.347   5.554
 2990SOL     OW 9868   5.692   1.048   5.818
 2990SOL    HW1 9869   5.629   1.095   5.880
 2990SOL    HW2 9870   5.641   1.014   5.739
 2991SOL     OW 9871   6.823   3.419   0.005
 2991SOL    HW1 9872   6.812   3.513   6.993
 2991SOL    HW2 9873   6.916   3.407   0.040
 2992SOL     OW 9874   0.828   3.615   5.322
 2992SOL    HW1 9875   0.769   3.544   5.283
 2992SOL    HW2 9876   0.773   3.696   5.343
 2993SOL     OW 9877   3.114   5.273   0.641
 2993SOL    HW1 9878   3.114   5.175   0.661
 2993SOL    HW2 9879   3.195   5.315   0.681
 2994SOL     OW 9880   2.568   4.954   5.128
 2994SOL    HW1 9881   2.599   5.034   5.180
 2994SOL    HW2 9882   2.499   4.904   5.181
 2995SOL     OW 9883   5.041   0.725   2.124
 2995SOL    HW1 9884   5.031   0.663   2.201
 2995SOL    HW2 9885   4.950   0.747   2.087
 2996SOL     OW 9886   6.632   0.866   4.086
 2996SOL    HW1 9887   6.670   0.857   3.994
 2996SOL    HW2 9888   6.551   0.809   4.094
 2997SOL     OW 9889   4.687   5.625   4.342
 2997SOL    HW1 9890   4.640   5.538   4.357
 2997SOL    HW2 9891   4.715   5.664   4.430
 2998SOL     OW 9892   2.690   0.844   1.766
 2998SOL    HW1 9893   2.718   0.874   1.857
 2998SOL    HW2 9894   2.768   0.847   1.704
 2999SOL     OW 9895   1.100   4.376   0.491
 2999SOL    HW1 9896   1.045   4.432   0.554
 2999SOL    HW2 9897   1.080   4.279   0.508
 3000SOL     OW 9898   2.325   3.758   5.294
 3000SOL    HW1 9899   2.279   3.688   5.239
 3000SOL    HW2 9900   2.361   3.829   5.234
 3001SOL     OW 9901   4.394   0.678   6.475
 3001SOL    HW1 9902   4.407   0.616   6.398
 3001SOL    HW2 9903   4.481   0.720   6.500
 3002SOL     OW 9904   1.371   1.922   2.549
 3002SOL    HW1 9905   1.389   1.979   2.629
 3002SOL    HW2 9906   1.298   1.964   2.494
 3003SOL     OW 9907   1.053   5.663   0.445
 3003SOL    HW1 9908   0.997   5.590   0.484
 3003SOL    HW2 9909   0.998   5.718   0.382
 3004SOL     OW 9910   3.326   6.929   3.956
 3004SOL    HW1 9911   3.294   6.909   3.864
 3004SOL    HW2 9912   3.313   0.006   3.976
 3005SOL     OW 9913   2.761   1.743   0.424
 3005SOL    HW1 9914   2.704   1.710   0.348
 3005SOL    HW2 9915   2.781   1.840   0.410
 3006SOL     OW 9916   5.901   1.233   5.711
 3006SOL    HW1 9917   5.839   1.173   5.762
 3006SOL    HW2 9918   5.852   1.315   5.683
 3007SOL     OW 9919   6.149   5.719   5.725
 3007SOL    HW1 9920   6.070   5.668   5.691
 3007SOL    HW2 9921   6.128   5.755   5.816
 3008SOL     OW 9922   4.910   4.033   5.812
 3008SOL    HW1 9923   4.932   4.062   5.719
 3008SOL    HW2 9924   4.855   4.104   5.857
 3009SOL     OW 9925   5.578   3.195   2.125
 3009SOL    HW1 9926   5.664   3.190   2.177
 3009SOL    HW2 9927   5.589   3.145   2.039
 3010SOL     OW 9928   5.020   5.270   1.643
 3010SOL    HW1 9929   5.001   5.361   1.681
 3010SOL    HW2 9930   4.985   5.265   1.549
 3011SOL     OW 9931   5.596   6.909   0.375
 3011SOL    HW1 9932   5.599   6.859   0.289
 3011SOL    HW2 9933   5.506   6.895   0.418
 3012SOL     OW 9934   2.324   0.728   4.804
 3012SOL    HW1 9935   2.421   0.735   4.780
 3012SOL    HW2 9936   2.279   0.816   4.790
 3013SOL     OW 9937   1.004   5.056   5.393
 3013SOL    HW1 9938   1.089   5.108   5.398
 3013SOL    HW2 9939   0.926   5.118   5.402
 3014SOL     OW 9940   3.929   0.068   0.009
 3014SOL    HW1 9941   3.949   0.165   0.024
 3014SOL    HW2 9942   3.911   0.053   6.932
 3015SOL     OW 9943   2.473   6.994   5.984
 3015SOL    HW1 9944   2.501   0.050   5.926
 3015SOL    HW2 9945   2.427   6.925   5.929
 3016SOL     OW 9946   2.943   0.817   4.035
 3016SOL    HW1 9947   3.028   0.834   3.984
 3016SOL    HW2 9948   2.880   0.764   3.978
 3017SOL     OW 9949   0.766   6.037   0.038
 3017SOL    HW1 9950   0.697   6.108   0.027
 3017SOL    HW2 9951   0.843   6.056   6.999
 3018SOL     OW 9952   3.215   2.115   1.451
 3018SOL    HW1 9953   3.262   2.174   1.515
 3018SOL    HW2 9954   3.236   2.019   1.471
 3019SOL     OW 9955   1.272   0.515   5.245
 3019SOL    HW1 9956   1.361   0.525   5.291
 3019SOL    HW2 9957   1.237   0.423   5.260
 3020SOL     OW 9958   4.825   4.999   0.044
 3020SOL    HW1 9959   4.890   4.946   0.098
 3020SOL    HW2 9960   4.835   5.097   0.065
 3021SOL     OW 9961   4.951   6.607   4.477
 3021SOL    HW1 9962   4.967   6.691   4.529
 3021SOL    HW2 9963   4.854   6.601   4.454
 3022SOL     OW 9964   4.734   6.864   4.481
 3022SOL    HW1 9965   4.817   6.916   4.503
 3022SOL    HW2 9966   4.666   6.877   4.553
 3023SOL     OW 9967   5.293   4.703   5.419
 3023SOL    HW1 9968   5.274   4.608   5.441
 3023SOL    HW2 9969   5.328   4.710   5.326
 3024SOL     OW 9970   6.841   1.211   0.494
 3024SOL    HW1 9971   6.794   1.143   0.438
 3024SOL    HW2 9972   6.904   1.263   0.437
 3025SOL     OW 9973   3.879   5.233   0.782
 3025SOL    HW1 9974   3.888   5.325   0.819
 3025SOL    HW2 9975   3.838   5.173   0.851
 3026SOL     OW 9976   0.215   0.442   2.143
 3026SOL    HW1 9977   0.240   0.346   2.159
 3026SOL    HW2 9978   0.213   0.490   2.231
 3027SOL     OW 9979   3.944   6.692   1.080
 3027SOL    HW1 9980   3.898   6.780   1.068
 3027SOL    HW2 9981   3.892   6.621   1.032
 3028SOL     OW 9982   3.716   3.092   4.563
 3028SOL    HW1 9983   3.762   3.059   4.481
 3028SOL    HW2 9984   3.770   3.067   4.644
 3029SOL     OW 9985   0.370   2.626   5.204
 3029SOL    HW1 9986   0.450   2.593   5.153
 3029SOL    HW2 9987   0.317   2.549   5.238
 3030SOL     OW 9988   1.243   2.885   6.196
 3030SOL    HW1 9989   1.268   2.790   6.214
 3030SOL    HW2 9990   1.148   2.889   6.165
 3031SOL     OW 9991   0.774   4.869   0.025
 3031SOL    HW1 9992   0.815   4.780   0.043
 3031SOL    HW2 9993   0.676   4.866   0.042
 3032SOL     OW 9994   3.281   6.828   3.695
 3032SOL    HW1 9995   3.330   6.909   3.662
 3032SOL    HW2 9996   3.269   6.763   3.620
 3033SOL     OW 9997   1.581   1.419   6.489
 3033SOL    HW1 9998   1.557   1.383   6.399
 3033SOL    HW2 9999   1.549   1.513   6.498
 3034SOL     OW10000   5.356   3.572   3.605
 3034SOL    HW110001   5.349   3.668   3.634
 3034SOL    HW210002   5.287   3.518   3.653
 3035SOL     OW10003   6.809   3.696   6.901
 3035SOL    HW110004   6.767   3.746   6.977
 3035SOL    HW210005   6.888   3.748   6.867
 3036SOL     OW10006   3.563   2.281   5.964
 3036SOL    HW110007   3.587   2.186   5.941
 3036SOL    HW210008   3.476   2.304   5.922
 3037SOL     OW10009   0.783   4.683   6.306
 3037SOL    HW110010   0.744   4.629   6.381
 3037SOL    HW210011   0.772   4.633   6.220
 3038SOL     OW10012   6.034   4.612   5.474
 3038SOL    HW110013   5.999   4.540   5.415
 3038SOL    HW210014   6.040   4.578   5.568
 3039SOL     OW10015   5.505   3.264   6.225
 3039SOL    HW110016   5.519   3.188   6.162
 3039SOL    HW210017   5.592   3.289   6.266
 3040SOL     OW10018   3.512   6.312   6.128
 3040SOL    HW110019   3.475   6.293   6.219
 3040SOL    HW210020   3.539   6.408   6.123
 3041SOL     OW10021   2.241   5.511   6.726
 3041SOL    HW110022   2.158   5.481   6.679
 3041SOL    HW210023   2.250   5.460   6.812
 3042SOL     OW10024   6.950   5.021   4.355
 3042SOL    HW110025   6.856   5.029   4.320
 3042SOL    HW210026   7.009   5.085   4.307
 3043SOL     OW10027   3.308   4.252   1.422
 3043SOL    HW110028   3.388   4.291   1.467
 3043SOL    HW210029   3.299   4.290   1.330
 3044SOL     OW10030   3.894   3.511   4.712
 3044SOL    HW110031   3.850   3.491   4.624
 3044SOL    HW210032   3.980   3.559   4.695
 3045SOL     OW10033   5.284   1.143   2.646
 3045SOL    HW110034   5.291   1.233   2.605
 3045SOL    HW210035   5.312   1.147   2.741
 3046SOL     OW10036   5.979   5.325   1.061
 3046SOL    HW110037   5.952   5.399   1.001
 3046SOL    HW210038   5.989   5.359   1.155
 3047SOL     OW10039   5.852   1.832   4.039
 3047SOL    HW110040   5.773   1.802   4.092
 3047SOL    HW210041   5.925   1.860   4.101
 3048SOL     OW10042   4.227   4.768   1.654
 3048SOL    HW110043   4.158   4.747   1.724
 3048SOL    HW210044   4.184   4.766   1.564
 3049SOL     OW10045   0.272   1.727   2.081
 3049SOL    HW110046   0.297   1.770   2.168
 3049SOL    HW210047   0.273   1.628   2.092
 3050SOL     OW10048   3.483   2.253   6.422
 3050SOL    HW110049   3.539   2.170   6.426
 3050SOL    HW210050   3.430   2.253   6.337
 3051SOL     OW10051   2.524   5.524   5.996
 3051SOL    HW110052   2.517   5.608   6.051
 3051SOL    HW210053   2.449   5.522   5.930
 3052SOL     OW10054   5.990   6.132   3.421
 3052SOL    HW110055   6.080   6.157   3.386
 3052SOL    HW210056   5.921   6.151   3.351
 3053SOL     OW10057   0.710   4.519   6.498
 3053SOL    HW110058   0.619   4.486   6.472
 3053SOL    HW210059   0.778   4.449   6.477
 3054SOL     OW10060   5.903   0.054   3.023
 3054SOL    HW110061   5.826   0.081   3.082
 3054SOL    HW210062   5.899   0.105   2.937
 3055SOL     OW10063   4.803   6.599   0.389
 3055SOL    HW110064   4.741   6.563   0.459
 3055SOL    HW210065   4.802   6.698   0.390
 3056SOL     OW10066   4.569   1.753   0.931
 3056SOL    HW110067   4.599   1.756   0.836
 3056SOL    HW210068   4.649   1.755   0.992
 3057SOL     OW10069   6.456   3.544   3.541
 3057SOL    HW110070   6.507   3.509   3.620
 3057SOL    HW210071   6.499   3.628   3.508
 3058SOL     OW10072   0.036   4.649   6.035
 3058SOL    HW110073   0.099   4.723   6.059
 3058SOL    HW210074   6.979   4.650   6.098
 3059SOL     OW10075   1.302   2.576   3.085
 3059SOL    HW110076   1.354   2.600   3.167
 3059SOL    HW210077   1.352   2.605   3.004
 3060SOL     OW10078   5.572   3.529   3.090
 3060SOL    HW110079   5.579   3.437   3.050
 3060SOL    HW210080   5.638   3.589   3.045
 3061SOL     OW10081   6.032   6.359   2.600
 3061SOL    HW110082   6.129   6.358   2.624
 3061SOL    HW210083   5.978   6.367   2.684
 3062SOL     OW10084   3.784   5.020   1.244
 3062SOL    HW110085   3.827   5.066   1.322
 3062SOL    HW210086   3.823   4.928   1.235
 3063SOL     OW10087   6.709   4.672   0.316
 3063SOL    HW110088   6.711   4.654   0.414
 3063SOL    HW210089   6.658   4.600   0.270
 3064SOL     OW10090   4.794   1.757   6.353
 3064SOL    HW110091   4.873   1.776   6.294
 3064SOL    HW210092   4.775   1.658   6.352
 3065SOL     OW10093   5.421   1.002   6.384
 3065SOL    HW110094   5.368   1.016   6.468
 3065SOL    HW210095   5.360   1.005   6.305
 3066SOL     OW10096   5.336   0.130   5.879
 3066SOL    HW110097   5.402   0.193   5.921
 3066SOL    HW210098   5.249   0.136   5.928
 3067SOL     OW10099   1.473   1.861   4.784
 3067SOL    HW110100   1.564   1.830   4.757
 3067SOL    HW210101   1.404   1.818   4.726
 3068SOL     OW10102   5.820   0.327   0.876
 3068SOL    HW110103   5.845   0.350   0.782
 3068SOL    HW210104   5.889   0.363   0.938
 3069SOL     OW10105   5.507   6.001   3.845
 3069SOL    HW110106   5.570   5.980   3.921
 3069SOL    HW210107   5.556   6.054   3.776
 3070SOL     OW10108   2.635   1.250   1.015
 3070SOL    HW110109   2.640   1.151   1.010
 3070SOL    HW210110   2.666   1.290   0.928
 3071SOL     OW10111   5.628   4.624   5.228
 3071SOL    HW110112   5.635   4.583   5.319
 3071SOL    HW210113   5.688   4.704   5.223
 3072SOL     OW10114   1.543   6.793   5.273
 3072SOL    HW110115   1.580   6.799   5.365
 3072SOL    HW210116   1.616   6.808   5.206
 3073SOL     OW10117   6.748   5.540   2.424
 3073SOL    HW110118   6.724   5.451   2.385
 3073SOL    HW210119   6.815   5.585   2.366
 3074SOL     OW10120   3.134   2.863   1.693
 3074SOL    HW110121   3.169   2.890   1.604
 3074SOL    HW210122   3.206   2.874   1.762
 3075SOL     OW10123   3.771   5.025   1.654
 3075SOL    HW110124   3.736   5.038   1.561
 3075SOL    HW210125   3.764   4.929   1.679
 3076SOL     OW10126   2.024   1.701   3.952
 3076SOL    HW110127   1.989   1.696   3.858
 3076SOL    HW210128   2.059   1.793   3.969
 3077SOL     OW10129   0.189   3.626   1.964
 3077SOL    HW110130   0.260   3.594   1.901
 3077SOL    HW210131   0.202   3.583   2.054
 3078SOL     OW10132   0.133   3.824   1.741
 3078SOL    HW110133   0.070   3.773   1.682
 3078SOL    HW210134   0.222   3.779   1.743
 3079SOL     OW10135   1.602   4.005   4.004
 3079SOL    HW110136   1.606   4.050   4.093
 3079SOL    HW210137   1.526   4.042   3.951
 3080SOL     OW10138   3.770   4.752   1.701
 3080SOL    HW110139   3.732   4.720   1.614
 3080SOL    HW210140   3.696   4.760   1.768
 3081SOL     OW10141   2.395   2.808   5.881
 3081SOL    HW110142   2.419   2.837   5.789
 3081SOL    HW210143   2.297   2.824   5.897
 3082SOL     OW10144   5.342   3.867   5.292
 3082SOL    HW110145   5.433   3.827   5.287
 3082SOL    HW210146   5.275   3.801   5.256
 3083SOL     OW10147   4.002   5.743   1.347
 3083SOL    HW110148   4.041   5.835   1.349
 3083SOL    HW210149   4.017   5.699   1.436
 3084SOL     OW10150   0.108   5.133   4.196
 3084SOL    HW110151   0.182   5.200   4.199
 3084SOL    HW210152   0.085   5.113   4.100
 3085SOL     OW10153   6.346   5.869   0.141
 3085SOL    HW110154   6.374   5.924   0.063
 3085SOL    HW210155   6.422   5.860   0.205
 3086SOL     OW10156   6.110   6.793   6.675
 3086SOL    HW110157   6.021   6.748   6.671
 3086SOL    HW210158   6.133   6.813   6.770
 3087SOL     OW10159   3.104   0.187   2.322
 3087SOL    HW110160   3.153   0.270   2.296
 3087SOL    HW210161   3.012   0.210   2.352
 3088SOL     OW10162   2.538   3.638   5.476
 3088SOL    HW110163   2.473   3.665   5.405
 3088SOL    HW210164   2.574   3.547   5.454
 3089SOL     OW10165   4.052   6.534   6.545
 3089SOL    HW110166   4.137   6.583   6.523
 3089SOL    HW210167   3.991   6.595   6.595
 3090SOL     OW10168   1.302   2.382   2.564
 3090SOL    HW110169   1.348   2.352   2.481
 3090SOL    HW210170   1.301   2.307   2.631
 3091SOL     OW10171   1.111   2.329   0.013
 3091SOL    HW110172   1.181   2.396   7.005
 3091SOL    HW210173   1.029   2.342   6.978
 3092SOL     OW10174   5.615   1.267   2.755
 3092SOL    HW110175   5.668   1.277   2.839
 3092SOL    HW210176   5.562   1.182   2.759
 3093SOL     OW10177   6.348   5.360   6.507
 3093SOL    HW110178   6.364   5.418   6.587
 3093SOL    HW210179   6.403   5.395   6.431
 3094SOL     OW10180   2.096   1.491   6.222
 3094SOL    HW110181   2.140   1.417   6.272
 3094SOL    HW210182   2.045   1.454   6.145
 3095SOL     OW10183   1.528   3.805   4.898
 3095SOL    HW110184   1.614   3.759   4.873
 3095SOL    HW210185   1.507   3.875   4.830
 3096SOL     OW10186   1.655   2.768   4.220
 3096SOL    HW110187   1.560   2.757   4.248
 3096SOL    HW210188   1.689   2.856   4.252
 3097SOL     OW10189   5.221   2.958   5.794
 3097SOL    HW110190   5.134   3.001   5.821
 3097SOL    HW210191   5.208   2.859   5.789
 3098SOL     OW10192   1.737   3.317   2.442
 3098SOL    HW110193   1.674   3.239   2.445
 3098SOL    HW210194   1.713   3.382   2.514
 3099SOL     OW10195   1.038   6.655   5.368
 3099SOL    HW110196   1.120   6.700   5.402
 3099SOL    HW210197   0.958   6.692   5.416
 3100SOL     OW10198   6.170   4.704   2.414
 3100SOL    HW110199   6.134   4.779   2.469
 3100SOL    HW210200   6.177   4.734   2.319
 3101SOL     OW10201   4.867   0.206   4.752
 3101SOL    HW110202   4.792   0.261   4.788
 3101SOL    HW210203   4.847   0.109   4.764
 3102SOL     OW10204   5.719   4.760   2.242
 3102SOL    HW110205   5.813   4.743   2.213
 3102SOL    HW210206   5.716   4.768   2.341
 3103SOL     OW10207   1.430   2.271   2.328
 3103SOL    HW110208   1.525   2.244   2.345
 3103SOL    HW210209   1.393   2.217   2.253
 3104SOL     OW10210   5.553   2.242   5.241
 3104SOL    HW110211   5.477   2.304   5.219
 3104SOL    HW210212   5.521   2.169   5.301
 3105SOL     OW10213   5.163   4.067   0.591
 3105SOL    HW110214   5.080   4.054   0.644
 3105SOL    HW210215   5.147   4.041   0.496
 3106SOL     OW10216   5.233   2.001   6.296
 3106SOL    HW110217   5.321   2.048   6.298
 3106SOL    HW210218   5.174   2.043   6.226
 3107SOL     OW10219   4.025   2.081   4.503
 3107SOL    HW110220   3.963   2.034   4.566
 3107SOL    HW210221   4.015   2.043   4.411
 3108SOL     OW10222   1.839   4.337   3.596
 3108SOL    HW110223   1.924   4.387   3.609
 3108SOL    HW210224   1.761   4.398   3.611
 3109SOL     OW10225   6.880   5.875   3.080
 3109SOL    HW110226   6.786   5.869   3.112
 3109SOL    HW210227   6.898   5.800   3.016
 3110SOL     OW10228   1.105   5.788   4.203
 3110SOL    HW110229   1.148   5.779   4.293
 3110SOL    HW210230   1.099   5.885   4.179
 3111SOL     OW10231   6.371   4.255   3.497
 3111SOL    HW110232   6.411   4.294   3.414
 3111SOL    HW210233   6.442   4.242   3.566
 3112SOL     OW10234   4.102   0.761   0.223
 3112SOL    HW110235   4.182   0.743   0.280
 3112SOL    HW210236   4.020   0.761   0.280
 3113SOL     OW10237   1.284   0.223   3.334
 3113SOL    HW110238   1.360   0.284   3.357
 3113SOL    HW210239   1.311   0.162   3.259
 3114SOL     OW10240   4.768   5.815   5.299
 3114SOL    HW110241   4.820   5.731   5.286
 3114SOL    HW210242   4.825   5.893   5.274
 3115SOL     OW10243   4.653   5.293   4.399
 3115SOL    HW110244   4.722   5.290   4.472
 3115SOL    HW210245   4.572   5.341   4.432
 3116SOL     OW10246   1.230   1.974   6.069
 3116SOL    HW110247   1.189   2.021   6.147
 3116SOL    HW210248   1.313   2.023   6.041
 3117SOL     OW10249   3.743   0.124   1.099
 3117SOL    HW110250   3.736   0.208   1.046
 3117SOL    HW210251   3.707   0.138   1.191
 3118SOL     OW10252   0.571   1.905   3.741
 3118SOL    HW110253   0.601   1.814   3.713
 3118SOL    HW210254   0.628   1.974   3.696
 3119SOL     OW10255   4.760   6.121   3.836
 3119SOL    HW110256   4.849   6.103   3.795
 3119SOL    HW210257   4.709   6.035   3.845
 3120SOL     OW10258   2.996   5.713   0.211
 3120SOL    HW110259   3.077   5.763   0.180
 3120SOL    HW210260   3.023   5.639   0.271
 3121SOL     OW10261   4.135   2.178   3.728
 3121SOL    HW110262   4.202   2.235   3.681
 3121SOL    HW210263   4.179   2.093   3.758
 3122SOL     OW10264   5.837   4.095   5.966
 3122SOL    HW110265   5.770   4.021   5.954
 3122SOL    HW210266   5.921   4.058   6.005
 3123SOL     OW10267   2.025   2.240   2.783
 3123SOL    HW110268   2.092   2.260   2.712
 3123SOL    HW210269   2.018   2.318   2.845
 3124SOL     OW10270   5.056   6.533   5.386
 3124SOL    HW110271   4.957   6.540   5.400
 3124SOL    HW210272   5.099   6.621   5.409
 3125SOL     OW10273   1.367   1.265   5.263
 3125SOL    HW110274   1.300   1.193   5.278
 3125SOL    HW210275   1.413   1.287   5.349
 3126SOL     OW10276   4.796   4.350   5.704
 3126SOL    HW110277   4.717   4.384   5.653
 3126SOL    HW210278   4.767   4.319   5.794
 3127SOL     OW10279   6.306   1.620   5.387
 3127SOL    HW110280   6.341   1.597   5.296
 3127SOL    HW210281   6.286   1.536   5.437
 3128SOL     OW10282   3.642   0.882   1.021
 3128SOL    HW110283   3.625   0.898   1.119
 3128SOL    HW210284   3.602   0.957   0.968
 3129SOL     OW10285   4.212   4.250   0.276
 3129SOL    HW110286   4.251   4.169   0.234
 3129SOL    HW210287   4.285   4.315   0.297
 3130SOL     OW10288   0.386   5.920   1.719
 3130SOL    HW110289   0.397   6.006   1.768
 3130SOL    HW210290   0.426   5.845   1.773
 3131SOL     OW10291   7.010   3.023   2.762
 3131SOL    HW110292   6.959   3.084   2.822
 3131SOL    HW210293   0.046   3.077   2.700
 3132SOL     OW10294   4.821   4.547   6.977
 3132SOL    HW110295   4.894   4.483   6.956
 3132SOL    HW210296   4.734   4.498   6.984
 3133SOL     OW10297   5.304   6.459   3.410
 3133SOL    HW110298   5.300   6.364   3.442
 3133SOL    HW210299   5.237   6.473   3.338
 3134SOL     OW10300   5.268   4.543   3.158
 3134SOL    HW110301   5.235   4.501   3.073
 3134SOL    HW210302   5.358   4.507   3.180
 3135SOL     OW10303   3.665   0.236   6.656
 3135SOL    HW110304   3.757   0.270   6.676
 3135SOL    HW210305   3.668   0.179   6.574
 3136SOL     OW10306   6.436   6.849   2.730
 3136SOL    HW110307   6.518   6.906   2.737
 3136SOL    HW210308   6.429   6.790   2.811
 3137SOL     OW10309   4.052   5.742   0.006
 3137SOL    HW110310   3.956   5.747   0.034
 3137SOL    HW210311   4.064   5.666   6.963
 3138SOL     OW10312   6.902   6.507   4.925
 3138SOL    HW110313   6.936   6.541   5.013
 3138SOL    HW210314   6.824   6.562   4.896
 3139SOL     OW10315   1.536   5.202   1.748
 3139SOL    HW110316   1.469   5.258   1.796
 3139SOL    HW210317   1.581   5.141   1.813
 3140SOL     OW10318   5.627   6.054   0.026
 3140SOL    HW110319   5.597   6.120   6.977
 3140SOL    HW210320   5.670   5.976   7.001
 3141SOL     OW10321   5.758   1.201   6.562
 3141SOL    HW110322   5.825   1.273   6.576
 3141SOL    HW210323   5.731   1.163   6.651
 3142SOL     OW10324   4.956   1.043   3.723
 3142SOL    HW110325   4.892   1.036   3.800
 3142SOL    HW210326   5.010   1.127   3.733
 3143SOL     OW10327   0.120   1.288   0.695
 3143SOL    HW110328   0.209   1.306   0.653
 3143SOL    HW210329   0.048   1.318   0.634
 3144SOL     OW10330   3.820   4.986   6.798
 3144SOL    HW110331   3.847   5.003   6.893
 3144SOL    HW210332   3.888   4.927   6.754
 3145SOL     OW10333   1.043   5.361   6.435
 3145SOL    HW110334   1.108   5.370   6.360
 3145SOL    HW210335   0.950   5.357   6.399
 3146SOL     OW10336   6.338   2.403   4.710
 3146SOL    HW110337   6.424   2.355   4.697
 3146SOL    HW210338   6.345   2.494   4.669
 3147SOL     OW10339   4.332   0.148   0.769
 3147SOL    HW110340   4.383   0.215   0.714
 3147SOL    HW210341   4.238   0.144   0.736
 3148SOL     OW10342   6.678   4.708   0.625
 3148SOL    HW110343   6.778   4.702   0.619
 3148SOL    HW210344   6.653   4.803   0.644
 3149SOL     OW10345   3.905   3.048   0.310
 3149SOL    HW110346   3.831   3.095   0.261
 3149SOL    HW210347   3.961   2.997   0.245
 3150SOL     OW10348   0.287   0.338   5.357
 3150SOL    HW110349   0.245   0.380   5.276
 3150SOL    HW210350   0.296   0.240   5.342
 3151SOL     OW10351   0.047   0.587   5.708
 3151SOL    HW110352   0.059   0.680   5.675
 3151SOL    HW210353   0.135   0.547   5.732
 3152SOL     OW10354   2.328   2.170   5.573
 3152SOL    HW110355   2.419   2.196   5.541
 3152SOL    HW210356   2.304   2.080   5.537
 3153SOL     OW10357   5.788   5.563   1.841
 3153SOL    HW110358   5.782   5.481   1.898
 3153SOL    HW210359   5.780   5.644   1.899
 3154SOL     OW10360   3.663   2.210   0.787
 3154SOL    HW110361   3.709   2.272   0.851
 3154SOL    HW210362   3.664   2.250   0.695
 3155SOL     OW10363   0.253   4.953   6.600
 3155SOL    HW110364   0.275   4.908   6.687
 3155SOL    HW210365   0.214   4.886   6.537
 3156SOL     OW10366   3.722   4.399   1.144
 3156SOL    HW110367   3.645   4.450   1.182
 3156SOL    HW210368   3.688   4.314   1.104
 3157SOL     OW10369   1.458   1.012   4.186
 3157SOL    HW110370   1.385   1.040   4.249
 3157SOL    HW210371   1.546   1.019   4.232
 3158SOL     OW10372   2.641   0.405   6.030
 3158SOL    HW110373   2.708   0.474   6.003
 3158SOL    HW210374   2.683   0.342   6.096
 3159SOL     OW10375   4.887   6.980   1.657
 3159SOL    HW110376   4.788   6.966   1.658
 3159SOL    HW210377   4.913   0.015   1.577
 3160SOL     OW10378   1.837   0.898   5.161
 3160SOL    HW110379   1.870   0.811   5.124
 3160SOL    HW210380   1.740   0.908   5.139
 3161SOL     OW10381   1.496   2.654   2.195
 3161SOL    HW110382   1.466   2.563   2.166
 3161SOL    HW210383   1.596   2.658   2.192
 3162SOL     OW10384   1.155   5.842   1.480
 3162SOL    HW110385   1.106   5.758   1.502
 3162SOL    HW210386   1.251   5.821   1.465
 3163SOL     OW10387   4.689   4.359   1.023
 3163SOL    HW110388   4.787   4.360   1.001
 3163SOL    HW210389   4.661   4.449   1.055
 3164SOL     OW10390   2.482   6.820   4.276
 3164SOL    HW110391   2.396   6.776   4.249
 3164SOL    HW210392   2.534   6.841   4.194
 3165SOL     OW10393   0.641   6.447   6.565
 3165SOL    HW110394   0.618   6.494   6.480
 3165SOL    HW210395   0.729   6.400   6.554
 3166SOL     OW10396   4.332   1.887   4.268
 3166SOL    HW110397   4.392   1.827   4.320
 3166SOL    HW210398   4.278   1.832   4.203
 3167SOL     OW10399   5.995   2.777   1.492
 3167SOL    HW110400   5.916   2.826   1.455
 3167SOL    HW210401   6.023   2.705   1.429
 3168SOL     OW10402   5.595   1.007   0.620
 3168SOL    HW110403   5.674   0.946   0.618
 3168SOL    HW210404   5.623   1.099   0.593
 3169SOL     OW10405   1.113   4.052   1.949
 3169SOL    HW110406   1.167   4.111   1.889
 3169SOL    HW210407   1.024   4.095   1.966
 3170SOL     OW10408   2.231   4.204   3.479
 3170SOL    HW110409   2.164   4.269   3.513
 3170SOL    HW210410   2.319   4.249   3.469
 3171SOL     OW10411   5.301   1.020   4.778
 3171SOL    HW110412   5.261   1.058   4.694
 3171SOL    HW210413   5.275   1.077   4.856
 3172SOL     OW10414   5.957   4.329   1.160
 3172SOL    HW110415   5.902   4.252   1.193
 3172SOL    HW210416   6.001   4.374   1.238
 3173SOL     OW10417   5.608   2.919   0.593
 3173SOL    HW110418   5.582   2.956   0.503
 3173SOL    HW210419   5.536   2.858   0.626
 3174SOL     OW10420   3.807   2.745   6.664
 3174SOL    HW110421   3.809   2.650   6.632
 3174SOL    HW210422   3.887   2.762   6.723
 3175SOL     OW10423   6.090   6.567   5.325
 3175SOL    HW110424   6.153   6.496   5.357
 3175SOL    HW210425   6.001   6.525   5.304
 3176SOL     OW10426   0.388   5.121   4.088
 3176SOL    HW110427   0.424   5.048   4.030
 3176SOL    HW210428   0.415   5.105   4.183
 3177SOL     OW10429   4.862   3.031   3.513
 3177SOL    HW110430   4.903   2.983   3.591
 3177SOL    HW210431   4.897   3.125   3.509
 3178SOL     OW10432   0.966   0.495   2.733
 3178SOL    HW110433   1.037   0.453   2.676
 3178SOL    HW210434   0.881   0.443   2.726
 3179SOL     OW10435   0.921   3.129   2.467
 3179SOL    HW110436   0.952   3.183   2.390
 3179SOL    HW210437   0.867   3.051   2.434
 3180SOL     OW10438   6.433   6.698   6.700
 3180SOL    HW110439   6.389   6.759   6.765
 3180SOL    HW210440   6.529   6.723   6.691
 3181SOL     OW10441   0.622   6.034   5.040
 3181SOL    HW110442   0.644   5.982   4.958
 3181SOL    HW210443   0.683   6.006   5.115
 3182SOL     OW10444   1.347   6.860   1.446
 3182SOL    HW110445   1.272   6.857   1.512
 3182SOL    HW210446   1.343   6.945   1.395
 3183SOL     OW10447   4.050   3.348   1.048
 3183SOL    HW110448   4.093   3.357   1.138
 3183SOL    HW210449   4.110   3.297   0.987
 3184SOL     OW10450   6.343   1.371   4.357
 3184SOL    HW110451   6.441   1.381   4.376
 3184SOL    HW210452   6.328   1.363   4.259
 3185SOL     OW10453   0.595   6.255   5.961
 3185SOL    HW110454   0.569   6.278   5.867
 3185SOL    HW210455   0.581   6.158   5.976
 3186SOL     OW10456   0.676   2.985   5.993
 3186SOL    HW110457   0.586   2.970   5.952
 3186SOL    HW210458   0.745   2.988   5.921
 3187SOL     OW10459   5.057   6.875   2.934
 3187SOL    HW110460   5.136   6.830   2.894
 3187SOL    HW210461   5.072   6.974   2.936
 3188SOL     OW10462   1.645   6.769   0.857
 3188SOL    HW110463   1.653   6.829   0.936
 3188SOL    HW210464   1.549   6.743   0.844
 3189SOL     OW10465   2.697   1.548   6.313
 3189SOL    HW110466   2.635   1.624   6.333
 3189SOL    HW210467   2.773   1.581   6.258
 3190SOL     OW10468   5.861   6.220   3.630
 3190SOL    HW110469   5.914   6.247   3.711
 3190SOL    HW210470   5.922   6.188   3.558
 3191SOL     OW10471   3.571   5.223   1.716
 3191SOL    HW110472   3.594   5.127   1.733
 3191SOL    HW210473   3.472   5.231   1.704
 3192SOL     OW10474   5.044   1.043   2.609
 3192SOL    HW110475   5.058   0.983   2.529
 3192SOL    HW210476   5.133   1.069   2.646
 3193SOL     OW10477   3.346   5.566   5.361
 3193SOL    HW110478   3.422   5.592   5.422
 3193SOL    HW210479   3.287   5.645   5.346
 3194SOL     OW10480   1.862   6.861   5.554
 3194SOL    HW110481   1.763   6.875   5.556
 3194SOL    HW210482   1.905   6.922   5.621
 3195SOL     OW10483   0.652   0.170   0.669
 3195SOL    HW110484   0.701   0.249   0.631
 3195SOL    HW210485   0.554   0.191   0.673
 3196SOL     OW10486   6.085   6.721   2.726
 3196SOL    HW110487   6.019   6.722   2.802
 3196SOL    HW210488   6.177   6.705   2.762
 3197SOL     OW10489   2.715   0.532   6.968
 3197SOL    HW110490   2.769   0.593   0.006
 3197SOL    HW210491   2.634   0.580   6.935
 3198SOL     OW10492   5.512   2.730   3.927
 3198SOL    HW110493   5.436   2.777   3.972
 3198SOL    HW210494   5.478   2.648   3.881
 3199SOL     OW10495   4.866   3.865   3.207
 3199SOL    HW110496   4.913   3.804   3.143
 3199SOL    HW210497   4.830   3.812   3.284
 3200SOL     OW10498   5.645   3.748   4.822
 3200SOL    HW110499   5.695   3.826   4.860
 3200SOL    HW210500   5.710   3.680   4.789
 3201SOL     OW10501   6.056   4.318   2.117
 3201SOL    HW110502   6.037   4.323   2.019
 3201SOL    HW210503   6.074   4.223   2.143
 3202SOL     OW10504   2.560   2.860   6.447
 3202SOL    HW110505   2.575   2.820   6.356
 3202SOL    HW210506   2.635   2.833   6.508
 3203SOL     OW10507   2.946   6.916   1.863
 3203SOL    HW110508   2.939   7.013   1.883
 3203SOL    HW210509   3.016   6.874   1.921
 3204SOL     OW10510   4.208   0.734   3.931
 3204SOL    HW110511   4.161   0.799   3.872
 3204SOL    HW210512   4.191   0.641   3.898
 3205SOL     OW10513   4.530   3.065   6.011
 3205SOL    HW110514   4.453   3.090   6.070
 3205SOL    HW210515   4.495   3.020   5.929
 3206SOL     OW10516   2.921   4.474   1.156
 3206SOL    HW110517   2.877   4.500   1.242
 3206SOL    HW210518   2.891   4.382   1.130
 3207SOL     OW10519   2.595   5.988   3.957
 3207SOL    HW110520   2.647   6.046   4.021
 3207SOL    HW210521   2.627   5.894   3.964
 3208SOL     OW10522   6.819   4.597   6.197
 3208SOL    HW110523   6.865   4.510   6.178
 3208SOL    HW210524   6.735   4.579   6.248
 3209SOL     OW10525   5.365   6.735   6.353
 3209SOL    HW110526   5.345   6.699   6.444
 3209SOL    HW210527   5.311   6.686   6.285
 3210SOL     OW10528   4.979   5.557   1.403
 3210SOL    HW110529   4.952   5.471   1.447
 3210SOL    HW210530   5.041   5.537   1.327
 3211SOL     OW10531   1.842   6.619   6.542
 3211SOL    HW110532   1.848   6.529   6.583
 3211SOL    HW210533   1.774   6.674   6.592
 3212SOL     OW10534   3.611   6.996   4.113
 3212SOL    HW110535   3.670   6.944   4.051
 3212SOL    HW210536   3.534   6.939   4.141
 3213SOL     OW10537   1.362   0.305   5.698
 3213SOL    HW110538   1.395   0.241   5.628
 3213SOL    HW210539   1.262   0.301   5.701
 3214SOL     OW10540   3.644   0.497   2.714
 3214SOL    HW110541   3.684   0.433   2.780
 3214SOL    HW210542   3.716   0.552   2.672
 3215SOL     OW10543   2.122   2.985   1.902
 3215SOL    HW110544   2.165   3.018   1.985
 3215SOL    HW210545   2.036   2.938   1.925
 3216SOL     OW10546   6.174   5.635   0.590
 3216SOL    HW110547   6.086   5.652   0.546
 3216SOL    HW210548   6.167   5.556   0.651
 3217SOL     OW10549   6.745   5.195   3.767
 3217SOL    HW110550   6.682   5.227   3.696
 3217SOL    HW210551   6.791   5.112   3.736
 3218SOL     OW10552   5.956   1.537   3.009
 3218SOL    HW110553   6.032   1.495   3.058
 3218SOL    HW210554   5.965   1.518   2.911
 3219SOL     OW10555   5.697   1.658   5.266
 3219SOL    HW110556   5.754   1.604   5.328
 3219SOL    HW210557   5.740   1.747   5.250
 3220SOL     OW10558   0.451   3.712   5.702
 3220SOL    HW110559   0.542   3.729   5.664
 3220SOL    HW210560   0.386   3.698   5.628
 3221SOL     OW10561   3.740   1.405   2.290
 3221SOL    HW110562   3.811   1.355   2.340
 3221SOL    HW210563   3.749   1.503   2.310
 3222SOL     OW10564   3.469   1.250   3.259
 3222SOL    HW110565   3.424   1.331   3.295
 3222SOL    HW210566   3.556   1.236   3.306
 3223SOL     OW10567   1.571   5.835   0.817
 3223SOL    HW110568   1.604   5.926   0.841
 3223SOL    HW210569   1.482   5.819   0.860
 3224SOL     OW10570   4.560   2.590   4.865
 3224SOL    HW110571   4.644   2.536   4.859
 3224SOL    HW210572   4.484   2.540   4.824
 3225SOL     OW10573   4.655   1.237   5.014
 3225SOL    HW110574   4.743   1.259   5.056
 3225SOL    HW210575   4.637   1.301   4.939
 3226SOL     OW10576   6.369   0.992   0.787
 3226SOL    HW110577   6.349   0.952   0.877
 3226SOL    HW210578   6.381   1.091   0.796
 3227SOL     OW10579   6.154   3.807   5.456
 3227SOL    HW110580   6.063   3.847   5.470
 3227SOL    HW210581   6.213   3.830   5.534
 3228SOL     OW10582   2.345   4.240   0.437
 3228SOL    HW110583   2.428   4.184   0.428
 3228SOL    HW210584   2.274   4.186   0.483
 3229SOL     OW10585   1.767   1.838   0.697
 3229SOL    HW110586   1.776   1.742   0.725
 3229SOL    HW210587   1.842   1.891   0.737
 3230SOL     OW10588   2.929   6.021   5.254
 3230SOL    HW110589   2.897   6.009   5.160
 3230SOL    HW210590   3.029   6.020   5.255
 3231SOL     OW10591   1.892   3.071   2.592
 3231SOL    HW110592   1.897   2.971   2.588
 3231SOL    HW210593   1.816   3.103   2.537
 3232SOL     OW10594   2.949   4.836   3.228
 3232SOL    HW110595   2.951   4.929   3.190
 3232SOL    HW210596   2.939   4.841   3.328
 3233SOL     OW10597   2.209   0.177   0.295
 3233SOL    HW110598   2.116   0.209   0.307
 3233SOL    HW210599   2.211   0.104   0.227
 3234SOL     OW10600   3.079   3.388   0.806
 3234SOL    HW110601   3.014   3.312   0.806
 3234SOL    HW210602   3.161   3.362   0.857
 3235SOL     OW10603   0.077   1.314   2.792
 3235SOL    HW110604   0.037   1.385   2.851
 3235SOL    HW210605   0.033   1.227   2.811
 3236SOL     OW10606   4.650   6.986   0.768
 3236SOL    HW110607   4.673   0.018   0.686
 3236SOL    HW210608   4.682   0.014   0.849
 3237SOL     OW10609   5.885   1.196   5.222
 3237SOL    HW110610   5.956   1.129   5.244
 3237SOL    HW210611   5.928   1.278   5.183
 3238SOL     OW10612   6.203   4.403   1.676
 3238SOL    HW110613   6.105   4.411   1.697
 3238SOL    HW210614   6.227   4.306   1.666
 3239SOL     OW10615   5.810   0.919   4.883
 3239SOL    HW110616   5.711   0.921   4.869
 3239SOL    HW210617   5.852   0.998   4.838
 3240SOL     OW10618   0.319   1.374   0.259
 3240SOL    HW110619   0.362   1.464   0.253
 3240SOL    HW210620   0.378   1.306   0.216
 3241SOL     OW10621   6.821   2.913   5.361
 3241SOL    HW110622   6.902   2.944   5.310
 3241SOL    HW210623   6.789   2.827   5.322
 3242SOL     OW10624   6.757   4.161   4.843
 3242SOL    HW110625   6.676   4.119   4.801
 3242SOL    HW210626   6.806   4.092   4.897
 3243SOL     OW10627   5.764   5.374   3.926
 3243SOL    HW110628   5.853   5.354   3.968
 3243SOL    HW210629   5.767   5.464   3.883
 3244SOL     OW10630   4.695   6.871   0.389
 3244SOL    HW110631   4.625   6.891   0.320
 3244SOL    HW210632   4.777   6.924   0.369
 3245SOL     OW10633   3.576   6.818   4.413
 3245SOL    HW110634   3.498   6.810   4.351
 3245SOL    HW210635   3.655   6.770   4.374
 3246SOL     OW10636   6.600   5.852   3.160
 3246SOL    HW110637   6.530   5.874   3.228
 3246SOL    HW210638   6.559   5.801   3.085
 3247SOL     OW10639   1.909   4.605   3.783
 3247SOL    HW110640   1.987   4.664   3.763
 3247SOL    HW210641   1.939   4.528   3.839
 3248SOL     OW10642   5.507   2.911   3.024
 3248SOL    HW110643   5.592   2.946   3.062
 3248SOL    HW210644   5.527   2.844   2.952
 3249SOL     OW10645   3.163   4.048   3.507
 3249SOL    HW110646   3.150   3.996   3.423
 3249SOL    HW210647   3.100   4.015   3.577
 3250SOL     OW10648   4.661   5.712   3.370
 3250SOL    HW110649   4.674   5.794   3.314
 3250SOL    HW210650   4.650   5.739   3.465
 3251SOL     OW10651   2.796   2.203   2.453
 3251SOL    HW110652   2.760   2.268   2.521
 3251SOL    HW210653   2.885   2.170   2.484
 3252SOL     OW10654   2.236   1.750   3.311
 3252SOL    HW110655   2.236   1.742   3.411
 3252SOL    HW210656   2.143   1.741   3.276
 3253SOL     OW10657   6.399   3.571   0.043
 3253SOL    HW110658   6.355   3.590   6.977
 3253SOL    HW210659   6.452   3.651   0.072
 3254SOL     OW10660   6.095   6.757   0.968
 3254SOL    HW110661   6.167   6.767   1.036
 3254SOL    HW210662   6.057   6.847   0.946
 3255SOL     OW10663   3.599   5.874   2.144
 3255SOL    HW110664   3.523   5.843   2.201
 3255SOL    HW210665   3.671   5.803   2.144
 3256SOL     OW10666   5.455   2.599   1.158
 3256SOL    HW110667   5.380   2.612   1.222
 3256SOL    HW210668   5.539   2.579   1.209
 3257SOL     OW10669   3.240   1.444   3.064
 3257SOL    HW110670   3.269   1.416   3.156
 3257SOL    HW210671   3.144   1.473   3.068
 3258SOL     OW10672   1.842   5.585   3.735
 3258SOL    HW110673   1.874   5.541   3.652
 3258SOL    HW210674   1.907   5.567   3.809
 3259SOL     OW10675   5.371   4.216   4.630
 3259SOL    HW110676   5.300   4.282   4.605
 3259SOL    HW210677   5.334   4.123   4.626
 3260SOL     OW10678   1.733   4.978   3.084
 3260SOL    HW110679   1.686   4.994   2.998
 3260SOL    HW210680   1.808   4.914   3.070
 3261SOL     OW10681   5.903   0.210   4.621
 3261SOL    HW110682   5.837   0.156   4.570
 3261SOL    HW210683   5.893   0.307   4.597
 3262SOL     OW10684   3.046   1.570   3.805
 3262SOL    HW110685   3.027   1.560   3.903
 3262SOL    HW210686   2.997   1.650   3.770
 3263SOL     OW10687   6.808   0.826   0.857
 3263SOL    HW110688   6.788   0.910   0.807
 3263SOL    HW210689   6.907   0.815   0.866
 3264SOL     OW10690   1.736   4.739   6.840
 3264SOL    HW110691   1.768   4.672   6.907
 3264SOL    HW210692   1.637   4.728   6.827
 3265SOL     OW10693   7.013   5.334   6.343
 3265SOL    HW110694   6.973   5.309   6.431
 3265SOL    HW210695   0.067   5.400   6.358
 3266SOL     OW10696   3.627   4.996   6.021
 3266SOL    HW110697   3.710   5.029   6.066
 3266SOL    HW210698   3.647   4.911   5.972
 3267SOL     OW10699   3.453   6.687   0.829
 3267SOL    HW110700   3.431   6.660   0.923
 3267SOL    HW210701   3.501   6.612   0.784
 3268SOL     OW10702   5.829   5.253   1.693
 3268SOL    HW110703   5.874   5.279   1.608
 3268SOL    HW210704   5.897   5.211   1.754
 3269SOL     OW10705   1.846   5.118   1.452
 3269SOL    HW110706   1.773   5.106   1.384
 3269SOL    HW210707   1.817   5.079   1.539
 3270SOL     OW10708   1.573   2.726   6.019
 3270SOL    HW110709   1.603   2.648   6.074
 3270SOL    HW210710   1.560   2.806   6.079
 3271SOL     OW10711   1.201   3.821   1.560
 3271SOL    HW110712   1.115   3.828   1.611
 3271SOL    HW210713   1.237   3.728   1.570
 3272SOL     OW10714   4.244   6.324   1.544
 3272SOL    HW110715   4.315   6.371   1.596
 3272SOL    HW210716   4.286   6.249   1.492
 3273SOL     OW10717   3.725   4.022   6.464
 3273SOL    HW110718   3.682   4.048   6.551
 3273SOL    HW210719   3.796   4.089   6.442
 3274SOL     OW10720   4.882   6.801   2.245
 3274SOL    HW110721   4.876   6.887   2.195
 3274SOL    HW210722   4.805   6.794   2.308
 3275SOL     OW10723   4.864   0.753   1.181
 3275SOL    HW110724   4.815   0.838   1.163
 3275SOL    HW210725   4.942   0.772   1.241
 3276SOL     OW10726   6.010   6.009   0.069
 3276SOL    HW110727   6.098   6.050   0.092
 3276SOL    HW210728   5.956   5.996   0.152
 3277SOL     OW10729   2.933   1.881   2.374
 3277SOL    HW110730   2.896   1.972   2.395
 3277SOL    HW210731   2.946   1.872   2.275
 3278SOL     OW10732   4.889   0.987   6.543
 3278SOL    HW110733   4.845   1.075   6.561
 3278SOL    HW210734   4.928   0.987   6.451
 3279SOL     OW10735   3.601   6.950   2.480
 3279SOL    HW110736   3.523   6.994   2.435
 3279SOL    HW210737   3.577   6.857   2.506
 3280SOL     OW10738   0.089   3.116   3.714
 3280SOL    HW110739   0.109   3.032   3.765
 3280SOL    HW210740   0.175   3.156   3.682
 3281SOL     OW10741   5.664   1.679   1.614
 3281SOL    HW110742   5.682   1.741   1.690
 3281SOL    HW210743   5.606   1.604   1.644
 3282SOL     OW10744   0.079   4.452   5.381
 3282SOL    HW110745   7.013   4.501   5.374
 3282SOL    HW210746   0.120   4.469   5.471
 3283SOL     OW10747   3.045   1.684   0.096
 3283SOL    HW110748   3.051   1.781   0.121
 3283SOL    HW210749   3.101   1.669   0.014
 3284SOL     OW10750   2.252   6.924   4.816
 3284SOL    HW110751   2.166   6.873   4.824
 3284SOL    HW210752   2.258   6.991   4.890
 3285SOL     OW10753   4.253   2.256   4.447
 3285SOL    HW110754   4.187   2.181   4.446
 3285SOL    HW210755   4.251   2.301   4.536
 3286SOL     OW10756   1.687   3.174   3.226
 3286SOL    HW110757   1.675   3.272   3.239
 3286SOL    HW210758   1.715   3.155   3.132
 3287SOL     OW10759   2.609   0.976   1.007
 3287SOL    HW110760   2.516   0.963   0.974
 3287SOL    HW210761   2.673   0.973   0.929
 3288SOL     OW10762   2.590   5.850   2.118
 3288SOL    HW110763   2.638   5.854   2.030
 3288SOL    HW210764   2.615   5.766   2.166
 3289SOL     OW10765   3.990   0.623   0.002
 3289SOL    HW110766   4.033   0.667   0.081
 3289SOL    HW210767   3.937   0.690   6.972
 3290SOL     OW10768   0.761   5.504   6.970
 3290SOL    HW110769   0.717   5.470   0.032
 3290SOL    HW210770   0.701   5.569   6.924
 3291SOL     OW10771   4.876   6.699   5.168
 3291SOL    HW110772   4.893   6.797   5.161
 3291SOL    HW210773   4.961   6.649   5.152
 3292SOL     OW10774   0.094   2.316   0.052
 3292SOL    HW110775   7.016   2.329   0.062
 3292SOL    HW210776   0.128   2.372   6.997
 3293SOL     OW10777   6.759   4.900   3.263
 3293SOL    HW110778   6.739   4.863   3.354
 3293SOL    HW210779   6.801   4.990   3.272
 3294SOL     OW10780   3.997   3.020   6.006
 3294SOL    HW110781   4.001   2.979   5.915
 3294SOL    HW210782   4.015   2.951   6.075
 3295SOL     OW10783   1.439   2.721   3.284
 3295SOL    HW110784   1.517   2.726   3.222
 3295SOL    HW210785   1.460   2.772   3.368
 3296SOL     OW10786   2.402   0.781   6.523
 3296SOL    HW110787   2.333   0.769   6.594
 3296SOL    HW210788   2.358   0.812   6.438
 3297SOL     OW10789   4.056   1.318   5.311
 3297SOL    HW110790   4.030   1.387   5.380
 3297SOL    HW210791   3.975   1.284   5.265
 3298SOL     OW10792   3.184   4.500   5.712
 3298SOL    HW110793   3.165   4.442   5.792
 3298SOL    HW210794   3.099   4.542   5.681
 3299SOL     OW10795   2.729   6.452   3.892
 3299SOL    HW110796   2.740   6.491   3.800
 3299SOL    HW210797   2.813   6.407   3.920
 3300SOL     OW10798   1.954   1.149   3.671
 3300SOL    HW110799   2.041   1.115   3.636
 3300SOL    HW210800   1.879   1.101   3.625
 3301SOL     OW10801   1.001   1.380   3.260
 3301SOL    HW110802   1.062   1.371   3.338
 3301SOL    HW210803   0.964   1.290   3.237
 3302SOL     OW10804   1.221   5.230   5.463
 3302SOL    HW110805   1.297   5.294   5.448
 3302SOL    HW210806   1.249   5.159   5.527
 3303SOL     OW10807   3.838   3.655   7.017
 3303SOL    HW110808   3.910   3.614   6.962
 3303SOL    HW210809   3.758   3.673   6.959
 3304SOL     OW10810   2.205   4.086   0.594
 3304SOL    HW110811   2.125   4.059   0.540
 3304SOL    HW210812   2.189   4.062   0.690
 3305SOL     OW10813   2.736   2.703   0.220
 3305SOL    HW110814   2.761   2.618   0.173
 3305SOL    HW210815   2.773   2.781   0.170
 3306SOL     OW10816   2.696   0.087   0.027
 3306SOL    HW110817   2.728   0.179   0.005
 3306SOL    HW210818   2.773   0.024   0.025
 3307SOL     OW10819   2.042   5.987   4.540
 3307SOL    HW110820   2.078   6.044   4.465
 3307SOL    HW210821   2.116   5.934   4.580
 3308SOL     OW10822   4.440   5.097   1.380
 3308SOL    HW110823   4.438   5.008   1.426
 3308SOL    HW210824   4.479   5.086   1.289
 3309SOL     OW10825   5.350   3.521   2.898
 3309SOL    HW110826   5.420   3.539   2.967
 3309SOL    HW210827   5.269   3.483   2.942
 3310SOL     OW10828   6.287   4.328   6.206
 3310SOL    HW110829   6.260   4.332   6.110
 3310SOL    HW210830   6.351   4.252   6.219
 3311SOL     OW10831   1.911   3.299   0.366
 3311SOL    HW110832   1.905   3.218   0.309
 3311SOL    HW210833   1.957   3.276   0.452
 3312SOL     OW10834   4.766   2.868   6.933
 3312SOL    HW110835   4.796   2.773   6.943
 3312SOL    HW210836   4.717   2.880   6.847
 3313SOL     OW10837   0.235   7.009   4.652
 3313SOL    HW110838   0.308   6.942   4.637
 3313SOL    HW210839   0.146   6.963   4.653
 3314SOL     OW10840   3.745   5.652   2.118
 3314SOL    HW110841   3.770   5.561   2.153
 3314SOL    HW210842   3.709   5.644   2.026
 3315SOL     OW10843   1.627   6.208   3.849
 3315SOL    HW110844   1.692   6.281   3.825
 3315SOL    HW210845   1.558   6.244   3.911
 3316SOL     OW10846   4.025   2.685   0.270
 3316SOL    HW110847   4.088   2.747   0.223
 3316SOL    HW210848   4.044   2.687   0.368
 3317SOL     OW10849   5.098   2.314   1.824
 3317SOL    HW110850   5.055   2.228   1.797
 3317SOL    HW210851   5.111   2.316   1.923
 3318SOL     OW10852   3.396   3.138   0.811
 3318SOL    HW110853   3.419   3.176   0.721
 3318SOL    HW210854   3.397   3.211   0.879
 3319SOL     OW10855   6.580   6.218   4.214
 3319SOL    HW110856   6.518   6.296   4.219
 3319SOL    HW210857   6.543   6.151   4.149
 3320SOL     OW10858   6.377   0.203   1.918
 3320SOL    HW110859   6.281   0.177   1.907
 3320SOL    HW210860   6.411   0.243   1.833
 3321SOL     OW10861   4.977   1.694   6.946
 3321SOL    HW110862   4.958   1.739   6.858
 3321SOL    HW210863   5.026   1.608   6.930
 3322SOL     OW10864   6.375   2.865   0.773
 3322SOL    HW110865   6.300   2.930   0.785
 3322SOL    HW210866   6.340   2.781   0.732
 3323SOL     OW10867   1.598   1.532   1.594
 3323SOL    HW110868   1.505   1.552   1.562
 3323SOL    HW210869   1.593   1.492   1.686
 3324SOL     OW10870   5.751   5.380   5.733
 3324SOL    HW110871   5.768   5.325   5.651
 3324SOL    HW210872   5.655   5.368   5.761
 3325SOL     OW10873   2.735   5.362   5.057
 3325SOL    HW110874   2.771   5.269   5.055
 3325SOL    HW210875   2.729   5.393   5.152
 3326SOL     OW10876   3.464   2.108   2.209
 3326SOL    HW110877   3.401   2.039   2.172
 3326SOL    HW210878   3.527   2.138   2.138
 3327SOL     OW10879   1.297   5.603   5.851
 3327SOL    HW110880   1.279   5.701   5.863
 3327SOL    HW210881   1.346   5.568   5.931
 3328SOL     OW10882   4.820   2.585   5.142
 3328SOL    HW110883   4.907   2.579   5.191
 3328SOL    HW210884   4.834   2.631   5.054
 3329SOL     OW10885   6.659   6.187   5.823
 3329SOL    HW110886   6.675   6.218   5.729
 3329SOL    HW210887   6.658   6.087   5.824
 3330SOL     OW10888   6.646   3.725   3.178
 3330SOL    HW110889   6.682   3.632   3.185
 3330SOL    HW210890   6.712   3.783   3.131
 3331SOL     OW10891   2.079   2.973   0.620
 3331SOL    HW110892   2.143   2.974   0.543
 3331SOL    HW210893   2.123   3.010   0.701
 3332SOL     OW10894   6.978   4.038   1.495
 3332SOL    HW110895   7.015   3.949   1.521
 3332SOL    HW210896   0.024   4.087   1.439
 3333SOL     OW10897   2.794   5.618   5.745
 3333SOL    HW110898   2.837   5.680   5.679
 3333SOL    HW210899   2.697   5.642   5.755
 3334SOL     OW10900   1.604   3.662   1.475
 3334SOL    HW110901   1.643   3.746   1.436
 3334SOL    HW210902   1.628   3.656   1.572
 3335SOL     OW10903   5.840   4.254   4.895
 3335SOL    HW110904   5.877   4.256   4.803
 3335SOL    HW210905   5.745   4.222   4.892
 3336SOL     OW10906   3.197   6.380   5.923
 3336SOL    HW110907   3.195   6.370   6.022
 3336SOL    HW210908   3.291   6.367   5.890
 3337SOL     OW10909   3.398   1.786   0.811
 3337SOL    HW110910   3.443   1.860   0.860
 3337SOL    HW210911   3.391   1.706   0.870
 3338SOL     OW10912   0.057   4.445   0.309
 3338SOL    HW110913   7.011   4.439   0.384
 3338SOL    HW210914   0.121   4.369   0.315
 3339SOL     OW10915   1.148   5.366   6.183
 3339SOL    HW110916   1.111   5.285   6.137
 3339SOL    HW210917   1.223   5.403   6.128
 3340SOL     OW10918   3.976   0.567   2.127
 3340SOL    HW110919   4.070   0.538   2.109
 3340SOL    HW210920   3.916   0.487   2.127
 3341SOL     OW10921   7.005   6.739   1.428
 3341SOL    HW110922   6.970   6.804   1.360
 3341SOL    HW210923   6.979   6.646   1.401
 3342SOL     OW10924   2.986   0.426   5.177
 3342SOL    HW110925   3.083   0.414   5.195
 3342SOL    HW210926   2.957   0.360   5.108
 3343SOL     OW10927   0.329   2.411   1.243
 3343SOL    HW110928   0.429   2.408   1.237
 3343SOL    HW210929   0.290   2.422   1.152
 3344SOL     OW10930   0.132   2.482   5.880
 3344SOL    HW110931   0.214   2.498   5.934
 3344SOL    HW210932   0.145   2.518   5.788
 3345SOL     OW10933   1.968   3.521   5.327
 3345SOL    HW110934   1.921   3.609   5.325
 3345SOL    HW210935   2.029   3.518   5.405
 3346SOL     OW10936   1.632   6.034   2.379
 3346SOL    HW110937   1.631   6.116   2.322
 3346SOL    HW210938   1.727   6.011   2.402
 3347SOL     OW10939   6.024   3.957   4.205
 3347SOL    HW110940   6.024   3.866   4.246
 3347SOL    HW210941   6.090   4.015   4.253
 3348SOL     OW10942   3.690   3.515   3.238
 3348SOL    HW110943   3.691   3.595   3.298
 3348SOL    HW210944   3.746   3.534   3.158
 3349SOL     OW10945   5.724   3.317   6.383
 3349SOL    HW110946   5.687   3.356   6.467
 3349SOL    HW210947   5.774   3.233   6.404
 3350SOL     OW10948   1.502   2.348   0.946
 3350SOL    HW110949   1.530   2.342   1.042
 3350SOL    HW210950   1.583   2.366   0.890
 3351SOL     OW10951   5.328   2.719   0.451
 3351SOL    HW110952   5.296   2.651   0.386
 3351SOL    HW210953   5.345   2.805   0.403
 3352SOL     OW10954   0.878   3.466   6.826
 3352SOL    HW110955   0.855   3.397   6.894
 3352SOL    HW210956   0.794   3.505   6.789
 3353SOL     OW10957   1.640   6.346   6.085
 3353SOL    HW110958   1.647   6.266   6.144
 3353SOL    HW210959   1.618   6.426   6.140
 3354SOL     OW10960   1.061   1.290   1.568
 3354SOL    HW110961   1.121   1.224   1.613
 3354SOL    HW210962   1.034   1.254   1.479
 3355SOL     OW10963   6.559   0.858   2.864
 3355SOL    HW110964   6.633   0.840   2.929
 3355SOL    HW210965   6.509   0.773   2.845
 3356SOL     OW10966   1.430   3.574   5.383
 3356SOL    HW110967   1.488   3.495   5.407
 3356SOL    HW210968   1.463   3.615   5.298
 3357SOL     OW10969   2.692   5.245   2.318
 3357SOL    HW110970   2.717   5.335   2.280
 3357SOL    HW210971   2.710   5.244   2.416
 3358SOL     OW10972   0.052   4.818   3.424
 3358SOL    HW110973   0.036   4.879   3.502
 3358SOL    HW210974   0.067   4.873   3.342
 3359SOL     OW10975   1.640   1.528   2.050
 3359SOL    HW110976   1.649   1.468   1.971
 3359SOL    HW210977   1.644   1.475   2.134
 3360SOL     OW10978   2.309   0.455   6.349
 3360SOL    HW110979   2.227   0.503   6.380
 3360SOL    HW210980   2.294   0.356   6.352
 3361SOL     OW10981   3.839   0.701   3.066
 3361SOL    HW110982   3.908   0.654   3.011
 3361SOL    HW210983   3.883   0.774   3.119
 3362SOL     OW10984   2.590   1.842   4.713
 3362SOL    HW110985   2.533   1.919   4.742
 3362SOL    HW210986   2.642   1.868   4.632
 3363SOL     OW10987   7.014   0.569   6.388
 3363SOL    HW110988   0.086   0.561   6.350
 3363SOL    HW210989   6.948   0.531   6.323
 3364SOL     OW10990   1.991   4.885   6.339
 3364SOL    HW110991   2.076   4.937   6.351
 3364SOL    HW210992   1.972   4.833   6.423
 3365SOL     OW10993   6.127   2.201   6.133
 3365SOL    HW110994   6.108   2.230   6.227
 3365SOL    HW210995   6.078   2.260   6.069
 3366SOL     OW10996   5.239   0.853   6.642
 3366SOL    HW110997   5.190   0.829   6.558
 3366SOL    HW210998   5.176   0.895   6.707
 3367SOL     OW10999   1.968   0.095   1.997
 3367SOL    HW111000   1.991   0.004   1.963
 3367SOL    HW211001   2.041   0.160   1.974
 3368SOL     OW11002   6.630   1.340   5.809
 3368SOL    HW111003   6.596   1.265   5.866
 3368SOL    HW211004   6.586   1.337   5.719
 3369SOL     OW11005   3.484   6.291   6.569
 3369SOL    HW111006   3.531   6.216   6.617
 3369SOL    HW211007   3.553   6.349   6.524
 3370SOL     OW11008   5.426   6.767   5.657
 3370SOL    HW111009   5.417   6.674   5.621
 3370SOL    HW211010   5.340   6.795   5.699
 3371SOL     OW11011   6.677   4.869   1.306
 3371SOL    HW111012   6.585   4.834   1.291
 3371SOL    HW211013   6.674   4.968   1.314
 3372SOL     OW11014   0.395   2.314   2.799
 3372SOL    HW111015   0.416   2.274   2.710
 3372SOL    HW211016   0.360   2.243   2.860
 3373SOL     OW11017   0.533   2.408   6.501
 3373SOL    HW111018   0.472   2.394   6.423
 3373SOL    HW211019   0.583   2.494   6.488
 3374SOL     OW11020   3.798   6.048   5.467
 3374SOL    HW111021   3.781   6.054   5.565
 3374SOL    HW211022   3.822   6.138   5.431
 3375SOL     OW11023   3.943   4.059   5.222
 3375SOL    HW111024   3.925   3.961   5.229
 3375SOL    HW211025   4.036   4.079   5.255
 3376SOL     OW11026   2.833   3.160   1.860
 3376SOL    HW111027   2.780   3.234   1.819
 3376SOL    HW211028   2.926   3.193   1.880
 3377SOL     OW11029   2.694   5.454   5.325
 3377SOL    HW111030   2.596   5.468   5.308
 3377SOL    HW211031   2.735   5.541   5.354
 3378SOL     OW11032   0.315   0.899   0.417
 3378SOL    HW111033   0.291   0.901   0.320
 3378SOL    HW211034   0.394   0.958   0.434
 3379SOL     OW11035   6.577   4.990   5.677
 3379SOL    HW111036   6.511   5.045   5.728
 3379SOL    HW211037   6.543   4.974   5.585
 3380SOL     OW11038   0.734   3.866   5.298
 3380SOL    HW111039   0.664   3.933   5.322
 3380SOL    HW211040   0.816   3.914   5.265
 3381SOL     OW11041   3.554   2.754   1.623
 3381SOL    HW111042   3.615   2.687   1.665
 3381SOL    HW211043   3.554   2.839   1.676
 3382SOL     OW11044   6.677   6.459   6.800
 3382SOL    HW111045   6.667   6.556   6.779
 3382SOL    HW211046   6.739   6.417   6.733
 3383SOL     OW11047   0.570   3.938   2.284
 3383SOL    HW111048   0.528   3.963   2.371
 3383SOL    HW211049   0.499   3.931   2.214
 3384SOL     OW11050   3.044   3.152   4.327
 3384SOL    HW111051   3.012   3.219   4.395
 3384SOL    HW211052   3.014   3.180   4.236
 3385SOL     OW11053   0.068   4.298   3.723
 3385SOL    HW111054   7.018   4.229   3.709
 3385SOL    HW211055   0.157   4.254   3.735
 3386SOL     OW11056   5.936   3.472   5.191
 3386SOL    HW111057   5.838   3.471   5.210
 3386SOL    HW211058   5.952   3.508   5.099
 3387SOL     OW11059   3.514   2.129   2.838
 3387SOL    HW111060   3.456   2.149   2.759
 3387SOL    HW211061   3.482   2.182   2.917
 3388SOL     OW11062   5.383   2.951   1.813
 3388SOL    HW111063   5.440   2.920   1.737
 3388SOL    HW211064   5.389   2.887   1.889
 3389SOL     OW11065   4.057   4.809   3.062
 3389SOL    HW111066   4.119   4.860   3.121
 3389SOL    HW211067   4.005   4.743   3.116
 3390SOL     OW11068   4.561   2.484   5.985
 3390SOL    HW111069   4.504   2.462   6.064
 3390SOL    HW211070   4.532   2.428   5.907
 3391SOL     OW11071   3.833   2.140   4.240
 3391SOL    HW111072   3.910   2.179   4.189
 3391SOL    HW211073   3.753   2.137   4.180
 3392SOL     OW11074   4.913   5.852   3.075
 3392SOL    HW111075   4.819   5.881   3.091
 3392SOL    HW211076   4.946   5.800   3.154
 3393SOL     OW11077   6.649   0.875   6.989
 3393SOL    HW111078   6.721   0.869   0.038
 3393SOL    HW211079   6.647   0.967   6.951
 3394SOL     OW11080   5.477   1.284   2.231
 3394SOL    HW111081   5.566   1.244   2.253
 3394SOL    HW211082   5.406   1.215   2.242
 3395SOL     OW11083   1.314   3.903   5.087
 3395SOL    HW111084   1.373   3.868   5.014
 3395SOL    HW211085   1.294   3.829   5.151
 3396SOL     OW11086   6.937   3.744   4.318
 3396SOL    HW111087   6.969   3.837   4.338
 3396SOL    HW211088   6.841   3.747   4.292
 3397SOL     OW11089   2.807   6.195   6.133
 3397SOL    HW111090   2.904   6.205   6.156
 3397SOL    HW211091   2.754   6.263   6.183
 3398SOL     OW11092   1.089   0.764   4.010
 3398SOL    HW111093   1.113   0.804   3.922
 3398SOL    HW211094   0.992   0.782   4.030
 3399SOL     OW11095   4.189   5.386   4.517
 3399SOL    HW111096   4.161   5.370   4.611
 3399SOL    HW211097   4.107   5.392   4.459
 3400SOL     OW11098   5.000   2.183   6.789
 3400SOL    HW111099   5.010   2.251   6.861
 3400SOL    HW211100   5.018   2.226   6.700
 3401SOL     OW11101   6.916   4.638   6.924
 3401SOL    HW111102   6.932   4.569   6.994
 3401SOL    HW211103   6.851   4.705   6.958
 3402SOL     OW11104   5.329   5.167   2.457
 3402SOL    HW111105   5.306   5.097   2.524
 3402SOL    HW211106   5.250   5.184   2.399
 3403SOL     OW11107   3.134   1.999   5.075
 3403SOL    HW111108   3.113   2.083   5.026
 3403SOL    HW211109   3.120   1.921   5.013
 3404SOL     OW11110   4.103   0.422   1.593
 3404SOL    HW111111   4.112   0.495   1.525
 3404SOL    HW211112   4.066   0.462   1.678
 3405SOL     OW11113   5.906   3.554   0.629
 3405SOL    HW111114   5.891   3.598   0.541
 3405SOL    HW211115   6.002   3.530   0.639
 3406SOL     OW11116   0.764   4.519   1.686
 3406SOL    HW111117   0.846   4.475   1.650
 3406SOL    HW211118   0.704   4.545   1.610
 3407SOL     OW11119   1.440   5.307   2.896
 3407SOL    HW111120   1.437   5.385   2.959
 3407SOL    HW211121   1.376   5.237   2.926
 3408SOL     OW11122   5.090   4.008   2.855
 3408SOL    HW111123   5.118   3.912   2.856
 3408SOL    HW211124   5.086   4.042   2.949
 3409SOL     OW11125   2.879   0.664   5.514
 3409SOL    HW111126   2.890   0.751   5.467
 3409SOL    HW211127   2.843   0.680   5.606
 3410SOL     OW11128   0.263   0.875   0.115
 3410SOL    HW111129   0.276   0.915   0.025
 3410SOL    HW211130   0.260   0.775   0.108
 3411SOL     OW11131   4.627   2.650   2.433
 3411SOL    HW111132   4.674   2.730   2.470
 3411SOL    HW211133   4.570   2.678   2.356
 3412SOL     OW11134   4.093   5.535   6.837
 3412SOL    HW111135   4.039   5.562   6.758
 3412SOL    HW211136   4.158   5.464   6.810
 3413SOL     OW11137   4.432   1.523   2.469
 3413SOL    HW111138   4.412   1.480   2.557
 3413SOL    HW211139   4.467   1.615   2.484
 3414SOL     OW11140   3.585   1.240   5.310
 3414SOL    HW111141   3.552   1.296   5.234
 3414SOL    HW211142   3.509   1.192   5.353
 3415SOL     OW11143   0.951   5.492   4.359
 3415SOL    HW111144   0.903   5.546   4.291
 3415SOL    HW211145   1.050   5.500   4.345
 3416SOL     OW11146   2.236   4.962   5.943
 3416SOL    HW111147   2.266   4.897   6.013
 3416SOL    HW211148   2.282   4.942   5.856
 3417SOL     OW11149   5.948   0.812   1.400
 3417SOL    HW111150   5.897   0.804   1.315
 3417SOL    HW211151   5.943   0.726   1.451
 3418SOL     OW11152   3.237   2.043   6.279
 3418SOL    HW111153   3.228   2.051   6.179
 3418SOL    HW211154   3.190   2.119   6.323
 3419SOL     OW11155   4.332   3.808   0.488
 3419SOL    HW111156   4.417   3.825   0.538
 3419SOL    HW211157   4.255   3.807   0.552
 3420SOL     OW11158   4.189   1.570   3.744
 3420SOL    HW111159   4.129   1.625   3.687
 3420SOL    HW211160   4.139   1.491   3.779
 3421SOL     OW11161   0.564   6.802   3.767
 3421SOL    HW111162   0.582   6.857   3.849
 3421SOL    HW211163   0.552   6.863   3.688
 3422SOL     OW11164   3.021   2.110   2.624
 3422SOL    HW111165   3.032   2.010   2.619
 3422SOL    HW211166   3.107   2.154   2.599
 3423SOL     OW11167   2.664   1.070   2.150
 3423SOL    HW111168   2.716   1.036   2.071
 3423SOL    HW211169   2.652   0.996   2.216
 3424SOL     OW11170   4.395   0.719   2.084
 3424SOL    HW111171   4.369   0.811   2.055
 3424SOL    HW211172   4.317   0.657   2.074
 3425SOL     OW11173   4.921   4.140   1.846
 3425SOL    HW111174   4.896   4.113   1.939
 3425SOL    HW211175   4.990   4.213   1.849
 3426SOL     OW11176   4.391   3.584   0.855
 3426SOL    HW111177   4.406   3.547   0.763
 3426SOL    HW211178   4.369   3.509   0.918
 3427SOL     OW11179   0.947   1.256   0.538
 3427SOL    HW111180   1.016   1.312   0.584
 3427SOL    HW211181   0.858   1.302   0.542
 3428SOL     OW11182   4.324   4.650   3.491
 3428SOL    HW111183   4.356   4.611   3.577
 3428SOL    HW211184   4.345   4.586   3.416
 3429SOL     OW11185   0.586   3.039   0.014
 3429SOL    HW111186   0.528   3.053   0.094
 3429SOL    HW211187   0.530   3.031   6.953
 3430SOL     OW11188   1.012   5.854   6.465
 3430SOL    HW111189   1.075   5.825   6.536
 3430SOL    HW211190   0.940   5.786   6.454
 3431SOL     OW11191   1.107   6.100   6.806
 3431SOL    HW111192   1.134   6.097   6.709
 3431SOL    HW211193   1.103   6.007   6.842
 3432SOL     OW11194   2.510   2.127   6.978
 3432SOL    HW111195   2.447   2.200   6.950
 3432SOL    HW211196   2.482   2.041   6.935
 3433SOL     OW11197   4.681   0.889   4.152
 3433SOL    HW111198   4.733   0.803   4.146
 3433SOL    HW211199   4.615   0.883   4.227
 3434SOL     OW11200   4.479   1.921   3.650
 3434SOL    HW111201   4.537   1.917   3.569
 3434SOL    HW211202   4.487   1.835   3.701
 3435SOL     OW11203   0.484   1.251   6.693
 3435SOL    HW111204   0.529   1.168   6.724
 3435SOL    HW211205   0.503   1.325   6.757
 3436SOL     OW11206   4.785   6.826   3.170
 3436SOL    HW111207   4.732   6.911   3.171
 3436SOL    HW211208   4.837   6.821   3.084
 3437SOL     OW11209   4.884   0.533   6.471
 3437SOL    HW111210   4.791   0.497   6.470
 3437SOL    HW211211   4.918   0.541   6.377
 3438SOL     OW11212   1.570   4.324   6.673
 3438SOL    HW111213   1.552   4.389   6.598
 3438SOL    HW211214   1.522   4.239   6.655
 3439SOL     OW11215   2.507   7.017   3.597
 3439SOL    HW111216   2.585   0.008   3.536
 3439SOL    HW211217   2.450   6.941   3.564
 3440SOL     OW11218   3.453   1.991   0.354
 3440SOL    HW111219   3.551   1.996   0.334
 3440SOL    HW211220   3.436   1.922   0.424
 3441SOL     OW11221   4.184   1.045   4.766
 3441SOL    HW111222   4.174   1.120   4.831
 3441SOL    HW211223   4.164   0.959   4.811
 3442SOL     OW11224   1.007   4.715   3.145
 3442SOL    HW111225   1.038   4.625   3.113
 3442SOL    HW211226   1.086   4.770   3.171
 3443SOL     OW11227   5.972   0.136   4.107
 3443SOL    HW111228   5.949   0.227   4.142
 3443SOL    HW211229   5.928   0.122   4.018
 3444SOL     OW11230   4.158   5.327   0.035
 3444SOL    HW111231   4.138   5.280   6.970
 3444SOL    HW211232   4.204   5.265   0.098
 3445SOL     OW11233   5.791   5.136   4.924
 3445SOL    HW111234   5.835   5.063   4.872
 3445SOL    HW211235   5.848   5.218   4.920
 3446SOL     OW11236   3.032   6.447   3.052
 3446SOL    HW111237   3.018   6.545   3.045
 3446SOL    HW211238   3.008   6.403   2.965
 3447SOL     OW11239   6.415   4.879   6.361
 3447SOL    HW111240   6.501   4.879   6.413
 3447SOL    HW211241   6.345   4.831   6.413
 3448SOL     OW11242   3.544   2.370   1.190
 3448SOL    HW111243   3.542   2.401   1.285
 3448SOL    HW211244   3.504   2.278   1.185
 3449SOL     OW11245   5.988   5.951   2.715
 3449SOL    HW111246   6.069   6.004   2.737
 3449SOL    HW211247   6.010   5.853   2.717
 3450SOL     OW11248   0.724   2.264   1.485
 3450SOL    HW111249   0.793   2.317   1.533
 3450SOL    HW211250   0.748   2.258   1.388
 3451SOL     OW11251   1.418   5.374   3.959
 3451SOL    HW111252   1.467   5.397   3.874
 3451SOL    HW211253   1.480   5.325   4.021
 3452SOL     OW11254   6.500   2.526   0.195
 3452SOL    HW111255   6.530   2.501   0.287
 3452SOL    HW211256   6.477   2.624   0.193
 3453SOL     OW11257   6.149   6.414   6.045
 3453SOL    HW111258   6.215   6.340   6.056
 3453SOL    HW211259   6.086   6.391   5.971
 3454SOL     OW11260   0.850   1.047   0.131
 3454SOL    HW111261   0.764   1.044   0.182
 3454SOL    HW211262   0.866   0.960   0.086
 3455SOL     OW11263   2.343   2.733   4.349
 3455SOL    HW111264   2.413   2.717   4.419
 3455SOL    HW211265   2.338   2.831   4.330
 3456SOL     OW11266   6.294   0.268   1.060
 3456SOL    HW111267   6.296   0.191   0.996
 3456SOL    HW211268   6.300   0.234   1.154
 3457SOL     OW11269   2.604   5.892   3.618
 3457SOL    HW111270   2.512   5.922   3.592
 3457SOL    HW211271   2.598   5.809   3.673
 3458SOL     OW11272   5.096   5.227   0.896
 3458SOL    HW111273   5.035   5.164   0.848
 3458SOL    HW211274   5.176   5.177   0.930
 3459SOL     OW11275   0.154   6.570   3.229
 3459SOL    HW111276   0.062   6.566   3.268
 3459SOL    HW211277   0.165   6.498   3.161
 3460SOL     OW11278   3.667   3.053   5.850
 3460SOL    HW111279   3.745   3.111   5.824
 3460SOL    HW211280   3.582   3.099   5.827
 3461SOL     OW11281   2.850   5.989   2.892
 3461SOL    HW111282   2.799   5.966   2.809
 3461SOL    HW211283   2.946   5.963   2.880
 3462SOL     OW11284   4.885   3.155   3.012
 3462SOL    HW111285   4.849   3.139   3.104
 3462SOL    HW211286   4.879   3.071   2.959
 3463SOL     OW11287   2.346   2.613   0.932
 3463SOL    HW111288   2.419   2.626   1.000
 3463SOL    HW211289   2.312   2.520   0.937
 3464SOL     OW11290   4.797   2.044   5.899
 3464SOL    HW111291   4.701   2.018   5.887
 3464SOL    HW211292   4.806   2.143   5.890
 3465SOL     OW11293   1.741   4.586   1.677
 3465SOL    HW111294   1.751   4.598   1.776
 3465SOL    HW211295   1.698   4.667   1.637
 3466SOL     OW11296   6.619   4.764   4.084
 3466SOL    HW111297   6.627   4.665   4.101
 3466SOL    HW211298   6.650   4.784   3.991
 3467SOL     OW11299   3.125   3.147   1.153
 3467SOL    HW111300   3.030   3.178   1.151
 3467SOL    HW211301   3.132   3.060   1.104
 3468SOL     OW11302   3.638   1.771   0.377
 3468SOL    HW111303   3.560   1.753   0.436
 3468SOL    HW211304   3.615   1.750   0.283
 3469SOL     OW11305   3.757   6.223   5.842
 3469SOL    HW111306   3.778   6.139   5.792
 3469SOL    HW211307   3.767   6.207   5.940
 3470SOL     OW11308   1.448   3.198   1.589
 3470SOL    HW111309   1.513   3.232   1.657
 3470SOL    HW211310   1.358   3.190   1.631
 3471SOL     OW11311   5.114   3.307   4.688
 3471SOL    HW111312   5.062   3.381   4.731
 3471SOL    HW211313   5.168   3.344   4.612
 3472SOL     OW11314   4.220   1.674   3.278
 3472SOL    HW111315   4.205   1.601   3.212
 3472SOL    HW211316   4.171   1.756   3.249
 3473SOL     OW11317   6.564   4.890   1.762
 3473SOL    HW111318   6.551   4.893   1.861
 3473SOL    HW211319   6.479   4.914   1.716
 3474SOL     OW11320   5.442   4.694   4.532
 3474SOL    HW111321   5.417   4.757   4.459
 3474SOL    HW211322   5.523   4.642   4.505
 3475SOL     OW11323   0.006   4.841   4.157
 3475SOL    HW111324   6.986   4.917   4.208
 3475SOL    HW211325   0.105   4.847   4.161
 3476SOL     OW11326   1.647   1.416   3.800
 3476SOL    HW111327   1.599   1.503   3.797
 3476SOL    HW211328   1.653   1.384   3.895
 3477SOL     OW11329   0.854   4.112   1.985
 3477SOL    HW111330   0.787   4.155   2.046
 3477SOL    HW211331   0.810   4.039   1.933
 3478SOL     OW11332   2.142   1.058   1.605
 3478SOL    HW111333   2.179   1.142   1.644
 3478SOL    HW211334   2.137   1.066   1.505
 3479SOL     OW11335   1.449   5.283   4.700
 3479SOL    HW111336   1.349   5.275   4.705
 3479SOL    HW211337   1.487   5.198   4.664
 3480SOL     OW11338   1.467   4.591   6.828
 3480SOL    HW111339   1.485   4.598   6.926
 3480SOL    HW211340   1.500   4.504   6.794
 3481SOL     OW11341   5.965   1.151   4.840
 3481SOL    HW111342   6.058   1.132   4.873
 3481SOL    HW211343   5.923   1.220   4.899
 3482SOL     OW11344   5.965   3.449   6.287
 3482SOL    HW111345   5.884   3.395   6.309
 3482SOL    HW211346   6.047   3.400   6.315
 3483SOL     OW11347   5.395   3.072   5.621
 3483SOL    HW111348   5.351   3.127   5.550
 3483SOL    HW211349   5.330   3.052   5.694
 3484SOL     OW11350   1.152   4.059   4.964
 3484SOL    HW111351   1.179   4.154   4.980
 3484SOL    HW211352   1.217   3.998   5.007
 3485SOL     OW11353   6.760   2.873   6.660
 3485SOL    HW111354   6.691   2.857   6.730
 3485SOL    HW211355   6.831   2.933   6.696
 3486SOL     OW11356   2.343   6.286   4.993
 3486SOL    HW111357   2.397   6.340   4.928
 3486SOL    HW211358   2.294   6.349   5.054
 3487SOL     OW11359   4.533   1.137   6.767
 3487SOL    HW111360   4.482   1.186   6.697
 3487SOL    HW211361   4.630   1.136   6.743
 3488SOL     OW11362   5.841   0.496   5.029
 3488SOL    HW111363   5.920   0.442   4.998
 3488SOL    HW211364   5.813   0.465   5.120
 3489SOL     OW11365   3.025   6.221   1.101
 3489SOL    HW111366   2.948   6.227   1.166
 3489SOL    HW211367   3.042   6.310   1.061
 3490SOL     OW11368   3.468   6.698   0.189
 3490SOL    HW111369   3.499   6.619   0.136
 3490SOL    HW211370   3.375   6.681   0.223
 3491SOL     OW11371   4.140   4.962   5.912
 3491SOL    HW111372   4.230   4.988   5.945
 3491SOL    HW211373   4.116   4.871   5.948
 3492SOL     OW11374   6.134   4.182   2.451
 3492SOL    HW111375   6.175   4.212   2.536
 3492SOL    HW211376   6.039   4.215   2.446
 3493SOL     OW11377   6.948   2.908   5.584
 3493SOL    HW111378   6.894   2.918   5.501
 3493SOL    HW211379   6.963   2.997   5.625
 3494SOL     OW11380   3.942   1.712   2.835
 3494SOL    HW111381   4.008   1.785   2.853
 3494SOL    HW211382   3.930   1.702   2.736
 3495SOL     OW11383   0.938   3.098   2.893
 3495SOL    HW111384   0.921   3.011   2.847
 3495SOL    HW211385   1.018   3.089   2.952
 3496SOL     OW11386   5.739   5.670   0.869
 3496SOL    HW111387   5.732   5.755   0.921
 3496SOL    HW211388   5.678   5.602   0.908
 3497SOL     OW11389   2.974   0.019   2.601
 3497SOL    HW111390   2.989   0.049   2.506
 3497SOL    HW211391   2.881   7.005   2.610
 3498SOL     OW11392   2.174   2.496   1.214
 3498SOL    HW111393   2.103   2.551   1.257
 3498SOL    HW211394   2.257   2.499   1.271
 3499SOL     OW11395   6.249   6.137   4.842
 3499SOL    HW111396   6.225   6.078   4.918
 3499SOL    HW211397   6.222   6.231   4.862
 3500SOL     OW11398   2.306   2.180   4.566
 3500SOL    HW111399   2.302   2.240   4.485
 3500SOL    HW211400   2.255   2.222   4.641
 3501SOL     OW11401   1.481   0.164   4.901
 3501SOL    HW111402   1.458   0.067   4.890
 3501SOL    HW211403   1.401   0.213   4.935
 3502SOL     OW11404   4.762   2.886   2.498
 3502SOL    HW111405   4.776   2.930   2.409
 3502SOL    HW211406   4.753   2.957   2.568
 3503SOL     OW11407   6.395   6.473   6.520
 3503SOL    HW111408   6.334   6.398   6.544
 3503SOL    HW211409   6.390   6.543   6.591
 3504SOL     OW11410   1.385   0.522   0.011
 3504SOL    HW111411   1.447   0.450   0.041
 3504SOL    HW211412   1.304   0.523   0.070
 3505SOL     OW11413   5.169   4.616   6.100
 3505SOL    HW111414   5.264   4.585   6.099
 3505SOL    HW211415   5.126   4.595   6.012
 3506SOL     OW11416   4.445   5.042   4.833
 3506SOL    HW111417   4.399   5.127   4.856
 3506SOL    HW211418   4.542   5.061   4.814
 3507SOL     OW11419   2.945   0.767   1.061
 3507SOL    HW111420   2.995   0.687   1.094
 3507SOL    HW211421   2.989   0.850   1.094
 3508SOL     OW11422   3.087   1.707   5.263
 3508SOL    HW111423   3.097   1.798   5.303
 3508SOL    HW211424   3.177   1.670   5.241
 3509SOL     OW11425   3.318   5.641   6.287
 3509SOL    HW111426   3.411   5.618   6.316
 3509SOL    HW211427   3.281   5.713   6.345
 3510SOL     OW11428   2.566   1.305   0.338
 3510SOL    HW111429   2.586   1.292   0.435
 3510SOL    HW211430   2.560   1.402   0.317
 3511SOL     OW11431   3.066   4.386   1.603
 3511SOL    HW111432   3.012   4.398   1.686
 3511SOL    HW211433   3.126   4.307   1.613
 3512SOL     OW11434   0.300   5.260   5.611
 3512SOL    HW111435   0.353   5.191   5.562
 3512SOL    HW211436   0.213   5.274   5.564
 3513SOL     OW11437   6.225   1.714   0.368
 3513SOL    HW111438   6.296   1.755   0.426
 3513SOL    HW211439   6.135   1.738   0.405
 3514SOL     OW11440   3.548   1.224   2.318
 3514SOL    HW111441   3.568   1.132   2.352
 3514SOL    HW211442   3.633   1.278   2.315
 3515SOL     OW11443   0.372   5.278   4.618
 3515SOL    HW111444   0.463   5.318   4.630
 3515SOL    HW211445   0.339   5.297   4.526
 3516SOL     OW11446   4.422   0.279   1.471
 3516SOL    HW111447   4.343   0.222   1.493
 3516SOL    HW211448   4.473   0.238   1.396
 3517SOL     OW11449   5.910   0.543   1.557
 3517SOL    HW111450   5.922   0.503   1.466
 3517SOL    HW211451   5.812   0.551   1.576
 3518SOL     OW11452   5.040   0.772   5.223
 3518SOL    HW111453   5.105   0.747   5.294
 3518SOL    HW211454   5.088   0.787   5.136
 3519SOL     OW11455   3.395   0.636   1.227
 3519SOL    HW111456   3.353   0.684   1.150
 3519SOL    HW211457   3.366   0.680   1.312
 3520SOL     OW11458   2.865   6.049   4.743
 3520SOL    HW111459   2.888   6.031   4.648
 3520SOL    HW211460   2.924   5.993   4.803
 3521SOL     OW11461   2.601   2.994   6.814
 3521SOL    HW111462   2.631   3.038   6.729
 3521SOL    HW211463   2.656   2.912   6.830
 3522SOL     OW11464   0.226   5.505   6.308
 3522SOL    HW111465   0.240   5.477   6.213
 3522SOL    HW211466   0.295   5.463   6.366
 3523SOL     OW11467   2.071   5.697   0.211
 3523SOL    HW111468   2.166   5.727   0.196
 3523SOL    HW211469   2.071   5.615   0.267
 3524SOL     OW11470   5.315   1.122   3.642
 3524SOL    HW111471   5.233   1.159   3.685
 3524SOL    HW211472   5.300   1.116   3.543
 3525SOL     OW11473   7.006   3.416   2.993
 3525SOL    HW111474   6.921   3.365   2.999
 3525SOL    HW211475   0.057   3.358   2.955
 3526SOL     OW11476   0.109   6.634   2.478
 3526SOL    HW111477   0.037   6.598   2.419
 3526SOL    HW211478   0.197   6.598   2.450
 3527SOL     OW11479   0.295   2.528   6.158
 3527SOL    HW111480   0.203   2.516   6.120
 3527SOL    HW211481   0.314   2.454   6.223
 3528SOL     OW11482   2.366   6.031   4.667
 3528SOL    HW111483   2.408   5.940   4.663
 3528SOL    HW211484   2.289   6.029   4.731
 3529SOL     OW11485   4.277   5.434   1.068
 3529SOL    HW111486   4.256   5.349   1.020
 3529SOL    HW211487   4.376   5.441   1.081
 3530SOL     OW11488   6.383   6.537   1.439
 3530SOL    HW111489   6.407   6.547   1.536
 3530SOL    HW211490   6.397   6.441   1.412
 3531SOL     OW11491   4.875   2.048   0.311
 3531SOL    HW111492   4.880   1.956   0.274
 3531SOL    HW211493   4.900   2.047   0.408
 3532SOL     OW11494   1.923   1.472   2.234
 3532SOL    HW111495   1.873   1.394   2.197
 3532SOL    HW211496   1.874   1.556   2.213
 3533SOL     OW11497   1.157   1.758   3.089
 3533SOL    HW111498   1.070   1.774   3.136
 3533SOL    HW211499   1.175   1.833   3.025
 3534SOL     OW11500   0.228   1.246   1.162
 3534SOL    HW111501   0.315   1.244   1.211
 3534SOL    HW211502   0.215   1.335   1.118
 3535SOL     OW11503   2.665   5.649   4.548
 3535SOL    HW111504   2.764   5.652   4.558
 3535SOL    HW211505   2.630   5.561   4.578
 3536SOL     OW11506   3.794   1.981   2.549
 3536SOL    HW111507   3.796   1.885   2.575
 3536SOL    HW211508   3.702   2.005   2.518
 3537SOL     OW11509   2.453   0.246   3.094
 3537SOL    HW111510   2.426   0.208   3.006
 3537SOL    HW211511   2.435   0.178   3.166
 3538SOL     OW11512   3.458   5.529   3.508
 3538SOL    HW111513   3.365   5.566   3.511
 3538SOL    HW211514   3.514   5.586   3.448
 3539SOL     OW11515   3.785   3.452   4.477
 3539SOL    HW111516   3.700   3.400   4.464
 3539SOL    HW211517   3.863   3.394   4.452
 3540SOL     OW11518   1.849   2.445   3.465
 3540SOL    HW111519   1.918   2.452   3.537
 3540SOL    HW211520   1.837   2.534   3.420
 3541SOL     OW11521   3.712   3.913   3.916
 3541SOL    HW111522   3.793   3.888   3.863
 3541SOL    HW211523   3.671   3.995   3.877
 3542SOL     OW11524   0.043   5.050   1.479
 3542SOL    HW111525   7.006   5.090   1.408
 3542SOL    HW211526   0.097   4.975   1.440
 3543SOL     OW11527   5.991   2.832   5.288
 3543SOL    HW111528   5.964   2.737   5.272
 3543SOL    HW211529   5.913   2.882   5.324
 3544SOL     OW11530   1.703   5.863   0.189
 3544SOL    HW111531   1.639   5.874   0.266
 3544SOL    HW211532   1.652   5.841   0.106
 3545SOL     OW11533   3.025   5.239   0.366
 3545SOL    HW111534   3.107   5.183   0.374
 3545SOL    HW211535   3.019   5.302   0.443
 3546SOL     OW11536   6.522   4.603   2.951
 3546SOL    HW111537   6.490   4.676   3.012
 3546SOL    HW211538   6.621   4.591   2.963
 3547SOL     OW11539   5.153   4.678   4.639
 3547SOL    HW111540   5.131   4.753   4.701
 3547SOL    HW211541   5.250   4.682   4.615
 3548SOL     OW11542   4.618   3.041   5.604
 3548SOL    HW111543   4.674   3.045   5.522
 3548SOL    HW211544   4.600   3.133   5.638
 3549SOL     OW11545   5.804   3.750   2.120
 3549SOL    HW111546   5.758   3.815   2.060
 3549SOL    HW211547   5.782   3.770   2.215
 3550SOL     OW11548   5.923   1.818   2.579
 3550SOL    HW111549   5.889   1.851   2.667
 3550SOL    HW211550   5.870   1.858   2.505
 3551SOL     OW11551   2.570   6.932   2.941
 3551SOL    HW111552   2.477   6.966   2.957
 3551SOL    HW211553   2.635   7.007   2.945
 3552SOL     OW11554   7.010   4.585   3.267
 3552SOL    HW111555   6.916   4.554   3.285
 3552SOL    HW211556   0.014   4.655   3.335
 3553SOL     OW11557   5.637   2.069   3.121
 3553SOL    HW111558   5.610   2.165   3.135
 3553SOL    HW211559   5.736   2.063   3.109
 3554SOL     OW11560   3.687   5.610   6.639
 3554SOL    HW111561   3.615   5.665   6.682
 3554SOL    HW211562   3.661   5.514   6.639
 3555SOL     OW11563   0.516   3.063   3.610
 3555SOL    HW111564   0.471   2.993   3.555
 3555SOL    HW211565   0.615   3.058   3.595
 3556SOL     OW11566   4.222   0.901   6.382
 3556SOL    HW111567   4.307   0.862   6.418
 3556SOL    HW211568   4.241   0.948   6.296
 3557SOL     OW11569   0.725   0.766   4.392
 3557SOL    HW111570   0.665   0.760   4.472
 3557SOL    HW211571   0.730   0.861   4.361
 3558SOL     OW11572   0.068   5.452   1.586
 3558SOL    HW111573   0.021   5.446   1.498
 3558SOL    HW211574   0.006   5.490   1.654
 3559SOL     OW11575   0.841   0.684   5.716
 3559SOL    HW111576   0.918   0.653   5.772
 3559SOL    HW211577   0.811   0.610   5.656
 3560SOL     OW11578   6.937   6.339   2.088
 3560SOL    HW111579   6.965   6.251   2.129
 3560SOL    HW211580   6.946   6.334   1.989
 3561SOL     OW11581   4.680   4.408   4.132
 3561SOL    HW111582   4.678   4.308   4.120
 3561SOL    HW211583   4.753   4.431   4.196
 3562SOL     OW11584   4.506   2.512   3.116
 3562SOL    HW111585   4.457   2.435   3.075
 3562SOL    HW211586   4.532   2.577   3.045
 3563SOL     OW11587   4.439   0.458   1.266
 3563SOL    HW111588   4.430   0.400   1.347
 3563SOL    HW211589   4.530   0.499   1.264
 3564SOL     OW11590   6.949   4.182   3.105
 3564SOL    HW111591   6.898   4.269   3.101
 3564SOL    HW211592   0.007   4.192   3.166
 3565SOL     OW11593   1.596   0.624   5.032
 3565SOL    HW111594   1.602   0.524   5.035
 3565SOL    HW211595   1.577   0.653   4.938
 3566SOL     OW11596   1.019   4.095   6.157
 3566SOL    HW111597   0.952   4.068   6.088
 3566SOL    HW211598   0.977   4.095   6.248
 3567SOL     OW11599   0.296   2.822   0.899
 3567SOL    HW111600   0.198   2.837   0.891
 3567SOL    HW211601   0.330   2.867   0.982
 3568SOL     OW11602   5.393   3.850   3.680
 3568SOL    HW111603   5.322   3.919   3.667
 3568SOL    HW211604   5.435   3.862   3.770
 3569SOL     OW11605   3.628   2.910   3.975
 3569SOL    HW111606   3.578   2.969   3.912
 3569SOL    HW211607   3.613   2.814   3.950
 3570SOL     OW11608   0.737   2.172   5.404
 3570SOL    HW111609   0.771   2.160   5.497
 3570SOL    HW211610   0.813   2.162   5.339
 3571SOL     OW11611   2.373   6.714   4.572
 3571SOL    HW111612   2.447   6.661   4.531
 3571SOL    HW211613   2.362   6.689   4.668
 3572SOL     OW11614   4.799   4.901   1.745
 3572SOL    HW111615   4.731   4.950   1.798
 3572SOL    HW211616   4.808   4.808   1.780
 3573SOL     OW11617   0.568   4.623   3.481
 3573SOL    HW111618   0.625   4.663   3.410
 3573SOL    HW211619   0.481   4.673   3.487
 3574SOL     OW11620   2.129   1.728   5.829
 3574SOL    HW111621   2.096   1.638   5.802
 3574SOL    HW211622   2.155   1.780   5.747
 3575SOL     OW11623   5.186   0.266   0.068
 3575SOL    HW111624   5.282   0.296   0.063
 3575SOL    HW211625   5.134   0.333   0.121
 3576SOL     OW11626   1.419   2.236   0.585
 3576SOL    HW111627   1.501   2.185   0.611
 3576SOL    HW211628   1.441   2.334   0.581
 3577SOL     OW11629   1.811   3.061   4.857
 3577SOL    HW111630   1.893   3.014   4.891
 3577SOL    HW211631   1.732   3.000   4.866
 3578SOL     OW11632   3.515   2.667   6.233
 3578SOL    HW111633   3.529   2.611   6.315
 3578SOL    HW211634   3.576   2.636   6.160
 3579SOL     OW11635   0.794   3.518   1.903
 3579SOL    HW111636   0.769   3.605   1.861
 3579SOL    HW211637   0.846   3.463   1.837
 3580SOL     OW11638   6.999   4.208   1.834
 3580SOL    HW111639   7.012   4.274   1.908
 3580SOL    HW211640   0.067   4.174   1.803
 3581SOL     OW11641   1.626   0.435   2.410
 3581SOL    HW111642   1.557   0.506   2.418
 3581SOL    HW211643   1.616   0.370   2.486
 3582SOL     OW11644   4.193   5.589   6.191
 3582SOL    HW111645   4.111   5.609   6.137
 3582SOL    HW211646   4.252   5.527   6.141
 3583SOL     OW11647   1.093   5.023   1.228
 3583SOL    HW111648   1.114   4.961   1.152
 3583SOL    HW211649   1.119   4.981   1.315
 3584SOL     OW11650   6.252   4.883   4.807
 3584SOL    HW111651   6.255   4.819   4.883
 3584SOL    HW211652   6.309   4.962   4.828
 3585SOL     OW11653   3.224   1.719   3.986
 3585SOL    HW111654   3.323   1.722   4.000
 3585SOL    HW211655   3.187   1.634   4.025
 3586SOL     OW11656   0.249   1.786   4.942
 3586SOL    HW111657   0.275   1.690   4.955
 3586SOL    HW211658   0.154   1.791   4.913
 3587SOL     OW11659   3.123   0.309   6.249
 3587SOL    HW111660   3.033   0.347   6.273
 3587SOL    HW211661   3.182   0.310   6.330
 3588SOL     OW11662   5.766   4.768   4.795
 3588SOL    HW111663   5.689   4.710   4.824
 3588SOL    HW211664   5.852   4.724   4.819
 3589SOL     OW11665   0.929   6.916   5.999
 3589SOL    HW111666   0.960   6.843   6.059
 3589SOL    HW211667   0.885   6.877   5.918
 3590SOL     OW11668   6.741   5.271   5.696
 3590SOL    HW111669   6.741   5.356   5.748
 3590SOL    HW211670   6.741   5.193   5.758
 3591SOL     OW11671   5.967   1.290   0.042
 3591SOL    HW111672   5.948   1.224   0.115
 3591SOL    HW211673   6.045   1.347   0.069
 3592SOL     OW11674   1.493   6.451   1.112
 3592SOL    HW111675   1.452   6.472   1.201
 3592SOL    HW211676   1.519   6.536   1.067
 3593SOL     OW11677   4.133   2.991   5.439
 3593SOL    HW111678   4.054   3.040   5.401
 3593SOL    HW211679   4.180   3.051   5.504
 3594SOL     OW11680   4.708   4.836   5.332
 3594SOL    HW111681   4.801   4.862   5.355
 3594SOL    HW211682   4.659   4.810   5.415
 3595SOL     OW11683   5.760   6.237   4.427
 3595SOL    HW111684   5.671   6.273   4.457
 3595SOL    HW211685   5.820   6.224   4.506
 3596SOL     OW11686   3.901   1.746   3.177
 3596SOL    HW111687   3.993   1.777   3.202
 3596SOL    HW211688   3.856   1.816   3.122
 3597SOL     OW11689   3.442   3.794   5.743
 3597SOL    HW111690   3.407   3.838   5.660
 3597SOL    HW211691   3.380   3.812   5.819
 3598SOL     OW11692   0.552   5.299   4.883
 3598SOL    HW111693   0.545   5.393   4.917
 3598SOL    HW211694   0.462   5.255   4.889
 3599SOL     OW11695   2.665   1.156   5.172
 3599SOL    HW111696   2.752   1.122   5.134
 3599SOL    HW211697   2.683   1.203   5.259
 3600SOL     OW11698   2.954   3.821   6.655
 3600SOL    HW111699   2.934   3.728   6.624
 3600SOL    HW211700   2.973   3.879   6.576
 3601SOL     OW11701   4.860   1.178   5.333
 3601SOL    HW111702   4.870   1.095   5.277
 3601SOL    HW211703   4.936   1.184   5.397
 3602SOL     OW11704   1.573   2.042   1.419
 3602SOL    HW111705   1.553   2.140   1.423
 3602SOL    HW211706   1.496   1.990   1.456
 3603SOL     OW11707   2.296   0.437   5.387
 3603SOL    HW111708   2.256   0.379   5.316
 3603SOL    HW211709   2.288   0.533   5.360
 3604SOL     OW11710   0.022   0.517   3.388
 3604SOL    HW111711   6.984   0.476   3.457
 3604SOL    HW211712   0.037   0.452   3.313
 3605SOL     OW11713   1.006   6.925   4.693
 3605SOL    HW111714   1.041   6.972   4.775
 3605SOL    HW211715   0.930   6.865   4.719
 3606SOL     OW11716   1.942   0.450   2.120
 3606SOL    HW111717   1.885   0.376   2.155
 3606SOL    HW211718   2.038   0.429   2.136
 3607SOL     OW11719   6.418   1.553   3.205
 3607SOL    HW111720   6.357   1.573   3.282
 3607SOL    HW211721   6.513   1.553   3.237
 3608SOL     OW11722   3.022   1.704   5.849
 3608SOL    HW111723   3.005   1.616   5.893
 3608SOL    HW211724   3.024   1.776   5.919
 3609SOL     OW11725   3.846   0.708   5.565
 3609SOL    HW111726   3.912   0.749   5.628
 3609SOL    HW211727   3.885   0.625   5.526
 3610SOL     OW11728   1.438   0.546   5.593
 3610SOL    HW111729   1.407   0.465   5.642
 3610SOL    HW211730   1.524   0.578   5.633
 3611SOL     OW11731   5.743   4.472   2.863
 3611SOL    HW111732   5.787   4.435   2.782
 3611SOL    HW211733   5.645   4.454   2.860
 3612SOL     OW11734   5.178   1.510   0.246
 3612SOL    HW111735   5.199   1.421   0.205
 3612SOL    HW211736   5.206   1.582   0.183
 3613SOL     OW11737   3.803   6.627   3.030
 3613SOL    HW111738   3.832   6.565   2.957
 3613SOL    HW211739   3.801   6.721   2.996
 3614SOL     OW11740   3.524   5.761   6.813
 3614SOL    HW111741   3.571   5.818   6.881
 3614SOL    HW211742   3.439   5.806   6.786
 3615SOL     OW11743   5.187   2.721   5.522
 3615SOL    HW111744   5.106   2.757   5.476
 3615SOL    HW211745   5.174   2.726   5.621
 3616SOL     OW11746   1.690   2.175   0.554
 3616SOL    HW111747   1.779   2.197   0.594
 3616SOL    HW211748   1.704   2.122   0.470
 3617SOL     OW11749   4.102   5.873   5.732
 3617SOL    HW111750   4.183   5.869   5.791
 3617SOL    HW211751   4.130   5.901   5.640
 3618SOL     OW11752   1.206   5.492   4.289
 3618SOL    HW111753   1.282   5.553   4.267
 3618SOL    HW211754   1.199   5.421   4.219
 3619SOL     OW11755   5.706   2.643   2.075
 3619SOL    HW111756   5.799   2.680   2.083
 3619SOL    HW211757   5.691   2.574   2.145
 3620SOL     OW11758   5.702   6.013   4.878
 3620SOL    HW111759   5.675   6.104   4.908
 3620SOL    HW211760   5.620   5.957   4.862
 3621SOL     OW11761   3.485   3.067   3.775
 3621SOL    HW111762   3.496   3.158   3.816
 3621SOL    HW211763   3.390   3.054   3.747
 3622SOL     OW11764   1.369   5.673   6.336
 3622SOL    HW111765   1.339   5.745   6.272
 3622SOL    HW211766   1.465   5.687   6.358
 3623SOL     OW11767   1.282   5.869   5.852
 3623SOL    HW111768   1.346   5.946   5.844
 3623SOL    HW211769   1.213   5.876   5.780
 3624SOL     OW11770   2.272   2.303   2.060
 3624SOL    HW111771   2.264   2.381   2.122
 3624SOL    HW211772   2.186   2.251   2.061
 3625SOL     OW11773   6.429   2.286   0.894
 3625SOL    HW111774   6.509   2.315   0.947
 3625SOL    HW211775   6.393   2.364   0.842
 3626SOL     OW11776   1.916   2.999   5.677
 3626SOL    HW111777   1.869   2.912   5.693
 3626SOL    HW211778   1.885   3.067   5.744
 3627SOL     OW11779   3.364   1.805   2.328
 3627SOL    HW111780   3.281   1.751   2.315
 3627SOL    HW211781   3.360   1.888   2.273
 3628SOL     OW11782   6.145   1.599   1.800
 3628SOL    HW111783   6.125   1.637   1.890
 3628SOL    HW211784   6.138   1.671   1.731
 3629SOL     OW11785   1.539   1.564   4.518
 3629SOL    HW111786   1.629   1.604   4.505
 3629SOL    HW211787   1.527   1.487   4.455
 3630SOL     OW11788   6.578   2.052   2.282
 3630SOL    HW111789   6.644   1.981   2.308
 3630SOL    HW211790   6.591   2.133   2.340
 3631SOL     OW11791   1.997   6.226   2.300
 3631SOL    HW111792   2.043   6.217   2.389
 3631SOL    HW211793   1.926   6.296   2.307
 3632SOL     OW11794   4.912   3.140   2.364
 3632SOL    HW111795   4.871   3.166   2.452
 3632SOL    HW211796   4.921   3.221   2.306
 3633SOL     OW11797   3.986   4.298   0.148
 3633SOL    HW111798   3.909   4.306   0.212
 3633SOL    HW211799   4.070   4.279   0.199
 3634SOL     OW11800   2.869   5.338   6.276
 3634SOL    HW111801   2.953   5.325   6.222
 3634SOL    HW211802   2.790   5.329   6.215
 3635SOL     OW11803   1.105   6.723   2.159
 3635SOL    HW111804   1.120   6.720   2.258
 3635SOL    HW211805   1.085   6.631   2.126
 3636SOL     OW11806   0.277   5.472   5.790
 3636SOL    HW111807   0.267   5.392   5.730
 3636SOL    HW211808   0.351   5.529   5.758
 3637SOL     OW11809   6.115   3.237   0.254
 3637SOL    HW111810   6.200   3.267   0.210
 3637SOL    HW211811   6.037   3.282   0.210
 3638SOL     OW11812   0.190   3.221   3.291
 3638SOL    HW111813   0.288   3.223   3.309
 3638SOL    HW211814   0.160   3.311   3.258
 3639SOL     OW11815   3.985   3.287   4.371
 3639SOL    HW111816   4.068   3.305   4.319
 3639SOL    HW211817   3.961   3.190   4.363
 3640SOL     OW11818   4.249   1.944   1.916
 3640SOL    HW111819   4.188   2.005   1.967
 3640SOL    HW211820   4.342   1.951   1.952
 3641SOL     OW11821   6.333   3.718   2.226
 3641SOL    HW111822   6.296   3.634   2.266
 3641SOL    HW211823   6.331   3.712   2.127
 3642SOL     OW11824   5.080   4.027   6.655
 3642SOL    HW111825   5.076   4.107   6.715
 3642SOL    HW211826   5.004   4.030   6.590
 3643SOL     OW11827   3.910   5.966   5.183
 3643SOL    HW111828   3.977   5.995   5.252
 3643SOL    HW211829   3.840   5.908   5.226
 3644SOL     OW11830   2.931   0.965   1.718
 3644SOL    HW111831   2.962   1.060   1.721
 3644SOL    HW211832   2.947   0.923   1.807
 3645SOL     OW11833   1.439   4.422   3.571
 3645SOL    HW111834   1.370   4.478   3.525
 3645SOL    HW211835   1.520   4.477   3.588
 3646SOL     OW11836   1.823   5.171   5.865
 3646SOL    HW111837   1.909   5.133   5.898
 3646SOL    HW211838   1.749   5.146   5.927
 3647SOL     OW11839   3.433   6.905   6.976
 3647SOL    HW111840   3.347   6.913   0.005
 3647SOL    HW211841   3.506   6.880   0.019
 3648SOL     OW11842   4.919   5.003   3.095
 3648SOL    HW111843   4.877   4.914   3.111
 3648SOL    HW211844   4.913   5.058   3.178
 3649SOL     OW11845   5.622   2.429   0.428
 3649SOL    HW111846   5.562   2.442   0.349
 3649SOL    HW211847   5.578   2.467   0.509
 3650SOL     OW11848   5.265   5.806   6.158
 3650SOL    HW111849   5.253   5.739   6.084
 3650SOL    HW211850   5.185   5.865   6.163
 3651SOL     OW11851   0.876   2.154   5.882
 3651SOL    HW111852   0.955   2.097   5.907
 3651SOL    HW211853   0.798   2.130   5.940
 3652SOL     OW11854   4.692   2.397   2.487
 3652SOL    HW111855   4.674   2.488   2.449
 3652SOL    HW211856   4.667   2.327   2.420
 3653SOL     OW11857   1.844   1.259   0.732
 3653SOL    HW111858   1.817   1.199   0.808
 3653SOL    HW211859   1.927   1.224   0.690
 3654SOL     OW11860   4.347   7.010   2.168
 3654SOL    HW111861   4.268   6.977   2.115
 3654SOL    HW211862   4.335   6.985   2.264
 3655SOL     OW11863   1.224   0.805   3.676
 3655SOL    HW111864   1.178   0.892   3.692
 3655SOL    HW211865   1.155   0.732   3.667
 3656SOL     OW11866   0.010   0.199   1.328
 3656SOL    HW111867   0.106   0.225   1.317
 3656SOL    HW211868   6.973   0.255   1.267
 3657SOL     OW11869   5.818   5.236   6.163
 3657SOL    HW111870   5.734   5.183   6.151
 3657SOL    HW211871   5.897   5.175   6.160
 3658SOL     OW11872   1.957   4.727   5.401
 3658SOL    HW111873   1.944   4.821   5.370
 3658SOL    HW211874   2.055   4.710   5.411
 3659SOL     OW11875   0.556   2.721   6.863
 3659SOL    HW111876   0.644   2.767   6.876
 3659SOL    HW211877   0.482   2.785   6.885
 3660SOL     OW11878   4.468   5.326   5.612
 3660SOL    HW111879   4.425   5.405   5.569
 3660SOL    HW211880   4.449   5.327   5.710
 3661SOL     OW11881   0.278   0.949   4.336
 3661SOL    HW111882   0.291   0.971   4.433
 3661SOL    HW211883   0.184   0.968   4.310
 3662SOL     OW11884   3.166   1.667   5.611
 3662SOL    HW111885   3.138   1.596   5.546
 3662SOL    HW211886   3.112   1.658   5.695
 3663SOL     OW11887   2.287   2.535   6.437
 3663SOL    HW111888   2.263   2.586   6.355
 3663SOL    HW211889   2.362   2.472   6.416
 3664SOL     OW11890   3.271   1.941   1.101
 3664SOL    HW111891   3.179   1.981   1.106
 3664SOL    HW211892   3.267   1.855   1.051
 3665SOL     OW11893   7.009   5.225   5.566
 3665SOL    HW111894   6.926   5.251   5.615
 3665SOL    HW211895   0.021   5.137   5.602
 3666SOL     OW11896   2.176   3.613   4.287
 3666SOL    HW111897   2.191   3.604   4.385
 3666SOL    HW211898   2.264   3.616   4.240
 3667SOL     OW11899   1.854   6.833   0.711
 3667SOL    HW111900   1.777   6.813   0.772
 3667SOL    HW211901   1.939   6.831   0.763
 3668SOL     OW11902   6.005   1.448   0.775
 3668SOL    HW111903   6.062   1.413   0.850
 3668SOL    HW211904   6.003   1.547   0.779
 3669SOL     OW11905   0.328   1.271   2.160
 3669SOL    HW111906   0.324   1.292   2.258
 3669SOL    HW211907   0.378   1.185   2.147
 3670SOL     OW11908   2.049   6.881   1.914
 3670SOL    HW111909   2.111   6.890   1.836
 3670SOL    HW211910   2.102   6.855   1.996
 3671SOL     OW11911   0.051   0.427   4.698
 3671SOL    HW111912   0.004   0.380   4.623
 3671SOL    HW211913   7.013   0.429   4.779
 3672SOL     OW11914   3.871   6.901   3.718
 3672SOL    HW111915   3.861   6.896   3.618
 3672SOL    HW211916   3.963   6.932   3.741
 3673SOL     OW11917   3.165   1.026   1.458
 3673SOL    HW111918   3.164   1.083   1.540
 3673SOL    HW211919   3.155   0.930   1.485
 3674SOL     OW11920   0.453   4.284   5.630
 3674SOL    HW111921   0.362   4.246   5.614
 3674SOL    HW211922   0.445   4.369   5.682
 3675SOL     OW11923   7.001   0.750   4.173
 3675SOL    HW111924   0.028   0.675   4.217
 3675SOL    HW211925   6.949   0.802   4.241
 3676SOL     OW11926   3.333   0.910   5.515
 3676SOL    HW111927   3.431   0.921   5.497
 3676SOL    HW211928   3.316   0.912   5.613
 3677SOL     OW11929   1.478   1.298   4.421
 3677SOL    HW111930   1.544   1.229   4.394
 3677SOL    HW211931   1.417   1.260   4.491
 3678SOL     OW11932   2.198   1.120   3.581
 3678SOL    HW111933   2.235   1.135   3.672
 3678SOL    HW211934   2.204   1.204   3.528
 3679SOL     OW11935   3.179   0.682   2.777
 3679SOL    HW111936   3.083   0.685   2.748
 3679SOL    HW211937   3.202   0.589   2.806
 3680SOL     OW11938   3.102   2.212   4.527
 3680SOL    HW111939   3.114   2.214   4.428
 3680SOL    HW211940   3.187   2.183   4.571
 3681SOL     OW11941   1.174   0.043   3.875
 3681SOL    HW111942   1.160   0.041   3.974
 3681SOL    HW211943   1.266   0.009   3.854
 3682SOL     OW11944   5.342   2.334   1.214
 3682SOL    HW111945   5.329   2.416   1.157
 3682SOL    HW211946   5.255   2.309   1.255
 3683SOL     OW11947   6.744   1.653   0.841
 3683SOL    HW111948   6.757   1.581   0.773
 3683SOL    HW211949   6.736   1.742   0.795
 3684SOL     OW11950   2.684   6.216   5.881
 3684SOL    HW111951   2.708   6.178   5.970
 3684SOL    HW211952   2.762   6.264   5.842
 3685SOL     OW11953   2.337   6.050   3.828
 3685SOL    HW111954   2.311   5.989   3.753
 3685SOL    HW211955   2.424   6.020   3.866
 3686SOL     OW11956   0.033   4.038   0.097
 3686SOL    HW111957   0.060   4.001   0.186
 3686SOL    HW211958   6.954   4.037   0.089
 3687SOL     OW11959   5.929   4.475   4.454
 3687SOL    HW111960   5.967   4.551   4.508
 3687SOL    HW211961   6.000   4.439   4.393
 3688SOL     OW11962   6.866   2.981   1.030
 3688SOL    HW111963   6.799   3.054   1.042
 3688SOL    HW211964   6.874   2.929   1.115
 3689SOL     OW11965   1.156   1.215   5.857
 3689SOL    HW111966   1.194   1.126   5.831
 3689SOL    HW211967   1.188   1.239   5.949
 3690SOL     OW11968   5.781   4.878   1.714
 3690SOL    HW111969   5.690   4.920   1.724
 3690SOL    HW211970   5.789   4.801   1.776
 3691SOL     OW11971   1.690   2.407   0.779
 3691SOL    HW111972   1.642   2.409   0.691
 3691SOL    HW211973   1.775   2.460   0.772
 3692SOL     OW11974   1.035   3.081   5.463
 3692SOL    HW111975   1.016   3.028   5.546
 3692SOL    HW211976   1.131   3.108   5.463
 3693SOL     OW11977   0.154   1.615   2.325
 3693SOL    HW111978   0.131   1.554   2.401
 3693SOL    HW211979   0.072   1.664   2.294
 3694SOL     OW11980   6.934   6.542   2.326
 3694SOL    HW111981   6.904   6.470   2.263
 3694SOL    HW211982   6.855   6.576   2.378
 3695SOL     OW11983   6.089   3.865   3.802
 3695SOL    HW111984   6.101   3.964   3.798
 3695SOL    HW211985   6.013   3.842   3.863
 3696SOL     OW11986   4.659   0.489   3.838
 3696SOL    HW111987   4.580   0.485   3.777
 3696SOL    HW211988   4.717   0.567   3.812
 3697SOL     OW11989   6.377   5.324   2.814
 3697SOL    HW111990   6.474   5.337   2.794
 3697SOL    HW211991   6.357   5.226   2.819
 3698SOL     OW11992   1.815   0.018   4.039
 3698SOL    HW111993   1.758   0.091   4.000
 3698SOL    HW211994   1.912   0.042   4.029
 3699SOL     OW11995   2.570   2.427   3.124
 3699SOL    HW111996   2.588   2.516   3.081
 3699SOL    HW211997   2.583   2.355   3.056
 3700SOL     OW11998   0.825   4.957   4.652
 3700SOL    HW111999   0.871   4.869   4.665
 3700SOL    HW212000   0.838   5.014   4.732
 3701SOL     OW12001   0.461   1.063   2.018
 3701SOL    HW112002   0.371   1.026   1.994
 3701SOL    HW212003   0.524   0.988   2.036
 3702SOL     OW12004   6.689   4.501   3.512
 3702SOL    HW112005   6.593   4.504   3.487
 3702SOL    HW212006   6.715   4.587   3.556
 3703SOL     OW12007   1.448   1.990   3.249
 3703SOL    HW112008   1.436   1.913   3.312
 3703SOL    HW212009   1.532   2.038   3.271
 3704SOL     OW12010   6.067   0.417   1.055
 3704SOL    HW112011   6.080   0.514   1.033
 3704SOL    HW212012   6.156   0.371   1.054
 3705SOL     OW12013   6.153   4.140   3.802
 3705SOL    HW112014   6.240   4.096   3.778
 3705SOL    HW212015   6.169   4.237   3.821
 3706SOL     OW12016   1.037   4.781   6.370
 3706SOL    HW112017   0.945   4.742   6.377
 3706SOL    HW212018   1.056   4.836   6.451
 3707SOL     OW12019   0.896   5.007   3.540
 3707SOL    HW112020   0.912   5.010   3.638
 3707SOL    HW212021   0.815   4.951   3.521
 3708SOL     OW12022   1.401   6.216   0.326
 3708SOL    HW112023   1.358   6.188   0.412
 3708SOL    HW212024   1.334   6.211   0.252
 3709SOL     OW12025   0.847   2.018   2.137
 3709SOL    HW112026   0.869   1.980   2.227
 3709SOL    HW212027   0.804   2.108   2.149
 3710SOL     OW12028   1.825   3.866   4.841
 3710SOL    HW112029   1.873   3.787   4.803
 3710SOL    HW212030   1.890   3.924   4.889
 3711SOL     OW12031   2.229   5.811   4.981
 3711SOL    HW112032   2.237   5.750   5.061
 3711SOL    HW212033   2.135   5.809   4.948
 3712SOL     OW12034   3.171   5.398   4.150
 3712SOL    HW112035   3.167   5.394   4.050
 3712SOL    HW212036   3.249   5.344   4.182
 3713SOL     OW12037   5.820   0.413   5.279
 3713SOL    HW112038   5.789   0.464   5.359
 3713SOL    HW212039   5.844   0.320   5.306
 3714SOL     OW12040   0.160   4.381   6.545
 3714SOL    HW112041   0.210   4.294   6.544
 3714SOL    HW212042   0.087   4.376   6.614
 3715SOL     OW12043   6.293   4.492   3.595
 3715SOL    HW112044   6.244   4.554   3.534
 3715SOL    HW212045   6.300   4.402   3.551
 3716SOL     OW12046   5.813   5.881   5.785
 3716SOL    HW112047   5.907   5.875   5.819
 3716SOL    HW212048   5.811   5.858   5.687
 3717SOL     OW12049   4.632   0.488   0.978
 3717SOL    HW112050   4.651   0.513   1.073
 3717SOL    HW212051   4.616   0.571   0.924
 3718SOL     OW12052   5.666   6.936   6.576
 3718SOL    HW112053   5.571   6.933   6.547
 3718SOL    HW212054   5.720   6.873   6.521
 3719SOL     OW12055   2.924   4.530   0.299
 3719SOL    HW112056   2.880   4.569   0.380
 3719SOL    HW212057   2.899   4.583   0.218
 3720SOL     OW12058   0.056   2.943   0.878
 3720SOL    HW112059   0.001   2.893   0.811
 3720SOL    HW212060   7.017   2.979   0.950
 3721SOL     OW12061   6.230   0.184   5.645
 3721SOL    HW112062   6.283   0.217   5.566
 3721SOL    HW212063   6.288   0.187   5.726
 3722SOL     OW12064   5.932   6.522   1.488
 3722SOL    HW112065   5.931   6.585   1.566
 3722SOL    HW212066   5.973   6.568   1.409
 3723SOL     OW12067   4.767   4.365   6.477
 3723SOL    HW112068   4.851   4.354   6.424
 3723SOL    HW212069   4.742   4.462   6.479
 3724SOL     OW12070   6.689   4.375   4.607
 3724SOL    HW112071   6.782   4.406   4.587
 3724SOL    HW212072   6.692   4.307   4.680
 3725SOL     OW12073   0.918   5.867   0.239
 3725SOL    HW112074   0.851   5.808   0.285
 3725SOL    HW212075   0.874   5.915   0.163
 3726SOL     OW12076   6.451   3.306   5.514
 3726SOL    HW112077   6.455   3.376   5.585
 3726SOL    HW212078   6.527   3.242   5.526
 3727SOL     OW12079   6.515   2.096   4.049
 3727SOL    HW112080   6.466   2.009   4.041
 3727SOL    HW212081   6.479   2.161   3.982
 3728SOL     OW12082   1.901   4.248   0.915
 3728SOL    HW112083   1.954   4.333   0.920
 3728SOL    HW212084   1.828   4.258   0.847
 3729SOL     OW12085   0.391   0.038   5.795
 3729SOL    HW112086   0.469   0.047   5.856
 3729SOL    HW212087   0.351   6.968   5.805
 3730SOL     OW12088   4.920   5.159   4.906
 3730SOL    HW112089   4.888   5.094   4.837
 3730SOL    HW212090   4.981   5.226   4.862
 3731SOL     OW12091   0.194   1.919   0.579
 3731SOL    HW112092   0.114   1.860   0.569
 3731SOL    HW212093   0.238   1.901   0.667
 3732SOL     OW12094   3.552   3.120   6.650
 3732SOL    HW112095   3.474   3.077   6.696
 3732SOL    HW212096   3.521   3.204   6.605
 3733SOL     OW12097   1.410   1.050   3.572
 3733SOL    HW112098   1.464   1.126   3.538
 3733SOL    HW212099   1.465   0.966   3.569
 3734SOL     OW12100   3.474   7.013   2.174
 3734SOL    HW112101   3.452   6.915   2.175
 3734SOL    HW212102   3.419   0.039   2.105
 3735SOL     OW12103   4.587   0.688   2.991
 3735SOL    HW112104   4.496   0.648   2.988
 3735SOL    HW212105   4.590   0.770   2.934
 3736SOL     OW12106   0.541   1.555   0.189
 3736SOL    HW112107   0.513   1.651   0.191
 3736SOL    HW212108   0.597   1.534   0.270
 3737SOL     OW12109   5.921   2.176   3.183
 3737SOL    HW112110   5.981   2.120   3.125
 3737SOL    HW212111   5.970   2.258   3.212
 3738SOL     OW12112   0.427   0.754   1.099
 3738SOL    HW112113   0.492   0.769   1.024
 3738SOL    HW212114   0.477   0.752   1.186
 3739SOL     OW12115   3.007   4.524   6.894
 3739SOL    HW112116   2.997   4.445   6.955
 3739SOL    HW212117   2.919   4.545   6.852
 3740SOL     OW12118   5.532   6.221   6.847
 3740SOL    HW112119   5.586   6.194   6.768
 3740SOL    HW212120   5.535   6.320   6.857
 3741SOL     OW12121   5.355   3.799   0.330
 3741SOL    HW112122   5.391   3.781   0.421
 3741SOL    HW212123   5.295   3.724   0.302
 3742SOL     OW12124   4.574   5.463   1.237
 3742SOL    HW112125   4.570   5.384   1.175
 3742SOL    HW212126   4.571   5.547   1.183
 3743SOL     OW12127   2.834   4.374   0.780
 3743SOL    HW112128   2.903   4.323   0.728
 3743SOL    HW212129   2.767   4.311   0.819
 3744SOL     OW12130   6.544   5.834   2.549
 3744SOL    HW112131   6.534   5.765   2.477
 3744SOL    HW212132   6.568   5.789   2.635
 3745SOL     OW12133   4.677   2.192   2.746
 3745SOL    HW112134   4.597   2.135   2.765
 3745SOL    HW212135   4.648   2.286   2.727
 3746SOL     OW12136   5.472   6.911   4.620
 3746SOL    HW112137   5.404   6.847   4.586
 3746SOL    HW212138   5.458   7.001   4.579
 3747SOL     OW12139   2.770   5.700   5.364
 3747SOL    HW112140   2.715   5.783   5.349
 3747SOL    HW212141   2.832   5.687   5.287
 3748SOL     OW12142   5.150   2.426   3.444
 3748SOL    HW112143   5.151   2.516   3.488
 3748SOL    HW212144   5.069   2.417   3.387
 3749SOL     OW12145   6.592   6.514   2.035
 3749SOL    HW112146   6.567   6.606   2.004
 3749SOL    HW212147   6.551   6.447   1.973
 3750SOL     OW12148   5.830   4.049   1.190
 3750SOL    HW112149   5.836   4.076   1.286
 3750SOL    HW212150   5.914   4.001   1.163
 3751SOL     OW12151   0.974   4.305   1.649
 3751SOL    HW112152   0.976   4.303   1.549
 3751SOL    HW212153   1.051   4.253   1.686
 3752SOL     OW12154   0.851   6.360   6.116
 3752SOL    HW112155   0.768   6.310   6.140
 3752SOL    HW212156   0.929   6.298   6.115
 3753SOL     OW12157   0.225   0.651   4.988
 3753SOL    HW112158   0.235   0.597   5.071
 3753SOL    HW212159   0.134   0.693   4.985
 3754SOL     OW12160   6.596   6.065   1.432
 3754SOL    HW112161   6.659   6.104   1.499
 3754SOL    HW212162   6.533   6.136   1.400
 3755SOL     OW12163   4.843   2.706   2.779
 3755SOL    HW112164   4.900   2.627   2.802
 3755SOL    HW212165   4.829   2.709   2.680
 3756SOL     OW12166   3.451   6.967   0.233
 3756SOL    HW112167   3.526   0.000   0.197
 3756SOL    HW212168   3.468   6.869   0.217
 3757SOL     OW12169   3.882   5.081   6.557
 3757SOL    HW112170   3.832   5.065   6.642
 3757SOL    HW212171   3.818   5.084   6.481
 3758SOL     OW12172   6.842   0.651   2.604
 3758SOL    HW112173   6.855   0.568   2.549
 3758SOL    HW212174   6.790   0.629   2.686
 3759SOL     OW12175   4.928   4.909   0.788
 3759SOL    HW112176   4.897   4.914   0.883
 3759SOL    HW212177   4.888   4.985   0.735
 3760SOL     OW12178   1.879   1.822   5.918
 3760SOL    HW112179   1.971   1.785   5.912
 3760SOL    HW212180   1.830   1.776   5.993
 3761SOL     OW12181   6.814   6.251   4.042
 3761SOL    HW112182   6.744   6.228   4.109
 3761SOL    HW212183   6.869   6.170   4.022
 3762SOL     OW12184   0.529   2.963   0.377
 3762SOL    HW112185   0.467   3.038   0.349
 3762SOL    HW212186   0.623   2.987   0.352
 3763SOL     OW12187   6.918   3.666   5.503
 3763SOL    HW112188   6.966   3.605   5.440
 3763SOL    HW212189   6.865   3.611   5.568
 3764SOL     OW12190   2.742   0.020   4.240
 3764SOL    HW112191   2.730   0.060   4.331
 3764SOL    HW212192   2.654   0.018   4.192
 3765SOL     OW12193   5.702   1.560   3.303
 3765SOL    HW112194   5.732   1.650   3.335
 3765SOL    HW212195   5.747   1.540   3.216
 3766SOL     OW12196   1.564   0.875   5.126
 3766SOL    HW112197   1.587   0.788   5.083
 3766SOL    HW212198   1.507   0.858   5.207
 3767SOL     OW12199   0.656   4.410   0.115
 3767SOL    HW112200   0.708   4.494   0.103
 3767SOL    HW212201   0.694   4.338   0.056
 3768SOL     OW12202   4.074   6.562   1.515
 3768SOL    HW112203   4.127   6.626   1.459
 3768SOL    HW212204   4.132   6.483   1.538
 3769SOL     OW12205   4.550   6.801   5.099
 3769SOL    HW112206   4.541   6.768   5.005
 3769SOL    HW212207   4.588   6.729   5.156
 3770SOL     OW12208   2.759   2.415   0.659
 3770SOL    HW112209   2.747   2.504   0.704
 3770SOL    HW212210   2.706   2.414   0.574
 3771SOL     OW12211   4.383   1.819   5.210
 3771SOL    HW112212   4.451   1.869   5.263
 3771SOL    HW212213   4.422   1.731   5.181
 3772SOL     OW12214   4.669   0.468   2.660
 3772SOL    HW112215   4.634   0.383   2.621
 3772SOL    HW212216   4.681   0.458   2.758
 3773SOL     OW12217   6.557   2.075   0.735
 3773SOL    HW112218   6.461   2.096   0.717
 3773SOL    HW212219   6.577   2.091   0.832
 3774SOL     OW12220   1.211   1.883   2.137
 3774SOL    HW112221   1.190   1.977   2.161
 3774SOL    HW212222   1.202   1.871   2.038
 3775SOL     OW12223   5.418   3.164   3.462
 3775SOL    HW112224   5.426   3.242   3.525
 3775SOL    HW212225   5.507   3.148   3.418
 3776SOL     OW12226   3.217   2.468   6.701
 3776SOL    HW112227   3.268   2.537   6.751
 3776SOL    HW212228   3.120   2.491   6.700
 3777SOL     OW12229   1.179   4.010   3.052
 3777SOL    HW112230   1.263   4.063   3.063
 3777SOL    HW212231   1.164   3.955   3.134
 3778SOL     OW12232   2.606   6.710   1.878
 3778SOL    HW112233   2.636   6.660   1.958
 3778SOL    HW212234   2.607   6.808   1.897
 3779SOL     OW12235   2.008   4.611   0.075
 3779SOL    HW112236   1.983   4.519   0.046
 3779SOL    HW212237   2.006   4.616   0.175
 3780SOL     OW12238   2.663   0.377   3.961
 3780SOL    HW112239   2.598   0.443   3.924
 3780SOL    HW212240   2.634   0.285   3.937
 3781SOL     OW12241   2.703   5.532   4.860
 3781SOL    HW112242   2.681   5.627   4.881
 3781SOL    HW212243   2.695   5.477   4.943
 3782SOL     OW12244   2.905   0.991   2.699
 3782SOL    HW112245   2.828   0.977   2.762
 3782SOL    HW212246   2.894   1.079   2.652
 3783SOL     OW12247   5.167   5.563   4.996
 3783SOL    HW112248   5.136   5.486   5.053
 3783SOL    HW212249   5.210   5.527   4.913
 3784SOL     OW12250   5.222   2.002   4.300
 3784SOL    HW112251   5.152   2.032   4.364
 3784SOL    HW212252   5.242   2.075   4.235
 3785SOL     OW12253   1.221   1.446   2.112
 3785SOL    HW112254   1.170   1.529   2.089
 3785SOL    HW212255   1.276   1.462   2.194
 3786SOL     OW12256   3.297   6.345   2.976
 3786SOL    HW112257   3.357   6.295   3.039
 3786SOL    HW212258   3.218   6.381   3.025
 3787SOL     OW12259   4.212   1.191   4.233
 3787SOL    HW112260   4.166   1.151   4.313
 3787SOL    HW212261   4.284   1.253   4.265
 3788SOL     OW12262   6.574   3.423   2.254
 3788SOL    HW112263   6.598   3.503   2.310
 3788SOL    HW212264   6.633   3.347   2.277
 3789SOL     OW12265   1.149   5.424   2.158
 3789SOL    HW112266   1.234   5.377   2.183
 3789SOL    HW212267   1.087   5.360   2.113
 3790SOL     OW12268   2.011   3.041   3.083
 3790SOL    HW112269   2.026   3.131   3.124
 3790SOL    HW212270   1.974   3.052   2.991
 3791SOL     OW12271   6.146   0.563   2.598
 3791SOL    HW112272   6.236   0.525   2.619
 3791SOL    HW212273   6.156   0.657   2.567
 3792SOL     OW12274   0.314   6.763   6.112
 3792SOL    HW112275   0.281   6.736   6.202
 3792SOL    HW212276   0.319   6.862   6.106
 3793SOL     OW12277   0.993   6.184   2.914
 3793SOL    HW112278   1.063   6.137   2.861
 3793SOL    HW212279   0.935   6.116   2.960
 3794SOL     OW12280   4.217   6.569   3.417
 3794SOL    HW112281   4.220   6.577   3.317
 3794SOL    HW212282   4.201   6.659   3.457
 3795SOL     OW12283   5.434   0.136   0.799
 3795SOL    HW112284   5.491   0.058   0.773
 3795SOL    HW212285   5.465   0.172   0.887
 3796SOL     OW12286   1.159   3.112   0.690
 3796SOL    HW112287   1.134   3.203   0.658
 3796SOL    HW212288   1.104   3.044   0.642
 3797SOL     OW12289   0.013   5.315   2.007
 3797SOL    HW112290   0.049   5.399   1.966
 3797SOL    HW212291   0.035   5.314   2.105
 3798SOL     OW12292   0.510   4.083   1.164
 3798SOL    HW112293   0.481   3.989   1.181
 3798SOL    HW212294   0.607   4.085   1.143
 3799SOL     OW12295   1.209   0.294   4.929
 3799SOL    HW112296   1.126   0.348   4.935
 3799SOL    HW212297   1.263   0.306   5.012
 3800SOL     OW12298   5.028   2.564   5.315
 3800SOL    HW112299   5.102   2.620   5.276
 3800SOL    HW212300   4.983   2.614   5.389
 3801SOL     OW12301   6.793   0.014   6.721
 3801SOL    HW112302   6.880   0.064   6.729
 3801SOL    HW212303   6.726   0.054   6.783
 3802SOL     OW12304   1.274   2.679   5.472
 3802SOL    HW112305   1.274   2.764   5.418
 3802SOL    HW212306   1.356   2.675   5.528
 3803SOL     OW12307   4.177   0.984   1.289
 3803SOL    HW112308   4.237   1.022   1.360
 3803SOL    HW212309   4.111   0.923   1.332
 3804SOL     OW12310   5.145   2.810   4.949
 3804SOL    HW112311   5.156   2.784   5.045
 3804SOL    HW212312   5.170   2.907   4.938
 3805SOL     OW12313   1.979   3.757   1.716
 3805SOL    HW112314   2.062   3.705   1.737
 3805SOL    HW212315   1.983   3.846   1.761
 3806SOL     OW12316   3.531   1.404   0.687
 3806SOL    HW112317   3.541   1.385   0.589
 3806SOL    HW212318   3.571   1.328   0.739
 3807SOL     OW12319   1.591   0.043   2.861
 3807SOL    HW112320   1.689   0.062   2.850
 3807SOL    HW212321   1.564   6.991   2.798
 3808SOL     OW12322   3.079   0.544   1.160
 3808SOL    HW112323   3.070   0.486   1.241
 3808SOL    HW212324   3.135   0.498   1.092
 3809SOL     OW12325   3.946   0.298   6.745
 3809SOL    HW112326   3.989   0.375   6.697
 3809SOL    HW212327   3.956   0.311   6.844
 3810SOL     OW12328   2.295   3.714   6.350
 3810SOL    HW112329   2.326   3.624   6.320
 3810SOL    HW212330   2.351   3.745   6.427
 3811SOL     OW12331   0.965   0.392   6.418
 3811SOL    HW112332   0.868   0.367   6.412
 3811SOL    HW212333   1.021   0.322   6.375
 3812SOL     OW12334   5.400   0.862   6.001
 3812SOL    HW112335   5.491   0.821   5.998
 3812SOL    HW212336   5.333   0.796   5.967
 3813SOL     OW12337   3.870   4.865   2.010
 3813SOL    HW112338   3.784   4.825   1.980
 3813SOL    HW212339   3.932   4.793   2.041
 3814SOL     OW12340   2.050   0.887   1.927
 3814SOL    HW112341   1.966   0.895   1.874
 3814SOL    HW212342   2.083   0.978   1.952
 3815SOL     OW12343   5.401   2.151   1.929
 3815SOL    HW112344   5.463   2.229   1.922
 3815SOL    HW212345   5.423   2.084   1.859
 3816SOL     OW12346   0.085   6.418   1.112
 3816SOL    HW112347   0.115   6.334   1.066
 3816SOL    HW212348   0.113   6.497   1.058
 3817SOL     OW12349   4.725   1.596   5.404
 3817SOL    HW112350   4.740   1.649   5.320
 3817SOL    HW212351   4.806   1.604   5.463
 3818SOL     OW12352   4.577   5.544   3.187
 3818SOL    HW112353   4.558   5.577   3.095
 3818SOL    HW212354   4.587   5.622   3.249
 3819SOL     OW12355   6.256   4.364   5.933
 3819SOL    HW112356   6.271   4.445   5.876
 3819SOL    HW212357   6.296   4.284   5.888
 3820SOL     OW12358   4.910   6.162   3.380
 3820SOL    HW112359   4.910   6.260   3.398
 3820SOL    HW212360   4.840   6.117   3.436
 3821SOL     OW12361   0.121   4.683   1.445
 3821SOL    HW112362   0.128   4.635   1.533
 3821SOL    HW212363   0.034   4.659   1.401
 3822SOL     OW12364   0.438   4.605   1.534
 3822SOL    HW112365   0.392   4.602   1.445
 3822SOL    HW212366   0.433   4.515   1.577
 3823SOL     OW12367   2.736   3.167   5.810
 3823SOL    HW112368   2.770   3.242   5.866
 3823SOL    HW212369   2.800   3.148   5.735
 3824SOL     OW12370   6.827   2.185   6.108
 3824SOL    HW112371   6.910   2.192   6.163
 3824SOL    HW212372   6.765   2.259   6.131
 3825SOL     OW12373   6.373   6.586   5.847
 3825SOL    HW112374   6.432   6.651   5.896
 3825SOL    HW212375   6.295   6.635   5.808
 3826SOL     OW12376   6.871   1.986   1.237
 3826SOL    HW112377   6.877   1.997   1.138
 3826SOL    HW212378   6.955   1.943   1.270
 3827SOL     OW12379   5.580   2.237   1.113
 3827SOL    HW112380   5.623   2.311   1.061
 3827SOL    HW212381   5.495   2.271   1.154
 3828SOL     OW12382   4.252   1.154   1.497
 3828SOL    HW112383   4.300   1.242   1.488
 3828SOL    HW212384   4.300   1.096   1.563
 3829SOL     OW12385   1.105   4.917   3.364
 3829SOL    HW112386   1.130   5.000   3.313
 3829SOL    HW212387   1.033   4.940   3.430
 3830SOL     OW12388   3.131   0.504   5.553
 3830SOL    HW112389   3.085   0.416   5.556
 3830SOL    HW212390   3.067   0.577   5.576
 3831SOL     OW12391   4.680   1.599   2.156
 3831SOL    HW112392   4.594   1.650   2.158
 3831SOL    HW212393   4.665   1.509   2.114
 3832SOL     OW12394   5.338   7.003   2.541
 3832SOL    HW112395   5.330   0.052   2.469
 3832SOL    HW212396   5.334   6.912   2.500
 3833SOL     OW12397   1.546   6.465   1.620
 3833SOL    HW112398   1.482   6.536   1.649
 3833SOL    HW212399   1.622   6.460   1.685
 3834SOL     OW12400   2.837   2.830   0.830
 3834SOL    HW112401   2.918   2.858   0.778
 3834SOL    HW212402   2.847   2.862   0.925
 3835SOL     OW12403   3.727   5.671   3.703
 3835SOL    HW112404   3.653   5.695   3.640
 3835SOL    HW212405   3.788   5.605   3.660
 3836SOL     OW12406   1.800   3.022   5.230
 3836SOL    HW112407   1.845   3.105   5.198
 3836SOL    HW212408   1.849   2.987   5.310
 3837SOL     OW12409   3.226   3.546   0.075
 3837SOL    HW112410   3.232   3.638   0.036
 3837SOL    HW212411   3.296   3.488   0.033
 3838SOL     OW12412   5.759   3.020   5.334
 3838SOL    HW112413   5.678   3.074   5.311
 3838SOL    HW212414   5.842   3.075   5.320
 3839SOL     OW12415   0.482   6.059   6.119
 3839SOL    HW112416   0.386   6.032   6.107
 3839SOL    HW212417   0.487   6.159   6.131
 3840SOL     OW12418   2.259   0.996   3.837
 3840SOL    HW112419   2.219   0.923   3.781
 3840SOL    HW212420   2.191   1.027   3.903
 3841SOL     OW12421   0.900   3.890   4.130
 3841SOL    HW112422   0.935   3.828   4.060
 3841SOL    HW212423   0.894   3.842   4.218
 3842SOL     OW12424   1.577   5.500   6.949
 3842SOL    HW112425   1.640   5.481   0.004
 3842SOL    HW212426   1.585   5.427   6.880
 3843SOL     OW12427   5.693   4.085   0.412
 3843SOL    HW112428   5.599   4.054   0.427
 3843SOL    HW212429   5.700   4.181   0.437
 3844SOL     OW12430   2.467   4.401   5.631
 3844SOL    HW112431   2.567   4.408   5.633
 3844SOL    HW212432   2.427   4.489   5.657
 3845SOL     OW12433   3.289   3.513   3.832
 3845SOL    HW112434   3.278   3.561   3.745
 3845SOL    HW212435   3.374   3.460   3.830
 3846SOL     OW12436   6.684   4.502   4.065
 3846SOL    HW112437   6.780   4.484   4.089
 3846SOL    HW212438   6.676   4.512   3.966
 3847SOL     OW12439   0.712   6.969   0.802
 3847SOL    HW112440   0.618   6.941   0.819
 3847SOL    HW212441   0.712   0.040   0.760
 3848SOL     OW12442   2.792   5.996   1.491
 3848SOL    HW112443   2.737   5.915   1.469
 3848SOL    HW212444   2.885   5.966   1.515
 3849SOL     OW12445   2.488   1.394   5.958
 3849SOL    HW112446   2.406   1.361   5.912
 3849SOL    HW212447   2.472   1.398   6.057
 3850SOL     OW12448   1.993   3.874   1.466
 3850SOL    HW112449   1.958   3.871   1.559
 3850SOL    HW212450   2.089   3.847   1.466
 3851SOL     OW12451   2.863   2.574   0.973
 3851SOL    HW112452   2.856   2.661   0.925
 3851SOL    HW212453   2.860   2.589   1.072
 3852SOL     OW12454   4.230   0.987   5.644
 3852SOL    HW112455   4.194   1.075   5.611
 3852SOL    HW212456   4.167   0.950   5.712
 3853SOL     OW12457   1.007   3.126   1.920
 3853SOL    HW112458   0.910   3.137   1.900
 3853SOL    HW212459   1.030   3.176   2.004
 3854SOL     OW12460   1.786   3.044   4.156
 3854SOL    HW112461   1.694   3.068   4.189
 3854SOL    HW212462   1.784   3.037   4.057
 3855SOL     OW12463   6.997   1.768   4.855
 3855SOL    HW112464   6.962   1.679   4.828
 3855SOL    HW212465   6.931   1.839   4.832
 3856SOL     OW12466   1.282   6.211   5.853
 3856SOL    HW112467   1.237   6.220   5.764
 3856SOL    HW212468   1.212   6.200   5.924
 3857SOL     OW12469   0.678   0.042   6.199
 3857SOL    HW112470   0.778   0.046   6.195
 3857SOL    HW212471   0.650   6.969   6.216
 3858SOL     OW12472   2.645   5.070   6.934
 3858SOL    HW112473   2.619   5.137   6.864
 3858SOL    HW212474   2.742   5.079   6.954
 3859SOL     OW12475   5.965   2.784   2.152
 3859SOL    HW112476   5.964   2.827   2.243
 3859SOL    HW212477   6.053   2.739   2.137
 3860SOL     OW12478   2.190   5.991   5.252
 3860SOL    HW112479   2.148   6.069   5.298
 3860SOL    HW212480   2.239   6.022   5.171
 3861SOL     OW12481   3.785   4.291   0.367
 3861SOL    HW112482   3.688   4.281   0.342
 3861SOL    HW212483   3.822   4.202   0.395
 3862SOL     OW12484   0.566   5.727   5.235
 3862SOL    HW112485   0.593   5.692   5.325
 3862SOL    HW212486   0.628   5.801   5.208
 3863SOL     OW12487   2.869   3.567   0.811
 3863SOL    HW112488   2.938   3.498   0.835
 3863SOL    HW212489   2.857   3.569   0.712
 3864SOL     OW12490   3.197   1.706   1.007
 3864SOL    HW112491   3.270   1.638   1.002
 3864SOL    HW212492   3.139   1.700   0.926
 3865SOL     OW12493   4.159   0.676   2.334
 3865SOL    HW112494   4.104   0.653   2.254
 3865SOL    HW212495   4.216   0.756   2.314
 3866SOL     OW12496   3.216   6.319   6.668
 3866SOL    HW112497   3.306   6.342   6.633
 3866SOL    HW212498   3.161   6.403   6.673
 3867SOL     OW12499   1.526   4.988   3.463
 3867SOL    HW112500   1.515   5.029   3.372
 3867SOL    HW212501   1.619   5.004   3.496
 3868SOL     OW12502   2.473   5.930   2.760
 3868SOL    HW112503   2.521   6.002   2.810
 3868SOL    HW212504   2.450   5.963   2.668
 3869SOL     OW12505   0.437   1.510   3.862
 3869SOL    HW112506   0.518   1.496   3.805
 3869SOL    HW212507   0.367   1.558   3.809
 3870SOL     OW12508   3.595   4.091   0.529
 3870SOL    HW112509   3.639   4.015   0.577
 3870SOL    HW212510   3.544   4.147   0.595
 3871SOL     OW12511   3.035   1.250   5.232
 3871SOL    HW112512   3.023   1.311   5.153
 3871SOL    HW212513   2.972   1.173   5.223
 3872SOL     OW12514   4.349   3.814   1.188
 3872SOL    HW112515   4.309   3.729   1.223
 3872SOL    HW212516   4.399   3.860   1.261
 3873SOL     OW12517   5.629   4.935   2.056
 3873SOL    HW112518   5.620   4.860   1.990
 3873SOL    HW212519   5.687   4.907   2.132
 3874SOL     OW12520   4.535   5.680   5.919
 3874SOL    HW112521   4.617   5.631   5.891
 3874SOL    HW212522   4.477   5.697   5.839
 3875SOL     OW12523   2.575   4.097   0.388
 3875SOL    HW112524   2.638   4.168   0.421
 3875SOL    HW212525   2.614   4.007   0.408
 3876SOL     OW12526   5.525   3.654   2.105
 3876SOL    HW112527   5.618   3.653   2.069
 3876SOL    HW212528   5.510   3.572   2.161
 3877SOL     OW12529   4.512   1.948   2.005
 3877SOL    HW112530   4.523   2.004   1.922
 3877SOL    HW212531   4.570   1.986   2.078
 3878SOL     OW12532   4.648   5.712   4.617
 3878SOL    HW112533   4.664   5.650   4.695
 3878SOL    HW212534   4.550   5.728   4.608
 3879SOL     OW12535   2.756   5.983   0.853
 3879SOL    HW112536   2.794   6.003   0.943
 3879SOL    HW212537   2.656   5.982   0.858
 3880SOL     OW12538   6.138   1.879   4.208
 3880SOL    HW112539   6.076   1.955   4.186
 3880SOL    HW212540   6.125   1.853   4.304
 3881SOL     OW12541   0.506   5.663   6.857
 3881SOL    HW112542   0.512   5.729   6.783
 3881SOL    HW212543   0.465   5.707   6.937
 3882SOL     OW12544   6.956   6.122   6.660
 3882SOL    HW112545   6.959   6.022   6.652
 3882SOL    HW212546   7.018   6.152   6.732
 3883SOL     OW12547   3.695   2.066   0.085
 3883SOL    HW112548   3.698   2.062   7.006
 3883SOL    HW212549   3.782   2.034   0.122
 3884SOL     OW12550   2.069   5.042   5.684
 3884SOL    HW112551   2.168   5.035   5.700
 3884SOL    HW212552   2.046   5.136   5.659
 3885SOL     OW12553   6.680   0.881   4.607
 3885SOL    HW112554   6.761   0.852   4.658
 3885SOL    HW212555   6.705   0.897   4.511
 3886SOL     OW12556   0.172   5.861   4.900
 3886SOL    HW112557   0.169   5.893   4.806
 3886SOL    HW212558   0.105   5.788   4.913
 3887SOL     OW12559   5.483   2.609   4.821
 3887SOL    HW112560   5.564   2.551   4.827
 3887SOL    HW212561   5.480   2.670   4.900
 3888SOL     OW12562   5.467   1.418   2.583
 3888SOL    HW112563   5.535   1.439   2.513
 3888SOL    HW212564   5.510   1.363   2.655
 3889SOL     OW12565   6.500   5.815   6.837
 3889SOL    HW112566   6.504   5.807   6.737
 3889SOL    HW212567   6.468   5.906   6.862
 3890SOL     OW12568   6.292   3.236   3.078
 3890SOL    HW112569   6.355   3.207   3.006
 3890SOL    HW212570   6.343   3.251   3.163
 3891SOL     OW12571   4.754   4.800   5.811
 3891SOL    HW112572   4.722   4.831   5.901
 3891SOL    HW212573   4.675   4.771   5.756
 3892SOL     OW12574   5.662   5.650   3.872
 3892SOL    HW112575   5.596   5.705   3.923
 3892SOL    HW212576   5.725   5.710   3.822
 3893SOL     OW12577   3.022   6.278   4.402
 3893SOL    HW112578   2.986   6.244   4.316
 3893SOL    HW212579   3.086   6.211   4.440
 3894SOL     OW12580   5.950   5.149   6.836
 3894SOL    HW112581   5.897   5.216   6.783
 3894SOL    HW212582   5.986   5.079   6.774
 3895SOL     OW12583   1.803   1.693   6.163
 3895SOL    HW112584   1.710   1.717   6.190
 3895SOL    HW212585   1.859   1.677   6.244
 3896SOL     OW12586   6.428   3.273   0.482
 3896SOL    HW112587   6.464   3.186   0.515
 3896SOL    HW212588   6.329   3.275   0.494
 3897SOL     OW12589   3.070   6.667   3.408
 3897SOL    HW112590   2.992   6.633   3.461
 3897SOL    HW212591   3.155   6.646   3.456
 3898SOL     OW12592   3.281   3.274   4.080
 3898SOL    HW112593   3.229   3.358   4.096
 3898SOL    HW212594   3.289   3.223   4.166
 3899SOL     OW12595   4.674   1.742   6.623
 3899SOL    HW112596   4.575   1.759   6.621
 3899SOL    HW212597   4.711   1.750   6.530
 3900SOL     OW12598   0.865   2.574   3.973
 3900SOL    HW112599   0.828   2.502   3.913
 3900SOL    HW212600   0.870   2.540   4.067
 3901SOL     OW12601   3.532   5.841   5.739
 3901SOL    HW112602   3.591   5.848   5.820
 3901SOL    HW212603   3.494   5.931   5.717
 3902SOL     OW12604   3.723   5.485   2.769
 3902SOL    HW112605   3.737   5.518   2.676
 3902SOL    HW212606   3.652   5.540   2.813
 3903SOL     OW12607   3.816   3.837   5.915
 3903SOL    HW112608   3.797   3.744   5.947
 3903SOL    HW212609   3.731   3.890   5.917
 3904SOL     OW12610   1.979   6.291   0.019
 3904SOL    HW112611   2.043   6.312   6.966
 3904SOL    HW212612   1.962   6.193   0.022
 3905SOL     OW12613   4.742   0.052   5.712
 3905SOL    HW112614   4.780   0.068   5.803
 3905SOL    HW212615   4.648   0.019   5.721
 3906SOL     OW12616   6.752   5.970   4.313
 3906SOL    HW112617   6.664   5.975   4.360
 3906SOL    HW212618   6.796   5.883   4.333
 3907SOL     OW12619   0.474   1.862   4.290
 3907SOL    HW112620   0.572   1.848   4.276
 3907SOL    HW212621   0.428   1.866   4.202
 3908SOL     OW12622   1.867   0.705   4.723
 3908SOL    HW112623   1.856   0.649   4.641
 3908SOL    HW212624   1.880   0.800   4.697
 3909SOL     OW12625   5.421   3.758   1.876
 3909SOL    HW112626   5.443   3.713   1.962
 3909SOL    HW212627   5.470   3.712   1.801
 3910SOL     OW12628   2.235   2.804   1.291
 3910SOL    HW112629   2.297   2.747   1.238
 3910SOL    HW212630   2.257   2.900   1.276
 3911SOL     OW12631   0.009   1.600   1.205
 3911SOL    HW112632   6.945   1.604   1.152
 3911SOL    HW212633   0.078   1.548   1.155
 3912SOL     OW12634   4.526   4.007   0.559
 3912SOL    HW112635   4.619   4.022   0.525
 3912SOL    HW212636   4.515   4.051   0.648
 3913SOL     OW12637   3.960   5.034   1.440
 3913SOL    HW112638   4.048   4.991   1.417
 3913SOL    HW212639   3.936   5.010   1.534
 3914SOL     OW12640   0.408   0.904   0.808
 3914SOL    HW112641   0.354   0.824   0.783
 3914SOL    HW212642   0.347   0.979   0.835
 3915SOL     OW12643   5.500   0.236   5.128
 3915SOL    HW112644   5.587   0.271   5.162
 3915SOL    HW212645   5.511   0.140   5.101
 3916SOL     OW12646   1.890   2.597   2.367
 3916SOL    HW112647   1.853   2.644   2.288
 3916SOL    HW212648   1.922   2.506   2.341
 3917SOL     OW12649   4.554   5.286   2.470
 3917SOL    HW112650   4.496   5.365   2.451
 3917SOL    HW212651   4.650   5.312   2.462
 3918SOL     OW12652   4.067   6.885   1.259
 3918SOL    HW112653   3.978   6.927   1.281
 3918SOL    HW212654   4.124   6.952   1.211
 3919SOL     OW12655   5.367   5.530   2.946
 3919SOL    HW112656   5.456   5.496   2.916
 3919SOL    HW212657   5.365   5.629   2.941
 3920SOL     OW12658   3.863   1.641   5.864
 3920SOL    HW112659   3.916   1.724   5.884
 3920SOL    HW212660   3.767   1.666   5.849
 3921SOL     OW12661   1.519   2.921   6.233
 3921SOL    HW112662   1.535   3.015   6.262
 3921SOL    HW212663   1.422   2.900   6.240
 3922SOL     OW12664   5.252   2.358   4.115
 3922SOL    HW112665   5.243   2.458   4.105
 3922SOL    HW212666   5.172   2.314   4.074
 3923SOL     OW12667   5.829   0.803   1.158
 3923SOL    HW112668   5.774   0.720   1.170
 3923SOL    HW212669   5.775   0.872   1.109
 3924SOL     OW12670   5.355   4.846   4.306
 3924SOL    HW112671   5.389   4.940   4.305
 3924SOL    HW212672   5.266   4.843   4.262
 3925SOL     OW12673   3.313   5.092   1.540
 3925SOL    HW112674   3.289   5.038   1.620
 3925SOL    HW212675   3.256   5.174   1.535
 3926SOL     OW12676   1.352   6.140   5.432
 3926SOL    HW112677   1.379   6.235   5.447
 3926SOL    HW212678   1.417   6.095   5.371
 3927SOL     OW12679   5.986   6.826   5.386
 3927SOL    HW112680   6.041   6.745   5.363
 3927SOL    HW212681   6.045   6.895   5.427
 3928SOL     OW12682   4.554   5.570   2.611
 3928SOL    HW112683   4.454   5.571   2.614
 3928SOL    HW212684   4.587   5.646   2.555
 3929SOL     OW12685   1.385   0.990   5.539
 3929SOL    HW112686   1.463   1.000   5.478
 3929SOL    HW212687   1.301   0.982   5.484
 3930SOL     OW12688   2.545   6.113   4.471
 3930SOL    HW112689   2.476   6.088   4.539
 3930SOL    HW212690   2.577   6.030   4.425
 3931SOL     OW12691   0.601   2.304   0.226
 3931SOL    HW112692   0.691   2.320   0.267
 3931SOL    HW212693   0.547   2.388   0.230
 3932SOL     OW12694   2.250   4.160   3.118
 3932SOL    HW112695   2.287   4.141   3.027
 3932SOL    HW212696   2.271   4.255   3.143
 3933SOL     OW12697   1.802   6.333   1.372
 3933SOL    HW112698   1.740   6.268   1.327
 3933SOL    HW212699   1.835   6.294   1.458
 3934SOL     OW12700   1.784   6.728   1.840
 3934SOL    HW112701   1.760   6.798   1.772
 3934SOL    HW212702   1.877   6.743   1.872
 3935SOL     OW12703   0.365   1.746   4.531
 3935SOL    HW112704   0.286   1.794   4.569
 3935SOL    HW212705   0.412   1.805   4.465
 3936SOL     OW12706   6.537   4.279   3.719
 3936SOL    HW112707   6.449   4.298   3.763
 3936SOL    HW212708   6.600   4.355   3.737
 3937SOL     OW12709   0.757   6.846   0.183
 3937SOL    HW112710   0.665   6.875   0.158
 3937SOL    HW212711   0.781   6.882   0.273
 3938SOL     OW12712   0.985   4.090   6.681
 3938SOL    HW112713   1.080   4.121   6.679
 3938SOL    HW212714   0.980   4.001   6.727
 3939SOL     OW12715   2.010   6.299   4.083
 3939SOL    HW112716   2.047   6.238   4.013
 3939SOL    HW212717   2.061   6.386   4.082
 3940SOL     OW12718   1.917   6.236   6.563
 3940SOL    HW112719   1.822   6.236   6.593
 3940SOL    HW212720   1.920   6.243   6.463
 3941SOL     OW12721   5.493   5.385   2.535
 3941SOL    HW112722   5.465   5.299   2.493
 3941SOL    HW212723   5.415   5.428   2.580
 3942SOL     OW12724   6.648   6.388   6.434
 3942SOL    HW112725   6.684   6.481   6.421
 3942SOL    HW212726   6.562   6.392   6.484
 3943SOL     OW12727   1.635   4.232   0.334
 3943SOL    HW112728   1.601   4.217   0.241
 3943SOL    HW212729   1.706   4.302   0.333
 3944SOL     OW12730   4.667   3.570   6.972
 3944SOL    HW112731   4.610   3.574   6.890
 3944SOL    HW212732   4.611   3.591   0.032
 3945SOL     OW12733   6.768   0.426   3.151
 3945SOL    HW112734   6.766   0.500   3.218
 3945SOL    HW212735   6.752   0.339   3.197
 3946SOL     OW12736   6.024   2.259   1.359
 3946SOL    HW112737   5.947   2.322   1.374
 3946SOL    HW212738   6.011   2.212   1.271
 3947SOL     OW12739   5.548   6.630   2.470
 3947SOL    HW112740   5.627   6.604   2.414
 3947SOL    HW212741   5.537   6.563   2.544
 3948SOL     OW12742   2.180   1.173   4.911
 3948SOL    HW112743   2.170   1.102   4.980
 3948SOL    HW212744   2.192   1.130   4.821
 3949SOL     OW12745   6.278   0.077   2.339
 3949SOL    HW112746   6.228   7.012   2.352
 3949SOL    HW212747   6.213   0.153   2.329
 3950SOL     OW12748   2.529   4.715   1.327
 3950SOL    HW112749   2.438   4.698   1.291
 3950SOL    HW212750   2.525   4.787   1.396
 3951SOL     OW12751   6.734   2.624   3.475
 3951SOL    HW112752   6.779   2.536   3.457
 3951SOL    HW212753   6.674   2.614   3.555
 3952SOL     OW12754   5.841   4.300   7.003
 3952SOL    HW112755   5.796   4.216   0.011
 3952SOL    HW212756   5.940   4.289   7.007
 3953SOL     OW12757   3.720   3.479   5.767
 3953SOL    HW112758   3.731   3.382   5.747
 3953SOL    HW212759   3.651   3.519   5.708
 3954SOL     OW12760   1.203   3.741   5.308
 3954SOL    HW112761   1.280   3.681   5.331
 3954SOL    HW212762   1.148   3.756   5.389
 3955SOL     OW12763   5.818   3.425   0.356
 3955SOL    HW112764   5.892   3.384   0.303
 3955SOL    HW212765   5.842   3.519   0.379
 3956SOL     OW12766   6.779   2.597   5.058
 3956SOL    HW112767   6.721   2.670   5.094
 3956SOL    HW212768   6.778   2.520   5.121
 3957SOL     OW12769   1.113   2.519   2.335
 3957SOL    HW112770   1.162   2.453   2.390
 3957SOL    HW212771   1.147   2.611   2.354
 3958SOL     OW12772   5.497   5.776   1.423
 3958SOL    HW112773   5.406   5.810   1.446
 3958SOL    HW212774   5.519   5.698   1.481
 3959SOL     OW12775   2.595   4.921   1.701
 3959SOL    HW112776   2.533   4.846   1.675
 3959SOL    HW212777   2.626   4.968   1.618
 3960SOL     OW12778   6.136   2.226   0.462
 3960SOL    HW112779   6.045   2.210   0.424
 3960SOL    HW212780   6.190   2.283   0.399
 3961SOL     OW12781   0.047   1.036   1.158
 3961SOL    HW112782   0.012   1.015   1.066
 3961SOL    HW212783   0.080   1.130   1.160
 3962SOL     OW12784   6.776   0.212   6.268
 3962SOL    HW112785   6.796   0.308   6.287
 3962SOL    HW212786   6.775   0.197   6.169
 3963SOL     OW12787   5.418   3.993   4.334
 3963SOL    HW112788   5.346   3.953   4.277
 3963SOL    HW212789   5.423   3.944   4.420
 3964SOL     OW12790   6.276   4.801   0.441
 3964SOL    HW112791   6.180   4.829   0.435
 3964SOL    HW212792   6.330   4.876   0.479
 3965SOL     OW12793   2.997   4.131   1.166
 3965SOL    HW112794   3.015   4.034   1.178
 3965SOL    HW212795   3.048   4.165   1.087
 3966SOL     OW12796   6.794   3.369   5.802
 3966SOL    HW112797   6.826   3.452   5.849
 3966SOL    HW212798   6.694   3.373   5.794
 3967SOL     OW12799   2.366   6.305   0.120
 3967SOL    HW112800   2.305   6.304   0.040
 3967SOL    HW212801   2.319   6.264   0.198
 3968SOL     OW12802   4.616   2.368   0.751
 3968SOL    HW112803   4.702   2.325   0.781
 3968SOL    HW212804   4.550   2.297   0.726
 3969SOL     OW12805   6.348   6.391   0.972
 3969SOL    HW112806   6.432   6.444   0.977
 3969SOL    HW212807   6.313   6.391   0.878
 3970SOL     OW12808   5.691   4.594   4.428
 3970SOL    HW112809   5.715   4.691   4.415
 3970SOL    HW212810   5.775   4.540   4.438
 3971SOL     OW12811   0.743   5.967   4.027
 3971SOL    HW112812   0.763   5.957   3.930
 3971SOL    HW212813   0.768   6.059   4.058
 3972SOL     OW12814   0.907   0.297   5.888
 3972SOL    HW112815   0.838   0.269   5.821
 3972SOL    HW212816   0.912   0.397   5.892
 3973SOL     OW12817   3.950   2.989   2.557
 3973SOL    HW112818   3.862   2.999   2.510
 3973SOL    HW212819   3.988   2.899   2.538
 3974SOL     OW12820   5.091   0.771   6.428
 3974SOL    HW112821   5.045   0.846   6.380
 3974SOL    HW212822   5.032   0.738   6.502
 3975SOL     OW12823   0.295   6.671   4.566
 3975SOL    HW112824   0.220   6.727   4.600
 3975SOL    HW212825   0.267   6.625   4.481
 3976SOL     OW12826   0.926   2.818   5.858
 3976SOL    HW112827   0.992   2.771   5.799
 3976SOL    HW212828   0.884   2.893   5.807
 3977SOL     OW12829   3.163   4.873   5.456
 3977SOL    HW112830   3.221   4.861   5.375
 3977SOL    HW212831   3.214   4.845   5.537
 3978SOL     OW12832   5.158   2.850   6.647
 3978SOL    HW112833   5.099   2.896   6.581
 3978SOL    HW212834   5.145   2.891   6.737
 3979SOL     OW12835   1.382   5.927   3.014
 3979SOL    HW112836   1.471   5.967   2.990
 3979SOL    HW212837   1.379   5.913   3.113
 3980SOL     OW12838   5.160   3.829   4.412
 3980SOL    HW112839   5.143   3.739   4.450
 3980SOL    HW212840   5.104   3.843   4.330
 3981SOL     OW12841   0.131   1.145   6.311
 3981SOL    HW112842   0.053   1.142   6.249
 3981SOL    HW212843   0.206   1.195   6.268
 3982SOL     OW12844   2.188   3.260   4.411
 3982SOL    HW112845   2.180   3.209   4.497
 3982SOL    HW212846   2.180   3.358   4.429
 3983SOL     OW12847   2.820   0.628   3.889
 3983SOL    HW112848   2.893   0.577   3.843
 3983SOL    HW212849   2.739   0.570   3.899
 3984SOL     OW12850   1.835   5.597   2.198
 3984SOL    HW112851   1.895   5.583   2.276
 3984SOL    HW212852   1.887   5.585   2.113
 3985SOL     OW12853   1.902   2.591   1.332
 3985SOL    HW112854   1.864   2.593   1.424
 3985SOL    HW212855   1.836   2.629   1.267
 3986SOL     OW12856   6.677   2.473   2.416
 3986SOL    HW112857   6.587   2.450   2.453
 3986SOL    HW212858   6.718   2.546   2.471
 3987SOL     OW12859   1.121   4.278   5.271
 3987SOL    HW112860   1.116   4.180   5.290
 3987SOL    HW212861   1.070   4.299   5.187
 3988SOL     OW12862   4.874   7.018   2.105
 3988SOL    HW112863   4.775   7.009   2.091
 3988SOL    HW212864   4.917   0.023   2.018
 3989SOL     OW12865   4.648   1.315   5.797
 3989SOL    HW112866   4.701   1.298   5.714
 3989SOL    HW212867   4.651   1.413   5.818
 3990SOL     OW12868   6.025   0.535   3.963
 3990SOL    HW112869   6.031   0.617   4.020
 3990SOL    HW212870   6.116   0.509   3.931
 3991SOL     OW12871   6.896   1.969   3.430
 3991SOL    HW112872   6.812   2.011   3.395
 3991SOL    HW212873   6.976   2.018   3.395
 3992SOL     OW12874   5.457   3.997   6.102
 3992SOL    HW112875   5.398   3.958   6.031
 3992SOL    HW212876   5.536   3.937   6.117
 3993SOL     OW12877   1.484   0.779   3.607
 3993SOL    HW112878   1.385   0.780   3.623
 3993SOL    HW212879   1.532   0.772   3.694
 3994SOL     OW12880   2.916   1.786   3.714
 3994SOL    HW112881   2.825   1.753   3.739
 3994SOL    HW212882   2.908   1.851   3.639
 3995SOL     OW12883   1.525   3.309   2.042
 3995SOL    HW112884   1.452   3.303   2.110
 3995SOL    HW212885   1.610   3.276   2.081
 3996SOL     OW12886   6.628   6.475   5.144
 3996SOL    HW112887   6.560   6.471   5.071
 3996SOL    HW212888   6.633   6.568   5.180
 3997SOL     OW12889   5.635   4.143   4.550
 3997SOL    HW112890   5.557   4.197   4.583
 3997SOL    HW212891   5.611   4.046   4.549
 3998SOL     OW12892   4.805   1.818   3.856
 3998SOL    HW112893   4.771   1.910   3.834
 3998SOL    HW212894   4.891   1.802   3.809
 3999SOL     OW12895   5.161   2.760   0.971
 3999SOL    HW112896   5.138   2.850   1.007
 3999SOL    HW212897   5.078   2.716   0.936
 4000SOL     OW12898   2.124   4.851   3.160
 4000SOL    HW112899   2.084   4.863   3.069
 4000SOL    HW212900   2.165   4.937   3.189
 4001SOL     OW12901   0.713   6.076   4.527
 4001SOL    HW112902   0.813   6.082   4.521
 4001SOL    HW212903   0.688   6.018   4.604
 4002SOL     OW12904   3.745   3.705   4.850
 4002SOL    HW112905   3.723   3.669   4.941
 4002SOL    HW212906   3.816   3.648   4.808
 4003SOL     OW12907   2.771   0.938   4.661
 4003SOL    HW112908   2.781   0.902   4.753
 4003SOL    HW212909   2.791   1.036   4.660
 4004SOL     OW12910   1.900   4.177   4.830
 4004SOL    HW112911   1.873   4.141   4.741
 4004SOL    HW212912   1.843   4.137   4.902
 4005SOL     OW12913   5.223   2.945   0.606
 4005SOL    HW112914   5.268   2.869   0.655
 4005SOL    HW212915   5.126   2.924   0.594
 4006SOL     OW12916   6.789   5.507   1.965
 4006SOL    HW112917   6.812   5.528   1.870
 4006SOL    HW212918   6.834   5.422   1.992
 4007SOL     OW12919   0.789   1.610   1.854
 4007SOL    HW112920   0.815   1.697   1.894
 4007SOL    HW212921   0.717   1.567   1.910
 4008SOL     OW12922   3.904   0.923   1.677
 4008SOL    HW112923   3.962   0.943   1.756
 4008SOL    HW212924   3.808   0.924   1.705
 4009SOL     OW12925   3.908   2.348   1.356
 4009SOL    HW112926   3.999   2.308   1.354
 4009SOL    HW212927   3.841   2.283   1.321
 4010SOL     OW12928   1.783   4.693   1.087
 4010SOL    HW112929   1.861   4.736   1.133
 4010SOL    HW212930   1.801   4.686   0.989
 4011SOL     OW12931   6.350   7.003   5.973
 4011SOL    HW112932   6.438   6.955   5.977
 4011SOL    HW212933   6.304   6.995   6.062
 4012SOL     OW12934   5.565   5.631   2.099
 4012SOL    HW112935   5.522   5.711   2.141
 4012SOL    HW212936   5.547   5.631   2.001
 4013SOL     OW12937   7.008   1.811   6.929
 4013SOL    HW112938   6.922   1.787   6.974
 4013SOL    HW212939   0.064   1.776   6.982
 4014SOL     OW12940   3.458   5.917   2.888
 4014SOL    HW112941   3.495   5.992   2.944
 4014SOL    HW212942   3.358   5.918   2.892
 4015SOL     OW12943   4.528   6.037   5.519
 4015SOL    HW112944   4.592   6.098   5.472
 4015SOL    HW212945   4.436   6.078   5.517
 4016SOL     OW12946   5.239   5.179   4.418
 4016SOL    HW112947   5.237   5.117   4.496
 4016SOL    HW212948   5.318   5.158   4.360
 4017SOL     OW12949   2.112   5.802   6.043
 4017SOL    HW112950   2.060   5.720   6.017
 4017SOL    HW212951   2.127   5.802   6.141
 4018SOL     OW12952   4.230   5.486   1.382
 4018SOL    HW112953   4.152   5.541   1.352
 4018SOL    HW212954   4.198   5.407   1.433
 4019SOL     OW12955   6.614   3.108   2.288
 4019SOL    HW112956   6.524   3.065   2.295
 4019SOL    HW212957   6.663   3.097   2.375
 4020SOL     OW12958   6.989   6.067   4.241
 4020SOL    HW112959   6.906   6.052   4.294
 4020SOL    HW212960   6.970   6.050   4.144
 4021SOL     OW12961   4.327   5.161   6.181
 4021SOL    HW112962   4.259   5.199   6.244
 4021SOL    HW212963   4.353   5.069   6.212
 4022SOL     OW12964   3.438   6.969   1.267
 4022SOL    HW112965   3.356   6.966   1.324
 4022SOL    HW212966   3.485   6.881   1.271
 4023SOL     OW12967   0.431   2.175   4.356
 4023SOL    HW112968   0.457   2.268   4.333
 4023SOL    HW212969   0.371   2.138   4.286
 4024SOL     OW12970   0.037   6.344   5.997
 4024SOL    HW112971   0.003   6.252   6.014
 4024SOL    HW212972   0.136   6.342   5.987
 4025SOL     OW12973   6.902   4.847   3.892
 4025SOL    HW112974   6.803   4.847   3.877
 4025SOL    HW212975   6.921   4.841   3.990
 4026SOL     OW12976   0.631   6.964   3.962
 4026SOL    HW112977   0.678   0.021   3.921
 4026SOL    HW212978   0.695   6.912   4.019
 4027SOL     OW12979   3.601   5.556   5.179
 4027SOL    HW112980   3.515   5.581   5.224
 4027SOL    HW212981   3.606   5.456   5.170
 4028SOL     OW12982   5.348   1.415   4.387
 4028SOL    HW112983   5.358   1.324   4.427
 4028SOL    HW212984   5.288   1.471   4.445
 4029SOL     OW12985   1.182   6.681   0.644
 4029SOL    HW112986   1.211   6.765   0.599
 4029SOL    HW212987   1.082   6.679   0.651
 4030SOL     OW12988   0.725   2.080   1.748
 4030SOL    HW112989   0.747   2.172   1.781
 4030SOL    HW212990   0.637   2.052   1.785
 4031SOL     OW12991   5.670   5.947   0.468
 4031SOL    HW112992   5.661   5.960   0.567
 4031SOL    HW212993   5.584   5.972   0.423
 4032SOL     OW12994   5.006   1.615   2.738
 4032SOL    HW112995   5.084   1.596   2.679
 4032SOL    HW212996   5.039   1.643   2.829
 4033SOL     OW12997   1.807   3.121   2.831
 4033SOL    HW112998   1.833   3.121   2.734
 4033SOL    HW212999   1.833   3.209   2.873
 4034SOL     OW13000   1.567   2.878   4.880
 4034SOL    HW113001   1.550   2.784   4.911
 4034SOL    HW213002   1.520   2.892   4.792
 4035SOL     OW13003   4.427   2.349   1.739
 4035SOL    HW113004   4.425   2.403   1.823
 4035SOL    HW213005   4.361   2.387   1.674
 4036SOL     OW13006   3.827   6.061   3.272
 4036SOL    HW113007   3.797   6.054   3.367
 4036SOL    HW213008   3.856   6.155   3.253
 4037SOL     OW13009   2.020   2.449   6.555
 4037SOL    HW113010   2.109   2.472   6.515
 4037SOL    HW213011   1.948   2.504   6.511
 4038SOL     OW13012   3.101   4.808   6.142
 4038SOL    HW113013   3.200   4.818   6.136
 4038SOL    HW213014   3.078   4.752   6.221
 4039SOL     OW13015   5.902   4.611   1.614
 4039SOL    HW113016   5.916   4.603   1.515
 4039SOL    HW213017   5.975   4.668   1.653
 4040SOL     OW13018   3.698   0.847   5.105
 4040SOL    HW113019   3.773   0.816   5.163
 4040SOL    HW213020   3.634   0.771   5.090
 4041SOL     OW13021   1.324   5.265   1.932
 4041SOL    HW113022   1.388   5.271   2.008
 4041SOL    HW213023   1.298   5.357   1.902
 4042SOL     OW13024   6.883   1.688   3.291
 4042SOL    HW113025   6.889   1.727   3.200
 4042SOL    HW213026   6.909   1.757   3.359
 4043SOL     OW13027   4.637   2.286   6.205
 4043SOL    HW113028   4.622   2.353   6.278
 4043SOL    HW213029   4.549   2.256   6.169
 4044SOL     OW13030   4.457   4.484   3.294
 4044SOL    HW113031   4.477   4.432   3.211
 4044SOL    HW213032   4.540   4.491   3.350
 4045SOL     OW13033   4.492   1.593   5.138
 4045SOL    HW113034   4.583   1.622   5.167
 4045SOL    HW213035   4.453   1.531   5.207
 4046SOL     OW13036   5.145   1.430   4.182
 4046SOL    HW113037   5.228   1.450   4.234
 4046SOL    HW213038   5.082   1.507   4.188
 4047SOL     OW13039   3.516   2.755   6.620
 4047SOL    HW113040   3.611   2.785   6.613
 4047SOL    HW213041   3.510   2.657   6.598
 4048SOL     OW13042   5.027   2.060   3.315
 4048SOL    HW113043   4.967   1.980   3.317
 4048SOL    HW213044   5.102   2.047   3.380
 4049SOL     OW13045   4.226   3.924   1.450
 4049SOL    HW113046   4.175   3.837   1.452
 4049SOL    HW213047   4.323   3.905   1.438
 4050SOL     OW13048   0.018   4.833   2.499
 4050SOL    HW113049   0.038   4.777   2.418
 4050SOL    HW213050   0.006   4.774   2.579
 4051SOL     OW13051   5.280   0.355   5.252
 4051SOL    HW113052   5.328   0.397   5.329
 4051SOL    HW213053   5.342   0.345   5.175
 4052SOL     OW13054   5.128   1.733   4.106
 4052SOL    HW113055   5.080   1.815   4.137
 4052SOL    HW213056   5.223   1.756   4.087
 4053SOL     OW13057   0.703   5.188   3.872
 4053SOL    HW113058   0.751   5.255   3.930
 4053SOL    HW213059   0.605   5.208   3.871
 4054SOL     OW13060   4.507   3.912   1.404
 4054SOL    HW113061   4.500   3.886   1.500
 4054SOL    HW213062   4.587   3.970   1.390
 4055SOL     OW13063   6.934   4.444   0.098
 4055SOL    HW113064   6.958   4.357   0.055
 4055SOL    HW213065   6.981   4.451   0.187
 4056SOL     OW13066   5.138   3.197   6.958
 4056SOL    HW113067   5.180   3.225   0.024
 4056SOL    HW213068   5.049   3.241   6.948
 4057SOL     OW13069   7.020   3.806   6.785
 4057SOL    HW113070   0.017   3.843   6.694
 4057SOL    HW213071   0.071   3.837   6.848
 4058SOL     OW13072   3.390   0.187   4.595
 4058SOL    HW113073   3.490   0.187   4.603
 4058SOL    HW213074   3.354   0.271   4.636
 4059SOL     OW13075   0.687   1.422   3.785
 4059SOL    HW113076   0.673   1.337   3.837
 4059SOL    HW213077   0.677   1.403   3.687
 4060SOL     OW13078   0.389   6.330   4.468
 4060SOL    HW113079   0.328   6.409   4.456
 4060SOL    HW213080   0.355   6.273   4.543
 4061SOL     OW13081   0.570   4.973   1.946
 4061SOL    HW113082   0.571   4.873   1.937
 4061SOL    HW213083   0.475   5.005   1.954
 4062SOL     OW13084   1.803   3.597   0.736
 4062SOL    HW113085   1.737   3.671   0.728
 4062SOL    HW213086   1.818   3.555   0.646
 4063SOL     OW13087   3.976   0.393   0.951
 4063SOL    HW113088   4.017   0.423   0.864
 4063SOL    HW213089   4.030   0.428   1.027
 4064SOL     OW13090   2.032   0.978   5.732
 4064SOL    HW113091   1.967   1.054   5.724
 4064SOL    HW213092   1.990   0.894   5.701
 4065SOL     OW13093   2.371   1.041   1.213
 4065SOL    HW113094   2.368   0.944   1.191
 4065SOL    HW213095   2.449   1.083   1.166
 4066SOL     OW13096   0.398   3.700   4.011
 4066SOL    HW113097   0.477   3.759   3.994
 4066SOL    HW213098   0.402   3.620   3.951
 4067SOL     OW13099   6.360   5.000   0.607
 4067SOL    HW113100   6.316   5.090   0.610
 4067SOL    HW213101   6.451   5.009   0.568
 4068SOL     OW13102   2.414   2.726   5.206
 4068SOL    HW113103   2.407   2.816   5.163
 4068SOL    HW213104   2.507   2.711   5.238
 4069SOL     OW13105   4.596   6.092   5.833
 4069SOL    HW113106   4.565   6.018   5.773
 4069SOL    HW213107   4.523   6.115   5.897
 4070SOL     OW13108   1.731   3.566   4.148
 4070SOL    HW113109   1.665   3.585   4.075
 4070SOL    HW213110   1.822   3.552   4.108
 4071SOL     OW13111   1.508   1.290   4.797
 4071SOL    HW113112   1.506   1.245   4.886
 4071SOL    HW213113   1.544   1.383   4.807
 4072SOL     OW13114   3.129   6.402   2.747
 4072SOL    HW113115   3.172   6.399   2.837
 4072SOL    HW213116   3.049   6.341   2.745
 4073SOL     OW13117   3.960   5.334   6.613
 4073SOL    HW113118   3.998   5.387   6.537
 4073SOL    HW213119   3.940   5.241   6.582
 4074SOL     OW13120   1.430   5.572   2.490
 4074SOL    HW113121   1.496   5.627   2.542
 4074SOL    HW213122   1.356   5.632   2.458
 4075SOL     OW13123   6.331   1.038   6.988
 4075SOL    HW113124   6.388   1.097   0.024
 4075SOL    HW213125   6.379   1.019   6.902
 4076SOL     OW13126   2.507   5.631   3.565
 4076SOL    HW113127   2.409   5.646   3.549
 4076SOL    HW213128   2.520   5.595   3.658
 4077SOL     OW13129   3.050   1.223   1.656
 4077SOL    HW113130   2.972   1.269   1.613
 4077SOL    HW213131   3.133   1.277   1.642
 4078SOL     OW13132   3.679   4.884   2.238
 4078SOL    HW113133   3.584   4.904   2.260
 4078SOL    HW213134   3.692   4.885   2.139
 4079SOL     OW13135   6.954   2.200   3.749
 4079SOL    HW113136   0.001   2.271   3.732
 4079SOL    HW213137   7.000   2.111   3.755
 4080SOL     OW13138   0.054   2.018   5.133
 4080SOL    HW113139   0.154   2.020   5.135
 4080SOL    HW213140   0.019   2.080   5.203
 4081SOL     OW13141   1.112   3.543   3.617
 4081SOL    HW113142   1.202   3.553   3.576
 4081SOL    HW213143   1.070   3.633   3.628
 4082SOL     OW13144   0.745   3.661   0.110
 4082SOL    HW113145   0.666   3.606   0.135
 4082SOL    HW213146   0.726   3.708   0.024
 4083SOL     OW13147   6.563   2.385   5.297
 4083SOL    HW113148   6.515   2.366   5.211
 4083SOL    HW213149   6.592   2.299   5.339
 4084SOL     OW13150   6.474   0.969   4.292
 4084SOL    HW113151   6.505   1.002   4.203
 4084SOL    HW213152   6.521   1.020   4.364
 4085SOL     OW13153   2.842   6.220   0.551
 4085SOL    HW113154   2.875   6.174   0.469
 4085SOL    HW213155   2.818   6.315   0.528
 4086SOL     OW13156   1.302   4.136   1.078
 4086SOL    HW113157   1.288   4.212   1.141
 4086SOL    HW213158   1.282   4.050   1.125
 4087SOL     OW13159   2.558   1.806   2.599
 4087SOL    HW113160   2.497   1.795   2.520
 4087SOL    HW213161   2.592   1.717   2.628
 4088SOL     OW13162   6.635   1.727   0.297
 4088SOL    HW113163   6.547   1.723   0.249
 4088SOL    HW213164   6.641   1.651   0.362
 4089SOL     OW13165   1.299   1.545   5.357
 4089SOL    HW113166   1.286   1.447   5.343
 4089SOL    HW213167   1.363   1.580   5.289
 4090SOL     OW13168   2.602   4.665   6.291
 4090SOL    HW113169   2.584   4.763   6.281
 4090SOL    HW213170   2.569   4.616   6.211
 4091SOL     OW13171   4.203   0.122   1.040
 4091SOL    HW113172   4.238   0.214   1.020
 4091SOL    HW213173   4.231   0.059   0.968
 4092SOL     OW13174   6.860   1.615   4.202
 4092SOL    HW113175   6.802   1.691   4.176
 4092SOL    HW213176   6.949   1.649   4.233
 4093SOL     OW13177   5.661   6.726   4.493
 4093SOL    HW113178   5.573   6.770   4.510
 4093SOL    HW213179   5.734   6.795   4.499
 4094SOL     OW13180   3.117   4.310   5.304
 4094SOL    HW113181   3.119   4.404   5.336
 4094SOL    HW213182   3.022   4.279   5.300
 4095SOL     OW13183   1.952   3.401   5.707
 4095SOL    HW113184   2.012   3.481   5.714
 4095SOL    HW213185   1.983   3.330   5.771
 4096SOL     OW13186   4.387   4.677   2.270
 4096SOL    HW113187   4.347   4.662   2.360
 4096SOL    HW213188   4.334   4.627   2.201
 4097SOL     OW13189   3.742   3.997   3.498
 4097SOL    HW113190   3.728   4.059   3.575
 4097SOL    HW213191   3.675   3.923   3.503
 4098SOL     OW13192   0.756   3.360   2.511
 4098SOL    HW113193   0.823   3.287   2.498
 4098SOL    HW213194   0.705   3.373   2.426
 4099SOL     OW13195   2.406   6.017   1.740
 4099SOL    HW113196   2.335   6.047   1.803
 4099SOL    HW213197   2.386   6.050   1.648
 4100SOL     OW13198   3.720   6.588   3.287
 4100SOL    HW113199   3.765   6.641   3.215
 4100SOL    HW213200   3.789   6.538   3.339
 4101SOL     OW13201   4.646   0.868   0.039
 4101SOL    HW113202   4.550   0.885   0.059
 4101SOL    HW213203   4.694   0.956   0.029
 4102SOL     OW13204   5.332   1.210   0.239
 4102SOL    HW113205   5.315   1.129   0.182
 4102SOL    HW213206   5.251   1.230   0.294
 4103SOL     OW13207   0.369   0.197   2.619
 4103SOL    HW113208   0.290   0.253   2.643
 4103SOL    HW213209   0.446   0.220   2.678
 4104SOL     OW13210   1.981   4.996   2.607
 4104SOL    HW113211   2.079   5.000   2.628
 4104SOL    HW213212   1.957   4.903   2.578
 4105SOL     OW13213   5.981   4.945   0.420
 4105SOL    HW113214   5.912   5.016   0.434
 4105SOL    HW213215   5.939   4.867   0.375
 4106SOL     OW13216   6.999   3.558   4.702
 4106SOL    HW113217   0.056   3.559   4.765
 4106SOL    HW213218   6.914   3.560   4.754
 4107SOL     OW13219   6.621   0.391   0.350
 4107SOL    HW113220   6.587   0.302   0.380
 4107SOL    HW213221   6.612   0.457   0.424
 4108SOL     OW13222   6.580   2.780   5.084
 4108SOL    HW113223   6.520   2.747   5.011
 4108SOL    HW213224   6.525   2.806   5.163
 4109SOL     OW13225   3.056   6.422   3.683
 4109SOL    HW113226   2.967   6.460   3.657
 4109SOL    HW213227   3.081   6.457   3.774
 4110SOL     OW13228   4.207   3.592   5.949
 4110SOL    HW113229   4.140   3.655   5.911
 4110SOL    HW213230   4.255   3.635   6.025
 4111SOL     OW13231   4.160   3.451   6.204
 4111SOL    HW113232   4.172   3.546   6.233
 4111SOL    HW213233   4.226   3.430   6.131
 4112SOL     OW13234   4.117   0.761   4.811
 4112SOL    HW113235   4.133   0.670   4.772
 4112SOL    HW213236   4.100   0.753   4.909
 4113SOL     OW13237   4.033   5.208   4.840
 4113SOL    HW113238   3.984   5.267   4.905
 4113SOL    HW213239   3.967   5.163   4.780
 4114SOL     OW13240   3.554   2.061   2.470
 4114SOL    HW113241   3.527   2.086   2.377
 4114SOL    HW213242   3.472   2.040   2.524
 4115SOL     OW13243   5.551   5.078   2.358
 4115SOL    HW113244   5.539   4.993   2.306
 4115SOL    HW213245   5.461   5.117   2.377
 4116SOL     OW13246   3.185   1.042   2.654
 4116SOL    HW113247   3.091   1.031   2.685
 4116SOL    HW213248   3.227   1.119   2.702
 4117SOL     OW13249   0.525   5.756   1.920
 4117SOL    HW113250   0.542   5.677   1.861
 4117SOL    HW213251   0.609   5.780   1.969
 4118SOL     OW13252   2.574   6.955   0.433
 4118SOL    HW113253   2.504   7.006   0.484
 4118SOL    HW213254   2.530   6.899   0.363
 4119SOL     OW13255   4.516   1.008   3.308
 4119SOL    HW113256   4.567   1.078   3.257
 4119SOL    HW213257   4.481   1.048   3.393
 4120SOL     OW13258   4.443   1.139   2.310
 4120SOL    HW113259   4.542   1.139   2.304
 4120SOL    HW213260   4.404   1.106   2.223
 4121SOL     OW13261   6.806   2.270   4.854
 4121SOL    HW113262   6.862   2.189   4.843
 4121SOL    HW213263   6.863   2.352   4.850
 4122SOL     OW13264   1.916   5.754   6.972
 4122SOL    HW113265   1.829   5.768   7.018
 4122SOL    HW213266   1.983   5.717   0.016
 4123SOL     OW13267   4.372   4.315   6.042
 4123SOL    HW113268   4.464   4.285   6.016
 4123SOL    HW213269   4.305   4.255   5.999
 4124SOL     OW13270   4.444   6.320   3.392
 4124SOL    HW113271   4.405   6.370   3.469
 4124SOL    HW213272   4.464   6.383   3.318
 4125SOL     OW13273   5.273   1.129   1.283
 4125SOL    HW113274   5.249   1.166   1.373
 4125SOL    HW213275   5.306   1.203   1.224
 4126SOL     OW13276   2.118   5.103   4.250
 4126SOL    HW113277   2.162   5.013   4.251
 4126SOL    HW213278   2.184   5.173   4.224
 4127SOL     OW13279   6.337   3.712   5.160
 4127SOL    HW113280   6.425   3.726   5.204
 4127SOL    HW213281   6.274   3.667   5.224
 4128SOL     OW13282   0.784   2.320   1.884
 4128SOL    HW113283   0.717   2.394   1.883
 4128SOL    HW213284   0.795   2.285   1.977
 4129SOL     OW13285   5.988   2.201   6.506
 4129SOL    HW113286   5.917   2.135   6.529
 4129SOL    HW213287   6.007   2.259   6.585
 4130SOL     OW13288   6.619   3.194   1.025
 4130SOL    HW113289   6.669   3.225   1.106
 4130SOL    HW213290   6.599   3.273   0.967
 4131SOL     OW13291   0.286   3.970   3.416
 4131SOL    HW113292   0.245   3.949   3.505
 4131SOL    HW213293   0.327   4.061   3.419
 4132SOL     OW13294   4.969   2.050   4.702
 4132SOL    HW113295   4.872   2.059   4.722
 4132SOL    HW213296   5.022   2.067   4.785
 4133SOL     OW13297   2.552   2.376   1.077
 4133SOL    HW113298   2.539   2.469   1.111
 4133SOL    HW213299   2.635   2.373   1.021
 4134SOL     OW13300   1.684   1.499   0.339
 4134SOL    HW113301   1.757   1.538   0.395
 4134SOL    HW213302   1.596   1.539   0.366
 4135SOL     OW13303   1.792   0.625   0.916
 4135SOL    HW113304   1.744   0.712   0.902
 4135SOL    HW213305   1.798   0.576   0.829
 4136SOL     OW13306   0.896   1.827   3.217
 4136SOL    HW113307   0.855   1.736   3.229
 4136SOL    HW213308   0.886   1.879   3.302
 4137SOL     OW13309   3.955   3.800   5.421
 4137SOL    HW113310   3.927   3.767   5.331
 4137SOL    HW213311   3.933   3.731   5.491
 4138SOL     OW13312   4.260   5.621   2.636
 4138SOL    HW113313   4.182   5.566   2.666
 4138SOL    HW213314   4.229   5.686   2.567
 4139SOL     OW13315   2.481   0.898   0.446
 4139SOL    HW113316   2.443   0.987   0.422
 4139SOL    HW213317   2.559   0.878   0.386
 4140SOL     OW13318   4.290   2.036   5.077
 4140SOL    HW113319   4.367   2.071   5.025
 4140SOL    HW213320   4.317   1.953   5.126
 4141SOL     OW13321   5.531   5.116   0.416
 4141SOL    HW113322   5.458   5.131   0.484
 4141SOL    HW213323   5.497   5.142   0.326
 4142SOL     OW13324   6.680   2.458   1.284
 4142SOL    HW113325   6.621   2.397   1.336
 4142SOL    HW213326   6.629   2.540   1.257
 4143SOL     OW13327   0.945   2.804   1.635
 4143SOL    HW113328   0.990   2.739   1.574
 4143SOL    HW213329   0.946   2.895   1.594
 4144SOL     OW13330   4.581   0.579   1.905
 4144SOL    HW113331   4.562   0.554   1.810
 4144SOL    HW213332   4.494   0.597   1.953
 4145SOL     OW13333   3.257   0.078   2.958
 4145SOL    HW113334   3.351   0.056   2.983
 4145SOL    HW213335   3.237   0.172   2.985
 4146SOL     OW13336   4.605   5.502   0.443
 4146SOL    HW113337   4.577   5.408   0.425
 4146SOL    HW213338   4.528   5.564   0.423
 4147SOL     OW13339   2.749   2.242   5.990
 4147SOL    HW113340   2.798   2.329   5.990
 4147SOL    HW213341   2.659   2.254   6.033
 4148SOL     OW13342   6.428   0.025   3.154
 4148SOL    HW113343   6.329   0.040   3.147
 4148SOL    HW213344   6.446   6.948   3.160
 4149SOL     OW13345   5.199   4.420   1.614
 4149SOL    HW113346   5.138   4.445   1.688
 4149SOL    HW213347   5.224   4.324   1.622
 4150SOL     OW13348   4.758   0.431   5.853
 4150SOL    HW113349   4.707   0.373   5.916
 4150SOL    HW213350   4.707   0.439   5.767
 4151SOL     OW13351   0.545   5.294   0.352
 4151SOL    HW113352   0.526   5.196   0.338
 4151SOL    HW213353   0.544   5.341   0.264
 4152SOL     OW13354   3.638   4.188   1.348
 4152SOL    HW113355   3.692   4.127   1.405
 4152SOL    HW213356   3.647   4.282   1.381
 4153SOL     OW13357   5.866   5.696   6.096
 4153SOL    HW113358   5.958   5.726   6.072
 4153SOL    HW213359   5.850   5.605   6.059
 4154SOL     OW13360   4.448   2.302   5.815
 4154SOL    HW113361   4.518   2.247   5.770
 4154SOL    HW213362   4.372   2.318   5.752
 4155SOL     OW13363   1.478   3.405   0.741
 4155SOL    HW113364   1.554   3.346   0.713
 4155SOL    HW213365   1.424   3.359   0.811
 4156SOL     OW13366   5.953   0.131   5.279
 4156SOL    HW113367   5.955   0.045   5.228
 4156SOL    HW213368   6.030   0.188   5.252
 4157SOL     OW13369   3.307   0.779   4.139
 4157SOL    HW113370   3.248   0.803   4.062
 4157SOL    HW213371   3.399   0.816   4.123
 4158SOL     OW13372   1.010   0.636   3.778
 4158SOL    HW113373   0.976   0.673   3.865
 4158SOL    HW213374   0.959   0.553   3.756
 4159SOL     OW13375   0.506   3.490   5.042
 4159SOL    HW113376   0.525   3.585   5.066
 4159SOL    HW213377   0.593   3.442   5.027
 4160SOL     OW13378   1.265   0.645   0.907
 4160SOL    HW113379   1.318   0.634   0.822
 4160SOL    HW213380   1.303   0.584   0.977
 4161SOL     OW13381   6.426   1.946   0.447
 4161SOL    HW113382   6.410   2.009   0.522
 4161SOL    HW213383   6.406   1.991   0.360
 4162SOL     OW13384   0.300   6.528   4.895
 4162SOL    HW113385   0.287   6.432   4.921
 4162SOL    HW213386   0.371   6.534   4.825
 4163SOL     OW13387   6.511   1.190   5.152
 4163SOL    HW113388   6.603   1.192   5.190
 4163SOL    HW213389   6.510   1.136   5.069
 4164SOL     OW13390   2.595   6.740   6.355
 4164SOL    HW113391   2.611   6.823   6.302
 4164SOL    HW213392   2.524   6.685   6.310
 4165SOL     OW13393   2.744   6.144   2.567
 4165SOL    HW113394   2.734   6.044   2.569
 4165SOL    HW213395   2.799   6.171   2.488
 4166SOL     OW13396   5.884   2.486   1.419
 4166SOL    HW113397   5.819   2.477   1.494
 4166SOL    HW213398   5.976   2.502   1.456
 4167SOL     OW13399   2.006   3.068   1.090
 4167SOL    HW113400   1.980   2.994   1.152
 4167SOL    HW213401   1.954   3.150   1.113
 4168SOL     OW13402   1.506   4.705   1.135
 4168SOL    HW113403   1.606   4.706   1.137
 4168SOL    HW213404   1.471   4.664   1.219
 4169SOL     OW13405   6.060   3.530   4.909
 4169SOL    HW113406   6.054   3.431   4.911
 4169SOL    HW213407   6.154   3.558   4.890
 4170SOL     OW13408   4.108   1.802   5.047
 4170SOL    HW113409   4.024   1.780   5.096
 4170SOL    HW213410   4.141   1.892   5.075
 4171SOL     OW13411   5.595   3.537   1.386
 4171SOL    HW113412   5.625   3.521   1.480
 4171SOL    HW213413   5.638   3.620   1.351
 4172SOL     OW13414   2.386   1.128   0.365
 4172SOL    HW113415   2.464   1.190   0.350
 4172SOL    HW213416   2.301   1.178   0.353
 4173SOL     OW13417   5.057   3.378   6.327
 4173SOL    HW113418   5.033   3.366   6.231
 4173SOL    HW213419   5.118   3.457   6.337
 4174SOL     OW13420   5.274   0.742   4.334
 4174SOL    HW113421   5.304   0.835   4.314
 4174SOL    HW213422   5.315   0.710   4.419
 4175SOL     OW13423   3.117   1.669   3.410
 4175SOL    HW113424   3.102   1.743   3.476
 4175SOL    HW213425   3.208   1.629   3.425
 4176SOL     OW13426   6.105   4.914   2.561
 4176SOL    HW113427   6.102   5.014   2.567
 4176SOL    HW213428   6.033   4.875   2.618
 4177SOL     OW13429   6.517   4.814   3.158
 4177SOL    HW113430   6.444   4.883   3.157
 4177SOL    HW213431   6.594   4.848   3.213
 4178SOL     OW13432   3.814   3.236   5.661
 4178SOL    HW113433   3.843   3.141   5.651
 4178SOL    HW213434   3.880   3.285   5.718
 4179SOL     OW13435   6.470   2.664   6.765
 4179SOL    HW113436   6.413   2.747   6.775
 4179SOL    HW213437   6.428   2.604   6.697
 4180SOL     OW13438   4.391   3.672   1.606
 4180SOL    HW113439   4.420   3.752   1.658
 4180SOL    HW213440   4.334   3.614   1.664
 4181SOL     OW13441   6.661   1.020   0.381
 4181SOL    HW113442   6.636   0.993   0.474
 4181SOL    HW213443   6.589   0.994   0.317
 4182SOL     OW13444   5.426   0.735   3.950
 4182SOL    HW113445   5.356   0.692   3.894
 4182SOL    HW213446   5.450   0.824   3.911
 4183SOL     OW13447   1.976   1.458   1.624
 4183SOL    HW113448   1.920   1.430   1.546
 4183SOL    HW213449   2.057   1.506   1.591
 4184SOL     OW13450   4.411   5.132   6.873
 4184SOL    HW113451   4.342   5.181   6.818
 4184SOL    HW213452   4.489   5.192   6.889
 4185SOL     OW13453   0.005   6.773   4.306
 4185SOL    HW113454   7.002   6.697   4.245
 4185SOL    HW213455   7.004   6.748   4.400
 4186SOL     OW13456   3.728   4.248   1.762
 4186SOL    HW113457   3.636   4.288   1.766
 4186SOL    HW213458   3.728   4.161   1.811
 4187SOL     OW13459   4.212   5.010   6.548
 4187SOL    HW113460   4.179   5.025   6.642
 4187SOL    HW213461   4.194   5.092   6.494
 4188SOL     OW13462   5.318   6.218   4.234
 4188SOL    HW113463   5.237   6.174   4.195
 4188SOL    HW213464   5.346   6.294   4.175
 4189SOL     OW13465   1.698   3.487   3.476
 4189SOL    HW113466   1.677   3.480   3.379
 4189SOL    HW213467   1.704   3.584   3.502
 4190SOL     OW13468   2.656   0.208   1.207
 4190SOL    HW113469   2.565   0.174   1.181
 4190SOL    HW213470   2.670   0.299   1.168
 4191SOL     OW13471   0.475   2.497   2.509
 4191SOL    HW113472   0.557   2.533   2.554
 4191SOL    HW213473   0.467   2.536   2.417
 4192SOL     OW13474   5.733   0.616   3.105
 4192SOL    HW113475   5.689   0.621   3.195
 4192SOL    HW213476   5.831   0.597   3.117
 4193SOL     OW13477   2.070   6.794   2.507
 4193SOL    HW113478   2.022   6.860   2.449
 4193SOL    HW213479   2.109   6.722   2.451
 4194SOL     OW13480   5.909   0.832   3.611
 4194SOL    HW113481   5.870   0.836   3.519
 4194SOL    HW213482   6.009   0.831   3.605
 4195SOL     OW13483   5.355   1.192   2.920
 4195SOL    HW113484   5.427   1.221   2.984
 4195SOL    HW213485   5.312   1.272   2.880
 4196SOL     OW13486   4.399   2.285   3.654
 4196SOL    HW113487   4.448   2.366   3.684
 4196SOL    HW213488   4.394   2.219   3.729
 4197SOL     OW13489   5.116   4.057   4.988
 4197SOL    HW113490   5.048   3.984   5.000
 4197SOL    HW213491   5.100   4.102   4.900
 4198SOL     OW13492   6.376   3.746   6.212
 4198SOL    HW113493   6.289   3.763   6.258
 4198SOL    HW213494   6.370   3.662   6.158
 4199SOL     OW13495   2.986   3.811   5.567
 4199SOL    HW113496   3.037   3.897   5.567
 4199SOL    HW213497   2.891   3.828   5.542
 4200SOL     OW13498   2.600   0.507   6.297
 4200SOL    HW113499   2.580   0.605   6.305
 4200SOL    HW213500   2.515   0.455   6.299
 4201SOL     OW13501   6.329   6.818   4.638
 4201SOL    HW113502   6.331   6.846   4.734
 4201SOL    HW213503   6.274   6.883   4.586
 4202SOL     OW13504   5.335   3.578   5.500
 4202SOL    HW113505   5.333   3.570   5.400
 4202SOL    HW213506   5.410   3.639   5.526
 4203SOL     OW13507   4.516   4.942   4.118
 4203SOL    HW113508   4.557   4.972   4.204
 4203SOL    HW213509   4.577   4.966   4.042
 4204SOL     OW13510   1.725   3.968   0.941
 4204SOL    HW113511   1.773   3.980   1.028
 4204SOL    HW213512   1.657   4.041   0.931
 4205SOL     OW13513   2.557   6.281   3.254
 4205SOL    HW113514   2.575   6.329   3.168
 4205SOL    HW213515   2.632   6.218   3.273
 4206SOL     OW13516   5.093   6.121   4.101
 4206SOL    HW113517   5.141   6.088   4.020
 4206SOL    HW213518   5.029   6.194   4.075
 4207SOL     OW13519   0.647   0.150   0.066
 4207SOL    HW113520   0.601   0.065   0.040
 4207SOL    HW213521   0.598   0.193   0.142
 4208SOL     OW13522   1.026   2.720   0.808
 4208SOL    HW113523   0.945   2.719   0.749
 4208SOL    HW213524   1.083   2.640   0.788
 4209SOL     OW13525   3.430   0.801   5.135
 4209SOL    HW113526   3.346   0.792   5.187
 4209SOL    HW213527   3.487   0.872   5.176
 4210SOL     OW13528   4.252   2.521   0.423
 4210SOL    HW113529   4.319   2.550   0.490
 4210SOL    HW213530   4.262   2.575   0.339
 4211SOL     OW13531   5.402   3.449   4.652
 4211SOL    HW113532   5.321   3.477   4.601
 4211SOL    HW213533   5.417   3.513   4.727
 4212SOL     OW13534   6.517   6.437   2.302
 4212SOL    HW113535   6.516   6.477   2.211
 4212SOL    HW213536   6.611   6.418   2.329
 4213SOL     OW13537   0.698   6.976   1.332
 4213SOL    HW113538   0.672   0.013   1.409
 4213SOL    HW213539   0.615   6.943   1.286
 4214SOL     OW13540   3.244   5.481   4.933
 4214SOL    HW113541   3.193   5.476   5.019
 4214SOL    HW213542   3.180   5.479   4.856
 4215SOL     OW13543   1.037   5.877   5.726
 4215SOL    HW113544   0.981   5.847   5.649
 4215SOL    HW213545   0.981   5.929   5.790
 4216SOL     OW13546   2.797   3.157   5.275
 4216SOL    HW113547   2.715   3.119   5.232
 4216SOL    HW213548   2.853   3.202   5.206
 4217SOL     OW13549   6.723   0.925   3.826
 4217SOL    HW113550   6.702   0.961   3.734
 4217SOL    HW213551   6.794   0.855   3.819
 4218SOL     OW13552   3.432   6.128   2.538
 4218SOL    HW113553   3.503   6.069   2.575
 4218SOL    HW213554   3.431   6.215   2.588
 4219SOL     OW13555   5.466   7.015   3.040
 4219SOL    HW113556   5.458   6.921   3.071
 4219SOL    HW213557   5.476   7.017   2.940
 4220SOL     OW13558   0.336   4.153   3.670
 4220SOL    HW113559   0.326   4.181   3.574
 4220SOL    HW213560   0.308   4.058   3.680
 4221SOL     OW13561   5.498   6.267   5.769
 4221SOL    HW113562   5.552   6.351   5.774
 4221SOL    HW213563   5.547   6.194   5.817
 4222SOL     OW13564   3.073   3.130   0.325
 4222SOL    HW113565   2.989   3.159   0.371
 4222SOL    HW213566   3.083   3.180   0.239
 4223SOL     OW13567   3.183   4.060   2.541
 4223SOL    HW113568   3.168   4.118   2.461
 4223SOL    HW213569   3.282   4.050   2.555
 4224SOL     OW13570   4.011   1.967   5.980
 4224SOL    HW113571   3.992   1.952   6.077
 4224SOL    HW213572   4.104   1.935   5.959
 4225SOL     OW13573   4.836   0.377   4.021
 4225SOL    HW113574   4.913   0.420   3.973
 4225SOL    HW213575   4.750   0.406   3.980
 4226SOL     OW13576   1.705   1.527   3.076
 4226SOL    HW113577   1.709   1.434   3.041
 4226SOL    HW213578   1.787   1.577   3.047
 4227SOL     OW13579   5.215   4.023   6.391
 4227SOL    HW113580   5.185   4.032   6.486
 4227SOL    HW213581   5.295   4.080   6.377
 4228SOL     OW13582   5.307   5.097   3.186
 4228SOL    HW113583   5.260   5.140   3.263
 4228SOL    HW213584   5.278   5.002   3.178
 4229SOL     OW13585   4.462   4.950   5.163
 4229SOL    HW113586   4.404   4.943   5.081
 4229SOL    HW213587   4.405   4.942   5.245
 4230SOL     OW13588   3.209   0.891   5.778
 4230SOL    HW113589   3.266   0.942   5.843
 4230SOL    HW213590   3.112   0.903   5.803
 4231SOL     OW13591   3.612   6.707   6.259
 4231SOL    HW113592   3.512   6.709   6.259
 4231SOL    HW213593   3.647   6.764   6.184
 4232SOL     OW13594   2.348   4.092   1.399
 4232SOL    HW113595   2.340   4.155   1.322
 4232SOL    HW213596   2.440   4.099   1.438
 4233SOL     OW13597   5.732   6.110   1.200
 4233SOL    HW113598   5.738   6.055   1.283
 4233SOL    HW213599   5.636   6.126   1.176
 4234SOL     OW13600   3.561   3.630   5.569
 4234SOL    HW113601   3.511   3.688   5.633
 4234SOL    HW213602   3.589   3.684   5.489
 4235SOL     OW13603   0.399   4.095   4.950
 4235SOL    HW113604   0.385   4.033   4.873
 4235SOL    HW213605   0.328   4.165   4.950
 4236SOL     OW13606   0.665   3.782   4.819
 4236SOL    HW113607   0.765   3.788   4.813
 4236SOL    HW213608   0.636   3.798   4.913
 4237SOL     OW13609   6.480   3.979   5.480
 4237SOL    HW113610   6.394   4.024   5.502
 4237SOL    HW213611   6.520   4.022   5.399
 4238SOL     OW13612   4.902   4.635   4.538
 4238SOL    HW113613   4.994   4.649   4.573
 4238SOL    HW213614   4.835   4.656   4.610
 4239SOL     OW13615   5.017   5.610   5.553
 4239SOL    HW113616   5.035   5.684   5.617
 4239SOL    HW213617   5.095   5.547   5.551
 4240SOL     OW13618   2.574   5.178   6.509
 4240SOL    HW113619   2.656   5.146   6.462
 4240SOL    HW213620   2.525   5.100   6.549
 4241SOL     OW13621   4.175   2.320   1.050
 4241SOL    HW113622   4.079   2.291   1.043
 4241SOL    HW213623   4.229   2.247   1.090
 4242SOL     OW13624   1.872   0.568   1.859
 4242SOL    HW113625   1.873   0.517   1.945
 4242SOL    HW213626   1.779   0.567   1.821
 4243SOL     OW13627   1.359   2.956   3.194
 4243SOL    HW113628   1.365   2.865   3.234
 4243SOL    HW213629   1.449   2.982   3.159
 4244SOL     OW13630   3.179   0.464   0.916
 4244SOL    HW113631   3.255   0.400   0.907
 4244SOL    HW213632   3.211   0.557   0.898
 4245SOL     OW13633   6.889   2.019   0.965
 4245SOL    HW113634   6.791   2.039   0.966
 4245SOL    HW213635   6.904   1.929   0.924
 4246SOL     OW13636   4.686   2.762   3.564
 4246SOL    HW113637   4.716   2.843   3.515
 4246SOL    HW213638   4.672   2.687   3.499
 4247SOL     OW13639   1.999   5.403   7.003
 4247SOL    HW113640   2.097   5.424   6.993
 4247SOL    HW213641   1.983   5.309   6.973
 4248SOL     OW13642   1.958   1.036   3.369
 4248SOL    HW113643   1.866   1.074   3.356
 4248SOL    HW213644   2.010   1.045   3.284
 4249SOL     OW13645   5.527   0.493   5.835
 4249SOL    HW113646   5.436   0.465   5.804
 4249SOL    HW213647   5.542   0.589   5.813
 4250SOL     OW13648   0.516   5.557   4.986
 4250SOL    HW113649   0.473   5.606   4.910
 4250SOL    HW213650   0.520   5.617   5.066
 4251SOL     OW13651   4.648   2.174   5.676
 4251SOL    HW113652   4.690   2.190   5.587
 4251SOL    HW213653   4.693   2.229   5.746
 4252SOL     OW13654   0.061   0.127   6.456
 4252SOL    HW113655   0.026   0.212   6.497
 4252SOL    HW213656   0.078   0.142   6.359
 4253SOL     OW13657   4.248   6.566   3.147
 4253SOL    HW113658   4.190   6.626   3.092
 4253SOL    HW213659   4.258   6.478   3.100
 4254SOL     OW13660   1.538   2.468   5.806
 4254SOL    HW113661   1.614   2.492   5.867
 4254SOL    HW213662   1.523   2.369   5.810
 4255SOL     OW13663   0.919   2.946   3.192
 4255SOL    HW113664   0.919   3.023   3.256
 4255SOL    HW213665   0.955   2.865   3.238
 4256SOL     OW13666   5.930   5.831   0.743
 4256SOL    HW113667   5.860   5.896   0.714
 4256SOL    HW213668   5.887   5.744   0.769
 4257SOL     OW13669   6.767   0.761   3.054
 4257SOL    HW113670   6.827   0.841   3.062
 4257SOL    HW213671   6.750   0.722   3.145
 4258SOL     OW13672   3.154   5.930   1.033
 4258SOL    HW113673   3.119   5.941   0.940
 4258SOL    HW213674   3.164   6.019   1.076
 4259SOL     OW13675   0.404   6.969   0.542
 4259SOL    HW113676   0.452   6.899   0.489
 4259SOL    HW213677   0.441   6.972   0.635
 4260SOL     OW13678   6.066   0.362   4.937
 4260SOL    HW113679   6.084   0.280   4.883
 4260SOL    HW213680   6.107   0.441   4.891
 4261SOL     OW13681   2.549   6.411   3.490
 4261SOL    HW113682   2.515   6.341   3.554
 4261SOL    HW213683   2.541   6.377   3.396
 4262SOL     OW13684   1.941   5.036   5.076
 4262SOL    HW113685   1.964   4.952   5.027
 4262SOL    HW213686   1.978   5.115   5.026
 4263SOL     OW13687   2.995   1.523   2.986
 4263SOL    HW113688   3.002   1.492   2.891
 4263SOL    HW213689   2.935   1.603   2.990
 4264SOL     OW13690   4.775   2.080   6.595
 4264SOL    HW113691   4.850   2.074   6.528
 4264SOL    HW213692   4.780   2.002   6.657
 4265SOL     OW13693   3.179   6.101   6.826
 4265SOL    HW113694   3.199   6.168   6.755
 4265SOL    HW213695   3.211   6.011   6.798
 4266SOL     OW13696   0.877   4.913   1.919
 4266SOL    HW113697   0.923   4.878   2.000
 4266SOL    HW213698   0.785   4.943   1.943
 4267SOL     OW13699   1.365   4.057   3.845
 4267SOL    HW113700   1.326   4.043   3.754
 4267SOL    HW213701   1.329   3.988   3.908
 4268SOL     OW13702   1.409   4.390   6.143
 4268SOL    HW113703   1.364   4.331   6.076
 4268SOL    HW213704   1.508   4.382   6.134
 4269SOL     OW13705   2.866   1.284   4.057
 4269SOL    HW113706   2.787   1.222   4.054
 4269SOL    HW213707   2.946   1.239   4.020
 4270SOL     OW13708   4.284   4.111   1.053
 4270SOL    HW113709   4.352   4.048   1.090
 4270SOL    HW213710   4.217   4.060   0.998
 4271SOL     OW13711   6.644   0.555   0.920
 4271SOL    HW113712   6.561   0.498   0.918
 4271SOL    HW213713   6.619   0.649   0.940
 4272SOL     OW13714   6.995   1.730   5.506
 4272SOL    HW113715   0.070   1.740   5.532
 4272SOL    HW213716   6.976   1.635   5.481
 4273SOL     OW13717   3.306   6.166   3.930
 4273SOL    HW113718   3.280   6.251   3.882
 4273SOL    HW213719   3.314   6.184   4.028
 4274SOL     OW13720   0.328   1.228   1.505
 4274SOL    HW113721   0.290   1.321   1.505
 4274SOL    HW213722   0.427   1.233   1.488
 4275SOL     OW13723   6.706   2.258   3.651
 4275SOL    HW113724   6.796   2.231   3.686
 4275SOL    HW213725   6.701   2.238   3.553
 4276SOL     OW13726   1.413   6.701   2.802
 4276SOL    HW113727   1.506   6.664   2.806
 4276SOL    HW213728   1.354   6.651   2.865
 4277SOL     OW13729   6.440   5.450   3.416
 4277SOL    HW113730   6.491   5.487   3.338
 4277SOL    HW213731   6.342   5.461   3.400
 4278SOL     OW13732   6.985   6.947   1.249
 4278SOL    HW113733   6.997   0.012   1.300
 4278SOL    HW213734   6.967   6.968   1.153
 4279SOL     OW13735   1.053   2.535   2.943
 4279SOL    HW113736   1.137   2.551   2.996
 4279SOL    HW213737   0.974   2.563   2.997
 4280SOL     OW13738   2.240   6.628   6.706
 4280SOL    HW113739   2.257   6.530   6.718
 4280SOL    HW213740   2.325   6.679   6.721
 4281SOL     OW13741   6.519   6.103   2.860
 4281SOL    HW113742   6.564   6.017   2.833
 4281SOL    HW213743   6.556   6.178   2.805
 4282SOL     OW13744   5.568   5.294   1.780
 4282SOL    HW113745   5.540   5.209   1.824
 4282SOL    HW213746   5.657   5.280   1.735
 4283SOL     OW13747   6.167   1.448   4.731
 4283SOL    HW113748   6.076   1.423   4.700
 4283SOL    HW213749   6.218   1.365   4.753
 4284SOL     OW13750   4.644   5.969   6.597
 4284SOL    HW113751   4.713   5.998   6.531
 4284SOL    HW213752   4.618   5.874   6.579
 4285SOL     OW13753   3.034   1.304   6.655
 4285SOL    HW113754   3.022   1.400   6.628
 4285SOL    HW213755   3.097   1.259   6.591
 4286SOL     OW13756   5.135   6.354   0.208
 4286SOL    HW113757   5.067   6.366   0.136
 4286SOL    HW213758   5.117   6.417   0.283
 4287SOL     OW13759   3.523   0.982   1.258
 4287SOL    HW113760   3.508   0.950   1.352
 4287SOL    HW213761   3.435   1.007   1.218
 4288SOL     OW13762   6.889   5.683   2.181
 4288SOL    HW113763   6.852   5.619   2.114
 4288SOL    HW213764   6.904   5.772   2.138
 4289SOL     OW13765   0.309   4.243   5.333
 4289SOL    HW113766   0.246   4.321   5.320
 4289SOL    HW213767   0.371   4.238   5.255
 4290SOL     OW13768   6.858   1.376   3.556
 4290SOL    HW113769   6.868   1.455   3.616
 4290SOL    HW213770   6.762   1.359   3.537
 4291SOL     OW13771   4.089   4.805   6.732
 4291SOL    HW113772   4.157   4.836   6.799
 4291SOL    HW213773   4.082   4.706   6.736
 4292SOL     OW13774   6.772   0.745   1.608
 4292SOL    HW113775   6.824   0.829   1.624
 4292SOL    HW213776   6.733   0.747   1.516
 4293SOL     OW13777   3.748   2.968   6.508
 4293SOL    HW113778   3.791   2.902   6.568
 4293SOL    HW213779   3.677   3.018   6.558
 4294SOL     OW13780   2.774   1.833   6.816
 4294SOL    HW113781   2.689   1.863   6.860
 4294SOL    HW213782   2.843   1.814   6.887
 4295SOL     OW13783   4.307   6.364   2.933
 4295SOL    HW113784   4.298   6.270   2.966
 4295SOL    HW213785   4.315   6.364   2.834
 4296SOL     OW13786   2.145   5.802   2.492
 4296SOL    HW113787   2.206   5.773   2.418
 4296SOL    HW213788   2.188   5.875   2.545
 4297SOL     OW13789   4.625   5.191   0.403
 4297SOL    HW113790   4.586   5.117   0.459
 4297SOL    HW213791   4.720   5.169   0.381
 4298SOL     OW13792   1.536   0.004   0.408
 4298SOL    HW113793   1.545   0.010   0.508
 4298SOL    HW213794   1.446   6.988   0.385
 4299SOL     OW13795   0.350   3.049   6.118
 4299SOL    HW113796   0.306   2.977   6.173
 4299SOL    HW213797   0.314   3.047   6.025
 4300SOL     OW13798   3.048   0.607   2.079
 4300SOL    HW113799   3.034   0.695   2.125
 4300SOL    HW213800   3.086   0.541   2.144
 4301SOL     OW13801   1.839   6.109   5.255
 4301SOL    HW113802   1.861   6.024   5.209
 4301SOL    HW213803   1.922   6.151   5.291
 4302SOL     OW13804   3.574   5.196   6.867
 4302SOL    HW113805   3.610   5.124   6.806
 4302SOL    HW213806   3.651   5.244   6.910
 4303SOL     OW13807   4.326   5.266   3.869
 4303SOL    HW113808   4.413   5.260   3.820
 4303SOL    HW213809   4.307   5.178   3.913
 4304SOL     OW13810   2.981   4.069   1.843
 4304SOL    HW113811   2.950   4.141   1.781
 4304SOL    HW213812   2.940   3.982   1.816
 4305SOL     OW13813   0.500   6.456   5.571
 4305SOL    HW113814   0.425   6.463   5.507
 4305SOL    HW213815   0.530   6.360   5.578
 4306SOL     OW13816   5.532   3.120   5.216
 4306SOL    HW113817   5.557   3.154   5.125
 4306SOL    HW213818   5.450   3.168   5.247
 4307SOL     OW13819   6.769   1.538   5.510
 4307SOL    HW113820   6.840   1.497   5.567
 4307SOL    HW213821   6.681   1.493   5.529
 4308SOL     OW13822   3.977   5.867   6.081
 4308SOL    HW113823   4.075   5.850   6.079
 4308SOL    HW213824   3.957   5.940   6.147
 4309SOL     OW13825   2.865   1.633   0.662
 4309SOL    HW113826   2.838   1.670   0.573
 4309SOL    HW213827   2.786   1.629   0.722
 4310SOL     OW13828   6.039   2.110   3.710
 4310SOL    HW113829   5.966   2.044   3.726
 4310SOL    HW213830   6.056   2.117   3.611
 4311SOL     OW13831   0.480   6.858   1.218
 4311SOL    HW113832   0.538   6.790   1.173
 4311SOL    HW213833   0.395   6.868   1.168
 4312SOL     OW13834   7.018   3.634   2.204
 4312SOL    HW113835   0.029   3.727   2.222
 4312SOL    HW213836   6.929   3.637   2.159
 4313SOL     OW13837   0.880   3.331   0.262
 4313SOL    HW113838   0.839   3.340   0.171
 4313SOL    HW213839   0.979   3.330   0.255
 4314SOL     OW13840   1.854   1.679   5.639
 4314SOL    HW113841   1.861   1.658   5.737
 4314SOL    HW213842   1.758   1.679   5.612
 4315SOL     OW13843   2.835   2.010   5.094
 4315SOL    HW113844   2.840   2.103   5.132
 4315SOL    HW213845   2.927   1.973   5.083
 4316SOL     OW13846   4.631   5.264   2.040
 4316SOL    HW113847   4.637   5.355   2.000
 4316SOL    HW213848   4.717   5.242   2.087
 4317SOL     OW13849   4.881   0.356   4.306
 4317SOL    HW113850   4.887   0.352   4.206
 4317SOL    HW213851   4.959   0.309   4.346
 4318SOL     OW13852   1.921   6.005   3.709
 4318SOL    HW113853   1.865   6.072   3.660
 4318SOL    HW213854   1.863   5.956   3.774
 4319SOL     OW13855   1.481   4.876   2.457
 4319SOL    HW113856   1.510   4.851   2.365
 4319SOL    HW213857   1.483   4.796   2.516
 4320SOL     OW13858   3.367   0.382   1.300
 4320SOL    HW113859   3.378   0.470   1.254
 4320SOL    HW213860   3.270   0.364   1.316
 4321SOL     OW13861   6.632   5.665   2.765
 4321SOL    HW113862   6.551   5.651   2.823
 4321SOL    HW213863   6.665   5.576   2.732
 4322SOL     OW13864   2.646   2.436   3.789
 4322SOL    HW113865   2.700   2.378   3.851
 4322SOL    HW213866   2.613   2.381   3.713
 4323SOL     OW13867   5.087   4.626   1.221
 4323SOL    HW113868   4.992   4.648   1.244
 4323SOL    HW213869   5.147   4.698   1.256
 4324SOL     OW13870   0.206   4.160   5.876
 4324SOL    HW113871   0.276   4.097   5.842
 4324SOL    HW213872   0.227   4.253   5.847
 4325SOL     OW13873   1.555   0.481   1.120
 4325SOL    HW113874   1.546   0.552   1.190
 4325SOL    HW213875   1.651   0.455   1.110
 4326SOL     OW13876   4.646   2.710   2.960
 4326SOL    HW113877   4.690   2.729   2.872
 4326SOL    HW213878   4.703   2.746   3.034
 4327SOL     OW13879   3.178   6.649   3.875
 4327SOL    HW113880   3.203   6.727   3.818
 4327SOL    HW213881   3.115   6.678   3.946
 4328SOL     OW13882   6.156   0.006   3.134
 4328SOL    HW113883   6.070   0.033   3.091
 4328SOL    HW213884   6.138   6.977   3.219
 4329SOL     OW13885   6.215   4.000   0.399
 4329SOL    HW113886   6.176   3.956   0.480
 4329SOL    HW213887   6.243   4.093   0.421
 4330SOL     OW13888   2.564   5.029   4.568
 4330SOL    HW113889   2.567   5.056   4.471
 4330SOL    HW213890   2.657   5.018   4.602
 4331SOL     OW13891   5.741   1.449   2.436
 4331SOL    HW113892   5.814   1.510   2.406
 4331SOL    HW213893   5.777   1.356   2.449
 4332SOL     OW13894   6.965   5.499   1.339
 4332SOL    HW113895   6.962   5.480   1.241
 4332SOL    HW213896   6.985   5.596   1.353
 4333SOL     OW13897   3.638   2.898   6.248
 4333SOL    HW113898   3.668   2.911   6.343
 4333SOL    HW213899   3.589   2.811   6.240
 4334SOL     OW13900   6.939   2.603   4.080
 4334SOL    HW113901   6.855   2.613   4.133
 4334SOL    HW213902   6.920   2.619   3.983
 4335SOL     OW13903   2.253   3.935   1.648
 4335SOL    HW113904   2.239   3.849   1.699
 4335SOL    HW213905   2.349   3.962   1.654
 4336SOL     OW13906   3.174   5.492   5.665
 4336SOL    HW113907   3.140   5.586   5.657
 4336SOL    HW213908   3.244   5.487   5.736
 4337SOL     OW13909   6.823   4.748   3.615
 4337SOL    HW113910   6.918   4.770   3.637
 4337SOL    HW213911   6.779   4.828   3.574
 4338SOL     OW13912   3.121   2.181   5.826
 4338SOL    HW113913   3.045   2.232   5.785
 4338SOL    HW213914   3.202   2.240   5.830
 4339SOL     OW13915   4.325   4.676   5.459
 4339SOL    HW113916   4.248   4.719   5.413
 4339SOL    HW213917   4.291   4.617   5.533
 4340SOL     OW13918   7.020   4.007   0.403
 4340SOL    HW113919   6.938   4.046   0.444
 4340SOL    HW213920   0.080   4.054   0.439
 4341SOL     OW13921   6.270   5.457   0.976
 4341SOL    HW113922   6.333   5.534   0.969
 4341SOL    HW213923   6.320   5.376   1.006
 4342SOL     OW13924   5.094   3.375   2.644
 4342SOL    HW113925   5.028   3.410   2.578
 4342SOL    HW213926   5.046   3.341   2.725
 4343SOL     OW13927   4.074   0.460   6.584
 4343SOL    HW113928   4.134   0.528   6.541
 4343SOL    HW213929   4.053   0.388   6.518
 4344SOL     OW13930   1.075   4.223   2.257
 4344SOL    HW113931   1.051   4.277   2.177
 4344SOL    HW213932   1.072   4.125   2.233
 4345SOL     OW13933   3.539   3.517   2.926
 4345SOL    HW113934   3.503   3.547   2.838
 4345SOL    HW213935   3.579   3.426   2.917
 4346SOL     OW13936   0.817   3.624   2.525
 4346SOL    HW113937   0.915   3.629   2.507
 4346SOL    HW213938   0.789   3.528   2.532
 4347SOL     OW13939   6.415   5.715   0.509
 4347SOL    HW113940   6.323   5.702   0.545
 4347SOL    HW213941   6.482   5.697   0.582
 4348SOL     OW13942   6.141   3.854   5.849
 4348SOL    HW113943   6.118   3.932   5.791
 4348SOL    HW213944   6.088   3.858   5.934
 4349SOL     OW13945   1.282   4.251   4.052
 4349SOL    HW113946   1.286   4.244   4.152
 4349SOL    HW213947   1.202   4.202   4.018
 4350SOL     OW13948   4.764   0.730   3.824
 4350SOL    HW113949   4.672   0.732   3.862
 4350SOL    HW213950   4.769   0.791   3.744
 4351SOL     OW13951   0.245   5.744   0.805
 4351SOL    HW113952   0.217   5.701   0.891
 4351SOL    HW213953   0.188   5.710   0.731
 4352SOL     OW13954   3.304   4.649   1.643
 4352SOL    HW113955   3.315   4.713   1.567
 4352SOL    HW213956   3.380   4.660   1.706
 4353SOL     OW13957   2.461   4.106   0.730
 4353SOL    HW113958   2.481   4.011   0.705
 4353SOL    HW213959   2.382   4.138   0.678
 4354SOL     OW13960   5.191   5.511   2.358
 4354SOL    HW113961   5.096   5.528   2.384
 4354SOL    HW213962   5.248   5.505   2.440
 4355SOL     OW13963   2.588   5.130   3.109
 4355SOL    HW113964   2.552   5.097   3.196
 4355SOL    HW213965   2.632   5.219   3.122
 4356SOL     OW13966   5.775   2.308   5.880
 4356SOL    HW113967   5.691   2.355   5.908
 4356SOL    HW213968   5.788   2.226   5.936
 4357SOL     OW13969   5.592   5.991   2.052
 4357SOL    HW113970   5.509   6.013   2.104
 4357SOL    HW213971   5.661   6.062   2.069
 4358SOL     OW13972   2.697   0.590   0.765
 4358SOL    HW113973   2.772   0.524   0.768
 4358SOL    HW213974   2.621   0.551   0.712
 4359SOL     OW13975   2.407   2.339   1.831
 4359SOL    HW113976   2.498   2.376   1.847
 4359SOL    HW213977   2.363   2.321   1.919
 4360SOL     OW13978   2.604   5.699   4.018
 4360SOL    HW113979   2.664   5.638   3.967
 4360SOL    HW213980   2.631   5.700   4.114
 4361SOL     OW13981   1.176   1.674   7.017
 4361SOL    HW113982   1.121   1.714   0.069
 4361SOL    HW213983   1.162   1.575   7.015
 4362SOL     OW13984   0.664   5.244   2.843
 4362SOL    HW113985   0.643   5.271   2.749
 4362SOL    HW213986   0.666   5.144   2.848
 4363SOL     OW13987   3.353   0.761   2.161
 4363SOL    HW113988   3.380   0.686   2.221
 4363SOL    HW213989   3.322   0.839   2.215
 4364SOL     OW13990   3.324   4.109   2.864
 4364SOL    HW113991   3.240   4.160   2.847
 4364SOL    HW213992   3.385   4.117   2.785
 4365SOL     OW13993   2.164   1.193   0.916
 4365SOL    HW113994   2.217   1.268   0.956
 4365SOL    HW213995   2.117   1.144   0.989
 4366SOL     OW13996   5.353   5.805   4.620
 4366SOL    HW113997   5.390   5.750   4.545
 4366SOL    HW213998   5.258   5.828   4.601
 4367SOL     OW13999   2.783   6.606   2.075
 4367SOL    HW114000   2.790   6.526   2.015
 4367SOL    HW214001   2.759   6.576   2.168
 4368SOL     OW14002   5.015   3.857   4.197
 4368SOL    HW114003   4.991   3.765   4.165
 4368SOL    HW214004   4.938   3.919   4.181
 4369SOL     OW14005   5.973   4.309   3.604
 4369SOL    HW114006   6.042   4.267   3.663
 4369SOL    HW214007   5.894   4.337   3.660
 4370SOL     OW14008   4.157   5.070   0.428
 4370SOL    HW114009   4.103   5.132   0.372
 4370SOL    HW214010   4.125   5.075   0.523
 4371SOL     OW14011   3.461   1.322   2.939
 4371SOL    HW114012   3.389   1.379   2.981
 4371SOL    HW214013   3.547   1.337   2.989
 4372SOL     OW14014   1.954   4.421   4.730
 4372SOL    HW114015   2.043   4.455   4.759
 4372SOL    HW214016   1.934   4.334   4.776
 4373SOL     OW14017   4.001   0.316   0.338
 4373SOL    HW114018   3.979   0.330   0.435
 4373SOL    HW214019   3.984   0.221   0.314
 4374SOL     OW14020   2.659   6.433   0.392
 4374SOL    HW114021   2.561   6.444   0.410
 4374SOL    HW214022   2.702   6.523   0.385
 4375SOL     OW14023   3.772   1.549   5.586
 4375SOL    HW114024   3.687   1.568   5.538
 4375SOL    HW214025   3.781   1.612   5.663
 4376SOL     OW14026   2.334   5.822   0.213
 4376SOL    HW114027   2.378   5.800   0.300
 4376SOL    HW214028   2.311   5.919   0.210
 4377SOL     OW14029   4.949   5.752   6.764
 4377SOL    HW114030   5.047   5.772   6.761
 4377SOL    HW214031   4.903   5.819   6.822
 4378SOL     OW14032   2.921   5.435   2.319
 4378SOL    HW114033   2.916   5.523   2.365
 4378SOL    HW214034   2.947   5.448   2.223
 4379SOL     OW14035   0.153   6.615   0.930
 4379SOL    HW114036   0.234   6.601   0.874
 4379SOL    HW214037   0.072   6.621   0.871
 4380SOL     OW14038   2.143   5.839   4.206
 4380SOL    HW114039   2.109   5.928   4.235
 4380SOL    HW214040   2.205   5.802   4.274
 4381SOL     OW14041   3.931   5.763   4.973
 4381SOL    HW114042   4.004   5.695   4.960
 4381SOL    HW214043   3.955   5.824   5.048
 4382SOL     OW14044   5.544   4.693   2.676
 4382SOL    HW114045   5.500   4.609   2.709
 4382SOL    HW214046   5.523   4.768   2.739
 4383SOL     OW14047   1.003   0.999   0.548
 4383SOL    HW114048   0.961   1.090   0.544
 4383SOL    HW214049   1.089   1.000   0.497
 4384SOL     OW14050   3.584   0.250   2.181
 4384SOL    HW114051   3.592   0.302   2.267
 4384SOL    HW214052   3.537   0.164   2.199
 4385SOL     OW14053   6.049   2.461   2.873
 4385SOL    HW114054   6.079   2.485   2.781
 4385SOL    HW214055   6.128   2.443   2.931
 4386SOL     OW14056   1.834   4.319   0.069
 4386SOL    HW114057   1.773   4.242   0.091
 4386SOL    HW214058   1.840   4.331   6.991
 4387SOL     OW14059   6.223   2.229   1.554
 4387SOL    HW114060   6.151   2.222   1.485
 4387SOL    HW214061   6.200   2.172   1.632
 4388SOL     OW14062   3.535   1.645   5.473
 4388SOL    HW114063   3.478   1.565   5.494
 4388SOL    HW214064   3.509   1.720   5.533
 4389SOL     OW14065   6.393   2.417   2.521
 4389SOL    HW114066   6.397   2.317   2.520
 4389SOL    HW214067   6.348   2.449   2.438
 4390SOL     OW14068   4.081   2.951   1.073
 4390SOL    HW114069   3.987   2.957   1.041
 4390SOL    HW214070   4.141   3.005   1.013
 4391SOL     OW14071   0.577   6.424   0.234
 4391SOL    HW114072   0.549   6.335   0.270
 4391SOL    HW214073   0.503   6.465   0.181
 4392SOL     OW14074   5.322   4.775   5.164
 4392SOL    HW114075   5.369   4.860   5.143
 4392SOL    HW214076   5.295   4.730   5.079
 4393SOL     OW14077   4.984   6.433   2.936
 4393SOL    HW114078   4.921   6.356   2.930
 4393SOL    HW214079   4.937   6.518   2.912
 4394SOL     OW14080   4.596   0.562   2.228
 4394SOL    HW114081   4.554   0.475   2.252
 4394SOL    HW214082   4.530   0.618   2.177
 4395SOL     OW14083   4.762   2.010   1.223
 4395SOL    HW114084   4.713   1.937   1.271
 4395SOL    HW214085   4.704   2.049   1.152
 4396SOL     OW14086   1.571   1.288   3.543
 4396SOL    HW114087   1.597   1.333   3.629
 4396SOL    HW214088   1.649   1.239   3.505
 4397SOL     OW14089   5.042   6.855   6.341
 4397SOL    HW114090   5.117   6.896   6.392
 4397SOL    HW214091   5.039   6.756   6.359
 4398SOL     OW14092   0.316   5.031   4.750
 4398SOL    HW114093   0.328   5.108   4.687
 4398SOL    HW214094   0.301   5.067   4.843
 4399SOL     OW14095   3.285   1.268   2.750
 4399SOL    HW114096   3.361   1.279   2.814
 4399SOL    HW214097   3.320   1.250   2.659
 4400SOL     OW14098   4.059   5.540   3.351
 4400SOL    HW114099   4.132   5.477   3.377
 4400SOL    HW214100   4.048   5.539   3.251
 4401SOL     OW14101   5.938   5.477   4.866
 4401SOL    HW114102   6.025   5.523   4.845
 4401SOL    HW214103   5.863   5.524   4.819
 4402SOL     OW14104   6.749   6.242   2.366
 4402SOL    HW114105   6.764   6.154   2.412
 4402SOL    HW214106   6.713   6.226   2.275
 4403SOL     OW14107   7.003   1.340   2.281
 4403SOL    HW114108   0.035   1.375   2.359
 4403SOL    HW214109   6.924   1.288   2.315
 4404SOL     OW14110   2.268   4.979   2.423
 4404SOL    HW114111   2.306   4.892   2.394
 4404SOL    HW214112   2.337   5.051   2.412
 4405SOL     OW14113   2.788   3.751   5.862
 4405SOL    HW114114   2.772   3.671   5.805
 4405SOL    HW214115   2.706   3.771   5.915
 4406SOL     OW14116   6.023   3.321   2.055
 4406SOL    HW114117   5.956   3.253   2.084
 4406SOL    HW214118   6.065   3.291   1.969
 4407SOL     OW14119   0.417   1.166   0.103
 4407SOL    HW114120   0.371   1.093   0.053
 4407SOL    HW214121   0.490   1.128   0.159
 4408SOL     OW14122   3.873   6.341   1.256
 4408SOL    HW114123   3.860   6.360   1.353
 4408SOL    HW214124   3.830   6.254   1.233
 4409SOL     OW14125   2.648   2.082   2.751
 4409SOL    HW114126   2.695   1.994   2.755
 4409SOL    HW214127   2.627   2.103   2.655
 4410SOL     OW14128   1.777   5.648   1.720
 4410SOL    HW114129   1.716   5.675   1.795
 4410SOL    HW214130   1.746   5.561   1.681
 4411SOL     OW14131   4.049   3.273   2.580
 4411SOL    HW114132   4.091   3.281   2.671
 4411SOL    HW214133   4.016   3.179   2.567
 4412SOL     OW14134   3.585   1.674   5.849
 4412SOL    HW114135   3.567   1.700   5.944
 4412SOL    HW214136   3.522   1.722   5.788
 4413SOL     OW14137   4.560   5.181   3.711
 4413SOL    HW114138   4.573   5.198   3.614
 4413SOL    HW214139   4.541   5.084   3.726
 4414SOL     OW14140   3.337   5.120   1.982
 4414SOL    HW114141   3.396   5.065   1.922
 4414SOL    HW214142   3.296   5.060   2.051
 4415SOL     OW14143   4.570   1.517   1.222
 4415SOL    HW114144   4.611   1.437   1.178
 4415SOL    HW214145   4.478   1.531   1.186
 4416SOL     OW14146   2.444   2.043   4.808
 4416SOL    HW114147   2.456   2.113   4.878
 4416SOL    HW214148   2.358   1.994   4.825
 4417SOL     OW14149   6.169   6.335   1.347
 4417SOL    HW114150   6.160   6.378   1.258
 4417SOL    HW214151   6.121   6.389   1.416
 4418SOL     OW14152   4.966   1.111   3.331
 4418SOL    HW114153   4.955   1.027   3.384
 4418SOL    HW214154   4.956   1.090   3.234
 4419SOL     OW14155   6.137   5.655   6.262
 4419SOL    HW114156   6.165   5.565   6.229
 4419SOL    HW214157   6.038   5.655   6.277
 4420SOL     OW14158   4.379   0.621   0.102
 4420SOL    HW114159   4.474   0.599   0.126
 4420SOL    HW214160   4.317   0.570   0.162
 4421SOL     OW14161   0.602   1.431   3.227
 4421SOL    HW114162   0.599   1.341   3.271
 4421SOL    HW214163   0.516   1.447   3.178
 4422SOL     OW14164   1.532   4.390   5.881
 4422SOL    HW114165   1.470   4.325   5.837
 4422SOL    HW214166   1.617   4.395   5.828
 4423SOL     OW14167   0.194   1.563   6.115
 4423SOL    HW114168   0.144   1.597   6.194
 4423SOL    HW214169   0.241   1.478   6.140
 4424SOL     OW14170   1.218   5.628   3.678
 4424SOL    HW114171   1.202   5.532   3.656
 4424SOL    HW214172   1.149   5.660   3.742
 4425SOL     OW14173   5.359   4.402   0.856
 4425SOL    HW114174   5.294   4.422   0.929
 4425SOL    HW214175   5.361   4.304   0.838
 4426SOL     OW14176   0.718   0.293   6.432
 4426SOL    HW114177   0.713   0.226   6.506
 4426SOL    HW214178   0.684   0.251   6.348
 4427SOL     OW14179   1.135   5.877   3.495
 4427SOL    HW114180   1.213   5.904   3.552
 4427SOL    HW214181   1.140   5.779   3.477
 4428SOL     OW14182   2.071   6.975   2.954
 4428SOL    HW114183   2.090   0.021   3.025
 4428SOL    HW214184   2.092   6.883   2.987
 4429SOL     OW14185   3.190   0.493   3.240
 4429SOL    HW114186   3.186   0.580   3.192
 4429SOL    HW214187   3.124   0.494   3.316
 4430SOL     OW14188   1.089   0.980   2.165
 4430SOL    HW114189   1.188   0.987   2.176
 4430SOL    HW214190   1.057   1.053   2.104
 4431SOL     OW14191   2.374   2.032   3.649
 4431SOL    HW114192   2.326   2.033   3.561
 4431SOL    HW214193   2.338   1.958   3.706
 4432SOL     OW14194   2.871   3.569   3.611
 4432SOL    HW114195   2.815   3.590   3.692
 4432SOL    HW214196   2.950   3.630   3.608
 4433SOL     OW14197   6.421   0.521   2.656
 4433SOL    HW114198   6.513   0.507   2.694
 4433SOL    HW214199   6.397   0.443   2.598
 4434SOL     OW14200   5.328   2.399   5.168
 4434SOL    HW114201   5.255   2.365   5.109
 4434SOL    HW214202   5.383   2.465   5.118
 4435SOL     OW14203   3.986   2.953   1.891
 4435SOL    HW114204   3.936   2.980   1.974
 4435SOL    HW214205   4.031   3.033   1.853
 4436SOL     OW14206   5.192   0.144   0.657
 4436SOL    HW114207   5.133   0.124   0.736
 4436SOL    HW214208   5.288   0.140   0.686
 4437SOL     OW14209   3.582   0.538   5.302
 4437SOL    HW114210   3.574   0.637   5.287
 4437SOL    HW214211   3.525   0.512   5.380
 4438SOL     OW14212   3.859   3.421   6.189
 4438SOL    HW114213   3.855   3.323   6.207
 4438SOL    HW214214   3.955   3.451   6.189
 4439SOL     OW14215   2.165   4.508   2.558
 4439SOL    HW114216   2.138   4.528   2.464
 4439SOL    HW214217   2.185   4.594   2.605
 4440SOL     OW14218   6.383   1.485   0.376
 4440SOL    HW114219   6.348   1.424   0.446
 4440SOL    HW214220   6.331   1.570   0.377
 4441SOL     OW14221   6.184   0.487   3.723
 4441SOL    HW114222   6.208   0.584   3.730
 4441SOL    HW214223   6.124   0.473   3.644
 4442SOL     OW14224   1.945   5.988   2.151
 4442SOL    HW114225   1.849   5.968   2.127
 4442SOL    HW214226   1.959   6.087   2.153
 4443SOL     OW14227   2.585   1.409   0.074
 4443SOL    HW114228   2.576   1.341   0.147
 4443SOL    HW214229   2.514   1.393   0.006
 4444SOL     OW14230   4.406   1.104   2.971
 4444SOL    HW114231   4.494   1.130   3.010
 4444SOL    HW214232   4.358   1.043   3.033
 4445SOL     OW14233   0.880   0.909   6.153
 4445SOL    HW114234   0.867   0.914   6.054
 4445SOL    HW214235   0.835   0.987   6.196
 4446SOL     OW14236   5.218   4.465   3.965
 4446SOL    HW114237   5.219   4.413   3.880
 4446SOL    HW214238   5.311   4.493   3.989
 4447SOL     OW14239   4.836   3.023   5.451
 4447SOL    HW114240   4.912   3.085   5.471
 4447SOL    HW214241   4.782   3.060   5.376
 4448SOL     OW14242   2.136   3.368   6.469
 4448SOL    HW114243   2.054   3.373   6.412
 4448SOL    HW214244   2.121   3.305   6.545
 4449SOL     OW14245   0.194   1.095   5.572
 4449SOL    HW114246   0.267   1.153   5.609
 4449SOL    HW214247   0.144   1.145   5.501
 4450SOL     OW14248   3.377   3.543   2.259
 4450SOL    HW114249   3.394   3.456   2.212
 4450SOL    HW214250   3.442   3.554   2.334
 4451SOL     OW14251   0.123   4.131   0.758
 4451SOL    HW114252   0.027   4.133   0.785
 4451SOL    HW214253   0.177   4.084   0.828
 4452SOL     OW14254   6.370   2.955   6.434
 4452SOL    HW114255   6.336   3.030   6.378
 4452SOL    HW214256   6.422   2.992   6.511
 4453SOL     OW14257   5.174   0.838   0.897
 4453SOL    HW114258   5.251   0.899   0.881
 4453SOL    HW214259   5.181   0.759   0.836
 4454SOL     OW14260   4.965   2.962   1.909
 4454SOL    HW114261   4.867   2.960   1.929
 4454SOL    HW214262   5.002   2.869   1.915
 4455SOL     OW14263   4.390   2.348   2.505
 4455SOL    HW114264   4.374   2.249   2.505
 4455SOL    HW214265   4.485   2.366   2.532
 4456SOL     OW14266   0.789   5.503   2.827
 4456SOL    HW114267   0.722   5.431   2.840
 4456SOL    HW214268   0.870   5.466   2.782
 4457SOL     OW14269   4.380   1.889   0.151
 4457SOL    HW114270   4.468   1.865   0.108
 4457SOL    HW214271   4.311   1.823   0.125
 4458SOL     OW14272   4.292   1.528   1.115
 4458SOL    HW114273   4.221   1.461   1.137
 4458SOL    HW214274   4.252   1.619   1.112
 4459SOL     OW14275   5.582   6.404   5.188
 4459SOL    HW114276   5.549   6.324   5.237
 4459SOL    HW214277   5.514   6.477   5.194
 4460SOL     OW14278   1.173   1.297   6.742
 4460SOL    HW114279   1.083   1.330   6.714
 4460SOL    HW214280   1.218   1.253   6.664
 4461SOL     OW14281   2.023   0.013   2.299
 4461SOL    HW114282   1.955   0.054   2.238
 4461SOL    HW214283   2.106   0.068   2.297
 4462SOL     OW14284   6.514   4.393   0.357
 4462SOL    HW114285   6.509   4.301   0.318
 4462SOL    HW214286   6.551   4.456   0.289
 4463SOL     OW14287   1.149   4.339   6.505
 4463SOL    HW114288   1.058   4.344   6.464
 4463SOL    HW214289   1.144   4.368   6.601
 4464SOL     OW14290   6.521   2.821   0.167
 4464SOL    HW114291   6.469   2.899   0.131
 4464SOL    HW214292   6.604   2.808   0.112
 4465SOL     OW14293   0.333   5.505   0.398
 4465SOL    HW114294   0.364   5.547   0.484
 4465SOL    HW214295   0.403   5.442   0.365
 4466SOL     OW14296   6.881   2.954   3.189
 4466SOL    HW114297   6.974   2.985   3.171
 4466SOL    HW214298   6.869   2.860   3.158
 4467SOL     OW14299   1.029   0.348   3.150
 4467SOL    HW114300   1.054   0.372   3.244
 4467SOL    HW214301   1.036   0.249   3.138
 4468SOL     OW14302   1.966   1.957   0.813
 4468SOL    HW114303   1.998   2.050   0.798
 4468SOL    HW214304   1.957   1.940   0.911
 4469SOL     OW14305   4.262   6.963   0.570
 4469SOL    HW114306   4.343   6.981   0.626
 4469SOL    HW214307   4.199   0.019   0.579
 4470SOL     OW14308   4.824   5.015   1.033
 4470SOL    HW114309   4.776   5.099   1.009
 4470SOL    HW214310   4.833   5.009   1.133
 4471SOL     OW14311   6.318   2.585   0.973
 4471SOL    HW114312   6.277   2.673   0.949
 4471SOL    HW214313   6.347   2.539   0.889
 4472SOL     OW14314   2.076   4.737   1.384
 4472SOL    HW114315   2.036   4.670   1.447
 4472SOL    HW214316   2.003   4.788   1.338
 4473SOL     OW14317   6.889   0.715   6.610
 4473SOL    HW114318   6.931   0.806   6.609
 4473SOL    HW214319   6.927   0.661   6.535
 4474SOL     OW14320   6.267   0.813   4.319
 4474SOL    HW114321   6.351   0.867   4.330
 4474SOL    HW214322   6.291   0.719   4.297
 4475SOL     OW14323   1.703   3.845   0.697
 4475SOL    HW114324   1.616   3.807   0.729
 4475SOL    HW214325   1.735   3.914   0.762
 4476SOL     OW14326   5.173   6.580   2.659
 4476SOL    HW114327   5.086   6.584   2.709
 4476SOL    HW214328   5.246   6.555   2.722
 4477SOL     OW14329   1.375   2.081   0.949
 4477SOL    HW114330   1.427   2.166   0.964
 4477SOL    HW214331   1.277   2.103   0.943
 4478SOL     OW14332   1.200   4.797   1.825
 4478SOL    HW114333   1.273   4.828   1.763
 4478SOL    HW214334   1.176   4.872   1.887
 4479SOL     OW14335   1.256   0.168   6.095
 4479SOL    HW114336   1.157   0.181   6.083
 4479SOL    HW214337   1.272   0.105   6.171
 4480SOL     OW14338   6.842   4.243   3.468
 4480SOL    HW114339   6.812   4.331   3.504
 4480SOL    HW214340   6.942   4.237   3.474
 4481SOL     OW14341   0.557   0.886   4.003
 4481SOL    HW114342   0.549   0.985   4.019
 4481SOL    HW214343   0.530   0.837   4.085
 4482SOL     OW14344   1.430   4.116   3.153
 4482SOL    HW114345   1.495   4.052   3.193
 4482SOL    HW214346   1.441   4.206   3.195
 4483SOL     OW14347   6.124   3.233   1.317
 4483SOL    HW114348   6.213   3.197   1.289
 4483SOL    HW214349   6.052   3.190   1.263
 4484SOL     OW14350   3.371   3.584   6.210
 4484SOL    HW114351   3.416   3.495   6.217
 4484SOL    HW214352   3.433   3.656   6.242
 4485SOL     OW14353   4.730   0.245   6.854
 4485SOL    HW114354   4.685   0.232   6.766
 4485SOL    HW214355   4.756   0.341   6.865
 4486SOL     OW14356   6.135   3.361   3.864
 4486SOL    HW114357   6.163   3.330   3.955
 4486SOL    HW214358   6.043   3.400   3.868
 4487SOL     OW14359   3.019   2.911   5.712
 4487SOL    HW114360   2.979   2.980   5.651
 4487SOL    HW214361   3.099   2.870   5.669
 4488SOL     OW14362   6.733   1.889   6.502
 4488SOL    HW114363   6.755   1.836   6.419
 4488SOL    HW214364   6.642   1.861   6.535
 4489SOL     OW14365   0.849   1.489   2.509
 4489SOL    HW114366   0.878   1.417   2.447
 4489SOL    HW214367   0.926   1.549   2.529
 4490SOL     OW14368   6.467   2.211   3.794
 4490SOL    HW114369   6.549   2.200   3.738
 4490SOL    HW214370   6.444   2.308   3.800
 4491SOL     OW14371   2.171   3.979   2.713
 4491SOL    HW114372   2.143   4.061   2.663
 4491SOL    HW214373   2.097   3.912   2.713
 4492SOL     OW14374   4.705   4.614   6.400
 4492SOL    HW114375   4.631   4.583   6.341
 4492SOL    HW214376   4.721   4.711   6.386
 4493SOL     OW14377   6.169   4.968   3.824
 4493SOL    HW114378   6.084   5.004   3.863
 4493SOL    HW214379   6.212   4.907   3.890
 4494SOL     OW14380   5.310   2.751   3.016
 4494SOL    HW114381   5.386   2.811   3.039
 4494SOL    HW214382   5.234   2.806   2.980
 4495SOL     OW14383   4.887   6.084   1.969
 4495SOL    HW114384   4.805   6.114   1.920
 4495SOL    HW214385   4.876   5.988   1.994
 4496SOL     OW14386   6.016   3.901   6.073
 4496SOL    HW114387   5.957   3.841   6.127
 4496SOL    HW214388   6.097   3.925   6.125
 4497SOL     OW14389   6.581   5.715   0.738
 4497SOL    HW114390   6.506   5.754   0.792
 4497SOL    HW214391   6.650   5.786   0.721
 4498SOL     OW14392   1.166   3.966   6.929
 4498SOL    HW114393   1.233   3.935   6.997
 4498SOL    HW214394   1.112   3.888   6.898
 4499SOL     OW14395   5.058   3.506   7.012
 4499SOL    HW114396   5.088   3.550   6.927
 4499SOL    HW214397   5.138   3.475   0.043
 4500SOL     OW14398   4.027   3.870   2.751
 4500SOL    HW114399   3.971   3.802   2.799
 4500SOL    HW214400   4.113   3.827   2.722
 4501SOL     OW14401   1.568   5.015   4.667
 4501SOL    HW114402   1.611   5.007   4.757
 4501SOL    HW214403   1.638   5.040   4.599
 4502SOL     OW14404   5.678   2.928   6.951
 4502SOL    HW114405   5.579   2.918   6.961
 4502SOL    HW214406   5.724   2.859   7.008
 4503SOL     OW14407   1.552   3.644   2.736
 4503SOL    HW114408   1.602   3.704   2.799
 4503SOL    HW214409   1.510   3.699   2.664
 4504SOL     OW14410   4.556   2.628   4.172
 4504SOL    HW114411   4.645   2.585   4.187
 4504SOL    HW214412   4.486   2.578   4.223
 4505SOL     OW14413   1.881   4.984   6.858
 4505SOL    HW114414   1.903   5.034   6.942
 4505SOL    HW214415   1.798   4.930   6.872
 4506SOL     OW14416   3.879   6.609   4.906
 4506SOL    HW114417   3.780   6.621   4.905
 4506SOL    HW214418   3.922   6.681   4.850
 4507SOL     OW14419   6.216   3.208   2.263
 4507SOL    HW114420   6.301   3.245   2.224
 4507SOL    HW214421   6.152   3.188   2.189
 4508SOL     OW14422   2.170   3.793   0.201
 4508SOL    HW114423   2.256   3.794   0.150
 4508SOL    HW214424   2.096   3.762   0.140
 4509SOL     OW14425   0.251   1.852   3.582
 4509SOL    HW114426   0.330   1.813   3.535
 4509SOL    HW214427   0.261   1.952   3.587
 4510SOL     OW14428   3.154   6.341   6.201
 4510SOL    HW114429   3.090   6.418   6.209
 4510SOL    HW214430   3.136   6.276   6.275
 4511SOL     OW14431   6.627   1.993   6.963
 4511SOL    HW114432   6.606   2.091   6.967
 4511SOL    HW214433   6.545   1.942   6.938
 4512SOL     OW14434   2.489   4.324   6.817
 4512SOL    HW114435   2.514   4.402   6.760
 4512SOL    HW214436   2.560   4.253   6.810
 4513SOL     OW14437   6.032   1.363   2.450
 4513SOL    HW114438   6.131   1.360   2.436
 4513SOL    HW214439   5.986   1.355   2.362
 4514SOL     OW14440   3.405   0.709   5.783
 4514SOL    HW114441   3.404   0.651   5.864
 4514SOL    HW214442   3.328   0.773   5.786
 4515SOL     OW14443   6.484   4.837   0.238
 4515SOL    HW114444   6.570   4.805   0.279
 4515SOL    HW214445   6.407   4.805   0.294
 4516SOL     OW14446   0.784   0.154   3.894
 4516SOL    HW114447   0.815   0.205   3.974
 4516SOL    HW214448   0.863   0.128   3.838
 4517SOL     OW14449   3.658   0.527   6.868
 4517SOL    HW114450   3.701   0.439   6.850
 4517SOL    HW214451   3.728   0.595   6.890
 4518SOL     OW14452   1.632   0.454   3.558
 4518SOL    HW114453   1.557   0.455   3.625
 4518SOL    HW214454   1.680   0.367   3.562
 4519SOL     OW14455   6.393   2.658   5.529
 4519SOL    HW114456   6.464   2.692   5.467
 4519SOL    HW214457   6.306   2.652   5.480
 4520SOL     OW14458   0.057   4.075   2.679
 4520SOL    HW114459   0.004   4.141   2.732
 4520SOL    HW214460   0.133   4.042   2.736
 4521SOL     OW14461   5.270   1.736   6.277
 4521SOL    HW114462   5.266   1.836   6.276
 4521SOL    HW214463   5.184   1.699   6.311
 4522SOL     OW14464   5.677   0.109   3.183
 4522SOL    HW114465   5.606   0.077   3.121
 4522SOL    HW214466   5.650   0.091   3.278
 4523SOL     OW14467   4.624   2.504   6.380
 4523SOL    HW114468   4.551   2.479   6.443
 4523SOL    HW214469   4.696   2.553   6.430
 4524SOL     OW14470   6.081   0.648   4.723
 4524SOL    HW114471   6.132   0.607   4.648
 4524SOL    HW214472   5.987   0.667   4.693
 4525SOL     OW14473   6.481   1.939   5.361
 4525SOL    HW114474   6.536   1.856   5.352
 4525SOL    HW214475   6.406   1.936   5.295
 4526SOL     OW14476   3.299   1.308   1.633
 4526SOL    HW114477   3.381   1.251   1.631
 4526SOL    HW214478   3.314   1.385   1.695
 4527SOL     OW14479   4.385   6.500   3.615
 4527SOL    HW114480   4.380   6.569   3.687
 4527SOL    HW214481   4.321   6.524   3.542
 4528SOL     OW14482   4.923   6.826   5.648
 4528SOL    HW114483   5.012   6.794   5.679
 4528SOL    HW214484   4.924   6.925   5.639
 4529SOL     OW14485   3.920   0.168   3.847
 4529SOL    HW114486   3.924   0.257   3.804
 4529SOL    HW214487   3.881   0.101   3.784
 4530SOL     OW14488   0.371   3.013   4.835
 4530SOL    HW114489   0.408   2.964   4.914
 4530SOL    HW214490   0.402   3.108   4.837
 4531SOL     OW14491   0.507   3.758   3.457
 4531SOL    HW114492   0.432   3.820   3.435
 4531SOL    HW214493   0.490   3.716   3.546
 4532SOL     OW14494   6.961   2.017   0.263
 4532SOL    HW114495   6.937   1.949   0.194
 4532SOL    HW214496   0.035   2.046   0.250
 4533SOL     OW14497   2.990   5.891   2.102
 4533SOL    HW114498   2.965   5.957   2.031
 4533SOL    HW214499   3.008   5.802   2.059
 4534SOL     OW14500   6.933   4.326   5.682
 4534SOL    HW114501   7.002   4.397   5.665
 4534SOL    HW214502   6.935   4.259   5.609
 4535SOL     OW14503   4.918   2.628   3.177
 4535SOL    HW114504   4.871   2.554   3.128
 4535SOL    HW214505   5.014   2.630   3.149
 4536SOL     OW14506   6.601   0.360   4.301
 4536SOL    HW114507   6.686   0.334   4.254
 4536SOL    HW214508   6.616   0.362   4.399
 4537SOL     OW14509   5.163   3.584   6.772
 4537SOL    HW114510   5.083   3.606   6.716
 4537SOL    HW214511   5.209   3.504   6.733
 4538SOL     OW14512   3.568   2.083   1.437
 4538SOL    HW114513   3.597   2.149   1.507
 4538SOL    HW214514   3.521   2.006   1.480
 4539SOL     OW14515   2.332   2.505   2.419
 4539SOL    HW114516   2.383   2.420   2.405
 4539SOL    HW214517   2.345   2.537   2.514
 4540SOL     OW14518   3.298   3.309   5.181
 4540SOL    HW114519   3.275   3.400   5.146
 4540SOL    HW214520   3.385   3.314   5.231
 4541SOL     OW14521   5.796   0.914   1.835
 4541SOL    HW114522   5.823   1.003   1.797
 4541SOL    HW214523   5.874   0.872   1.881
 4542SOL     OW14524   5.141   6.722   3.162
 4542SOL    HW114525   5.138   6.622   3.164
 4542SOL    HW214526   5.092   6.755   3.082
 4543SOL     OW14527   5.547   1.802   1.868
 4543SOL    HW114528   5.497   1.741   1.807
 4543SOL    HW214529   5.515   1.789   1.962
 4544SOL     OW14530   4.538   5.318   6.590
 4544SOL    HW114531   4.575   5.404   6.625
 4544SOL    HW214532   4.612   5.255   6.570
 4545SOL     OW14533   4.041   3.990   5.827
 4545SOL    HW114534   3.985   3.997   5.745
 4545SOL    HW214535   3.989   3.943   5.899
 4546SOL     OW14536   0.335   6.307   0.449
 4546SOL    HW114537   0.262   6.375   0.456
 4546SOL    HW214538   0.295   6.215   0.449
 4547SOL     OW14539   4.382   1.558   1.953
 4547SOL    HW114540   4.393   1.623   2.028
 4547SOL    HW214541   4.368   1.466   1.991
 4548SOL     OW14542   1.003   3.775   3.890
 4548SOL    HW114543   1.096   3.801   3.918
 4548SOL    HW214544   0.993   3.787   3.792
 4549SOL     OW14545   4.983   1.794   2.491
 4549SOL    HW114546   5.062   1.757   2.442
 4549SOL    HW214547   4.903   1.739   2.470
 4550SOL     OW14548   1.768   5.723   4.651
 4550SOL    HW114549   1.832   5.738   4.727
 4550SOL    HW214550   1.765   5.804   4.593
 4551SOL     OW14551   6.428   3.109   0.071
 4551SOL    HW114552   6.395   3.187   0.125
 4551SOL    HW214553   6.510   3.136   0.021
 4552SOL     OW14554   6.644   3.167   4.515
 4552SOL    HW114555   6.687   3.175   4.605
 4552SOL    HW214556   6.698   3.219   4.448
 4553SOL     OW14557   5.123   5.011   0.388
 4553SOL    HW114558   5.165   4.920   0.391
 4553SOL    HW214559   5.145   5.060   0.473
 4554SOL     OW14560   6.010   6.826   3.872
 4554SOL    HW114561   5.975   6.784   3.956
 4554SOL    HW214562   6.036   6.754   3.808
 4555SOL     OW14563   4.115   3.309   6.465
 4555SOL    HW114564   4.028   3.328   6.510
 4555SOL    HW214565   4.121   3.361   6.380
 4556SOL     OW14566   4.781   0.604   5.244
 4556SOL    HW114567   4.870   0.558   5.255
 4556SOL    HW214568   4.779   0.653   5.157
 4557SOL     OW14569   5.118   0.329   4.778
 4557SOL    HW114570   5.105   0.396   4.851
 4557SOL    HW214571   5.033   0.278   4.764
 4558SOL     OW14572   6.159   2.824   5.835
 4558SOL    HW114573   6.068   2.818   5.793
 4558SOL    HW214574   6.224   2.860   5.768
 4559SOL     OW14575   1.141   6.189   1.229
 4559SOL    HW114576   1.214   6.173   1.295
 4559SOL    HW214577   1.096   6.103   1.206
 4560SOL     OW14578   5.745   2.257   2.500
 4560SOL    HW114579   5.834   2.301   2.492
 4560SOL    HW214580   5.674   2.327   2.509
 4561SOL     OW14581   3.471   0.509   6.623
 4561SOL    HW114582   3.391   0.477   6.673
 4561SOL    HW214583   3.550   0.511   6.684
 4562SOL     OW14584   2.381   4.349   5.931
 4562SOL    HW114585   2.447   4.347   5.857
 4562SOL    HW214586   2.346   4.256   5.946
 4563SOL     OW14587   5.424   2.440   6.499
 4563SOL    HW114588   5.486   2.414   6.573
 4563SOL    HW214589   5.453   2.526   6.459
 4564SOL     OW14590   0.735   5.222   6.748
 4564SOL    HW114591   0.686   5.290   6.803
 4564SOL    HW214592   0.670   5.170   6.693
 4565SOL     OW14593   2.646   1.142   4.008
 4565SOL    HW114594   2.619   1.079   4.080
 4565SOL    HW214595   2.568   1.198   3.981
 4566SOL     OW14596   1.374   0.830   0.464
 4566SOL    HW114597   1.424   0.784   0.390
 4566SOL    HW214598   1.341   0.919   0.432
 4567SOL     OW14599   5.703   1.322   0.811
 4567SOL    HW114600   5.741   1.262   0.882
 4567SOL    HW214601   5.753   1.306   0.726
 4568SOL     OW14602   4.114   4.740   3.991
 4568SOL    HW114603   4.174   4.737   3.911
 4568SOL    HW214604   4.169   4.738   4.074
 4569SOL     OW14605   0.439   2.152   3.320
 4569SOL    HW114606   0.522   2.191   3.281
 4569SOL    HW214607   0.359   2.197   3.280
 4570SOL     OW14608   5.560   5.771   4.392
 4570SOL    HW114609   5.655   5.779   4.362
 4570SOL    HW214610   5.528   5.860   4.426
 4571SOL     OW14611   3.574   2.864   4.437
 4571SOL    HW114612   3.643   2.933   4.458
 4571SOL    HW214613   3.540   2.825   4.523
 4572SOL     OW14614   1.789   5.001   1.718
 4572SOL    HW114615   1.725   5.013   1.794
 4572SOL    HW214616   1.870   4.953   1.750
 4573SOL     OW14617   4.944   0.518   1.007
 4573SOL    HW114618   4.913   0.592   1.066
 4573SOL    HW214619   5.024   0.474   1.048
 4574SOL     OW14620   0.101   4.394   1.618
 4574SOL    HW114621   0.010   4.433   1.633
 4574SOL    HW214622   0.103   4.301   1.655
 4575SOL     OW14623   6.666   6.157   2.116
 4575SOL    HW114624   6.580   6.114   2.090
 4575SOL    HW214625   6.693   6.223   2.046
 4576SOL     OW14626   3.924   6.493   4.161
 4576SOL    HW114627   3.897   6.433   4.086
 4576SOL    HW214628   3.842   6.524   4.210
 4577SOL     OW14629   1.377   3.153   4.143
 4577SOL    HW114630   1.427   3.235   4.171
 4577SOL    HW214631   1.279   3.169   4.153
 4578SOL     OW14632   0.445   5.281   3.881
 4578SOL    HW114633   0.414   5.375   3.898
 4578SOL    HW214634   0.437   5.228   3.965
 4579SOL     OW14635   5.429   1.830   4.650
 4579SOL    HW114636   5.388   1.745   4.685
 4579SOL    HW214637   5.411   1.837   4.552
 4580SOL     OW14638   0.218   5.475   7.017
 4580SOL    HW114639   0.158   5.474   6.937
 4580SOL    HW214640   0.222   5.383   0.036
 4581SOL     OW14641   3.654   6.214   4.168
 4581SOL    HW114642   3.676   6.277   4.093
 4581SOL    HW214643   3.708   6.131   4.158
 4582SOL     OW14644   4.791   6.563   3.274
 4582SOL    HW114645   4.810   6.650   3.229
 4582SOL    HW214646   4.695   6.538   3.259
 4583SOL     OW14647   3.793   1.263   5.504
 4583SOL    HW114648   3.785   1.352   5.549
 4583SOL    HW214649   3.718   1.253   5.438
 4584SOL     OW14650   1.062   4.921   5.783
 4584SOL    HW114651   0.996   4.896   5.713
 4584SOL    HW214652   1.060   4.854   5.857
 4585SOL     OW14653   3.309   6.289   2.096
 4585SOL    HW114654   3.330   6.323   2.188
 4585SOL    HW214655   3.213   6.260   2.092
 4586SOL     OW14656   2.686   6.078   1.754
 4586SOL    HW114657   2.588   6.093   1.769
 4586SOL    HW214658   2.706   6.086   1.656
 4587SOL     OW14659   3.347   5.046   0.538
 4587SOL    HW114660   3.274   5.032   0.606
 4587SOL    HW214661   3.421   5.099   0.580
 4588SOL     OW14662   3.733   4.238   5.193
 4588SOL    HW114663   3.709   4.250   5.097
 4588SOL    HW214664   3.795   4.161   5.204
 4589SOL     OW14665   0.696   1.985   3.099
 4589SOL    HW114666   0.776   1.932   3.126
 4589SOL    HW214667   0.640   1.931   3.035
 4590SOL     OW14668   4.100   6.276   3.239
 4590SOL    HW114669   4.114   6.366   3.279
 4590SOL    HW214670   4.052   6.285   3.151
 4591SOL     OW14671   6.151   6.722   5.117
 4591SOL    HW114672   6.091   6.800   5.138
 4591SOL    HW214673   6.164   6.668   5.200
 4592SOL     OW14674   3.144   1.413   6.330
 4592SOL    HW114675   3.207   1.455   6.395
 4592SOL    HW214676   3.165   1.316   6.321
 4593SOL     OW14677   4.866   6.492   1.624
 4593SOL    HW114678   4.910   6.431   1.690
 4593SOL    HW214679   4.920   6.576   1.615
 4594SOL     OW14680   3.588   1.655   2.378
 4594SOL    HW114681   3.585   1.606   2.465
 4594SOL    HW214682   3.514   1.722   2.374
 4595SOL     OW14683   4.813   3.576   6.023
 4595SOL    HW114684   4.903   3.598   5.985
 4595SOL    HW214685   4.741   3.613   5.963
 4596SOL     OW14686   5.233   0.344   2.399
 4596SOL    HW114687   5.226   0.289   2.315
 4596SOL    HW214688   5.327   0.340   2.433
 4597SOL     OW14689   6.560   4.291   5.855
 4597SOL    HW114690   6.593   4.221   5.919
 4597SOL    HW214691   6.611   4.376   5.870
 4598SOL     OW14692   3.299   4.093   0.488
 4598SOL    HW114693   3.320   4.021   0.554
 4598SOL    HW214694   3.279   4.052   0.399
 4599SOL     OW14695   2.523   5.445   0.406
 4599SOL    HW114696   2.599   5.509   0.403
 4599SOL    HW214697   2.548   5.365   0.460
 4600SOL     OW14698   3.598   4.425   1.469
 4600SOL    HW114699   3.579   4.518   1.435
 4600SOL    HW214700   3.562   4.416   1.562
 4601SOL     OW14701   1.665   5.816   4.153
 4601SOL    HW114702   1.565   5.812   4.156
 4601SOL    HW214703   1.699   5.857   4.238
 4602SOL     OW14704   1.617   0.837   0.909
 4602SOL    HW114705   1.562   0.836   0.992
 4602SOL    HW214706   1.561   0.810   0.831
 4603SOL     OW14707   3.090   1.530   1.950
 4603SOL    HW114708   3.162   1.517   1.882
 4603SOL    HW214709   3.063   1.441   1.987
 4604SOL     OW14710   1.519   0.853   2.211
 4604SOL    HW114711   1.448   0.920   2.189
 4604SOL    HW214712   1.486   0.762   2.185
 4605SOL     OW14713   5.331   6.067   5.698
 4605SOL    HW114714   5.402   6.134   5.718
 4605SOL    HW214715   5.293   6.085   5.607
 4606SOL     OW14716   6.900   5.559   4.758
 4606SOL    HW114717   6.869   5.639   4.706
 4606SOL    HW214718   6.968   5.509   4.705
 4607SOL     OW14719   2.837   2.635   1.261
 4607SOL    HW114720   2.895   2.554   1.252
 4607SOL    HW214721   2.829   2.660   1.357
 4608SOL     OW14722   1.356   3.586   5.067
 4608SOL    HW114723   1.441   3.618   5.024
 4608SOL    HW214724   1.366   3.491   5.093
 4609SOL     OW14725   3.097   0.047   0.461
 4609SOL    HW114726   3.107   6.969   0.474
 4609SOL    HW214727   3.015   0.064   0.405
 4610SOL     OW14728   0.118   3.166   6.609
 4610SOL    HW114729   0.179   3.099   6.568
 4610SOL    HW214730   0.057   3.121   6.673
 4611SOL     OW14731   1.481   4.061   6.644
 4611SOL    HW114732   1.569   4.018   6.627
 4611SOL    HW214733   1.408   3.994   6.634
 4612SOL     OW14734   2.538   0.119   6.481
 4612SOL    HW114735   2.567   0.089   6.390
 4612SOL    HW214736   2.573   0.056   6.550
 4613SOL     OW14737   3.223   4.930   1.727
 4613SOL    HW114738   3.134   4.961   1.761
 4613SOL    HW214739   3.230   4.831   1.737
 4614SOL     OW14740   2.124   5.065   0.114
 4614SOL    HW114741   2.166   4.978   0.137
 4614SOL    HW214742   2.174   5.139   0.160
 4615SOL     OW14743   6.665   3.050   6.980
 4615SOL    HW114744   6.721   2.972   7.007
 4615SOL    HW214745   6.712   3.102   6.908
 4616SOL     OW14746   5.880   0.610   0.590
 4616SOL    HW114747   5.920   0.684   0.536
 4616SOL    HW214748   5.913   0.522   0.557
 4617SOL     OW14749   6.962   3.974   1.949
 4617SOL    HW114750   7.017   3.911   1.894
 4617SOL    HW214751   6.970   4.066   1.913
 4618SOL     OW14752   0.581   2.912   6.444
 4618SOL    HW114753   0.638   2.972   6.388
 4618SOL    HW214754   0.510   2.871   6.387
 4619SOL     OW14755   3.433   0.456   3.878
 4619SOL    HW114756   3.436   0.461   3.978
 4619SOL    HW214757   3.424   0.360   3.851
 4620SOL     OW14758   2.188   5.849   6.447
 4620SOL    HW114759   2.214   5.943   6.424
 4620SOL    HW214760   2.261   5.787   6.420
 4621SOL     OW14761   0.605   0.625   5.947
 4621SOL    HW114762   0.566   0.559   6.012
 4621SOL    HW214763   0.696   0.652   5.978
 4622SOL     OW14764   2.082   3.438   0.829
 4622SOL    HW114765   2.024   3.438   0.910
 4622SOL    HW214766   2.083   3.530   0.789
 4623SOL     OW14767   5.425   4.481   2.827
 4623SOL    HW114768   5.349   4.531   2.787
 4623SOL    HW214769   5.393   4.392   2.860
 4624SOL     OW14770   4.671   6.851   5.539
 4624SOL    HW114771   4.698   6.801   5.456
 4624SOL    HW214772   4.749   6.858   5.601
 4625SOL     OW14773   1.419   3.955   6.344
 4625SOL    HW114774   1.482   3.887   6.305
 4625SOL    HW214775   1.472   4.028   6.388
 4626SOL     OW14776   5.655   5.367   2.067
 4626SOL    HW114777   5.584   5.340   2.002
 4626SOL    HW214778   5.638   5.460   2.099
 4627SOL     OW14779   1.601   6.886   5.549
 4627SOL    HW114780   1.548   6.971   5.559
 4627SOL    HW214781   1.568   6.819   5.615
 4628SOL     OW14782   6.232   2.740   2.395
 4628SOL    HW114783   6.199   2.649   2.370
 4628SOL    HW214784   6.193   2.768   2.483
 4629SOL     OW14785   4.529   4.704   4.426
 4629SOL    HW114786   4.453   4.696   4.491
 4629SOL    HW214787   4.498   4.678   4.335
 4630SOL     OW14788   1.869   6.714   2.178
 4630SOL    HW114789   1.905   6.629   2.217
 4630SOL    HW214790   1.882   6.712   2.079
 4631SOL     OW14791   1.819   0.403   2.903
 4631SOL    HW114792   1.792   0.445   2.990
 4631SOL    HW214793   1.897   0.453   2.865
 4632SOL     OW14794   6.144   5.593   4.216
 4632SOL    HW114795   6.063   5.576   4.272
 4632SOL    HW214796   6.184   5.505   4.188
 4633SOL     OW14797   5.272   2.420   5.742
 4633SOL    HW114798   5.263   2.419   5.642
 4633SOL    HW214799   5.256   2.329   5.778
 4634SOL     OW14800   3.178   4.457   0.792
 4634SOL    HW114801   3.264   4.440   0.840
 4634SOL    HW214802   3.187   4.431   0.696
 4635SOL     OW14803   5.725   3.249   1.633
 4635SOL    HW114804   5.805   3.218   1.582
 4635SOL    HW214805   5.716   3.195   1.717
 4636SOL     OW14806   0.990   5.632   1.546
 4636SOL    HW114807   0.937   5.642   1.630
 4636SOL    HW214808   0.935   5.584   1.478
 4637SOL     OW14809   1.735   0.865   4.168
 4637SOL    HW114810   1.663   0.814   4.120
 4637SOL    HW214811   1.752   0.951   4.121
 4638SOL     OW14812   4.412   4.660   5.918
 4638SOL    HW114813   4.424   4.739   5.978
 4638SOL    HW214814   4.471   4.585   5.949
 4639SOL     OW14815   0.253   2.182   4.779
 4639SOL    HW114816   0.291   2.273   4.794
 4639SOL    HW214817   0.241   2.167   4.681
 4640SOL     OW14818   6.175   4.672   2.869
 4640SOL    HW114819   6.218   4.647   2.782
 4640SOL    HW214820   6.154   4.590   2.922
 4641SOL     OW14821   3.037   3.373   5.678
 4641SOL    HW114822   3.054   3.445   5.611
 4641SOL    HW214823   2.999   3.292   5.632
 4642SOL     OW14824   6.477   6.053   4.019
 4642SOL    HW114825   6.518   6.079   3.931
 4642SOL    HW214826   6.511   5.964   4.047
 4643SOL     OW14827   3.942   3.034   0.683
 4643SOL    HW114828   3.970   3.127   0.703
 4643SOL    HW214829   3.950   2.977   0.765
 4644SOL     OW14830   3.535   4.718   5.410
 4644SOL    HW114831   3.476   4.790   5.374
 4644SOL    HW214832   3.534   4.640   5.347
 4645SOL     OW14833   1.743   6.266   5.066
 4645SOL    HW114834   1.796   6.210   5.130
 4645SOL    HW214835   1.678   6.322   5.118
 4646SOL     OW14836   3.814   0.479   1.349
 4646SOL    HW114837   3.897   0.469   1.294
 4646SOL    HW214838   3.742   0.521   1.293
 4647SOL     OW14839   6.939   0.618   4.956
 4647SOL    HW114840   6.859   0.650   5.007
 4647SOL    HW214841   7.003   0.574   5.018
 4648SOL     OW14842   1.745   5.370   2.710
 4648SOL    HW114843   1.807   5.306   2.665
 4648SOL    HW214844   1.657   5.371   2.663
 4649SOL     OW14845   5.795   6.563   6.044
 4649SOL    HW114846   5.835   6.548   6.134
 4649SOL    HW214847   5.697   6.580   6.053
 4650SOL     OW14848   6.501   4.481   1.539
 4650SOL    HW114849   6.562   4.552   1.572
 4650SOL    HW214850   6.489   4.411   1.609
 4651SOL     OW14851   6.163   2.422   2.322
 4651SOL    HW114852   6.164   2.324   2.303
 4651SOL    HW214853   6.188   2.473   2.240
 4652SOL     OW14854   0.115   5.870   5.165
 4652SOL    HW114855   0.193   5.831   5.212
 4652SOL    HW214856   0.121   5.848   5.067
 4653SOL     OW14857   0.377   5.376   6.479
 4653SOL    HW114858   0.449   5.386   6.547
 4653SOL    HW214859   0.378   5.284   6.442
 4654SOL     OW14860   0.992   1.621   6.522
 4654SOL    HW114861   0.960   1.526   6.524
 4654SOL    HW214862   1.004   1.654   6.616
 4655SOL     OW14863   0.167   5.549   3.564
 4655SOL    HW114864   0.089   5.496   3.596
 4655SOL    HW214865   0.247   5.529   3.620
 4656SOL     OW14866   2.487   6.689   2.701
 4656SOL    HW114867   2.402   6.691   2.755
 4656SOL    HW214868   2.514   6.783   2.678
 4657SOL     OW14869   6.363   0.589   6.040
 4657SOL    HW114870   6.295   0.661   6.021
 4657SOL    HW214871   6.317   0.500   6.043
 4658SOL     OW14872   5.013   0.780   3.994
 4658SOL    HW114873   4.926   0.765   3.947
 4658SOL    HW214874   5.078   0.822   3.931
 4659SOL     OW14875   1.963   2.875   4.514
 4659SOL    HW114876   2.052   2.887   4.557
 4659SOL    HW214877   1.964   2.794   4.456
 4660SOL     OW14878   6.677   1.756   5.347
 4660SOL    HW114879   6.743   1.824   5.315
 4660SOL    HW214880   6.711   1.712   5.429
 4661SOL     OW14881   3.799   3.006   3.029
 4661SOL    HW114882   3.700   2.991   3.030
 4661SOL    HW214883   3.833   3.007   3.123
 4662SOL     OW14884   5.657   0.088   3.714
 4662SOL    HW114885   5.731   0.038   3.669
 4662SOL    HW214886   5.674   0.093   3.812
 4663SOL     OW14887   1.064   2.520   1.850
 4663SOL    HW114888   1.003   2.468   1.910
 4663SOL    HW214889   1.054   2.618   1.869
 4664SOL     OW14890   3.626   4.008   0.277
 4664SOL    HW114891   3.594   4.019   0.372
 4664SOL    HW214892   3.717   3.968   0.277
 4665SOL     OW14893   5.356   0.109   6.770
 4665SOL    HW114894   5.390   0.186   6.716
 4665SOL    HW214895   5.262   0.127   6.798
 4666SOL     OW14896   2.055   1.886   0.436
 4666SOL    HW114897   2.054   1.824   0.514
 4666SOL    HW214898   1.971   1.942   0.437
 4667SOL     OW14899   0.916   5.362   4.600
 4667SOL    HW114900   0.819   5.337   4.598
 4667SOL    HW214901   0.941   5.405   4.514
 4668SOL     OW14902   5.070   0.831   5.613
 4668SOL    HW114903   4.985   0.799   5.570
 4668SOL    HW214904   5.058   0.927   5.641
 4669SOL     OW14905   2.580   1.362   1.709
 4669SOL    HW114906   2.647   1.341   1.780
 4669SOL    HW214907   2.575   1.286   1.644
 4670SOL     OW14908   2.568   1.613   4.527
 4670SOL    HW114909   2.628   1.647   4.455
 4670SOL    HW214910   2.559   1.683   4.598
 4671SOL     OW14911   5.560   2.320   1.697
 4671SOL    HW114912   5.515   2.231   1.693
 4671SOL    HW214913   5.574   2.346   1.793
 4672SOL     OW14914   2.917   2.779   5.368
 4672SOL    HW114915   2.940   2.682   5.363
 4672SOL    HW214916   2.988   2.834   5.323
 4673SOL     OW14917   4.682   0.817   2.334
 4673SOL    HW114918   4.680   0.718   2.324
 4673SOL    HW214919   4.629   0.843   2.415
 4674SOL     OW14920   5.092   6.510   5.060
 4674SOL    HW114921   5.111   6.516   5.158
 4674SOL    HW214922   5.131   6.426   5.024
 4675SOL     OW14923   0.899   4.313   6.385
 4675SOL    HW114924   0.925   4.317   6.289
 4675SOL    HW214925   0.815   4.260   6.394
 4676SOL     OW14926   0.588   4.816   3.928
 4676SOL    HW114927   0.555   4.729   3.892
 4676SOL    HW214928   0.672   4.801   3.981
 4677SOL     OW14929   1.566   2.898   0.452
 4677SOL    HW114930   1.662   2.902   0.478
 4677SOL    HW214931   1.510   2.885   0.534
 4678SOL     OW14932   0.966   4.471   2.074
 4678SOL    HW114933   1.051   4.485   2.023
 4678SOL    HW214934   0.894   4.443   2.010
 4679SOL     OW14935   4.021   0.248   1.872
 4679SOL    HW114936   3.948   0.239   1.940
 4679SOL    HW214937   4.006   0.182   1.798
 4680SOL     OW14938   2.122   0.314   6.612
 4680SOL    HW114939   2.219   0.312   6.636
 4680SOL    HW214940   2.104   0.394   6.555
 4681SOL     OW14941   5.096   5.764   2.234
 4681SOL    HW114942   5.097   5.788   2.331
 4681SOL    HW214943   5.177   5.710   2.212
 4682SOL     OW14944   3.570   3.939   5.969
 4682SOL    HW114945   3.514   3.938   5.887
 4682SOL    HW214946   3.526   3.996   6.039
 4683SOL     OW14947   6.398   4.951   3.662
 4683SOL    HW114948   6.367   4.947   3.567
 4683SOL    HW214949   6.319   4.949   3.723
 4684SOL     OW14950   5.642   6.477   6.298
 4684SOL    HW114951   5.586   6.443   6.374
 4684SOL    HW214952   5.699   6.403   6.264
 4685SOL     OW14953   3.172   3.956   4.470
 4685SOL    HW114954   3.219   3.868   4.465
 4685SOL    HW214955   3.231   4.028   4.434
 4686SOL     OW14956   1.601   0.094   6.891
 4686SOL    HW114957   1.608   7.016   6.906
 4686SOL    HW214958   1.511   0.126   6.922
 4687SOL     OW14959   2.243   0.595   2.917
 4687SOL    HW114960   2.224   0.617   2.822
 4687SOL    HW214961   2.158   0.566   2.962
 4688SOL     OW14962   4.933   2.658   6.027
 4688SOL    HW114963   4.860   2.718   5.993
 4688SOL    HW214964   4.897   2.565   6.038
 4689SOL     OW14965   6.781   1.066   0.756
 4689SOL    HW114966   6.839   1.112   0.689
 4689SOL    HW214967   6.762   1.128   0.832
 4690SOL     OW14968   3.108   2.535   0.850
 4690SOL    HW114969   3.119   2.438   0.827
 4690SOL    HW214970   3.023   2.548   0.902
 4691SOL     OW14971   6.543   3.741   1.853
 4691SOL    HW114972   6.458   3.746   1.801
 4691SOL    HW214973   6.530   3.680   1.932
 4692SOL     OW14974   5.144   2.967   2.982
 4692SOL    HW114975   5.183   3.028   2.913
 4692SOL    HW214976   5.158   3.006   3.073
 4693SOL     OW14977   0.879   0.478   2.377
 4693SOL    HW114978   0.925   0.403   2.330
 4693SOL    HW214979   0.920   0.565   2.350
 4694SOL     OW14980   1.766   0.195   6.358
 4694SOL    HW114981   1.730   0.194   6.451
 4694SOL    HW214982   1.817   0.110   6.341
 4695SOL     OW14983   2.440   5.201   2.423
 4695SOL    HW114984   2.438   5.271   2.495
 4695SOL    HW214985   2.523   5.212   2.369
 4696SOL     OW14986   1.348   6.490   5.938
 4696SOL    HW114987   1.265   6.544   5.951
 4696SOL    HW214988   1.323   6.395   5.917
 4697SOL     OW14989   4.261   5.732   1.562
 4697SOL    HW114990   4.341   5.690   1.519
 4697SOL    HW214991   4.288   5.770   1.651
 4698SOL     OW14992   5.640   1.024   4.567
 4698SOL    HW114993   5.588   0.962   4.626
 4698SOL    HW214994   5.657   0.980   4.479
 4699SOL     OW14995   1.380   1.265   2.970
 4699SOL    HW114996   1.325   1.348   2.986
 4699SOL    HW214997   1.457   1.288   2.911
 4700SOL     OW14998   6.425   1.754   3.043
 4700SOL    HW114999   6.356   1.761   2.972
 4700SOL    HW215000   6.418   1.665   3.088
 4701SOL     OW15001   3.152   2.554   1.646
 4701SOL    HW115002   3.098   2.516   1.720
 4701SOL    HW215003   3.170   2.651   1.663
 4702SOL     OW15004   6.114   5.410   0.106
 4702SOL    HW115005   6.066   5.401   0.019
 4702SOL    HW215006   6.138   5.506   0.120
 4703SOL     OW15007   0.560   5.284   3.393
 4703SOL    HW115008   0.516   5.274   3.482
 4703SOL    HW215009   0.657   5.306   3.406
 4704SOL     OW15010   1.252   5.076   4.151
 4704SOL    HW115011   1.220   5.163   4.114
 4704SOL    HW215012   1.335   5.091   4.204
 4705SOL     OW15013   3.691   1.915   1.902
 4705SOL    HW115014   3.668   2.003   1.941
 4705SOL    HW215015   3.748   1.928   1.820
 4706SOL     OW15016   2.474   0.495   0.947
 4706SOL    HW115017   2.419   0.422   0.988
 4706SOL    HW215018   2.450   0.503   0.850
 4707SOL     OW15019   1.396   5.266   2.192
 4707SOL    HW115020   1.478   5.322   2.203
 4707SOL    HW215021   1.397   5.192   2.260
 4708SOL     OW15022   1.478   3.339   5.081
 4708SOL    HW115023   1.547   3.410   5.097
 4708SOL    HW215024   1.523   3.249   5.083
 4709SOL     OW15025   5.889   3.764   5.697
 4709SOL    HW115026   5.980   3.748   5.738
 4709SOL    HW215027   5.899   3.821   5.616
 4710SOL     OW15028   6.194   5.942   5.071
 4710SOL    HW115029   6.179   5.862   5.129
 4710SOL    HW215030   6.107   5.977   5.039
 4711SOL     OW15031   4.837   4.485   2.379
 4711SOL    HW115032   4.755   4.461   2.327
 4711SOL    HW215033   4.905   4.525   2.317
 4712SOL     OW15034   4.374   4.265   5.471
 4712SOL    HW115035   4.336   4.211   5.547
 4712SOL    HW215036   4.303   4.325   5.434
 4713SOL     OW15037   5.360   3.788   1.074
 4713SOL    HW115038   5.318   3.836   0.997
 4713SOL    HW215039   5.377   3.853   1.148
 4714SOL     OW15040   4.370   2.095   6.751
 4714SOL    HW115041   4.347   2.086   6.654
 4714SOL    HW215042   4.307   2.160   6.794
 4715SOL     OW15043   6.594   1.430   1.624
 4715SOL    HW115044   6.660   1.424   1.549
 4715SOL    HW215045   6.640   1.462   1.707
 4716SOL     OW15046   3.662   4.512   5.822
 4716SOL    HW115047   3.669   4.483   5.727
 4716SOL    HW215048   3.671   4.611   5.828
 4717SOL     OW15049   1.908   4.816   5.650
 4717SOL    HW115050   1.933   4.775   5.562
 4717SOL    HW215051   1.980   4.879   5.678
 4718SOL     OW15052   4.825   4.649   1.299
 4718SOL    HW115053   4.782   4.561   1.320
 4718SOL    HW215054   4.774   4.722   1.344
 4719SOL     OW15055   6.652   4.511   3.791
 4719SOL    HW115056   6.604   4.591   3.758
 4719SOL    HW215057   6.748   4.516   3.764
 4720SOL     OW15058   2.569   3.231   6.966
 4720SOL    HW115059   2.470   3.248   6.967
 4720SOL    HW215060   2.588   3.147   6.916
 4721SOL     OW15061   0.551   2.667   3.341
 4721SOL    HW115062   0.554   2.646   3.439
 4721SOL    HW215063   0.568   2.765   3.328
 4722SOL     OW15064   0.958   5.590   6.740
 4722SOL    HW115065   0.880   5.584   6.677
 4722SOL    HW215066   0.966   5.505   6.791
 4723SOL     OW15067   2.997   4.951   6.542
 4723SOL    HW115068   2.940   4.878   6.580
 4723SOL    HW215069   2.995   5.030   6.603
 4724SOL     OW15070   0.970   0.250   4.242
 4724SOL    HW115071   0.901   0.298   4.295
 4724SOL    HW215072   0.967   0.282   4.147
 4725SOL     OW15073   5.774   5.130   0.959
 4725SOL    HW115074   5.868   5.138   0.991
 4725SOL    HW215075   5.719   5.204   0.998
 4726SOL     OW15076   1.831   2.709   5.226
 4726SOL    HW115077   1.882   2.719   5.312
 4726SOL    HW215078   1.836   2.795   5.175
 4727SOL     OW15079   6.400   4.589   1.129
 4727SOL    HW115080   6.431   4.590   1.034
 4727SOL    HW215081   6.440   4.511   1.177
 4728SOL     OW15082   5.803   1.670   4.633
 4728SOL    HW115083   5.736   1.597   4.650
 4728SOL    HW215084   5.782   1.748   4.692
 4729SOL     OW15085   5.704   1.199   1.942
 4729SOL    HW115086   5.706   1.173   2.039
 4729SOL    HW215087   5.617   1.244   1.922
 4730SOL     OW15088   3.837   0.309   3.601
 4730SOL    HW115089   3.737   0.302   3.606
 4730SOL    HW215090   3.865   0.325   3.506
 4731SOL     OW15091   3.227   6.726   1.307
 4731SOL    HW115092   3.242   6.677   1.392
 4731SOL    HW215093   3.166   6.804   1.324
 4732SOL     OW15094   0.096   4.849   4.717
 4732SOL    HW115095   0.153   4.931   4.713
 4732SOL    HW215096   0.105   4.807   4.807
 4733SOL     OW15097   1.814   4.196   2.464
 4733SOL    HW115098   1.864   4.153   2.389
 4733SOL    HW215099   1.777   4.284   2.432
 4734SOL     OW15100   4.671   4.153   6.923
 4734SOL    HW115101   4.683   4.166   6.825
 4734SOL    HW215102   4.633   4.237   6.964
 4735SOL     OW15103   0.505   0.494   4.888
 4735SOL    HW115104   0.567   0.425   4.925
 4735SOL    HW215105   0.427   0.449   4.844
 4736SOL     OW15106   6.246   1.372   4.100
 4736SOL    HW115107   6.172   1.415   4.152
 4736SOL    HW215108   6.283   1.438   4.034
 4737SOL     OW15109   1.818   4.838   0.266
 4737SOL    HW115110   1.873   4.813   0.345
 4737SOL    HW215111   1.731   4.789   0.269
 4738SOL     OW15112   0.613   5.778   4.136
 4738SOL    HW115113   0.674   5.848   4.100
 4738SOL    HW215114   0.557   5.817   4.209
 4739SOL     OW15115   5.858   3.254   3.052
 4739SOL    HW115116   5.785   3.296   2.999
 4739SOL    HW215117   5.944   3.262   3.002
 4740SOL     OW15118   1.286   6.865   0.468
 4740SOL    HW115119   1.368   6.812   0.447
 4740SOL    HW215120   1.250   6.907   0.385
 4741SOL     OW15121   5.898   4.642   0.939
 4741SOL    HW115122   5.881   4.689   1.026
 4741SOL    HW215123   5.973   4.577   0.950
 4742SOL     OW15124   2.677   5.548   2.528
 4742SOL    HW115125   2.685   5.578   2.433
 4742SOL    HW215126   2.589   5.504   2.542
 4743SOL     OW15127   2.689   3.787   0.834
 4743SOL    HW115128   2.680   3.826   0.743
 4743SOL    HW215129   2.751   3.708   0.831
 4744SOL     OW15130   2.458   1.730   5.709
 4744SOL    HW115131   2.401   1.804   5.673
 4744SOL    HW215132   2.436   1.714   5.805
 4745SOL     OW15133   4.495   5.436   4.754
 4745SOL    HW115134   4.415   5.390   4.792
 4745SOL    HW215135   4.565   5.368   4.731
 4746SOL     OW15136   5.782   1.042   1.479
 4746SOL    HW115137   5.836   0.962   1.452
 4746SOL    HW215138   5.836   1.098   1.542
 4747SOL     OW15139   0.740   2.707   2.110
 4747SOL    HW115140   0.802   2.766   2.058
 4747SOL    HW215141   0.681   2.657   2.046
 4748SOL     OW15142   2.109   0.504   0.782
 4748SOL    HW115143   2.145   0.592   0.813
 4748SOL    HW215144   2.139   0.487   0.688
 4749SOL     OW15145   2.860   0.295   6.924
 4749SOL    HW115146   2.806   0.243   6.857
 4749SOL    HW215147   2.822   0.387   6.932
 4750SOL     OW15148   0.690   1.796   4.488
 4750SOL    HW115149   0.653   1.883   4.519
 4750SOL    HW215150   0.731   1.807   4.398
 4751SOL     OW15151   1.055   3.478   5.855
 4751SOL    HW115152   1.065   3.426   5.939
 4751SOL    HW215153   1.143   3.481   5.807
 4752SOL     OW15154   2.101   5.860   1.248
 4752SOL    HW115155   2.084   5.917   1.328
 4752SOL    HW215156   2.149   5.777   1.276
 4753SOL     OW15157   0.553   6.666   5.731
 4753SOL    HW115158   0.535   6.603   5.656
 4753SOL    HW215159   0.554   6.760   5.697
 4754SOL     OW15160   0.951   0.635   6.160
 4754SOL    HW115161   0.914   0.728   6.160
 4754SOL    HW215162   0.982   0.612   6.252
 4755SOL     OW15163   3.130   0.377   1.605
 4755SOL    HW115164   3.208   0.334   1.651
 4755SOL    HW215165   3.080   0.434   1.671
 4756SOL     OW15166   5.250   2.624   1.333
 4756SOL    HW115167   5.151   2.636   1.343
 4756SOL    HW215168   5.290   2.610   1.424
 4757SOL     OW15169   2.602   1.607   1.272
 4757SOL    HW115170   2.533   1.677   1.256
 4757SOL    HW215171   2.689   1.636   1.233
 4758SOL     OW15172   5.297   3.490   5.877
 4758SOL    HW115173   5.342   3.579   5.869
 4758SOL    HW215174   5.279   3.470   5.973
 4759SOL     OW15175   5.742   4.236   6.180
 4759SOL    HW115176   5.761   4.187   6.095
 4759SOL    HW215177   5.721   4.331   6.160
 4760SOL     OW15178   2.102   2.698   0.555
 4760SOL    HW115179   2.081   2.795   0.553
 4760SOL    HW215180   2.200   2.685   0.571
 4761SOL     OW15181   1.847   5.659   5.857
 4761SOL    HW115182   1.853   5.597   5.779
 4761SOL    HW215183   1.762   5.710   5.852
 4762SOL     OW15184   3.773   6.725   2.194
 4762SOL    HW115185   3.689   6.686   2.232
 4762SOL    HW215186   3.774   6.824   2.208
 4763SOL     OW15187   5.850   5.610   5.141
 4763SOL    HW115188   5.891   5.616   5.050
 4763SOL    HW215189   5.752   5.593   5.132
 4764SOL     OW15190   3.849   3.560   4.022
 4764SOL    HW115191   3.865   3.639   4.081
 4764SOL    HW215192   3.767   3.512   4.053
 4765SOL     OW15193   6.374   5.401   6.191
 4765SOL    HW115194   6.279   5.371   6.201
 4765SOL    HW215195   6.388   5.439   6.100
 4766SOL     OW15196   3.404   0.663   3.506
 4766SOL    HW115197   3.324   0.635   3.453
 4766SOL    HW215198   3.380   0.743   3.562
 4767SOL     OW15199   3.693   6.882   6.780
 4767SOL    HW115200   3.764   6.951   6.765
 4767SOL    HW215201   3.605   6.928   6.796
 4768SOL     OW15202   1.390   0.981   4.800
 4768SOL    HW115203   1.301   0.990   4.756
 4768SOL    HW215204   1.407   1.060   4.858
 4769SOL     OW15205   4.272   1.024   2.134
 4769SOL    HW115206   4.219   1.064   2.059
 4769SOL    HW215207   4.215   1.020   2.216
 4770SOL     OW15208   1.955   0.496   3.688
 4770SOL    HW115209   1.987   0.472   3.597
 4770SOL    HW215210   1.878   0.560   3.681
 4771SOL     OW15211   4.161   4.373   5.330
 4771SOL    HW115212   4.220   4.405   5.256
 4771SOL    HW215213   4.177   4.275   5.345
 4772SOL     OW15214   2.320   3.219   6.883
 4772SOL    HW115215   2.315   3.120   6.873
 4772SOL    HW215216   2.257   3.263   6.819
 4773SOL     OW15217   0.278   5.313   4.355
 4773SOL    HW115218   0.211   5.383   4.330
 4773SOL    HW215219   0.365   5.332   4.309
 4774SOL     OW15220   1.833   4.317   6.793
 4774SOL    HW115221   1.746   4.291   6.751
 4774SOL    HW215222   1.884   4.376   6.729
 4775SOL     OW15223   2.009   1.906   2.232
 4775SOL    HW115224   2.080   1.838   2.214
 4775SOL    HW215225   1.920   1.861   2.240
 4776SOL     OW15226   4.023   4.834   2.301
 4776SOL    HW115227   4.033   4.812   2.398
 4776SOL    HW215228   3.938   4.795   2.266
 4777SOL     OW15229   2.777   3.789   1.748
 4777SOL    HW115230   2.837   3.748   1.817
 4777SOL    HW215231   2.828   3.804   1.664
 4778SOL     OW15232   5.162   3.742   2.891
 4778SOL    HW115233   5.259   3.731   2.915
 4778SOL    HW215234   5.149   3.717   2.795
 4779SOL     OW15235   4.644   0.907   2.820
 4779SOL    HW115236   4.631   0.888   2.723
 4779SOL    HW215237   4.624   1.003   2.838
 4780SOL     OW15238   1.775   0.210   5.399
 4780SOL    HW115239   1.815   0.143   5.336
 4780SOL    HW215240   1.752   0.293   5.349
 4781SOL     OW15241   2.168   5.932   2.783
 4781SOL    HW115242   2.141   5.979   2.867
 4781SOL    HW215243   2.261   5.897   2.793
 4782SOL     OW15244   5.843   5.520   0.299
 4782SOL    HW115245   5.915   5.488   0.237
 4782SOL    HW215246   5.884   5.578   0.369
 4783SOL     OW15247   6.426   3.887   2.496
 4783SOL    HW115248   6.457   3.793   2.512
 4783SOL    HW215249   6.377   3.892   2.409
 4784SOL     OW15250   5.491   4.317   5.591
 4784SOL    HW115251   5.567   4.371   5.556
 4784SOL    HW215252   5.413   4.326   5.529
 4785SOL     OW15253   5.852   6.985   0.436
 4785SOL    HW115254   5.761   6.989   0.395
 4785SOL    HW215255   5.856   0.024   0.516
 4786SOL     OW15256   1.286   3.157   2.085
 4786SOL    HW115257   1.283   3.251   2.120
 4786SOL    HW215258   1.327   3.098   2.155
 4787SOL     OW15259   4.662   2.004   2.981
 4787SOL    HW115260   4.660   1.922   3.039
 4787SOL    HW215261   4.570   2.024   2.948
 4788SOL     OW15262   2.203   6.492   5.296
 4788SOL    HW115263   2.190   6.521   5.390
 4788SOL    HW215264   2.291   6.527   5.262
 4789SOL     OW15265   5.423   6.398   0.483
 4789SOL    HW115266   5.391   6.343   0.561
 4789SOL    HW215267   5.382   6.363   0.399
 4790SOL     OW15268   5.319   6.853   6.721
 4790SOL    HW115269   5.333   6.765   6.766
 4790SOL    HW215270   5.370   6.924   6.770
 4791SOL     OW15271   4.694   1.907   3.469
 4791SOL    HW115272   4.790   1.886   3.450
 4791SOL    HW215273   4.635   1.838   3.428
 4792SOL     OW15274   3.212   2.279   1.216
 4792SOL    HW115275   3.250   2.249   1.129
 4792SOL    HW215276   3.234   2.212   1.287
 4793SOL     OW15277   0.746   0.070   6.590
 4793SOL    HW115278   0.705   7.018   6.535
 4793SOL    HW215279   0.845   0.057   6.595
 4794SOL     OW15280   5.082   1.193   1.958
 4794SOL    HW115281   5.064   1.110   2.010
 4794SOL    HW215282   5.013   1.204   1.886
 4795SOL     OW15283   6.130   3.098   4.240
 4795SOL    HW115284   6.181   3.085   4.326
 4795SOL    HW215285   6.109   3.009   4.201
 4796SOL     OW15286   5.641   3.664   0.997
 4796SOL    HW115287   5.612   3.753   0.960
 4796SOL    HW215288   5.687   3.678   1.085
 4797SOL     OW15289   0.647   5.050   4.456
 4797SOL    HW115290   0.705   5.046   4.374
 4797SOL    HW215291   0.692   5.000   4.530
 4798SOL     OW15292   6.398   5.164   5.823
 4798SOL    HW115293   6.423   5.219   5.743
 4798SOL    HW215294   6.433   5.209   5.906
 4799SOL     OW15295   4.510   0.935   4.967
 4799SOL    HW115296   4.423   0.927   5.015
 4799SOL    HW215297   4.546   1.028   4.977
 4800SOL     OW15298   2.190   2.948   4.085
 4800SOL    HW115299   2.175   3.021   4.019
 4800SOL    HW215300   2.195   2.986   4.178
 4801SOL     OW15301   0.703   2.596   0.721
 4801SOL    HW115302   0.727   2.631   0.812
 4801SOL    HW215303   0.682   2.672   0.660
 4802SOL     OW15304   2.011   0.382   1.735
 4802SOL    HW115305   1.976   0.464   1.780
 4802SOL    HW215306   1.955   0.361   1.655
 4803SOL     OW15307   0.982   0.646   0.866
 4803SOL    HW115308   0.951   0.600   0.949
 4803SOL    HW215309   1.082   0.649   0.866
 4804SOL     OW15310   4.329   5.781   6.772
 4804SOL    HW115311   4.263   5.723   6.820
 4804SOL    HW215312   4.416   5.780   6.820
 4805SOL     OW15313   0.138   0.498   1.236
 4805SOL    HW115314   0.054   0.494   1.290
 4805SOL    HW215315   0.140   0.583   1.184
 4806SOL     OW15316   6.710   2.421   3.899
 4806SOL    HW115317   6.732   2.357   3.825
 4806SOL    HW215318   6.668   2.503   3.860
 4807SOL     OW15319   0.679   6.695   2.187
 4807SOL    HW115320   0.762   6.739   2.152
 4807SOL    HW215321   0.704   6.611   2.236
 4808SOL     OW15322   5.711   2.993   1.054
 4808SOL    HW115323   5.689   2.903   1.018
 4808SOL    HW215324   5.641   3.021   1.120
 4809SOL     OW15325   4.091   6.797   0.227
 4809SOL    HW115326   4.127   6.818   0.136
 4809SOL    HW215327   4.022   6.726   0.221
 4810SOL     OW15328   1.677   0.136   1.014
 4810SOL    HW115329   1.770   0.165   1.034
 4810SOL    HW215330   1.638   0.195   0.943
 4811SOL     OW15331   5.515   4.882   3.121
 4811SOL    HW115332   5.594   4.825   3.142
 4811SOL    HW215333   5.439   4.856   3.180
 4812SOL     OW15334   6.389   5.304   4.269
 4812SOL    HW115335   6.365   5.327   4.363
 4812SOL    HW215336   6.480   5.338   4.248
 4813SOL     OW15337   5.599   3.264   2.885
 4813SOL    HW115338   5.625   3.209   2.806
 4813SOL    HW215339   5.517   3.226   2.927
 4814SOL     OW15340   6.551   3.393   1.398
 4814SOL    HW115341   6.581   3.304   1.434
 4814SOL    HW215342   6.469   3.381   1.343
 4815SOL     OW15343   4.588   0.561   3.300
 4815SOL    HW115344   4.554   0.492   3.236
 4815SOL    HW215345   4.634   0.634   3.249
 4816SOL     OW15346   5.420   4.427   3.607
 4816SOL    HW115347   5.346   4.494   3.610
 4816SOL    HW215348   5.505   4.471   3.578
 4817SOL     OW15349   0.150   1.623   0.091
 4817SOL    HW115350   0.112   1.593   0.178
 4817SOL    HW215351   0.132   1.554   0.021
 4818SOL     OW15352   0.186   6.262   3.599
 4818SOL    HW115353   0.146   6.303   3.682
 4818SOL    HW215354   0.207   6.333   3.533
 4819SOL     OW15355   2.547   2.891   0.709
 4819SOL    HW115356   2.618   2.833   0.749
 4819SOL    HW215357   2.588   2.957   0.647
 4820SOL     OW15358   0.505   2.987   2.680
 4820SOL    HW115359   0.434   2.933   2.725
 4820SOL    HW215360   0.585   2.992   2.740
 4821SOL     OW15361   0.539   5.741   3.736
 4821SOL    HW115362   0.625   5.736   3.685
 4821SOL    HW215363   0.502   5.834   3.731
 4822SOL     OW15364   2.398   4.587   4.206
 4822SOL    HW115365   2.473   4.652   4.194
 4822SOL    HW215366   2.388   4.564   4.302
 4823SOL     OW15367   2.344   2.692   0.668
 4823SOL    HW115368   2.317   2.690   0.765
 4823SOL    HW215369   2.422   2.754   0.658
 4824SOL     OW15370   6.262   1.635   0.116
 4824SOL    HW115371   6.258   1.703   0.042
 4824SOL    HW215372   6.228   1.676   0.200
 4825SOL     OW15373   1.387   6.718   4.051
 4825SOL    HW115374   1.317   6.677   4.110
 4825SOL    HW215375   1.474   6.671   4.065
 4826SOL     OW15376   3.806   6.514   0.943
 4826SOL    HW115377   3.869   6.463   0.885
 4826SOL    HW215378   3.761   6.451   1.006
 4827SOL     OW15379   6.589   1.322   1.218
 4827SOL    HW115380   6.642   1.306   1.302
 4827SOL    HW215381   6.565   1.419   1.213
 4828SOL     OW15382   5.057   1.090   5.705
 4828SOL    HW115383   5.001   1.122   5.782
 4828SOL    HW215384   5.154   1.101   5.728
 4829SOL     OW15385   4.301   6.201   5.496
 4829SOL    HW115386   4.329   6.248   5.412
 4829SOL    HW215387   4.226   6.251   5.539
 4830SOL     OW15388   1.985   6.693   3.683
 4830SOL    HW115389   1.937   6.711   3.769
 4830SOL    HW215390   2.083   6.689   3.699
 4831SOL     OW15391   3.357   4.742   5.606
 4831SOL    HW115392   3.439   4.726   5.551
 4831SOL    HW215393   3.336   4.660   5.659
 4832SOL     OW15394   4.197   3.570   4.867
 4832SOL    HW115395   4.291   3.604   4.865
 4832SOL    HW215396   4.150   3.596   4.783
 4833SOL     OW15397   6.167   2.216   5.806
 4833SOL    HW115398   6.222   2.192   5.726
 4833SOL    HW215399   6.147   2.314   5.805
 4834SOL     OW15400   0.463   5.759   1.489
 4834SOL    HW115401   0.522   5.743   1.411
 4834SOL    HW215402   0.496   5.838   1.540
 4835SOL     OW15403   0.410   3.073   6.838
 4835SOL    HW115404   0.386   3.099   6.745
 4835SOL    HW215405   0.335   3.019   6.878
 4836SOL     OW15406   4.313   1.988   5.551
 4836SOL    HW115407   4.400   1.957   5.591
 4836SOL    HW215408   4.274   1.915   5.495
 4837SOL     OW15409   1.321   3.793   4.281
 4837SOL    HW115410   1.391   3.815   4.349
 4837SOL    HW215411   1.254   3.730   4.322
 4838SOL     OW15412   1.694   3.913   6.302
 4838SOL    HW115413   1.749   3.885   6.224
 4838SOL    HW215414   1.672   4.010   6.294
 4839SOL     OW15415   2.809   1.547   1.534
 4839SOL    HW115416   2.788   1.450   1.545
 4839SOL    HW215417   2.792   1.596   1.620
 4840SOL     OW15418   4.936   2.767   5.484
 4840SOL    HW115419   4.889   2.852   5.458
 4840SOL    HW215420   4.896   2.731   5.568
 4841SOL     OW15421   2.615   6.453   3.066
 4841SOL    HW115422   2.607   6.442   2.967
 4841SOL    HW215423   2.640   6.548   3.087
 4842SOL     OW15424   3.993   5.885   3.659
 4842SOL    HW115425   4.045   5.811   3.703
 4842SOL    HW215426   3.993   5.869   3.560
 4843SOL     OW15427   6.274   1.675   1.045
 4843SOL    HW115428   6.304   1.750   0.986
 4843SOL    HW215429   6.221   1.610   0.991
 4844SOL     OW15430   1.370   5.252   6.789
 4844SOL    HW115431   1.334   5.344   6.775
 4844SOL    HW215432   1.435   5.230   6.716
 4845SOL     OW15433   4.957   3.805   5.007
 4845SOL    HW115434   5.014   3.806   4.925
 4845SOL    HW215435   4.905   3.720   5.011
 4846SOL     OW15436   6.649   3.588   5.008
 4846SOL    HW115437   6.657   3.677   4.964
 4846SOL    HW215438   6.553   3.572   5.035
 4847SOL     OW15439   3.220   6.962   0.104
 4847SOL    HW115440   3.262   6.959   0.195
 4847SOL    HW215441   3.156   0.017   0.099
 4848SOL     OW15442   4.951   1.778   3.486
 4848SOL    HW115443   5.024   1.737   3.431
 4848SOL    HW215444   4.988   1.804   3.575
 4849SOL     OW15445   2.268   6.213   1.583
 4849SOL    HW115446   2.307   6.284   1.642
 4849SOL    HW215447   2.286   6.235   1.487
 4850SOL     OW15448   3.065   6.697   1.999
 4850SOL    HW115449   3.149   6.679   2.050
 4850SOL    HW215450   2.987   6.662   2.050
 4851SOL     OW15451   4.281   4.887   6.886
 4851SOL    HW115452   4.359   4.825   6.872
 4851SOL    HW215453   4.315   4.981   6.894
 4852SOL     OW15454   5.096   4.519   5.835
 4852SOL    HW115455   5.061   4.431   5.803
 4852SOL    HW215456   5.183   4.539   5.790
 4853SOL     OW15457   4.392   0.356   3.229
 4853SOL    HW115458   4.310   0.323   3.277
 4853SOL    HW215459   4.390   0.321   3.135
 4854SOL     OW15460   4.180   6.638   2.640
 4854SOL    HW115461   4.246   6.568   2.667
 4854SOL    HW215462   4.188   6.657   2.542
 4855SOL     OW15463   5.056   5.095   5.774
 4855SOL    HW115464   5.112   5.144   5.840
 4855SOL    HW215465   5.033   5.155   5.698
 4856SOL     OW15466   0.400   2.623   3.090
 4856SOL    HW115467   0.470   2.575   3.036
 4856SOL    HW215468   0.439   2.648   3.179
 4857SOL     OW15469   1.610   2.377   4.974
 4857SOL    HW115470   1.681   2.428   5.023
 4857SOL    HW215471   1.521   2.419   4.991
 4858SOL     OW15472   1.732   5.592   5.021
 4858SOL    HW115473   1.781   5.525   5.077
 4858SOL    HW215474   1.667   5.545   4.963
 4859SOL     OW15475   6.520   6.015   3.547
 4859SOL    HW115476   6.608   5.980   3.513
 4859SOL    HW215477   6.463   5.938   3.577
 4860SOL     OW15478   3.714   5.297   1.954
 4860SOL    HW115479   3.774   5.242   2.012
 4860SOL    HW215480   3.675   5.241   1.882
 4861SOL     OW15481   6.761   4.818   5.809
 4861SOL    HW115482   6.701   4.890   5.774
 4861SOL    HW215483   6.768   4.825   5.909
 4862SOL     OW15484   2.140   6.105   4.285
 4862SOL    HW115485   2.202   6.079   4.211
 4862SOL    HW215486   2.109   6.199   4.270
 4863SOL     OW15487   5.825   1.497   2.033
 4863SOL    HW115488   5.823   1.597   2.032
 4863SOL    HW215489   5.733   1.462   2.049
 4864SOL     OW15490   2.025   2.247   1.249
 4864SOL    HW115491   1.929   2.250   1.221
 4864SOL    HW215492   2.072   2.328   1.215
 4865SOL     OW15493   4.106   6.318   5.205
 4865SOL    HW115494   4.100   6.271   5.117
 4865SOL    HW215495   4.032   6.286   5.264
 4866SOL     OW15496   0.305   5.599   1.682
 4866SOL    HW115497   0.228   5.547   1.644
 4866SOL    HW215498   0.344   5.657   1.612
 4867SOL     OW15499   5.471   4.847   4.808
 4867SOL    HW115500   5.523   4.841   4.722
 4867SOL    HW215501   5.506   4.779   4.872
 4868SOL     OW15502   1.615   5.457   1.987
 4868SOL    HW115503   1.628   5.498   2.077
 4868SOL    HW215504   1.609   5.529   1.918
 4869SOL     OW15505   6.488   1.223   2.248
 4869SOL    HW115506   6.580   1.256   2.271
 4869SOL    HW215507   6.458   1.157   2.316
 4870SOL     OW15508   6.002   1.137   0.988
 4870SOL    HW115509   5.908   1.104   0.978
 4870SOL    HW215510   6.004   1.213   1.053
 4871SOL     OW15511   1.608   3.549   4.399
 4871SOL    HW115512   1.645   3.636   4.431
 4871SOL    HW215513   1.634   3.535   4.303
 4872SOL     OW15514   1.256   1.711   3.652
 4872SOL    HW115515   1.174   1.690   3.707
 4872SOL    HW215516   1.336   1.675   3.699
 4873SOL     OW15517   1.301   6.745   5.390
 4873SOL    HW115518   1.312   6.708   5.483
 4873SOL    HW215519   1.392   6.761   5.350
 4874SOL     OW15520   6.096   2.396   3.241
 4874SOL    HW115521   6.105   2.413   3.339
 4874SOL    HW215522   6.185   2.403   3.198
 4875SOL     OW15523   0.266   2.699   6.554
 4875SOL    HW115524   0.329   2.640   6.604
 4875SOL    HW215525   0.287   2.697   6.457
 4876SOL     OW15526   0.083   1.438   6.922
 4876SOL    HW115527   0.129   1.485   6.846
 4876SOL    HW215528   0.058   1.346   6.894
 4877SOL     OW15529   5.367   1.658   1.605
 4877SOL    HW115530   5.316   1.744   1.604
 4877SOL    HW215531   5.403   1.640   1.514
 4878SOL     OW15532   1.151   2.964   1.467
 4878SOL    HW115533   1.161   3.007   1.556
 4878SOL    HW215534   1.240   2.939   1.431
 4879SOL     OW15535   4.356   5.874   3.674
 4879SOL    HW115536   4.408   5.794   3.645
 4879SOL    HW215537   4.378   5.952   3.616
 4880SOL     OW15538   5.657   1.975   5.679
 4880SOL    HW115539   5.626   1.907   5.744
 4880SOL    HW215540   5.616   1.957   5.589
 4881SOL     OW15541   2.644   5.850   5.752
 4881SOL    HW115542   2.601   5.917   5.692
 4881SOL    HW215543   2.651   5.889   5.844
 4882SOL     OW15544   5.196   5.846   6.831
 4882SOL    HW115545   5.276   5.867   6.775
 4882SOL    HW215546   5.171   5.927   6.884
 4883SOL     OW15547   6.160   5.198   6.396
 4883SOL    HW115548   6.086   5.207   6.463
 4883SOL    HW215549   6.237   5.255   6.424
 4884SOL     OW15550   3.739   6.391   2.027
 4884SOL    HW115551   3.641   6.410   2.018
 4884SOL    HW215552   3.791   6.459   1.976
 4885SOL     OW15553   1.550   0.333   1.842
 4885SOL    HW115554   1.557   0.368   1.936
 4885SOL    HW215555   1.640   0.302   1.811
 4886SOL     OW15556   5.740   0.560   5.488
 4886SOL    HW115557   5.683   0.487   5.524
 4886SOL    HW215558   5.813   0.580   5.553
 4887SOL     OW15559   0.943   1.769   5.134
 4887SOL    HW115560   1.012   1.749   5.065
 4887SOL    HW215561   0.930   1.868   5.141
 4888SOL     OW15562   3.634   6.019   1.906
 4888SOL    HW115563   3.611   5.958   1.982
 4888SOL    HW215564   3.676   5.966   1.832
 4889SOL     OW15565   1.333   3.471   6.665
 4889SOL    HW115566   1.362   3.563   6.691
 4889SOL    HW215567   1.320   3.468   6.566
 4890SOL     OW15568   0.307   0.671   3.924
 4890SOL    HW115569   0.263   0.742   3.871
 4890SOL    HW215570   0.344   0.711   4.008
 4891SOL     OW15571   1.034   4.124   0.618
 4891SOL    HW115572   1.104   4.066   0.659
 4891SOL    HW215573   0.991   4.179   0.690
 4892SOL     OW15574   2.434   5.428   2.197
 4892SOL    HW115575   2.335   5.428   2.209
 4892SOL    HW215576   2.456   5.404   2.102
 4893SOL     OW15577   0.234   3.672   6.523
 4893SOL    HW115578   0.204   3.588   6.569
 4893SOL    HW215579   0.229   3.659   6.424
 4894SOL     OW15580   0.654   0.036   2.825
 4894SOL    HW115581   0.606   0.039   2.737
 4894SOL    HW215582   0.749   0.007   2.810
 4895SOL     OW15583   6.063   4.102   6.556
 4895SOL    HW115584   6.089   4.049   6.474
 4895SOL    HW215585   6.017   4.042   6.621
 4896SOL     OW15586   4.419   6.983   4.452
 4896SOL    HW115587   4.490   0.031   4.434
 4896SOL    HW215588   4.358   6.978   4.373
 4897SOL     OW15589   2.860   6.122   6.577
 4897SOL    HW115590   2.935   6.079   6.526
 4897SOL    HW215591   2.773   6.082   6.550
 4898SOL     OW15592   5.943   1.888   4.980
 4898SOL    HW115593   5.912   1.846   4.895
 4898SOL    HW215594   6.042   1.880   4.987
 4899SOL     OW15595   5.528   4.409   4.301
 4899SOL    HW115596   5.587   4.329   4.297
 4899SOL    HW215597   5.576   4.485   4.345
 4900SOL     OW15598   1.147   6.510   4.729
 4900SOL    HW115599   1.067   6.541   4.780
 4900SOL    HW215600   1.174   6.419   4.761
 4901SOL     OW15601   0.141   6.332   3.052
 4901SOL    HW115602   0.194   6.315   2.969
 4901SOL    HW215603   0.073   6.259   3.064
 4902SOL     OW15604   3.839   4.742   1.145
 4902SOL    HW115605   3.830   4.652   1.188
 4902SOL    HW215606   3.794   4.741   1.056
 4903SOL     OW15607   5.847   5.452   5.965
 4903SOL    HW115608   5.830   5.372   6.021
 4903SOL    HW215609   5.820   5.433   5.870
 4904SOL     OW15610   2.542   0.392   3.478
 4904SOL    HW115611   2.617   0.350   3.529
 4904SOL    HW215612   2.577   0.468   3.424
 4905SOL     OW15613   6.365   3.369   3.357
 4905SOL    HW115614   6.294   3.311   3.397
 4905SOL    HW215615   6.411   3.421   3.430
 4906SOL     OW15616   4.990   0.091   1.446
 4906SOL    HW115617   5.000   0.108   1.348
 4906SOL    HW215618   5.048   0.154   1.497
 4907SOL     OW15619   2.784   2.196   1.833
 4907SOL    HW115620   2.851   2.203   1.760
 4907SOL    HW215621   2.810   2.256   1.909
 4908SOL     OW15622   4.128   5.971   0.715
 4908SOL    HW115623   4.155   6.048   0.772
 4908SOL    HW215624   4.092   6.005   0.628
 4909SOL     OW15625   6.378   6.996   5.286
 4909SOL    HW115626   6.408   0.067   5.259
 4909SOL    HW215627   6.352   6.944   5.205
 4910SOL     OW15628   5.518   6.598   6.063
 4910SOL    HW115629   5.478   6.537   5.995
 4910SOL    HW215630   5.522   6.551   6.151
 4911SOL     OW15631   0.714   3.963   6.523
 4911SOL    HW115632   0.813   3.960   6.507
 4911SOL    HW215633   0.675   3.873   6.502
 4912SOL     OW15634   2.374   2.491   1.386
 4912SOL    HW115635   2.368   2.404   1.435
 4912SOL    HW215636   2.426   2.556   1.441
 4913SOL     OW15637   2.421   3.022   1.529
 4913SOL    HW115638   2.371   3.100   1.567
 4913SOL    HW215639   2.408   3.019   1.430
 4914SOL     OW15640   1.575   6.942   2.402
 4914SOL    HW115641   1.600   6.962   2.308
 4914SOL    HW215642   1.648   6.889   2.446
 4915SOL     OW15643   3.234   6.330   3.522
 4915SOL    HW115644   3.241   6.232   3.502
 4915SOL    HW215645   3.174   6.343   3.600
 4916SOL     OW15646   1.642   1.977   2.225
 4916SOL    HW115647   1.695   1.892   2.217
 4916SOL    HW215648   1.551   1.956   2.260
 4917SOL     OW15649   1.976   4.021   6.361
 4917SOL    HW115650   1.947   3.977   6.276
 4917SOL    HW215651   1.936   3.973   6.438
 4918SOL     OW15652   2.057   0.214   3.543
 4918SOL    HW115653   2.150   0.239   3.518
 4918SOL    HW215654   2.045   0.224   3.642
 4919SOL     OW15655   2.308   3.230   1.683
 4919SOL    HW115656   2.349   3.283   1.758
 4919SOL    HW215657   2.216   3.202   1.708
 4920SOL     OW15658   3.425   0.917   0.383
 4920SOL    HW115659   3.459   0.838   0.333
 4920SOL    HW215660   3.333   0.940   0.352
 4921SOL     OW15661   6.672   4.702   1.595
 4921SOL    HW115662   6.607   4.742   1.530
 4921SOL    HW215663   6.660   4.743   1.685
 4922SOL     OW15664   0.980   2.871   6.118
 4922SOL    HW115665   0.967   2.847   6.022
 4922SOL    HW215666   0.909   2.828   6.174
 4923SOL     OW15667   2.642   2.275   6.490
 4923SOL    HW115668   2.559   2.236   6.530
 4923SOL    HW215669   2.705   2.201   6.467
 4924SOL     OW15670   0.095   3.408   4.014
 4924SOL    HW115671   0.086   3.507   4.023
 4924SOL    HW215672   0.066   3.380   3.923
 4925SOL     OW15673   4.944   5.427   5.845
 4925SOL    HW115674   4.980   5.377   5.766
 4925SOL    HW215675   5.017   5.438   5.913
 4926SOL     OW15676   4.293   3.269   0.617
 4926SOL    HW115677   4.386   3.236   0.629
 4926SOL    HW215678   4.259   3.239   0.528
 4927SOL     OW15679   3.401   3.915   2.264
 4927SOL    HW115680   3.420   3.901   2.167
 4927SOL    HW215681   3.425   4.008   2.291
 4928SOL     OW15682   0.521   0.403   0.350
 4928SOL    HW115683   0.470   0.330   0.305
 4928SOL    HW215684   0.499   0.404   0.447
 4929SOL     OW15685   1.165   4.775   4.297
 4929SOL    HW115686   1.151   4.873   4.311
 4929SOL    HW215687   1.262   4.757   4.282
 4930SOL     OW15688   0.528   3.344   0.535
 4930SOL    HW115689   0.465   3.370   0.462
 4930SOL    HW215690   0.475   3.316   0.616
 4931SOL     OW15691   5.738   6.742   1.482
 4931SOL    HW115692   5.707   6.747   1.387
 4931SOL    HW215693   5.742   6.834   1.521
 4932SOL     OW15694   3.674   1.852   1.086
 4932SOL    HW115695   3.625   1.931   1.048
 4932SOL    HW215696   3.720   1.803   1.012
 4933SOL     OW15697   3.128   6.963   4.832
 4933SOL    HW115698   3.209   7.016   4.808
 4933SOL    HW215699   3.079   7.009   4.906
 4934SOL     OW15700   2.428   5.507   5.305
 4934SOL    HW115701   2.403   5.433   5.243
 4934SOL    HW215702   2.374   5.588   5.284
 4935SOL     OW15703   2.196   2.143   0.362
 4935SOL    HW115704   2.141   2.061   0.378
 4935SOL    HW215705   2.279   2.139   0.419
 4936SOL     OW15706   5.794   4.763   1.233
 4936SOL    HW115707   5.711   4.710   1.250
 4936SOL    HW215708   5.811   4.824   1.311
 4937SOL     OW15709   0.874   3.750   4.365
 4937SOL    HW115710   0.907   3.774   4.457
 4937SOL    HW215711   0.776   3.730   4.369
 4938SOL     OW15712   3.483   4.419   1.720
 4938SOL    HW115713   3.396   4.400   1.766
 4938SOL    HW215714   3.525   4.500   1.761
 4939SOL     OW15715   1.126   1.351   0.992
 4939SOL    HW115716   1.211   1.397   1.016
 4939SOL    HW215717   1.109   1.360   0.894
 4940SOL     OW15718   1.192   1.963   5.631
 4940SOL    HW115719   1.123   1.917   5.576
 4940SOL    HW215720   1.279   1.964   5.583
 4941SOL     OW15721   3.997   2.403   5.342
 4941SOL    HW115722   4.062   2.457   5.288
 4941SOL    HW215723   4.043   2.321   5.375
 4942SOL     OW15724   6.324   1.208   3.177
 4942SOL    HW115725   6.371   1.194   3.090
 4942SOL    HW215726   6.389   1.243   3.245
 4943SOL     OW15727   4.456   2.425   6.627
 4943SOL    HW115728   4.537   2.373   6.653
 4943SOL    HW215729   4.406   2.453   6.709
 4944SOL     OW15730   0.984   4.669   0.473
 4944SOL    HW115731   1.022   4.698   0.561
 4944SOL    HW215732   0.939   4.747   0.429
 4945SOL     OW15733   2.792   0.447   5.368
 4945SOL    HW115734   2.863   0.430   5.300
 4945SOL    HW215735   2.821   0.521   5.429
 4946SOL     OW15736   3.093   5.887   0.522
 4946SOL    HW115737   3.042   5.804   0.546
 4946SOL    HW215738   3.184   5.861   0.490
 4947SOL     OW15739   0.694   0.296   0.998
 4947SOL    HW115740   0.713   0.327   1.091
 4947SOL    HW215741   0.714   0.199   0.990
 4948SOL     OW15742   1.646   2.386   1.878
 4948SOL    HW115743   1.569   2.331   1.846
 4948SOL    HW215744   1.621   2.430   1.964
 4949SOL     OW15745   6.548   4.523   5.561
 4949SOL    HW115746   6.588   4.496   5.648
 4949SOL    HW215747   6.597   4.479   5.486
 4950SOL     OW15748   3.904   4.428   5.389
 4950SOL    HW115749   3.993   4.396   5.355
 4950SOL    HW215750   3.881   4.515   5.345
 4951SOL     OW15751   4.787   5.230   3.201
 4951SOL    HW115752   4.705   5.253   3.149
 4951SOL    HW215753   4.863   5.287   3.169
 4952SOL     OW15754   0.637   1.031   6.807
 4952SOL    HW115755   0.723   1.063   6.845
 4952SOL    HW215756   0.655   0.968   6.731
 4953SOL     OW15757   1.338   2.488   5.045
 4953SOL    HW115758   1.249   2.469   5.002
 4953SOL    HW215759   1.361   2.584   5.033
 4954SOL     OW15760   2.860   3.755   5.032
 4954SOL    HW115761   2.802   3.795   5.103
 4954SOL    HW215762   2.871   3.821   4.957
 4955SOL     OW15763   3.860   5.973   6.789
 4955SOL    HW115764   3.950   6.016   6.780
 4955SOL    HW215765   3.871   5.879   6.821
 4956SOL     OW15766   2.624   0.432   4.674
 4956SOL    HW115767   2.581   0.420   4.584
 4956SOL    HW215768   2.617   0.528   4.701
 4957SOL     OW15769   5.634   5.187   0.087
 4957SOL    HW115770   5.662   5.217   7.016
 4957SOL    HW215771   5.634   5.087   0.090
 4958SOL     OW15772   3.309   5.440   0.457
 4958SOL    HW115773   3.329   5.482   0.546
 4958SOL    HW215774   3.258   5.355   0.471
 4959SOL     OW15775   6.901   2.606   2.789
 4959SOL    HW115776   6.994   2.569   2.796
 4959SOL    HW215777   6.837   2.542   2.832
 4960SOL     OW15778   5.479   4.515   4.040
 4960SOL    HW115779   5.528   4.602   4.043
 4960SOL    HW215780   5.477   4.475   4.132
 4961SOL     OW15781   3.341   2.831   1.873
 4961SOL    HW115782   3.279   2.823   1.951
 4961SOL    HW215783   3.431   2.796   1.899
 4962SOL     OW15784   1.853   2.598   0.193
 4962SOL    HW115785   1.819   2.556   0.109
 4962SOL    HW215786   1.942   2.641   0.174
 4963SOL     OW15787   0.630   4.214   6.410
 4963SOL    HW115788   0.650   4.159   6.491
 4963SOL    HW215789   0.567   4.164   6.350
 4964SOL     OW15790   1.856   5.149   4.175
 4964SOL    HW115791   1.860   5.249   4.166
 4964SOL    HW215792   1.944   5.116   4.209
 4965SOL     OW15793   2.363   0.120   2.840
 4965SOL    HW115794   2.337   0.062   2.764
 4965SOL    HW215795   2.296   0.193   2.851
 4966SOL     OW15796   4.077   0.197   5.290
 4966SOL    HW115797   4.103   0.108   5.252
 4966SOL    HW215798   4.055   0.260   5.216
 4967SOL     OW15799   4.466   4.559   3.986
 4967SOL    HW115800   4.404   4.587   4.059
 4967SOL    HW215801   4.535   4.497   4.023
 4968SOL     OW15802   6.847   2.870   4.042
 4968SOL    HW115803   6.890   2.831   4.123
 4968SOL    HW215804   6.885   2.960   4.023
 4969SOL     OW15805   0.542   5.870   4.384
 4969SOL    HW115806   0.453   5.833   4.410
 4969SOL    HW215807   0.565   5.946   4.445
 4970SOL     OW15808   1.686   1.770   1.672
 4970SOL    HW115809   1.656   1.682   1.634
 4970SOL    HW215810   1.749   1.813   1.608
 4971SOL     OW15811   0.238   5.647   1.074
 4971SOL    HW115812   0.232   5.572   1.140
 4971SOL    HW215813   0.330   5.684   1.072
 4972SOL     OW15814   0.085   4.267   6.980
 4972SOL    HW115815   0.065   4.188   0.017
 4972SOL    HW215816   0.181   4.293   6.989
 4973SOL     OW15817   5.519   1.792   6.971
 4973SOL    HW115818   5.526   1.865   0.018
 4973SOL    HW215819   5.607   1.746   6.962
 4974SOL     OW15820   3.647   0.075   5.190
 4974SOL    HW115821   3.679   0.170   5.184
 4974SOL    HW215822   3.570   0.062   5.128
 4975SOL     OW15823   5.372   4.856   1.010
 4975SOL    HW115824   5.439   4.783   1.000
 4975SOL    HW215825   5.297   4.825   1.068
 4976SOL     OW15826   0.756   0.075   3.543
 4976SOL    HW115827   0.834   0.131   3.571
 4976SOL    HW215828   0.698   0.128   3.482
 4977SOL     OW15829   1.539   3.693   5.613
 4977SOL    HW115830   1.530   3.624   5.541
 4977SOL    HW215831   1.450   3.734   5.632
 4978SOL     OW15832   6.089   4.017   5.104
 4978SOL    HW115833   6.128   4.104   5.072
 4978SOL    HW215834   6.067   4.023   5.201
 4979SOL     OW15835   2.487   6.796   6.694
 4979SOL    HW115836   2.553   6.725   6.668
 4979SOL    HW215837   2.502   6.823   6.789
 4980SOL     OW15838   5.775   2.905   4.365
 4980SOL    HW115839   5.772   2.940   4.271
 4980SOL    HW215840   5.731   2.971   4.426
 4981SOL     OW15841   3.554   5.822   3.573
 4981SOL    HW115842   3.457   5.841   3.586
 4981SOL    HW215843   3.572   5.805   3.476
 4982SOL     OW15844   3.976   2.064   4.853
 4982SOL    HW115845   3.924   2.017   4.782
 4982SOL    HW215846   3.922   2.069   4.937
 4983SOL     OW15847   6.053   3.780   2.542
 4983SOL    HW115848   6.021   3.869   2.508
 4983SOL    HW215849   5.976   3.716   2.544
 4984SOL     OW15850   4.968   3.527   4.757
 4984SOL    HW115851   4.923   3.543   4.669
 4984SOL    HW215852   4.902   3.543   4.831
 4985SOL     OW15853   5.719   0.324   2.094
 4985SOL    HW115854   5.703   0.251   2.160
 4985SOL    HW215855   5.689   0.411   2.133
 4986SOL     OW15856   0.904   5.192   1.361
 4986SOL    HW115857   0.982   5.144   1.320
 4986SOL    HW215858   0.856   5.130   1.423
 4987SOL     OW15859   1.570   2.445   2.917
 4987SOL    HW115860   1.620   2.431   2.832
 4987SOL    HW215861   1.519   2.530   2.911
 4988SOL     OW15862   6.265   5.362   4.045
 4988SOL    HW115863   6.302   5.325   3.961
 4988SOL    HW215864   6.310   5.319   4.124
 4989SOL     OW15865   6.382   6.821   3.760
 4989SOL    HW115866   6.296   6.827   3.710
 4989SOL    HW215867   6.458   6.825   3.696
 4990SOL     OW15868   4.579   2.008   6.420
 4990SOL    HW115869   4.624   2.084   6.467
 4990SOL    HW215870   4.641   1.930   6.416
 4991SOL     OW15871   1.647   5.825   6.201
 4991SOL    HW115872   1.636   5.858   6.107
 4991SOL    HW215873   1.711   5.885   6.249
 4992SOL     OW15874   1.513   3.894   4.433
 4992SOL    HW115875   1.484   3.895   4.529
 4992SOL    HW215876   1.600   3.845   4.425
 4993SOL     OW15877   2.091   6.146   3.867
 4993SOL    HW115878   2.025   6.101   3.807
 4993SOL    HW215879   2.183   6.119   3.841
 4994SOL     OW15880   3.666   5.294   5.175
 4994SOL    HW115881   3.661   5.234   5.095
 4994SOL    HW215882   3.680   5.238   5.257
 4995SOL     OW15883   0.463   0.809   6.253
 4995SOL    HW115884   0.542   0.767   6.209
 4995SOL    HW215885   0.399   0.841   6.183
 4996SOL     OW15886   6.957   0.741   3.880
 4996SOL    HW115887   7.012   0.802   3.822
 4996SOL    HW215888   6.996   0.739   3.972
 4997SOL     OW15889   4.046   1.540   0.936
 4997SOL    HW115890   4.119   1.605   0.959
 4997SOL    HW215891   4.054   1.459   0.994
 4998SOL     OW15892   0.762   3.942   3.493
 4998SOL    HW115893   0.815   4.019   3.457
 4998SOL    HW215894   0.700   3.908   3.423
 4999SOL     OW15895   0.796   3.074   3.634
 4999SOL    HW115896   0.884   3.065   3.681
 4999SOL    HW215897   0.811   3.110   3.542
 5000SOL     OW15898   2.672   6.721   3.107
 5000SOL    HW115899   2.607   6.757   3.041
 5000SOL    HW215900   2.743   6.790   3.125
 5001SOL     OW15901   0.678   5.669   3.074
 5001SOL    HW115902   0.641   5.626   3.157
 5001SOL    HW215903   0.773   5.643   3.063
 5002SOL     OW15904   1.276   4.829   4.011
 5002SOL    HW115905   1.262   4.912   4.063
 5002SOL    HW215906   1.319   4.760   4.069
 5003SOL     OW15907   3.453   0.605   2.355
 5003SOL    HW115908   3.435   0.626   2.451
 5003SOL    HW215909   3.533   0.546   2.348
 5004SOL     OW15910   3.927   5.876   0.331
 5004SOL    HW115911   3.994   5.805   0.351
 5004SOL    HW215912   3.974   5.964   0.321
 5005SOL     OW15913   3.315   2.531   1.107
 5005SOL    HW115914   3.411   2.504   1.114
 5005SOL    HW215915   3.257   2.450   1.107
 5006SOL     OW15916   5.331   0.822   2.311
 5006SOL    HW115917   5.394   0.872   2.371
 5006SOL    HW215918   5.352   0.842   2.216
 5007SOL     OW15919   6.226   5.778   2.049
 5007SOL    HW115920   6.159   5.817   1.986
 5007SOL    HW215921   6.180   5.714   2.111
 5008SOL     OW15922   5.314   0.451   3.558
 5008SOL    HW115923   5.336   0.400   3.475
 5008SOL    HW215924   5.320   0.549   3.540
 5009SOL     OW15925   0.587   1.781   0.699
 5009SOL    HW115926   0.579   1.800   0.797
 5009SOL    HW215927   0.605   1.866   0.650
 5010SOL     OW15928   4.528   3.584   1.372
 5010SOL    HW115929   4.485   3.631   1.448
 5010SOL    HW215930   4.588   3.647   1.322
 5011SOL     OW15931   1.807   2.419   5.972
 5011SOL    HW115932   1.887   2.387   6.022
 5011SOL    HW215933   1.836   2.456   5.884
 5012SOL     OW15934   6.330   1.298   6.073
 5012SOL    HW115935   6.401   1.251   6.021
 5012SOL    HW215936   6.262   1.336   6.011
 5013SOL     OW15937   5.196   6.918   5.689
 5013SOL    HW115938   5.148   6.942   5.604
 5013SOL    HW215939   5.215   7.001   5.741
 5014SOL     OW15940   5.925   3.463   1.479
 5014SOL    HW115941   5.976   3.377   1.468
 5014SOL    HW215942   5.907   3.479   1.576
 5015SOL     OW15943   6.215   5.381   4.530
 5015SOL    HW115944   6.208   5.466   4.582
 5015SOL    HW215945   6.260   5.311   4.586
 5016SOL     OW15946   1.615   3.146   6.346
 5016SOL    HW115947   1.705   3.130   6.387
 5016SOL    HW215948   1.577   3.231   6.380
 5017SOL     OW15949   0.204   3.027   1.974
 5017SOL    HW115950   0.138   2.991   1.908
 5017SOL    HW215951   0.155   3.070   2.050
 5018SOL     OW15952   1.386   0.537   6.766
 5018SOL    HW115953   1.380   0.630   6.731
 5018SOL    HW215954   1.404   0.539   6.865
 5019SOL     OW15955   1.776   4.280   4.005
 5019SOL    HW115956   1.785   4.229   4.091
 5019SOL    HW215957   1.682   4.274   3.973
 5020SOL     OW15958   1.905   0.450   4.179
 5020SOL    HW115959   1.910   0.540   4.223
 5020SOL    HW215960   1.811   0.417   4.180
 5021SOL     OW15961   2.713   0.921   1.246
 5021SOL    HW115962   2.662   0.937   1.161
 5021SOL    HW215963   2.650   0.911   1.322
 5022SOL     OW15964   6.620   2.845   0.879
 5022SOL    HW115965   6.639   2.932   0.925
 5022SOL    HW215966   6.531   2.851   0.833
 5023SOL     OW15967   0.827   4.246   2.684
 5023SOL    HW115968   0.873   4.170   2.639
 5023SOL    HW215969   0.734   4.254   2.651
 5024SOL     OW15970   4.716   3.750   0.639
 5024SOL    HW115971   4.722   3.778   0.734
 5024SOL    HW215972   4.753   3.822   0.580
 5025SOL     OW15973   4.999   2.096   4.441
 5025SOL    HW115974   5.013   2.066   4.535
 5025SOL    HW215975   4.907   2.072   4.411
 5026SOL     OW15976   5.264   6.473   4.505
 5026SOL    HW115977   5.357   6.438   4.492
 5026SOL    HW215978   5.231   6.514   4.421
 5027SOL     OW15979   5.347   6.697   0.820
 5027SOL    HW115980   5.408   6.673   0.745
 5027SOL    HW215981   5.256   6.658   0.803
 5028SOL     OW15982   6.207   1.793   2.040
 5028SOL    HW115983   6.295   1.833   2.065
 5028SOL    HW215984   6.192   1.710   2.092
 5029SOL     OW15985   4.971   2.051   2.402
 5029SOL    HW115986   4.971   2.124   2.471
 5029SOL    HW215987   4.977   1.962   2.448
 5030SOL     OW15988   0.348   3.712   6.777
 5030SOL    HW115989   0.319   3.721   6.682
 5030SOL    HW215990   0.303   3.782   6.832
 5031SOL     OW15991   6.401   0.201   5.837
 5031SOL    HW115992   6.433   0.266   5.906
 5031SOL    HW215993   6.382   0.113   5.881
 5032SOL     OW15994   2.574   3.505   5.995
 5032SOL    HW115995   2.625   3.445   6.056
 5032SOL    HW215996   2.547   3.588   6.046
 5033SOL     OW15997   2.245   0.225   6.084
 5033SOL    HW115998   2.251   0.225   6.184
 5033SOL    HW215999   2.330   0.189   6.045
 5034SOL     OW16000   4.438   6.059   4.702
 5034SOL    HW116001   4.350   6.089   4.664
 5034SOL    HW216002   4.474   6.129   4.763
 5035SOL     OW16003   2.072   3.786   3.889
 5035SOL    HW116004   2.127   3.811   3.968
 5035SOL    HW216005   2.021   3.866   3.858
 5036SOL     OW16006   1.121   2.681   4.620
 5036SOL    HW116007   1.218   2.672   4.598
 5036SOL    HW216008   1.073   2.719   4.541
 5037SOL     OW16009   4.628   4.104   1.113
 5037SOL    HW116010   4.701   4.062   1.167
 5037SOL    HW216011   4.643   4.203   1.107
 5038SOL     OW16012   3.247   3.613   3.214
 5038SOL    HW116013   3.246   3.513   3.209
 5038SOL    HW216014   3.339   3.647   3.198
 5039SOL     OW16015   1.163   3.634   0.477
 5039SOL    HW116016   1.111   3.569   0.421
 5039SOL    HW216017   1.248   3.657   0.430
 5040SOL     OW16018   0.314   1.528   5.532
 5040SOL    HW116019   0.375   1.573   5.597
 5040SOL    HW216020   0.333   1.563   5.440
 5041SOL     OW16021   6.763   2.119   1.495
 5041SOL    HW116022   6.850   2.168   1.490
 5041SOL    HW216023   6.762   2.046   1.427
 5042SOL     OW16024   1.150   2.487   5.937
 5042SOL    HW116025   1.212   2.557   5.900
 5042SOL    HW216026   1.100   2.445   5.862
 5043SOL     OW16027   3.539   6.574   1.724
 5043SOL    HW116028   3.531   6.641   1.650
 5043SOL    HW216029   3.501   6.487   1.693
 5044SOL     OW16030   6.908   5.630   6.982
 5044SOL    HW116031   6.973   5.693   6.941
 5044SOL    HW216032   6.903   5.647   0.060
 5045SOL     OW16033   5.645   2.752   0.254
 5045SOL    HW116034   5.591   2.835   0.266
 5045SOL    HW216035   5.589   2.680   0.214
 5046SOL     OW16036   3.851   3.266   2.278
 5046SOL    HW116037   3.793   3.283   2.358
 5046SOL    HW216038   3.947   3.280   2.304
 5047SOL     OW16039   2.130   3.666   3.649
 5047SOL    HW116040   2.129   3.689   3.746
 5047SOL    HW216041   2.121   3.567   3.639
 5048SOL     OW16042   2.388   0.286   6.664
 5048SOL    HW116043   2.413   0.216   6.597
 5048SOL    HW216044   2.446   0.276   6.745
 5049SOL     OW16045   4.652   2.205   0.183
 5049SOL    HW116046   4.655   2.268   0.261
 5049SOL    HW216047   4.739   2.157   0.175
 5050SOL     OW16048   1.381   0.515   0.671
 5050SOL    HW116049   1.301   0.457   0.659
 5050SOL    HW216050   1.445   0.500   0.595
 5051SOL     OW16051   4.891   5.271   1.404
 5051SOL    HW116052   4.857   5.178   1.420
 5051SOL    HW216053   4.865   5.301   1.313
 5052SOL     OW16054   2.053   2.589   4.948
 5052SOL    HW116055   1.969   2.549   4.911
 5052SOL    HW216056   2.033   2.681   4.983
 5053SOL     OW16057   0.162   1.130   1.693
 5053SOL    HW116058   0.243   1.145   1.637
 5053SOL    HW216059   0.160   1.198   1.766
 5054SOL     OW16060   4.002   5.278   3.657
 5054SOL    HW116061   4.063   5.208   3.696
 5054SOL    HW216062   3.936   5.235   3.596
 5055SOL     OW16063   0.303   3.584   5.892
 5055SOL    HW116064   0.250   3.665   5.916
 5055SOL    HW216065   0.369   3.607   5.821
 5056SOL     OW16066   6.311   3.755   3.972
 5056SOL    HW116067   6.296   3.685   3.903
 5056SOL    HW216068   6.249   3.832   3.955
 5057SOL     OW16069   0.298   5.476   2.428
 5057SOL    HW116070   0.345   5.531   2.497
 5057SOL    HW216071   0.240   5.535   2.372
 5058SOL     OW16072   2.751   5.331   5.698
 5058SOL    HW116073   2.660   5.348   5.659
 5058SOL    HW216074   2.793   5.419   5.721
 5059SOL     OW16075   6.877   0.376   2.534
 5059SOL    HW116076   6.896   0.282   2.504
 5059SOL    HW216077   6.962   0.429   2.531
 5060SOL     OW16078   0.199   2.158   6.100
 5060SOL    HW116079   0.108   2.174   6.136
 5060SOL    HW216080   0.198   2.076   6.042
 5061SOL     OW16081   5.379   3.942   1.302
 5061SOL    HW116082   5.379   3.904   1.395
 5061SOL    HW216083   5.473   3.966   1.276
 5062SOL     OW16084   6.430   0.366   0.787
 5062SOL    HW116085   6.356   0.393   0.726
 5062SOL    HW216086   6.417   0.409   0.876
 5063SOL     OW16087   1.369   6.356   2.294
 5063SOL    HW116088   1.315   6.280   2.259
 5063SOL    HW216089   1.333   6.383   2.384
 5064SOL     OW16090   4.879   3.563   0.212
 5064SOL    HW116091   4.791   3.517   0.201
 5064SOL    HW216092   4.939   3.539   0.136
 5065SOL     OW16093   2.812   6.756   5.977
 5065SOL    HW116094   2.872   6.774   6.055
 5065SOL    HW216095   2.727   6.713   6.009
 5066SOL     OW16096   4.858   5.368   1.146
 5066SOL    HW116097   4.829   5.460   1.172
 5066SOL    HW216098   4.783   5.321   1.099
 5067SOL     OW16099   5.245   1.269   6.715
 5067SOL    HW116100   5.218   1.232   6.627
 5067SOL    HW216101   5.343   1.289   6.714
 5068SOL     OW16102   3.645   4.712   1.453
 5068SOL    HW116103   3.580   4.785   1.473
 5068SOL    HW216104   3.702   4.739   1.376
 5069SOL     OW16105   6.618   5.318   2.710
 5069SOL    HW116106   6.643   5.235   2.760
 5069SOL    HW216107   6.607   5.296   2.613
 5070SOL     OW16108   4.865   3.468   3.905
 5070SOL    HW116109   4.818   3.434   3.824
 5070SOL    HW216110   4.872   3.395   3.973
 5071SOL     OW16111   4.347   0.970   0.110
 5071SOL    HW116112   4.293   0.887   0.124
 5071SOL    HW216113   4.341   0.999   0.015
 5072SOL     OW16114   0.819   4.041   1.299
 5072SOL    HW116115   0.870   3.982   1.236
 5072SOL    HW216116   0.874   4.122   1.320
 5073SOL     OW16117   4.473   2.105   4.385
 5073SOL    HW116118   4.423   2.032   4.339
 5073SOL    HW216119   4.409   2.176   4.414
 5074SOL     OW16120   4.071   4.869   4.864
 5074SOL    HW116121   4.056   4.967   4.854
 5074SOL    HW216122   4.132   4.853   4.942
 5075SOL     OW16123   6.461   6.789   4.243
 5075SOL    HW116124   6.482   6.834   4.156
 5075SOL    HW216125   6.377   6.736   4.235
 5076SOL     OW16126   3.999   0.780   1.448
 5076SOL    HW116127   3.931   0.775   1.375
 5076SOL    HW216128   3.957   0.820   1.530
 5077SOL     OW16129   6.740   2.885   2.172
 5077SOL    HW116130   6.668   2.952   2.190
 5077SOL    HW216131   6.760   2.835   2.256
 5078SOL     OW16132   0.050   1.028   4.223
 5078SOL    HW116133   0.031   0.945   4.170
 5078SOL    HW216134   7.012   1.102   4.191
 5079SOL     OW16135   4.513   4.785   4.898
 5079SOL    HW116136   4.478   4.863   4.846
 5079SOL    HW216137   4.437   4.724   4.921
 5080SOL     OW16138   5.932   0.201   5.757
 5080SOL    HW116139   5.871   0.281   5.764
 5080SOL    HW216140   6.016   0.228   5.710
 5081SOL     OW16141   3.395   3.549   2.674
 5081SOL    HW116142   3.367   3.610   2.748
 5081SOL    HW216143   3.317   3.534   2.613
 5082SOL     OW16144   0.148   0.128   5.738
 5082SOL    HW116145   0.243   0.107   5.762
 5082SOL    HW216146   0.092   0.123   5.821
 5083SOL     OW16147   1.281   5.957   2.127
 5083SOL    HW116148   1.325   5.884   2.075
 5083SOL    HW216149   1.288   6.043   2.076
 5084SOL     OW16150   1.282   5.784   2.375
 5084SOL    HW116151   1.358   5.803   2.437
 5084SOL    HW216152   1.290   5.843   2.294
 5085SOL     OW16153   6.507   3.064   6.664
 5085SOL    HW116154   6.593   3.103   6.633
 5085SOL    HW216155   6.442   3.137   6.685
 5086SOL     OW16156   6.842   5.118   4.584
 5086SOL    HW116157   6.750   5.128   4.545
 5086SOL    HW216158   6.902   5.076   4.516
 5087SOL     OW16159   6.567   5.433   5.120
 5087SOL    HW116160   6.578   5.350   5.174
 5087SOL    HW216161   6.627   5.428   5.040
 5088SOL     OW16162   6.056   0.856   0.546
 5088SOL    HW116163   6.150   0.871   0.515
 5088SOL    HW216164   6.056   0.817   0.638
 5089SOL     OW16165   5.750   2.664   4.486
 5089SOL    HW116166   5.652   2.649   4.504
 5089SOL    HW216167   5.760   2.729   4.412
 5090SOL     OW16168   0.867   5.323   0.652
 5090SOL    HW116169   0.869   5.284   0.744
 5090SOL    HW216170   0.896   5.253   0.587
 5091SOL     OW16171   1.443   6.384   3.594
 5091SOL    HW116172   1.422   6.472   3.635
 5091SOL    HW216173   1.413   6.311   3.654
 5092SOL     OW16174   3.376   3.070   1.221
 5092SOL    HW116175   3.295   3.113   1.180
 5092SOL    HW216176   3.347   3.010   1.296
 5093SOL     OW16177   1.013   2.067   1.284
 5093SOL    HW116178   1.088   2.094   1.345
 5093SOL    HW216179   1.024   1.970   1.260
 5094SOL     OW16180   6.767   0.459   7.019
 5094SOL    HW116181   6.724   0.379   0.041
 5094SOL    HW216182   6.721   0.542   0.030
 5095SOL     OW16183   3.271   0.065   5.244
 5095SOL    HW116184   3.298   6.990   5.255
 5095SOL    HW216185   3.316   0.120   5.314
 5096SOL     OW16186   3.471   6.023   3.132
 5096SOL    HW116187   3.491   6.120   3.120
 5096SOL    HW216188   3.547   5.969   3.097
 5097SOL     OW16189   1.007   1.523   6.103
 5097SOL    HW116190   0.972   1.474   6.023
 5097SOL    HW216191   1.028   1.458   6.176
 5098SOL     OW16192   6.819   2.827   2.657
 5098SOL    HW116193   6.828   2.731   2.681
 5098SOL    HW216194   6.889   2.880   2.706
 5099SOL     OW16195   1.358   0.660   3.852
 5099SOL    HW116196   1.301   0.692   3.777
 5099SOL    HW216197   1.311   0.586   3.901
 5100SOL     OW16198   4.605   5.192   6.090
 5100SOL    HW116199   4.655   5.277   6.107
 5100SOL    HW216200   4.508   5.207   6.107
 5101SOL     OW16201   4.616   6.110   0.605
 5101SOL    HW116202   4.665   6.031   0.641
 5101SOL    HW216203   4.585   6.090   0.511
 5102SOL     OW16204   3.651   5.448   4.156
 5102SOL    HW116205   3.582   5.486   4.218
 5102SOL    HW216206   3.696   5.523   4.107
 5103SOL     OW16207   1.380   1.426   4.192
 5103SOL    HW116208   1.405   1.382   4.278
 5103SOL    HW216209   1.330   1.510   4.211
 5104SOL     OW16210   1.042   0.510   1.122
 5104SOL    HW116211   1.117   0.531   1.185
 5104SOL    HW216212   0.961   0.483   1.174
 5105SOL     OW16213   1.787   2.868   6.183
 5105SOL    HW116214   1.690   2.883   6.200
 5105SOL    HW216215   1.799   2.825   6.094
 5106SOL     OW16216   2.588   0.080   2.534
 5106SOL    HW116217   2.626   0.033   2.613
 5106SOL    HW216218   2.645   0.063   2.454
 5107SOL     OW16219   1.973   7.010   6.666
 5107SOL    HW116220   2.054   0.026   6.712
 5107SOL    HW216221   1.944   0.053   6.595
 5108SOL     OW16222   3.145   3.945   3.831
 5108SOL    HW116223   3.172   3.976   3.922
 5108SOL    HW216224   3.226   3.928   3.775
 5109SOL     OW16225   6.933   1.985   1.990
 5109SOL    HW116226   6.886   2.055   2.044
 5109SOL    HW216227   6.895   1.982   1.898
 5110SOL     OW16228   2.270   5.749   5.311
 5110SOL    HW116229   2.247   5.845   5.292
 5110SOL    HW216230   2.346   5.746   5.377
 5111SOL     OW16231   1.546   1.086   0.317
 5111SOL    HW116232   1.473   1.119   0.377
 5111SOL    HW216233   1.547   0.986   0.318
 5112SOL     OW16234   0.064   7.006   3.139
 5112SOL    HW116235   0.138   6.946   3.170
 5112SOL    HW216236   0.097   0.041   3.063
 5113SOL     OW16237   0.461   0.453   6.106
 5113SOL    HW116238   0.403   0.494   6.035
 5113SOL    HW216239   0.443   0.498   6.193
 5114SOL     OW16240   3.954   5.639   6.595
 5114SOL    HW116241   3.859   5.611   6.609
 5114SOL    HW216242   3.958   5.738   6.577
 5115SOL     OW16243   2.136   3.830   4.952
 5115SOL    HW116244   2.137   3.755   5.018
 5115SOL    HW216245   2.208   3.896   4.975
 5116SOL     OW16246   6.778   3.334   0.517
 5116SOL    HW116247   6.781   3.255   0.578
 5116SOL    HW216248   6.762   3.417   0.571
 5117SOL     OW16249   2.752   4.940   2.972
 5117SOL    HW116250   2.753   4.849   3.014
 5117SOL    HW216251   2.719   5.007   3.039
 5118SOL     OW16252   3.785   6.627   1.870
 5118SOL    HW116253   3.754   6.687   1.944
 5118SOL    HW216254   3.709   6.611   1.807
 5119SOL     OW16255   6.233   0.161   2.647
 5119SOL    HW116256   6.243   0.063   2.626
 5119SOL    HW216257   6.259   0.177   2.742
 5120SOL     OW16258   3.325   1.273   2.480
 5120SOL    HW116259   3.245   1.305   2.429
 5120SOL    HW216260   3.406   1.280   2.421
 5121SOL     OW16261   0.784   3.312   3.801
 5121SOL    HW116262   0.816   3.238   3.743
 5121SOL    HW216263   0.863   3.358   3.843
 5122SOL     OW16264   2.371   5.522   3.230
 5122SOL    HW116265   2.383   5.423   3.240
 5122SOL    HW216266   2.460   5.567   3.235
 5123SOL     OW16267   6.379   3.336   2.079
 5123SOL    HW116268   6.454   3.388   2.120
 5123SOL    HW216269   6.313   3.399   2.039
 5124SOL     OW16270   2.381   6.454   0.491
 5124SOL    HW116271   2.340   6.367   0.462
 5124SOL    HW216272   2.325   6.495   0.564
 5125SOL     OW16273   6.993   2.085   5.756
 5125SOL    HW116274   6.916   2.068   5.817
 5125SOL    HW216275   6.967   2.064   5.662
 5126SOL     OW16276   4.380   2.237   0.455
 5126SOL    HW116277   4.470   2.193   0.459
 5126SOL    HW216278   4.390   2.336   0.460
 5127SOL     OW16279   5.599   3.431   6.627
 5127SOL    HW116280   5.552   3.483   6.557
 5127SOL    HW216281   5.635   3.494   6.696
 5128SOL     OW16282   6.773   7.001   6.441
 5128SOL    HW116283   6.806   6.996   6.535
 5128SOL    HW216284   6.806   0.064   6.399
 5129SOL     OW16285   4.951   2.668   3.462
 5129SOL    HW116286   4.862   2.628   3.486
 5129SOL    HW216287   4.961   2.668   3.362
 5130SOL     OW16288   1.727   6.658   5.090
 5130SOL    HW116289   1.654   6.591   5.078
 5130SOL    HW216290   1.814   6.611   5.104
 5131SOL     OW16291   3.667   4.886   3.489
 5131SOL    HW116292   3.610   4.833   3.552
 5131SOL    HW216293   3.617   4.901   3.403
 5132SOL     OW16294   4.199   2.231   6.926
 5132SOL    HW116295   4.268   2.210   6.995
 5132SOL    HW216296   4.150   2.314   6.951
 5133SOL     OW16297   4.854   4.651   6.692
 5133SOL    HW116298   4.865   4.595   6.774
 5133SOL    HW216299   4.757   4.671   6.678
 5134SOL     OW16300   5.934   5.728   0.026
 5134SOL    HW116301   6.023   5.708   7.007
 5134SOL    HW216302   5.935   5.821   0.064
 5135SOL     OW16303   6.359   2.987   2.354
 5135SOL    HW116304   6.334   2.891   2.340
 5135SOL    HW216305   6.286   3.046   2.320
 5136SOL     OW16306   0.625   0.919   4.684
 5136SOL    HW116307   0.624   0.850   4.757
 5136SOL    HW216308   0.717   0.955   4.672
 5137SOL     OW16309   5.391   0.334   3.332
 5137SOL    HW116310   5.469   0.281   3.365
 5137SOL    HW216311   5.356   0.294   3.248
 5138SOL     OW16312   3.111   3.033   2.297
 5138SOL    HW116313   3.122   2.965   2.224
 5138SOL    HW216314   3.035   3.094   2.274
 5139SOL     OW16315   4.460   0.431   4.807
 5139SOL    HW116316   4.362   0.412   4.813
 5139SOL    HW216317   4.474   0.530   4.796
 5140SOL     OW16318   3.316   4.019   6.423
 5140SOL    HW116319   3.276   4.104   6.457
 5140SOL    HW216320   3.340   3.961   6.501
 5141SOL     OW16321   1.382   2.868   1.357
 5141SOL    HW116322   1.369   2.823   1.268
 5141SOL    HW216323   1.397   2.798   1.427
 5142SOL     OW16324   0.905   0.137   2.538
 5142SOL    HW116325   0.840   0.211   2.555
 5142SOL    HW216326   0.983   0.146   2.601
 5143SOL     OW16327   6.766   5.860   1.807
 5143SOL    HW116328   6.818   5.846   1.891
 5143SOL    HW216329   6.668   5.850   1.826
 5144SOL     OW16330   2.153   3.348   4.994
 5144SOL    HW116331   2.188   3.255   5.004
 5144SOL    HW216332   2.088   3.366   5.068
 5145SOL     OW16333   2.290   5.694   5.658
 5145SOL    HW116334   2.297   5.767   5.726
 5145SOL    HW216335   2.376   5.686   5.608
 5146SOL     OW16336   5.897   5.662   6.507
 5146SOL    HW116337   5.873   5.589   6.442
 5146SOL    HW216338   5.986   5.642   6.548
 5147SOL     OW16339   5.803   2.286   3.720
 5147SOL    HW116340   5.859   2.246   3.793
 5147SOL    HW216341   5.776   2.214   3.656
 5148SOL     OW16342   6.637   1.494   0.421
 5148SOL    HW116343   6.545   1.466   0.393
 5148SOL    HW216344   6.704   1.451   0.360
 5149SOL     OW16345   4.521   5.838   4.295
 5149SOL    HW116346   4.467   5.847   4.378
 5149SOL    HW216347   4.569   5.750   4.296
 5150SOL     OW16348   6.524   0.603   3.717
 5150SOL    HW116349   6.487   0.560   3.799
 5150SOL    HW216350   6.487   0.696   3.709
 5151SOL     OW16351   5.362   5.174   1.545
 5151SOL    HW116352   5.436   5.108   1.532
 5151SOL    HW216353   5.365   5.209   1.639
 5152SOL     OW16354   2.568   2.007   0.407
 5152SOL    HW116355   2.656   2.032   0.447
 5152SOL    HW216356   2.494   2.048   0.460
 5153SOL     OW16357   2.571   2.397   0.433
 5153SOL    HW116358   2.567   2.352   0.344
 5153SOL    HW216359   2.496   2.365   0.491
 5154SOL     OW16360   0.425   2.511   0.384
 5154SOL    HW116361   0.350   2.446   0.377
 5154SOL    HW216362   0.489   2.480   0.455
 5155SOL     OW16363   1.624   1.243   0.547
 5155SOL    HW116364   1.667   1.217   0.460
 5155SOL    HW216365   1.695   1.250   0.617
 5156SOL     OW16366   5.527   4.971   6.223
 5156SOL    HW116367   5.447   4.969   6.282
 5156SOL    HW216368   5.531   5.058   6.174
 5157SOL     OW16369   3.808   1.096   2.042
 5157SOL    HW116370   3.865   1.031   2.092
 5157SOL    HW216371   3.858   1.182   2.031
 5158SOL     OW16372   1.504   2.205   1.692
 5158SOL    HW116373   1.423   2.185   1.747
 5158SOL    HW216374   1.584   2.160   1.732
 5159SOL     OW16375   6.509   3.015   6.033
 5159SOL    HW116376   6.416   2.987   6.056
 5159SOL    HW216377   6.574   2.962   6.088
 5160SOL     OW16378   6.776   6.805   3.274
 5160SOL    HW116379   6.786   6.896   3.233
 5160SOL    HW216380   6.834   6.799   3.356
 5161SOL     OW16381   1.353   2.287   6.074
 5161SOL    HW116382   1.262   2.320   6.048
 5161SOL    HW216383   1.416   2.298   5.998
 5162SOL     OW16384   0.111   6.714   4.961
 5162SOL    HW116385   0.171   6.658   4.903
 5162SOL    HW216386   0.092   6.666   5.046
 5163SOL     OW16387   2.955   0.711   1.601
 5163SOL    HW116388   2.961   0.795   1.655
 5163SOL    HW216389   2.868   0.710   1.552
 5164SOL     OW16390   2.949   3.797   0.236
 5164SOL    HW116391   3.001   3.730   0.290
 5164SOL    HW216392   2.926   3.758   0.147
 5165SOL     OW16393   1.620   5.116   6.078
 5165SOL    HW116394   1.656   5.039   6.131
 5165SOL    HW216395   1.531   5.143   6.116
 5166SOL     OW16396   0.055   5.082   5.929
 5166SOL    HW116397   6.984   5.122   5.924
 5166SOL    HW216398   0.072   5.050   6.022
 5167SOL     OW16399   5.611   3.523   6.065
 5167SOL    HW116400   5.595   3.620   6.084
 5167SOL    HW216401   5.524   3.474   6.067
 5168SOL     OW16402   4.498   1.724   3.375
 5168SOL    HW116403   4.430   1.705   3.305
 5168SOL    HW216404   4.474   1.675   3.459
 5169SOL     OW16405   5.230   5.825   4.114
 5169SOL    HW116406   5.236   5.729   4.143
 5169SOL    HW216407   5.222   5.884   4.195
 5170SOL     OW16408   2.017   4.248   6.168
 5170SOL    HW116409   2.087   4.229   6.099
 5170SOL    HW216410   2.004   4.166   6.225
 5171SOL     OW16411   2.186   6.529   6.206
 5171SOL    HW116412   2.096   6.497   6.178
 5171SOL    HW216413   2.182   6.564   6.300
 5172SOL     OW16414   5.811   5.488   6.314
 5172SOL    HW116415   5.842   5.408   6.263
 5172SOL    HW216416   5.724   5.520   6.276
 5173SOL     OW16417   4.458   5.462   4.482
 5173SOL    HW116418   4.366   5.443   4.448
 5173SOL    HW216419   4.456   5.469   4.582
 5174SOL     OW16420   1.292   6.578   3.001
 5174SOL    HW116421   1.196   6.564   3.027
 5174SOL    HW216422   1.351   6.559   3.080
 5175SOL     OW16423   2.511   2.400   6.318
 5175SOL    HW116424   2.560   2.342   6.384
 5175SOL    HW216425   2.499   2.350   6.232
 5176SOL     OW16426   6.187   5.928   6.687
 5176SOL    HW116427   6.267   5.882   6.649
 5176SOL    HW216428   6.192   6.026   6.669
 5177SOL     OW16429   5.144   6.113   0.470
 5177SOL    HW116430   5.047   6.088   0.465
 5177SOL    HW216431   5.189   6.088   0.384
 5178SOL     OW16432   0.455   4.325   1.002
 5178SOL    HW116433   0.480   4.235   1.039
 5178SOL    HW216434   0.428   4.315   0.907
 5179SOL     OW16435   5.283   5.495   3.200
 5179SOL    HW116436   5.309   5.525   3.108
 5179SOL    HW216437   5.188   5.465   3.201
 5180SOL     OW16438   1.737   4.754   1.965
 5180SOL    HW116439   1.815   4.692   1.972
 5180SOL    HW216440   1.756   4.838   2.016
 5181SOL     OW16441   0.047   1.464   5.517
 5181SOL    HW116442   0.141   1.491   5.535
 5181SOL    HW216443   0.045   1.387   5.452
 5182SOL     OW16444   2.471   6.591   2.147
 5182SOL    HW116445   2.538   6.546   2.206
 5182SOL    HW216446   2.469   6.689   2.167
 5183SOL     OW16447   4.637   2.547   3.337
 5183SOL    HW116448   4.585   2.538   3.252
 5183SOL    HW216449   4.682   2.460   3.358
 5184SOL     OW16450   2.339   1.962   2.608
 5184SOL    HW116451   2.325   2.021   2.687
 5184SOL    HW216452   2.429   1.920   2.613
 5185SOL     OW16453   6.496   6.828   2.019
 5185SOL    HW116454   6.479   6.897   2.089
 5185SOL    HW216455   6.579   6.852   1.968
 5186SOL     OW16456   6.032   2.360   6.724
 5186SOL    HW116457   6.089   2.442   6.728
 5186SOL    HW216458   6.073   2.288   6.781
 5187SOL     OW16459   1.600   4.591   4.913
 5187SOL    HW116460   1.519   4.643   4.887
 5187SOL    HW216461   1.614   4.597   5.012
 5188SOL     OW16462   6.887   0.962   1.730
 5188SOL    HW116463   6.920   1.055   1.744
 5188SOL    HW216464   6.924   0.902   1.801
 5189SOL     OW16465   4.811   5.997   6.845
 5189SOL    HW116466   4.881   6.061   6.813
 5189SOL    HW216467   4.743   5.983   6.772
 5190SOL     OW16468   1.655   4.746   0.605
 5190SOL    HW116469   1.679   4.841   0.624
 5190SOL    HW216470   1.567   4.742   0.557
 5191SOL     OW16471   2.803   4.275   1.690
 5191SOL    HW116472   2.704   4.278   1.677
 5191SOL    HW216473   2.832   4.350   1.749
 5192SOL     OW16474   0.926   4.649   2.870
 5192SOL    HW116475   0.882   4.562   2.889
 5192SOL    HW216476   1.017   4.632   2.831
 5193SOL     OW16477   4.508   0.995   5.686
 5193SOL    HW116478   4.415   0.978   5.655
 5193SOL    HW216479   4.552   1.062   5.626
 5194SOL     OW16480   4.597   1.919   4.763
 5194SOL    HW116481   4.546   1.987   4.816
 5194SOL    HW216482   4.533   1.849   4.731
 5195SOL     OW16483   1.499   0.647   5.350
 5195SOL    HW116484   1.591   0.610   5.338
 5195SOL    HW216485   1.467   0.629   5.443
 5196SOL     OW16486   5.536   6.563   3.253
 5196SOL    HW116487   5.463   6.499   3.275
 5196SOL    HW216488   5.603   6.565   3.327
 5197SOL     OW16489   1.266   3.175   4.437
 5197SOL    HW116490   1.290   3.165   4.533
 5197SOL    HW216491   1.325   3.245   4.395
 5198SOL     OW16492   5.906   5.011   3.036
 5198SOL    HW116493   5.898   5.033   3.133
 5198SOL    HW216494   5.850   4.931   3.016
 5199SOL     OW16495   0.099   4.623   1.106
 5199SOL    HW116496   0.087   4.711   1.153
 5199SOL    HW216497   0.014   4.598   1.059
 5200SOL     OW16498   6.334   3.368   5.277
 5200SOL    HW116499   6.270   3.441   5.300
 5200SOL    HW216500   6.386   3.342   5.358
 5201SOL     OW16501   0.844   6.305   4.717
 5201SOL    HW116502   0.838   6.365   4.637
 5201SOL    HW216503   0.892   6.221   4.692
 5202SOL     OW16504   0.464   4.315   1.994
 5202SOL    HW116505   0.467   4.237   1.932
 5202SOL    HW216506   0.375   4.319   2.038
 5203SOL     OW16507   6.342   3.257   6.762
 5203SOL    HW116508   6.371   3.284   6.854
 5203SOL    HW216509   6.252   3.215   6.766
 5204SOL     OW16510   5.225   5.233   6.150
 5204SOL    HW116511   5.152   5.209   6.214
 5204SOL    HW216512   5.305   5.262   6.202
 5205SOL     OW16513   2.446   6.545   0.234
 5205SOL    HW116514   2.426   6.463   0.180
 5205SOL    HW216515   2.408   6.535   0.326
 5206SOL     OW16516   0.277   4.161   4.547
 5206SOL    HW116517   0.353   4.185   4.487
 5206SOL    HW216518   0.238   4.244   4.587
 5207SOL     OW16519   1.891   4.765   3.297
 5207SOL    HW116520   1.974   4.811   3.268
 5207SOL    HW216521   1.872   4.687   3.236
 5208SOL     OW16522   5.483   1.079   7.013
 5208SOL    HW116523   5.559   1.044   0.049
 5208SOL    HW216524   5.397   1.040   0.025
 5209SOL     OW16525   5.578   5.176   3.244
 5209SOL    HW116526   5.504   5.125   3.198
 5209SOL    HW216527   5.545   5.267   3.268
 5210SOL     OW16528   4.863   4.580   3.018
 5210SOL    HW116529   4.769   4.548   3.002
 5210SOL    HW216530   4.861   4.660   3.076
 5211SOL     OW16531   3.152   3.618   2.155
 5211SOL    HW116532   3.218   3.577   2.218
 5211SOL    HW216533   3.167   3.717   2.150
 5212SOL     OW16534   0.391   0.229   6.300
 5212SOL    HW116535   0.438   0.288   6.235
 5212SOL    HW216536   0.334   0.285   6.360
 5213SOL     OW16537   4.280   1.994   6.501
 5213SOL    HW116538   4.238   2.053   6.433
 5213SOL    HW216539   4.366   1.957   6.465
 5214SOL     OW16540   4.890   1.588   0.256
 5214SOL    HW116541   4.989   1.584   0.266
 5214SOL    HW216542   4.864   1.670   0.206
 5215SOL     OW16543   5.652   5.089   3.799
 5215SOL    HW116544   5.584   5.140   3.747
 5215SOL    HW216545   5.690   5.016   3.743
 5216SOL     OW16546   4.277   5.888   1.792
 5216SOL    HW116547   4.200   5.904   1.853
 5216SOL    HW216548   4.344   5.830   1.838
 5217SOL     OW16549   2.998   4.835   3.549
 5217SOL    HW116550   3.036   4.744   3.537
 5217SOL    HW216551   2.977   4.850   3.646
 5218SOL     OW16552   2.338   6.813   4.005
 5218SOL    HW116553   2.310   6.835   3.912
 5218SOL    HW216554   2.257   6.792   4.061
 5219SOL     OW16555   2.127   6.981   0.748
 5219SOL    HW116556   2.197   6.913   0.770
 5219SOL    HW216557   2.151   0.048   0.791
 5220SOL     OW16558   1.399   6.632   1.804
 5220SOL    HW116559   1.364   6.725   1.797
 5220SOL    HW216560   1.360   6.587   1.885
 5221SOL     OW16561   4.006   1.343   6.853
 5221SOL    HW116562   3.916   1.311   6.822
 5221SOL    HW216563   4.065   1.359   6.774
 5222SOL     OW16564   0.521   7.004   2.578
 5222SOL    HW116565   0.543   6.982   2.483
 5222SOL    HW216566   0.443   0.047   2.580
 5223SOL     OW16567   4.764   6.700   1.034
 5223SOL    HW116568   4.668   6.693   1.061
 5223SOL    HW216569   4.803   6.784   1.071
 5224SOL     OW16570   5.558   1.201   3.096
 5224SOL    HW116571   5.621   1.126   3.076
 5224SOL    HW216572   5.606   1.288   3.088
 5225SOL     OW16573   6.918   6.701   5.719
 5225SOL    HW116574   6.859   6.673   5.643
 5225SOL    HW216575   6.862   6.736   5.794
 5226SOL     OW16576   2.783   6.155   4.152
 5226SOL    HW116577   2.829   6.070   4.176
 5226SOL    HW216578   2.827   6.195   4.071
 5227SOL     OW16579   5.219   3.433   3.791
 5227SOL    HW116580   5.253   3.448   3.884
 5227SOL    HW216581   5.230   3.337   3.767
 5228SOL     OW16582   5.110   0.930   1.331
 5228SOL    HW116583   5.135   0.884   1.416
 5228SOL    HW216584   5.179   0.999   1.309
 5229SOL     OW16585   1.319   4.174   3.541
 5229SOL    HW116586   1.402   4.228   3.547
 5229SOL    HW216587   1.241   4.228   3.572
 5230SOL     OW16588   1.224   6.973   5.766
 5230SOL    HW116589   1.317   6.974   5.801
 5230SOL    HW216590   1.197   6.878   5.746
 5231SOL     OW16591   3.332   3.009   2.864
 5231SOL    HW116592   3.383   2.926   2.840
 5231SOL    HW216593   3.394   3.075   2.905
 5232SOL     OW16594   5.220   2.761   5.220
 5232SOL    HW116595   5.308   2.752   5.265
 5232SOL    HW216596   5.195   2.858   5.217
 5233SOL     OW16597   0.660   0.487   2.886
 5233SOL    HW116598   0.651   0.566   2.826
 5233SOL    HW216599   0.720   0.509   2.963
 5234SOL     OW16600   3.917   5.302   1.414
 5234SOL    HW116601   3.960   5.214   1.397
 5234SOL    HW216602   3.950   5.340   1.500
 5235SOL     OW16603   0.497   3.371   1.210
 5235SOL    HW116604   0.503   3.272   1.225
 5235SOL    HW216605   0.510   3.391   1.113
 5236SOL     OW16606   6.200   3.272   1.024
 5236SOL    HW116607   6.186   3.200   0.955
 5236SOL    HW216608   6.245   3.350   0.981
 5237SOL     OW16609   1.835   1.928   4.047
 5237SOL    HW116610   1.918   1.977   4.071
 5237SOL    HW216611   1.817   1.938   3.949
 5238SOL     OW16612   2.254   3.684   1.045
 5238SOL    HW116613   2.251   3.701   0.946
 5238SOL    HW216614   2.160   3.674   1.079
 5239SOL     OW16615   2.932   3.315   4.491
 5239SOL    HW116616   2.942   3.307   4.590
 5239SOL    HW216617   2.884   3.400   4.469
 5240SOL     OW16618   3.650   1.809   4.872
 5240SOL    HW116619   3.623   1.816   4.776
 5240SOL    HW216620   3.602   1.879   4.925
 5241SOL     OW16621   2.925   5.763   5.579
 5241SOL    HW116622   2.880   5.749   5.491
 5241SOL    HW216623   2.988   5.841   5.572
 5242SOL     OW16624   4.726   0.746   4.995
 5242SOL    HW116625   4.655   0.815   4.984
 5242SOL    HW216626   4.755   0.714   4.904
 5243SOL     OW16627   0.788   4.293   0.357
 5243SOL    HW116628   0.781   4.380   0.405
 5243SOL    HW216629   0.827   4.307   0.266
 5244SOL     OW16630   5.931   3.347   0.082
 5244SOL    HW116631   5.857   3.287   0.050
 5244SOL    HW216632   5.962   3.404   0.006
 5245SOL     OW16633   4.376   4.913   6.274
 5245SOL    HW116634   4.372   4.814   6.288
 5245SOL    HW216635   4.461   4.949   6.314
 5246SOL     OW16636   1.229   3.660   3.064
 5246SOL    HW116637   1.164   3.698   2.999
 5246SOL    HW216638   1.217   3.704   3.153
 5247SOL     OW16639   0.070   4.563   0.748
 5247SOL    HW116640   0.152   4.568   0.691
 5247SOL    HW216641   0.090   4.599   0.839
 5248SOL     OW16642   5.228   0.739   0.523
 5248SOL    HW116643   5.187   0.669   0.464
 5248SOL    HW216644   5.206   0.719   0.618
 5249SOL     OW16645   1.236   5.740   6.580
 5249SOL    HW116646   1.253   5.669   6.648
 5249SOL    HW216647   1.261   5.707   6.489
 5250SOL     OW16648   1.347   1.574   5.640
 5250SOL    HW116649   1.407   1.644   5.677
 5250SOL    HW216650   1.339   1.585   5.541
 5251SOL     OW16651   1.049   2.914   0.547
 5251SOL    HW116652   0.956   2.904   0.583
 5251SOL    HW216653   1.082   2.825   0.516
 5252SOL     OW16654   4.996   6.720   1.288
 5252SOL    HW116655   4.971   6.804   1.241
 5252SOL    HW216656   4.935   6.646   1.257
 5253SOL     OW16657   5.873   2.619   3.410
 5253SOL    HW116658   5.907   2.587   3.498
 5253SOL    HW216659   5.949   2.656   3.356
 5254SOL     OW16660   4.790   0.638   4.170
 5254SOL    HW116661   4.744   0.554   4.140
 5254SOL    HW216662   4.882   0.616   4.202
 5255SOL     OW16663   3.281   6.142   4.469
 5255SOL    HW116664   3.295   6.178   4.561
 5255SOL    HW216665   3.253   6.046   4.474
 5256SOL     OW16666   5.020   6.558   2.302
 5256SOL    HW116667   5.016   6.653   2.272
 5256SOL    HW216668   5.089   6.548   2.374
 5257SOL     OW16669   3.216   1.187   3.438
 5257SOL    HW116670   3.295   1.196   3.376
 5257SOL    HW216671   3.195   1.276   3.478
 5258SOL     OW16672   5.965   2.136   2.003
 5258SOL    HW116673   5.873   2.171   2.023
 5258SOL    HW216674   6.021   2.209   1.964
 5259SOL     OW16675   5.391   4.610   1.518
 5259SOL    HW116676   5.314   4.558   1.555
 5259SOL    HW216677   5.471   4.595   1.575
 5260SOL     OW16678   5.100   2.575   2.043
 5260SOL    HW116679   5.028   2.570   2.112
 5260SOL    HW216680   5.188   2.554   2.086
 5261SOL     OW16681   2.518   2.421   4.615
 5261SOL    HW116682   2.558   2.331   4.601
 5261SOL    HW216683   2.533   2.477   4.533
 5262SOL     OW16684   1.597   0.217   1.570
 5262SOL    HW116685   1.634   0.155   1.639
 5262SOL    HW216686   1.537   0.166   1.508
 5263SOL     OW16687   0.914   6.461   0.152
 5263SOL    HW116688   0.888   6.366   0.172
 5263SOL    HW216689   0.892   6.482   0.057
 5264SOL     OW16690   1.012   1.815   1.165
 5264SOL    HW116691   0.933   1.809   1.106
 5264SOL    HW216692   1.052   1.724   1.177
 5265SOL     OW16693   5.585   4.929   3.463
 5265SOL    HW116694   5.682   4.948   3.479
 5265SOL    HW216695   5.545   5.002   3.408
 5266SOL     OW16696   1.264   6.682   1.083
 5266SOL    HW116697   1.165   6.665   1.075
 5266SOL    HW216698   1.279   6.780   1.097
 5267SOL     OW16699   4.500   3.628   5.317
 5267SOL    HW116700   4.553   3.697   5.365
 5267SOL    HW216701   4.555   3.589   5.243
 5268SOL     OW16702   5.764   5.225   5.523
 5268SOL    HW116703   5.738   5.271   5.439
 5268SOL    HW216704   5.720   5.135   5.528
 5269SOL     OW16705   2.169   4.592   5.877
 5269SOL    HW116706   2.245   4.540   5.917
 5269SOL    HW216707   2.123   4.644   5.949
 5270SOL     OW16708   6.572   2.596   3.153
 5270SOL    HW116709   6.504   2.545   3.205
 5270SOL    HW216710   6.534   2.685   3.126
 5271SOL     OW16711   5.543   3.752   5.522
 5271SOL    HW116712   5.605   3.768   5.599
 5271SOL    HW216713   5.585   3.782   5.437
 5272SOL     OW16714   1.619   1.373   4.067
 5272SOL    HW116715   1.524   1.385   4.095
 5272SOL    HW216716   1.668   1.460   4.077
 5273SOL     OW16717   0.292   0.215   5.045
 5273SOL    HW116718   0.318   0.255   4.957
 5273SOL    HW216719   0.218   0.150   5.032
 5274SOL     OW16720   0.734   5.647   4.655
 5274SOL    HW116721   0.671   5.595   4.598
 5274SOL    HW216722   0.827   5.639   4.619
 5275SOL     OW16723   1.447   6.460   6.983
 5275SOL    HW116724   1.527   6.449   0.021
 5275SOL    HW216725   1.373   6.503   0.014
 5276SOL     OW16726   0.066   0.241   0.595
 5276SOL    HW116727   7.002   0.204   0.555
 5276SOL    HW216728   0.043   0.304   0.669
 5277SOL     OW16729   0.723   1.320   2.692
 5277SOL    HW116730   0.695   1.240   2.639
 5277SOL    HW216731   0.765   1.388   2.631
 5278SOL     OW16732   0.793   3.687   6.167
 5278SOL    HW116733   0.882   3.733   6.166
 5278SOL    HW216734   0.776   3.645   6.078
 5279SOL     OW16735   2.662   6.529   6.846
 5279SOL    HW116736   2.647   6.522   6.747
 5279SOL    HW216737   2.573   6.531   6.892
 5280SOL     OW16738   4.903   6.308   5.033
 5280SOL    HW116739   4.888   6.256   4.949
 5280SOL    HW216740   4.925   6.403   5.010
 5281SOL     OW16741   2.870   6.956   4.996
 5281SOL    HW116742   2.771   6.966   4.996
 5281SOL    HW216743   2.904   6.963   5.090
 5282SOL     OW16744   0.448   6.917   0.835
 5282SOL    HW116745   0.400   6.829   0.831
 5282SOL    HW216746   0.387   6.986   0.874
 5283SOL     OW16747   0.954   1.317   4.027
 5283SOL    HW116748   1.052   1.302   4.025
 5283SOL    HW216749   0.909   1.257   3.960
 5284SOL     OW16750   4.882   3.433   1.925
 5284SOL    HW116751   4.848   3.509   1.870
 5284SOL    HW216752   4.913   3.359   1.864
 5285SOL     OW16753   1.346   2.032   4.000
 5285SOL    HW116754   1.249   2.055   4.000
 5285SOL    HW216755   1.379   2.027   3.906
 5286SOL     OW16756   6.409   2.943   1.652
 5286SOL    HW116757   6.452   2.857   1.680
 5286SOL    HW216758   6.359   2.930   1.567
 5287SOL     OW16759   1.402   5.320   1.340
 5287SOL    HW116760   1.362   5.390   1.399
 5287SOL    HW216761   1.335   5.290   1.273
 5288SOL     OW16762   4.083   0.910   1.921
 5288SOL    HW116763   4.005   0.881   1.976
 5288SOL    HW216764   4.116   0.833   1.866
 5289SOL     OW16765   2.488   4.439   6.163
 5289SOL    HW116766   2.564   4.382   6.196
 5289SOL    HW216767   2.454   4.403   6.076
 5290SOL     OW16768   1.900   3.375   4.623
 5290SOL    HW116769   1.895   3.400   4.527
 5290SOL    HW216770   1.886   3.276   4.633
 5291SOL     OW16771   3.330   4.911   4.508
 5291SOL    HW116772   3.373   4.866   4.430
 5291SOL    HW216773   3.243   4.950   4.480
 5292SOL     OW16774   0.183   3.588   4.888
 5292SOL    HW116775   0.281   3.597   4.872
 5292SOL    HW216776   0.164   3.500   4.931
 5293SOL     OW16777   2.186   0.017   4.558
 5293SOL    HW116778   2.201   6.957   4.501
 5293SOL    HW216779   2.217   7.019   4.651
 5294SOL     OW16780   4.925   6.963   5.066
 5294SOL    HW116781   4.844   7.018   5.045
 5294SOL    HW216782   5.003   0.003   5.083
 5295SOL     OW16783   1.992   0.922   2.425
 5295SOL    HW116784   2.079   0.971   2.431
 5295SOL    HW216785   1.989   0.869   2.341
 5296SOL     OW16786   4.439   4.847   1.491
 5296SOL    HW116787   4.383   4.830   1.573
 5296SOL    HW216788   4.397   4.802   1.413
 5297SOL     OW16789   2.453   5.775   6.098
 5297SOL    HW116790   2.372   5.831   6.082
 5297SOL    HW216791   2.535   5.830   6.083
 5298SOL     OW16792   2.137   1.494   0.401
 5298SOL    HW116793   2.103   1.400   0.395
 5298SOL    HW216794   2.166   1.525   0.311
 5299SOL     OW16795   2.351   1.182   1.774
 5299SOL    HW116796   2.365   1.281   1.784
 5299SOL    HW216797   2.412   1.146   1.704
 5300SOL     OW16798   2.927   5.043   6.978
 5300SOL    HW116799   3.009   5.100   6.973
 5300SOL    HW216800   2.948   4.950   6.948
 5301SOL     OW16801   6.072   0.164   5.987
 5301SOL    HW116802   6.157   0.110   5.986
 5301SOL    HW216803   6.040   0.176   5.893
 5302SOL     OW16804   5.212   6.052   2.641
 5302SOL    HW116805   5.193   6.074   2.737
 5302SOL    HW216806   5.309   6.063   2.622
 5303SOL     OW16807   1.004   5.387   5.390
 5303SOL    HW116808   1.087   5.346   5.429
 5303SOL    HW216809   1.029   5.442   5.310
 5304SOL     OW16810   0.332   0.569   3.088
 5304SOL    HW116811   0.411   0.518   3.121
 5304SOL    HW216812   0.354   0.667   3.083
 5305SOL     OW16813   0.083   5.066   3.918
 5305SOL    HW116814   0.022   5.071   3.839
 5305SOL    HW216815   0.139   4.983   3.912
 5306SOL     OW16816   0.566   2.536   6.091
 5306SOL    HW116817   0.467   2.533   6.106
 5306SOL    HW216818   0.607   2.452   6.126
 5307SOL     OW16819   6.710   1.685   1.496
 5307SOL    HW116820   6.776   1.614   1.474
 5307SOL    HW216821   6.737   1.730   1.581
 5308SOL     OW16822   2.009   4.091   2.909
 5308SOL    HW116823   2.075   4.131   2.845
 5308SOL    HW216824   1.971   4.163   2.967
 5309SOL     OW16825   6.283   5.219   3.232
 5309SOL    HW116826   6.221   5.228   3.310
 5309SOL    HW216827   6.274   5.300   3.173
 5310SOL     OW16828   5.977   2.602   3.110
 5310SOL    HW116829   6.000   2.519   3.161
 5310SOL    HW216830   5.944   2.577   3.019
 5311SOL     OW16831   6.071   0.210   0.736
 5311SOL    HW116832   6.143   0.267   0.697
 5311SOL    HW216833   5.989   0.218   0.679
 5312SOL     OW16834   6.329   6.461   0.709
 5312SOL    HW116835   6.428   6.448   0.710
 5312SOL    HW216836   6.309   6.554   0.677
 5313SOL     OW16837   1.104   6.439   5.716
 5313SOL    HW116838   1.017   6.460   5.759
 5313SOL    HW216839   1.104   6.344   5.685
 5314SOL     OW16840   6.082   1.121   1.742
 5314SOL    HW116841   6.073   1.210   1.695
 5314SOL    HW216842   6.106   1.137   1.838
 5315SOL     OW16843   4.319   1.726   3.937
 5315SOL    HW116844   4.322   1.673   3.852
 5315SOL    HW216845   4.300   1.665   4.014
 5316SOL     OW16846   0.904   2.207   4.777
 5316SOL    HW116847   0.963   2.200   4.857
 5316SOL    HW216848   0.814   2.240   4.806
 5317SOL     OW16849   5.859   2.756   0.086
 5317SOL    HW116850   5.953   2.788   0.098
 5317SOL    HW216851   5.814   2.750   0.175
 5318SOL     OW16852   0.292   4.002   6.522
 5318SOL    HW116853   0.360   4.017   6.593
 5318SOL    HW216854   0.296   3.907   6.491
 5319SOL     OW16855   4.089   6.406   2.266
 5319SOL    HW116856   4.005   6.382   2.217
 5319SOL    HW216857   4.084   6.372   2.360
 5320SOL     OW16858   4.038   5.591   1.108
 5320SOL    HW116859   4.127   5.545   1.104
 5320SOL    HW216860   4.038   5.657   1.182
 5321SOL     OW16861   2.041   4.398   5.715
 5321SOL    HW116862   2.065   4.397   5.618
 5321SOL    HW216863   2.101   4.460   5.764
 5322SOL     OW16864   4.601   6.963   2.066
 5322SOL    HW116865   4.633   6.881   2.018
 5322SOL    HW216866   4.513   6.943   2.110
 5323SOL     OW16867   4.467   0.353   5.931
 5323SOL    HW116868   4.455   0.432   5.872
 5323SOL    HW216869   4.403   0.281   5.904
 5324SOL     OW16870   2.119   1.993   1.284
 5324SOL    HW116871   2.120   2.090   1.261
 5324SOL    HW216872   2.185   1.974   1.357
 5325SOL     OW16873   2.111   2.252   4.842
 5325SOL    HW116874   2.055   2.294   4.914
 5325SOL    HW216875   2.060   2.177   4.799
 5326SOL     OW16876   6.296   6.731   1.845
 5326SOL    HW116877   6.341   6.657   1.794
 5326SOL    HW216878   6.357   6.764   1.917
 5327SOL     OW16879   0.266   2.850   5.737
 5327SOL    HW116880   0.353   2.799   5.738
 5327SOL    HW216881   0.203   2.807   5.673
 5328SOL     OW16882   4.576   5.622   0.158
 5328SOL    HW116883   4.491   5.606   0.108
 5328SOL    HW216884   4.622   5.534   0.174
 5329SOL     OW16885   1.502   6.572   6.217
 5329SOL    HW116886   1.471   6.622   6.298
 5329SOL    HW216887   1.475   6.622   6.135
 5330SOL     OW16888   2.142   4.755   0.969
 5330SOL    HW116889   2.159   4.805   0.883
 5330SOL    HW216890   2.070   4.801   1.020
 5331SOL     OW16891   6.415   0.904   6.100
 5331SOL    HW116892   6.448   0.881   6.191
 5331SOL    HW216893   6.414   1.003   6.088
 5332SOL     OW16894   0.229   4.938   1.720
 5332SOL    HW116895   0.262   4.927   1.626
 5332SOL    HW216896   0.143   4.887   1.731
 5333SOL     OW16897   1.153   6.254   4.818
 5333SOL    HW116898   1.141   6.236   4.915
 5333SOL    HW216899   1.075   6.217   4.767
 5334SOL     OW16900   3.841   0.549   4.570
 5334SOL    HW116901   3.872   0.596   4.488
 5334SOL    HW216902   3.906   0.477   4.595
 5335SOL     OW16903   0.010   5.859   6.890
 5335SOL    HW116904   6.979   5.930   6.937
 5335SOL    HW216905   7.020   5.871   6.791
 5336SOL     OW16906   1.077   3.765   1.865
 5336SOL    HW116907   0.994   3.778   1.809
 5336SOL    HW216908   1.099   3.851   1.911
 5337SOL     OW16909   5.751   3.730   1.238
 5337SOL    HW116910   5.842   3.716   1.277
 5337SOL    HW216911   5.717   3.819   1.266
 5338SOL     OW16912   6.275   1.488   6.720
 5338SOL    HW116913   6.226   1.551   6.660
 5338SOL    HW216914   6.338   1.432   6.666
 5339SOL     OW16915   6.780   0.321   2.060
 5339SOL    HW116916   6.706   0.385   2.038
 5339SOL    HW216917   6.747   0.253   2.125
 5340SOL     OW16918   5.181   2.684   5.802
 5340SOL    HW116919   5.203   2.597   5.758
 5340SOL    HW216920   5.100   2.672   5.860
 5341SOL     OW16921   3.730   0.314   0.598
 5341SOL    HW116922   3.651   0.283   0.651
 5341SOL    HW216923   3.736   0.260   0.513
 5342SOL     OW16924   2.458   0.887   6.073
 5342SOL    HW116925   2.502   0.875   6.162
 5342SOL    HW216926   2.360   0.899   6.086
 5343SOL     OW16927   3.849   4.016   2.105
 5343SOL    HW116928   3.753   4.032   2.081
 5343SOL    HW216929   3.878   4.082   2.174
 5344SOL     OW16930   2.126   2.104   3.126
 5344SOL    HW116931   2.103   2.077   3.033
 5344SOL    HW216932   2.047   2.148   3.168
 5345SOL     OW16933   4.709   0.241   2.160
 5345SOL    HW116934   4.766   0.323   2.149
 5345SOL    HW216935   4.649   0.231   2.081
 5346SOL     OW16936   2.575   6.655   3.371
 5346SOL    HW116937   2.586   6.672   3.273
 5346SOL    HW216938   2.556   6.558   3.385
 5347SOL     OW16939   0.123   2.156   2.093
 5347SOL    HW116940   0.166   2.101   2.022
 5347SOL    HW216941   0.024   2.141   2.092
 5348SOL     OW16942   6.865   0.830   0.167
 5348SOL    HW116943   6.871   0.750   0.227
 5348SOL    HW216944   6.946   0.887   0.179
 5349SOL     OW16945   6.464   0.195   1.611
 5349SOL    HW116946   6.473   0.097   1.630
 5349SOL    HW216947   6.552   0.240   1.627
 5350SOL     OW16948   2.486   0.765   6.866
 5350SOL    HW116949   2.541   0.833   6.817
 5350SOL    HW216950   2.394   0.764   6.827
 5351SOL     OW16951   4.224   0.480   2.061
 5351SOL    HW116952   4.213   0.437   1.971
 5351SOL    HW216953   4.293   0.430   2.114
 5352SOL     OW16954   3.494   6.294   3.490
 5352SOL    HW116955   3.397   6.303   3.513
 5352SOL    HW216956   3.508   6.314   3.393
 5353SOL     OW16957   5.633   0.319   5.581
 5353SOL    HW116958   5.701   0.252   5.551
 5353SOL    HW216959   5.556   0.272   5.624
 5354SOL     OW16960   1.315   3.589   1.569
 5354SOL    HW116961   1.409   3.606   1.538
 5354SOL    HW216962   1.317   3.528   1.648
 5355SOL     OW16963   4.307   1.610   4.954
 5355SOL    HW116964   4.233   1.671   4.984
 5355SOL    HW216965   4.381   1.613   5.021
 5356SOL     OW16966   5.829   3.484   0.881
 5356SOL    HW116967   5.764   3.534   0.938
 5356SOL    HW216968   5.844   3.533   0.795
 5357SOL     OW16969   3.730   6.730   0.580
 5357SOL    HW116970   3.691   6.658   0.636
 5357SOL    HW216971   3.682   6.816   0.597
 5358SOL     OW16972   4.539   3.142   1.388
 5358SOL    HW116973   4.609   3.152   1.459
 5358SOL    HW216974   4.467   3.081   1.419
 5359SOL     OW16975   2.681   0.064   6.719
 5359SOL    HW116976   2.739   7.005   6.703
 5359SOL    HW216977   2.613   0.043   6.789
 5360SOL     OW16978   3.994   0.298   6.393
 5360SOL    HW116979   3.903   0.257   6.383
 5360SOL    HW216980   4.021   0.342   6.307
 5361SOL     OW16981   2.062   0.696   5.921
 5361SOL    HW116982   2.035   0.600   5.926
 5361SOL    HW216983   2.050   0.729   5.827
 5362SOL     OW16984   4.033   6.145   4.041
 5362SOL    HW116985   4.102   6.075   4.023
 5362SOL    HW216986   3.964   6.109   4.104
 5363SOL     OW16987   0.801   5.217   5.334
 5363SOL    HW116988   0.754   5.259   5.257
 5363SOL    HW216989   0.874   5.277   5.366
 5364SOL     OW16990   0.627   6.528   6.835
 5364SOL    HW116991   0.552   6.593   6.851
 5364SOL    HW216992   0.624   6.497   6.740
 5365SOL     OW16993   3.777   1.808   6.480
 5365SOL    HW116994   3.809   1.754   6.402
 5365SOL    HW216995   3.784   1.753   6.563
 5366SOL     OW16996   3.605   4.095   6.691
 5366SOL    HW116997   3.669   4.049   6.752
 5366SOL    HW216998   3.526   4.129   6.743
 5367SOL     OW16999   0.426   4.698   0.838
 5367SOL    HW117000   0.430   4.673   0.741
 5367SOL    HW217001   0.346   4.755   0.855
 5368SOL     OW17002   6.406   0.877   3.753
 5368SOL    HW117003   6.406   0.875   3.853
 5368SOL    HW217004   6.399   0.972   3.722
 5369SOL     OW17005   1.700   3.680   2.458
 5369SOL    HW117006   1.731   3.612   2.525
 5369SOL    HW217007   1.703   3.771   2.500
 5370SOL     OW17008   3.853   2.922   1.512
 5370SOL    HW117009   3.857   3.018   1.539
 5370SOL    HW217010   3.775   2.908   1.450
 5371SOL     OW17011   1.572   4.294   4.888
 5371SOL    HW117012   1.567   4.360   4.813
 5371SOL    HW217013   1.642   4.323   4.953
 5372SOL     OW17014   3.077   5.528   2.985
 5372SOL    HW117015   3.006   5.581   2.938
 5372SOL    HW217016   3.108   5.454   2.925
 5373SOL     OW17017   1.819   5.136   3.907
 5373SOL    HW117018   1.799   5.138   4.005
 5373SOL    HW217019   1.806   5.043   3.872
 5374SOL     OW17020   3.336   2.341   0.605
 5374SOL    HW117021   3.405   2.277   0.573
 5374SOL    HW217022   3.361   2.434   0.577
 5375SOL     OW17023   1.785   4.056   4.591
 5375SOL    HW117024   1.712   4.091   4.533
 5375SOL    HW217025   1.754   3.973   4.637
 5376SOL     OW17026   2.903   4.063   0.336
 5376SOL    HW117027   2.910   3.963   0.324
 5376SOL    HW217028   2.875   4.105   0.250
 5377SOL     OW17029   0.823   1.685   1.365
 5377SOL    HW117030   0.889   1.615   1.341
 5377SOL    HW217031   0.845   1.721   1.456
 5378SOL     OW17032   4.382   0.001   0.260
 5378SOL    HW117033   4.335   6.966   0.329
 5378SOL    HW217034   4.323   0.012   0.180
 5379SOL     OW17035   6.618   6.722   1.290
 5379SOL    HW117036   6.599   6.664   1.369
 5379SOL    HW217037   6.627   6.817   1.320
 5380SOL     OW17038   2.414   0.191   4.219
 5380SOL    HW117039   2.408   0.291   4.219
 5380SOL    HW217040   2.386   0.155   4.308
 5381SOL     OW17041   5.485   3.384   1.660
 5381SOL    HW117042   5.426   3.304   1.667
 5381SOL    HW217043   5.581   3.354   1.656
 5382SOL     OW17044   2.001   0.681   1.400
 5382SOL    HW117045   2.014   0.731   1.485
 5382SOL    HW217046   2.002   0.583   1.419
 5383SOL     OW17047   1.909   2.062   4.755
 5383SOL    HW117048   1.879   1.972   4.787
 5383SOL    HW217049   1.933   2.057   4.658
 5384SOL     OW17050   5.924   6.704   4.162
 5384SOL    HW117051   5.902   6.637   4.232
 5384SOL    HW217052   5.853   6.706   4.092
 5385SOL     OW17053   3.457   4.025   2.583
 5385SOL    HW117054   3.451   3.925   2.591
 5385SOL    HW217055   3.547   4.050   2.548
 5386SOL     OW17056   5.614   0.019   6.015
 5386SOL    HW117057   5.578   0.112   6.019
 5386SOL    HW217058   5.690   0.015   5.951
 5387SOL     OW17059   3.288   5.638   1.485
 5387SOL    HW117060   3.211   5.607   1.428
 5387SOL    HW217061   3.305   5.570   1.557
 5388SOL     OW17062   6.286   6.487   2.681
 5388SOL    HW117063   6.240   6.558   2.627
 5388SOL    HW217064   6.358   6.445   2.625
 5389SOL     OW17065   5.016   2.076   1.165
 5389SOL    HW117066   4.920   2.049   1.177
 5389SOL    HW217067   5.023   2.175   1.167
 5390SOL     OW17068   6.437   4.758   5.993
 5390SOL    HW117069   6.396   4.683   6.044
 5390SOL    HW217070   6.472   4.827   6.057
 5391SOL     OW17071   2.883   3.671   7.020
 5391SOL    HW117072   2.826   3.596   0.033
 5391SOL    HW217073   2.949   3.636   6.954
 5392SOL     OW17074   6.144   2.762   2.667
 5392SOL    HW117075   6.092   2.793   2.746
 5392SOL    HW217076   6.144   2.662   2.664
 5393SOL     OW17077   6.186   6.945   6.187
 5393SOL    HW117078   6.157   6.866   6.132
 5393SOL    HW217079   6.193   6.917   6.283
 5394SOL     OW17080   1.857   3.766   5.660
 5394SOL    HW117081   1.759   3.749   5.660
 5394SOL    HW217082   1.878   3.841   5.598
 5395SOL     OW17083   4.734   0.586   0.449
 5395SOL    HW117084   4.833   0.575   0.455
 5395SOL    HW217085   4.692   0.554   0.534
 5396SOL     OW17086   4.991   2.710   2.297
 5396SOL    HW117087   4.956   2.802   2.282
 5396SOL    HW217088   5.091   2.713   2.301
 5397SOL     OW17089   0.591   3.155   1.392
 5397SOL    HW117090   0.646   3.178   1.473
 5397SOL    HW217091   0.537   3.073   1.412
 5398SOL     OW17092   3.347   3.425   1.901
 5398SOL    HW117093   3.370   3.487   1.976
 5398SOL    HW217094   3.283   3.356   1.934
 5399SOL     OW17095   0.778   6.501   0.668
 5399SOL    HW117096   0.738   6.513   0.577
 5399SOL    HW217097   0.754   6.411   0.704
 5400SOL     OW17098   2.331   4.060   6.943
 5400SOL    HW117099   2.407   4.042   6.880
 5400SOL    HW217100   2.244   4.038   6.898
 5401SOL     OW17101   6.436   1.733   1.598
 5401SOL    HW117102   6.509   1.740   1.530
 5401SOL    HW217103   6.362   1.678   1.561
 5402SOL     OW17104   1.475   6.215   2.657
 5402SOL    HW117105   1.460   6.129   2.707
 5402SOL    HW217106   1.572   6.237   2.658
 5403SOL     OW17107   6.046   3.548   6.895
 5403SOL    HW117108   6.135   3.593   6.892
 5403SOL    HW217109   6.037   3.485   6.818
 5404SOL     OW17110   1.420   3.186   2.991
 5404SOL    HW117111   1.430   3.281   2.960
 5404SOL    HW217112   1.335   3.148   2.956
 5405SOL     OW17113   6.851   3.617   5.896
 5405SOL    HW117114   6.825   3.694   5.954
 5405SOL    HW217115   6.942   3.635   5.857
 5406SOL     OW17116   1.668   0.149   4.373
 5406SOL    HW117117   1.688   0.052   4.361
 5406SOL    HW217118   1.662   0.169   4.471
 5407SOL     OW17119   4.006   3.139   0.019
 5407SOL    HW117120   3.978   3.200   0.093
 5407SOL    HW217121   3.940   3.145   6.965
 5408SOL     OW17122   3.264   1.244   0.597
 5408SOL    HW117123   3.289   1.255   0.694
 5408SOL    HW217124   3.191   1.308   0.574
 5409SOL     OW17125   3.852   0.591   2.488
 5409SOL    HW117126   3.802   0.661   2.539
 5409SOL    HW217127   3.867   0.622   2.394
 5410SOL     OW17128   1.443   2.707   2.893
 5410SOL    HW117129   1.448   2.711   2.794
 5410SOL    HW217130   1.493   2.785   2.932
 5411SOL     OW17131   1.442   5.137   4.374
 5411SOL    HW117132   1.539   5.122   4.397
 5411SOL    HW217133   1.385   5.088   4.440
 5412SOL     OW17134   5.730   2.682   1.807
 5412SOL    HW117135   5.829   2.696   1.802
 5412SOL    HW217136   5.705   2.656   1.900
 5413SOL     OW17137   2.766   0.567   2.290
 5413SOL    HW117138   2.761   0.586   2.192
 5413SOL    HW217139   2.674   0.571   2.329
 5414SOL     OW17140   4.868   0.782   5.451
 5414SOL    HW117141   4.914   0.798   5.364
 5414SOL    HW217142   4.848   0.684   5.460
 5415SOL     OW17143   6.057   3.894   1.980
 5415SOL    HW117144   6.046   3.798   2.002
 5415SOL    HW217145   6.081   3.945   2.063
 5416SOL     OW17146   4.067   4.968   4.154
 5416SOL    HW117147   3.993   4.915   4.113
 5416SOL    HW217148   4.036   5.062   4.170
 5417SOL     OW17149   3.703   6.946   5.486
 5417SOL    HW117150   3.736   6.858   5.451
 5417SOL    HW217151   3.739   7.020   5.429
 5418SOL     OW17152   3.488   0.814   3.247
 5418SOL    HW117153   3.400   0.839   3.287
 5418SOL    HW217154   3.545   0.768   3.316
 5419SOL     OW17155   3.279   4.419   0.054
 5419SOL    HW117156   3.242   4.379   6.991
 5419SOL    HW217157   3.300   4.346   0.120
 5420SOL     OW17158   1.337   2.214   2.762
 5420SOL    HW117159   1.300   2.256   2.845
 5420SOL    HW217160   1.407   2.147   2.786
 5421SOL     OW17161   1.452   3.009   1.024
 5421SOL    HW117162   1.512   2.942   1.068
 5421SOL    HW217163   1.469   3.099   1.062
 5422SOL     OW17164   1.812   3.978   0.155
 5422SOL    HW117165   1.719   3.941   0.145
 5422SOL    HW217166   1.858   3.931   0.230
 5423SOL     OW17167   5.350   3.454   6.138
 5423SOL    HW117168   5.406   3.382   6.180
 5423SOL    HW217169   5.298   3.502   6.208
 5424SOL     OW17170   5.178   3.386   5.640
 5424SOL    HW117171   5.240   3.440   5.583
 5424SOL    HW217172   5.201   3.397   5.736
 5425SOL     OW17173   5.500   0.227   4.561
 5425SOL    HW117174   5.423   0.290   4.556
 5425SOL    HW217175   5.539   0.215   4.470
 5426SOL     OW17176   0.162   6.988   4.920
 5426SOL    HW117177   0.160   7.016   4.824
 5426SOL    HW217178   0.147   6.889   4.926
 5427SOL     OW17179   4.129   6.741   6.982
 5427SOL    HW117180   4.040   6.748   6.936
 5427SOL    HW217181   4.201   6.761   6.916
 5428SOL     OW17182   1.931   0.628   6.720
 5428SOL    HW117183   1.894   0.674   6.801
 5428SOL    HW217184   1.873   0.551   6.696
 5429SOL     OW17185   1.533   2.600   6.530
 5429SOL    HW117186   1.520   2.591   6.629
 5429SOL    HW217187   1.485   2.527   6.483
 5430SOL     OW17188   2.031   2.051   5.049
 5430SOL    HW117189   1.933   2.066   5.058
 5430SOL    HW217190   2.078   2.084   5.131
 5431SOL     OW17191   3.828   6.099   4.452
 5431SOL    HW117192   3.878   6.012   4.455
 5431SOL    HW217193   3.893   6.174   4.439
 5432SOL     OW17194   5.891   6.265   1.522
 5432SOL    HW117195   5.930   6.212   1.447
 5432SOL    HW217196   5.886   6.361   1.497
 5433SOL     OW17197   0.032   2.318   4.510
 5433SOL    HW117198   6.975   2.290   4.453
 5433SOL    HW217199   0.005   2.396   4.566
 5434SOL     OW17200   2.622   0.083   5.317
 5434SOL    HW117201   2.614   0.062   5.219
 5434SOL    HW217202   2.592   0.176   5.334
 5435SOL     OW17203   4.375   1.272   1.868
 5435SOL    HW117204   4.285   1.232   1.882
 5435SOL    HW217205   4.370   1.344   1.799
 5436SOL     OW17206   4.954   3.870   2.447
 5436SOL    HW117207   4.983   3.854   2.541
 5436SOL    HW217208   4.904   3.956   2.441
 5437SOL     OW17209   3.257   4.419   6.764
 5437SOL    HW117210   3.345   4.459   6.742
 5437SOL    HW217211   3.190   4.491   6.780
 5438SOL     OW17212   6.760   1.208   1.436
 5438SOL    HW117213   6.740   1.192   1.533
 5438SOL    HW217214   6.859   1.209   1.422
 5439SOL     OW17215   1.782   2.631   1.079
 5439SOL    HW117216   1.870   2.609   1.037
 5439SOL    HW217217   1.708   2.604   1.017
 5440SOL     OW17218   1.578   1.914   0.915
 5440SOL    HW117219   1.499   1.975   0.914
 5440SOL    HW217220   1.621   1.912   0.825
 5441SOL     OW17221   3.887   1.862   4.312
 5441SOL    HW117222   3.879   1.871   4.411
 5441SOL    HW217223   3.869   1.950   4.269
 5442SOL     OW17224   3.421   0.664   2.617
 5442SOL    HW117225   3.498   0.610   2.653
 5442SOL    HW217226   3.358   0.684   2.692
 5443SOL     OW17227   2.958   6.795   5.667
 5443SOL    HW117228   2.956   6.699   5.640
 5443SOL    HW217229   2.962   6.801   5.767
 5444SOL     OW17230   0.090   0.484   3.812
 5444SOL    HW117231   0.014   0.462   3.874
 5444SOL    HW217232   0.130   0.572   3.838
 5445SOL     OW17233   5.862   3.589   1.736
 5445SOL    HW117234   5.908   3.674   1.711
 5445SOL    HW217235   5.899   3.555   1.822
 5446SOL     OW17236   0.056   6.024   5.869
 5446SOL    HW117237   7.017   6.085   5.921
 5446SOL    HW217238   0.129   5.990   5.928
 5447SOL     OW17239   2.858   2.281   0.989
 5447SOL    HW117240   2.831   2.261   1.083
 5447SOL    HW217241   2.894   2.374   0.984
 5448SOL     OW17242   5.512   2.057   6.255
 5448SOL    HW117243   5.532   2.025   6.347
 5448SOL    HW217244   5.560   2.143   6.238
 5449SOL     OW17245   0.496   3.457   6.507
 5449SOL    HW117246   0.419   3.483   6.564
 5449SOL    HW217247   0.463   3.404   6.428
 5450SOL     OW17248   2.222   6.579   0.663
 5450SOL    HW117249   2.172   6.617   0.741
 5450SOL    HW217250   2.157   6.559   0.589
 5451SOL     OW17251   1.534   0.243   2.582
 5451SOL    HW117252   1.516   0.279   2.673
 5451SOL    HW217253   1.622   0.196   2.581
 5452SOL     OW17254   2.743   3.446   5.415
 5452SOL    HW117255   2.800   3.471   5.336
 5452SOL    HW217256   2.724   3.348   5.412
 5453SOL     OW17257   0.078   5.102   6.210
 5453SOL    HW117258   0.013   5.055   6.270
 5453SOL    HW217259   0.056   5.200   6.207
 5454SOL     OW17260   0.540   3.766   5.101
 5454SOL    HW117261   0.602   3.762   5.179
 5454SOL    HW217262   0.450   3.799   5.131
 5455SOL     OW17263   0.448   3.171   0.754
 5455SOL    HW117264   0.481   3.076   0.762
 5455SOL    HW217265   0.353   3.170   0.725
 5456SOL     OW17266   2.977   6.655   1.698
 5456SOL    HW117267   2.982   6.671   1.796
 5456SOL    HW217268   2.942   6.737   1.652
 5457SOL     OW17269   5.896   3.689   0.385
 5457SOL    HW117270   5.875   3.768   0.443
 5457SOL    HW217271   5.989   3.699   0.349
 5458SOL     OW17272   2.199   4.680   6.533
 5458SOL    HW117273   2.266   4.696   6.606
 5458SOL    HW217274   2.233   4.609   6.472
 5459SOL     OW17275   2.337   4.770   6.124
 5459SOL    HW117276   2.320   4.835   6.198
 5459SOL    HW217277   2.319   4.677   6.156
 5460SOL     OW17278   3.444   6.884   2.886
 5460SOL    HW117279   3.358   6.876   2.836
 5460SOL    HW217280   3.431   6.854   2.980
 5461SOL     OW17281   4.673   6.466   4.683
 5461SOL    HW117282   4.733   6.509   4.750
 5461SOL    HW217283   4.617   6.397   4.728
 5462SOL     OW17284   0.938   0.334   1.430
 5462SOL    HW117285   0.866   0.359   1.365
 5462SOL    HW217286   0.991   0.258   1.393
 5463SOL     OW17287   0.179   3.155   0.701
 5463SOL    HW117288   0.183   3.148   0.800
 5463SOL    HW217289   0.174   3.063   0.662
 5464SOL     OW17290   2.274   6.430   4.090
 5464SOL    HW117291   2.258   6.419   4.188
 5464SOL    HW217292   2.362   6.476   4.076
 5465SOL     OW17293   1.937   6.268   6.287
 5465SOL    HW117294   1.907   6.363   6.273
 5465SOL    HW217295   1.941   6.221   6.199
 5466SOL     OW17296   5.333   5.010   4.996
 5466SOL    HW117297   5.309   5.102   4.965
 5466SOL    HW217298   5.380   4.961   4.923
 5467SOL     OW17299   6.104   1.623   2.536
 5467SOL    HW117300   6.032   1.691   2.553
 5467SOL    HW217301   6.062   1.534   2.521
 5468SOL     OW17302   4.236   1.694   5.608
 5468SOL    HW117303   4.321   1.646   5.587
 5468SOL    HW217304   4.190   1.718   5.522
 5469SOL     OW17305   4.548   4.584   0.987
 5469SOL    HW117306   4.599   4.568   0.903
 5469SOL    HW217307   4.475   4.516   0.996
 5470SOL     OW17308   0.299   5.539   3.139
 5470SOL    HW117309   0.372   5.498   3.083
 5470SOL    HW217310   0.334   5.557   3.231
 5471SOL     OW17311   6.375   5.005   2.506
 5471SOL    HW117312   6.330   5.041   2.425
 5471SOL    HW217313   6.308   4.958   2.563
 5472SOL     OW17314   3.725   5.278   5.863
 5472SOL    HW117315   3.726   5.373   5.895
 5472SOL    HW217316   3.803   5.229   5.904
 5473SOL     OW17317   1.241   3.927   3.515
 5473SOL    HW117318   1.321   3.871   3.534
 5473SOL    HW217319   1.269   4.022   3.504
 5474SOL     OW17320   1.840   6.417   3.891
 5474SOL    HW117321   1.899   6.472   3.832
 5474SOL    HW217322   1.891   6.387   3.971
 5475SOL     OW17323   3.182   2.661   1.363
 5475SOL    HW117324   3.180   2.622   1.455
 5475SOL    HW217325   3.189   2.587   1.295
 5476SOL     OW17326   1.909   3.548   6.753
 5476SOL    HW117327   1.992   3.568   6.702
 5476SOL    HW217328   1.906   3.603   6.836
 5477SOL     OW17329   1.607   3.091   2.514
 5477SOL    HW117330   1.537   3.044   2.460
 5477SOL    HW217331   1.642   3.029   2.584
 5478SOL     OW17332   0.184   5.732   6.177
 5478SOL    HW117333   0.092   5.761   6.203
 5478SOL    HW217334   0.201   5.639   6.210
 5479SOL     OW17335   4.566   6.938   4.667
 5479SOL    HW117336   4.484   6.942   4.610
 5479SOL    HW217337   4.569   7.019   4.726
 5480SOL     OW17338   0.877   2.440   5.186
 5480SOL    HW117339   0.792   2.492   5.182
 5480SOL    HW217340   0.924   2.460   5.272
 5481SOL     OW17341   4.705   6.658   3.587
 5481SOL    HW117342   4.679   6.586   3.650
 5481SOL    HW217343   4.627   6.680   3.528
 5482SOL     OW17344   1.520   4.919   1.879
 5482SOL    HW117345   1.447   4.948   1.940
 5482SOL    HW217346   1.577   4.851   1.925
 5483SOL     OW17347   0.715   3.057   6.262
 5483SOL    HW117348   0.699   3.153   6.287
 5483SOL    HW217349   0.715   3.048   6.162
 5484SOL     OW17350   5.150   0.230   4.379
 5484SOL    HW117351   5.175   0.297   4.448
 5484SOL    HW217352   5.225   0.164   4.368
 5485SOL     OW17353   3.953   0.678   5.015
 5485SOL    HW117354   3.859   0.655   4.991
 5485SOL    HW217355   3.954   0.753   5.081
 5486SOL     OW17356   2.859   5.254   4.174
 5486SOL    HW117357   2.871   5.155   4.180
 5486SOL    HW217358   2.933   5.293   4.119
 5487SOL     OW17359   3.187   5.347   5.351
 5487SOL    HW117360   3.262   5.412   5.342
 5487SOL    HW217361   3.169   5.330   5.448
 5488SOL     OW17362   4.874   1.850   0.123
 5488SOL    HW117363   4.937   1.803   0.061
 5488SOL    HW217364   4.831   1.926   0.075
 5489SOL     OW17365   0.372   3.631   3.689
 5489SOL    HW117366   0.296   3.567   3.677
 5489SOL    HW217367   0.447   3.585   3.737
 5490SOL     OW17368   1.206   5.691   2.765
 5490SOL    HW117369   1.239   5.784   2.748
 5490SOL    HW217370   1.119   5.695   2.815
 5491SOL     OW17371   6.141   3.874   0.648
 5491SOL    HW117372   6.053   3.875   0.695
 5491SOL    HW217373   6.202   3.941   0.691
 5492SOL     OW17374   0.399   1.759   6.081
 5492SOL    HW117375   0.347   1.674   6.085
 5492SOL    HW217376   0.454   1.760   5.997
 5493SOL     OW17377   4.423   4.093   0.806
 5493SOL    HW117378   4.429   4.013   0.865
 5493SOL    HW217379   4.328   4.122   0.798
 5494SOL     OW17380   5.888   3.244   5.611
 5494SOL    HW117381   5.980   3.211   5.634
 5494SOL    HW217382   5.826   3.228   5.687
 5495SOL     OW17383   5.673   6.816   0.097
 5495SOL    HW117384   5.730   6.825   0.015
 5495SOL    HW217385   5.580   6.790   0.071
 5496SOL     OW17386   4.288   6.910   5.480
 5496SOL    HW117387   4.249   6.838   5.423
 5496SOL    HW217388   4.322   6.984   5.422
 5497SOL     OW17389   0.697   0.270   4.646
 5497SOL    HW117390   0.652   0.227   4.724
 5497SOL    HW217391   0.765   0.207   4.608
 5498SOL     OW17392   0.174   5.280   0.989
 5498SOL    HW117393   0.212   5.317   0.905
 5498SOL    HW217394   0.151   5.354   1.052
 5499SOL     OW17395   2.110   0.023   4.217
 5499SOL    HW117396   2.124   0.095   4.285
 5499SOL    HW217397   2.099   0.065   4.126
 5500SOL     OW17398   2.390   0.261   1.332
 5500SOL    HW117399   2.431   0.352   1.323
 5500SOL    HW217400   2.435   0.198   1.269
 5501SOL     OW17401   4.157   3.370   6.946
 5501SOL    HW117402   4.171   3.312   0.006
 5501SOL    HW217403   4.202   3.329   6.867
 5502SOL     OW17404   4.843   3.762   6.984
 5502SOL    HW117405   4.801   3.810   0.041
 5502SOL    HW217406   4.786   3.684   6.959
 5503SOL     OW17407   6.185   3.099   0.787
 5503SOL    HW117408   6.227   3.148   0.711
 5503SOL    HW217409   6.089   3.080   0.765
 5504SOL     OW17410   4.153   2.156   0.257
 5504SOL    HW117411   4.220   2.186   0.188
 5504SOL    HW217412   4.192   2.168   0.348
 5505SOL     OW17413   2.906   4.928   2.764
 5505SOL    HW117414   2.851   4.947   2.683
 5505SOL    HW217415   2.850   4.944   2.846
 5506SOL     OW17416   6.221   2.226   6.399
 5506SOL    HW117417   6.255   2.314   6.367
 5506SOL    HW217418   6.126   2.236   6.428
 5507SOL     OW17419   3.685   6.604   0.338
 5507SOL    HW117420   3.679   6.623   0.436
 5507SOL    HW217421   3.643   6.679   0.286
 5508SOL     OW17422   0.743   1.125   6.261
 5508SOL    HW117423   0.692   1.146   6.177
 5508SOL    HW217424   0.696   1.166   6.339
 5509SOL     OW17425   6.439   4.162   0.179
 5509SOL    HW117426   6.349   4.205   0.184
 5509SOL    HW217427   6.447   4.111   0.094
 5510SOL     OW17428   5.073   5.316   6.599
 5510SOL    HW117429   5.003   5.371   6.553
 5510SOL    HW217430   5.089   5.232   6.548
 5511SOL     OW17431   0.805   2.654   6.231
 5511SOL    HW117432   0.770   2.680   6.321
 5511SOL    HW217433   0.729   2.629   6.171
 5512SOL     OW17434   1.746   0.284   2.197
 5512SOL    HW117435   1.710   0.192   2.190
 5512SOL    HW217436   1.673   0.348   2.223
 5513SOL     OW17437   3.597   4.752   6.794
 5513SOL    HW117438   3.682   4.755   6.846
 5513SOL    HW217439   3.553   4.842   6.796
 5514SOL     OW17440   3.163   0.924   0.317
 5514SOL    HW117441   3.138   0.960   0.227
 5514SOL    HW217442   3.134   0.988   0.388
 5515SOL     OW17443   3.399   5.577   2.192
 5515SOL    HW117444   3.414   5.532   2.280
 5515SOL    HW217445   3.410   5.512   2.118
 5516SOL     OW17446   1.761   2.019   5.380
 5516SOL    HW117447   1.757   2.106   5.331
 5516SOL    HW217448   1.836   2.021   5.446
 5517SOL     OW17449   0.987   2.394   3.394
 5517SOL    HW117450   1.009   2.314   3.338
 5517SOL    HW217451   1.070   2.450   3.406
 5518SOL     OW17452   4.801   4.952   6.762
 5518SOL    HW117453   4.817   4.964   6.860
 5518SOL    HW217454   4.741   4.874   6.747
 5519SOL     OW17455   5.305   2.481   5.459
 5519SOL    HW117456   5.285   2.472   5.361
 5519SOL    HW217457   5.282   2.573   5.490
 5520SOL     OW17458   4.637   6.962   1.624
 5520SOL    HW117459   4.538   6.965   1.635
 5520SOL    HW217460   4.659   6.941   1.529
 5521SOL     OW17461   4.748   6.525   2.315
 5521SOL    HW117462   4.724   6.446   2.258
 5521SOL    HW217463   4.844   6.550   2.299
 5522SOL     OW17464   5.718   6.419   0.442
 5522SOL    HW117465   5.626   6.396   0.412
 5522SOL    HW217466   5.713   6.464   0.531
 5523SOL     OW17467   5.152   1.894   1.024
 5523SOL    HW117468   5.101   1.955   1.085
 5523SOL    HW217469   5.114   1.802   1.030
 5524SOL     OW17470   2.385   1.333   3.023
 5524SOL    HW117471   2.302   1.376   2.985
 5524SOL    HW217472   2.361   1.244   3.061
 5525SOL     OW17473   6.762   1.601   1.113
 5525SOL    HW117474   6.672   1.584   1.152
 5525SOL    HW217475   6.752   1.642   1.022
 5526SOL     OW17476   5.826   4.347   4.097
 5526SOL    HW117477   5.776   4.289   4.160
 5526SOL    HW217478   5.890   4.292   4.044
 5527SOL     OW17479   6.545   0.237   2.942
 5527SOL    HW117480   6.620   0.260   2.880
 5527SOL    HW217481   6.558   0.144   2.976
 5528SOL     OW17482   1.334   2.163   6.929
 5528SOL    HW117483   1.245   2.195   6.961
 5528SOL    HW217484   1.352   2.198   6.838
 5529SOL     OW17485   3.214   0.442   2.309
 5529SOL    HW117486   3.307   0.479   2.322
 5529SOL    HW217487   3.156   0.473   2.385
 5530SOL     OW17488   0.306   1.834   0.818
 5530SOL    HW117489   0.336   1.754   0.871
 5530SOL    HW217490   0.304   1.914   0.878
 5531SOL     OW17491   1.330   4.372   1.735
 5531SOL    HW117492   1.416   4.378   1.685
 5531SOL    HW217493   1.316   4.278   1.765
 5532SOL     OW17494   0.706   3.605   6.632
 5532SOL    HW117495   0.780   3.621   6.566
 5532SOL    HW217496   0.621   3.589   6.583
 5533SOL     OW17497   3.835   1.006   2.995
 5533SOL    HW117498   3.888   1.088   3.015
 5533SOL    HW217499   3.761   0.997   3.061
 5534SOL     OW17500   1.159   0.324   4.433
 5534SOL    HW117501   1.070   0.295   4.399
 5534SOL    HW217502   1.215   0.244   4.452
 5535SOL     OW17503   6.835   2.013   3.108
 5535SOL    HW117504   6.914   1.951   3.108
 5535SOL    HW217505   6.865   2.105   3.135
 5536SOL     OW17506   4.686   6.548   4.416
 5536SOL    HW117507   4.638   6.632   4.391
 5536SOL    HW217508   4.665   6.524   4.511
 5537SOL     OW17509   2.587   2.416   3.396
 5537SOL    HW117510   2.670   2.363   3.414
 5537SOL    HW217511   2.573   2.422   3.297
 5538SOL     OW17512   4.579   5.297   4.127
 5538SOL    HW117513   4.627   5.231   4.069
 5538SOL    HW217514   4.617   5.294   4.219
 5539SOL     OW17515   2.155   4.421   6.915
 5539SOL    HW117516   2.102   4.424   6.830
 5539SOL    HW217517   2.156   4.512   6.957
 5540SOL     OW17518   3.659   5.589   1.878
 5540SOL    HW117519   3.687   5.493   1.887
 5540SOL    HW217520   3.673   5.619   1.784
 5541SOL     OW17521   4.705   0.746   6.028
 5541SOL    HW117522   4.705   0.710   6.122
 5541SOL    HW217523   4.637   0.697   5.973
 5542SOL     OW17524   5.309   4.578   6.634
 5542SOL    HW117525   5.374   4.503   6.642
 5542SOL    HW217526   5.235   4.553   6.573
 5543SOL     OW17527   0.523   1.477   4.957
 5543SOL    HW117528   0.526   1.536   4.876
 5543SOL    HW217529   0.521   1.533   5.039
 5544SOL     OW17530   5.459   0.747   6.862
 5544SOL    HW117531   5.395   0.809   6.817
 5544SOL    HW217532   5.552   0.773   6.840
 5545SOL     OW17533   2.227   2.653   1.864
 5545SOL    HW117534   2.273   2.718   1.803
 5545SOL    HW217535   2.293   2.615   1.928
 5546SOL     OW17536   4.091   5.372   5.975
 5546SOL    HW117537   4.181   5.374   5.930
 5546SOL    HW217538   4.060   5.465   5.992
 5547SOL     OW17539   3.470   5.572   4.309
 5547SOL    HW117540   3.410   5.650   4.321
 5547SOL    HW217541   3.439   5.496   4.367
 5548SOL     OW17542   0.569   2.018   4.551
 5548SOL    HW117543   0.522   2.074   4.482
 5548SOL    HW217544   0.510   2.009   4.632
 5549SOL     OW17545   3.113   5.282   6.947
 5549SOL    HW117546   3.093   5.351   6.878
 5549SOL    HW217547   3.146   5.326   0.010
 5550SOL     OW17548   2.691   6.284   2.261
 5550SOL    HW117549   2.784   6.251   2.245
 5550SOL    HW217550   2.695   6.377   2.298
 5551SOL     OW17551   0.386   1.311   2.888
 5551SOL    HW117552   0.429   1.223   2.873
 5551SOL    HW217553   0.306   1.320   2.829
 5552SOL     OW17554   1.453   2.695   2.623
 5552SOL    HW117555   1.412   2.612   2.660
 5552SOL    HW217556   1.546   2.676   2.592
 5553SOL     OW17557   4.618   6.053   6.289
 5553SOL    HW117558   4.698   6.093   6.332
 5553SOL    HW217559   4.548   6.123   6.275
 5554SOL     OW17560   3.426   1.038   4.605
 5554SOL    HW117561   3.450   0.975   4.679
 5554SOL    HW217562   3.334   1.017   4.572
 5555SOL     OW17563   1.068   6.109   1.546
 5555SOL    HW117564   1.094   6.013   1.535
 5555SOL    HW217565   0.984   6.126   1.496
 5556SOL     OW17566   0.233   0.623   4.701
 5556SOL    HW117567   0.178   0.542   4.681
 5556SOL    HW217568   0.236   0.639   4.800
 5557SOL     OW17569   2.641   0.332   2.806
 5557SOL    HW117570   2.594   0.402   2.860
 5557SOL    HW217571   2.582   0.301   2.732
 5558SOL     OW17572   5.082   1.939   5.316
 5558SOL    HW117573   4.992   1.943   5.359
 5558SOL    HW217574   5.121   2.031   5.311
 5559SOL     OW17575   1.997   1.027   1.136
 5559SOL    HW117576   2.046   1.035   1.223
 5559SOL    HW217577   2.008   0.935   1.100
 5560SOL     OW17578   0.254   1.489   4.431
 5560SOL    HW117579   0.273   1.580   4.468
 5560SOL    HW217580   0.339   1.437   4.425
 5561SOL     OW17581   1.511   4.255   2.212
 5561SOL    HW117582   1.432   4.214   2.258
 5561SOL    HW217583   1.573   4.183   2.182
 5562SOL     OW17584   3.315   2.240   6.634
 5562SOL    HW117585   3.389   2.247   6.567
 5562SOL    HW217586   3.292   2.332   6.667
 5563SOL     OW17587   4.024   4.277   1.418
 5563SOL    HW117588   3.948   4.213   1.430
 5563SOL    HW217589   4.100   4.230   1.373
 5564SOL     OW17590   5.575   1.696   1.365
 5564SOL    HW117591   5.603   1.780   1.318
 5564SOL    HW217592   5.614   1.695   1.457
 5565SOL     OW17593   2.329   2.597   4.983
 5565SOL    HW117594   2.235   2.561   4.982
 5565SOL    HW217595   2.351   2.628   5.076
 5566SOL     OW17596   2.531   3.866   0.575
 5566SOL    HW117597   2.475   3.912   0.507
 5566SOL    HW217598   2.529   3.767   0.558
 5567SOL     OW17599   1.437   5.473   3.099
 5567SOL    HW117600   1.352   5.520   3.121
 5567SOL    HW217601   1.515   5.525   3.135
 5568SOL     OW17602   3.560   2.558   0.113
 5568SOL    HW117603   3.621   2.558   0.034
 5568SOL    HW217604   3.612   2.580   0.196
 5569SOL     OW17605   4.600   1.783   0.070
 5569SOL    HW117606   4.682   1.798   0.125
 5569SOL    HW217607   4.564   1.692   0.088
 5570SOL     OW17608   1.075   2.709   5.679
 5570SOL    HW117609   1.164   2.687   5.721
 5570SOL    HW217610   1.088   2.727   5.582
 5571SOL     OW17611   6.600   4.601   6.343
 5571SOL    HW117612   6.623   4.685   6.392
 5571SOL    HW217613   6.514   4.564   6.378
 5572SOL     OW17614   0.620   3.011   5.485
 5572SOL    HW117615   0.572   2.925   5.466
 5572SOL    HW217616   0.589   3.081   5.422
 5573SOL     OW17617   6.522   4.091   6.720
 5573SOL    HW117618   6.520   4.015   6.785
 5573SOL    HW217619   6.595   4.076   6.654
 5574SOL     OW17620   1.827   6.772   3.910
 5574SOL    HW117621   1.822   6.855   3.966
 5574SOL    HW217622   1.766   6.703   3.947
 5575SOL     OW17623   0.819   1.568   2.897
 5575SOL    HW117624   0.839   1.557   2.994
 5575SOL    HW217625   0.723   1.549   2.880
 5576SOL     OW17626   5.675   6.528   5.531
 5576SOL    HW117627   5.727   6.608   5.502
 5576SOL    HW217628   5.732   6.446   5.525
 5577SOL     OW17629   2.287   4.245   4.577
 5577SOL    HW117630   2.296   4.161   4.524
 5577SOL    HW217631   2.254   4.224   4.669
 5578SOL     OW17632   3.842   2.514   6.193
 5578SOL    HW117633   3.926   2.567   6.178
 5578SOL    HW217634   3.779   2.530   6.118
 5579SOL     OW17635   5.279   4.869   1.863
 5579SOL    HW117636   5.361   4.870   1.806
 5579SOL    HW217637   5.203   4.911   1.814
 5580SOL     OW17638   5.536   1.443   1.685
 5580SOL    HW117639   5.548   1.411   1.592
 5580SOL    HW217640   5.451   1.495   1.692
 5581SOL     OW17641   3.419   2.596   0.518
 5581SOL    HW117642   3.429   2.682   0.569
 5581SOL    HW217643   3.347   2.607   0.450
 5582SOL     OW17644   3.216   2.982   3.142
 5582SOL    HW117645   3.278   2.971   3.065
 5582SOL    HW217646   3.145   3.049   3.119
 5583SOL     OW17647   3.778   0.462   0.219
 5583SOL    HW117648   3.712   0.392   0.190
 5583SOL    HW217649   3.857   0.417   0.262
 5584SOL     OW17650   4.972   3.725   3.805
 5584SOL    HW117651   5.030   3.770   3.872
 5584SOL    HW217652   4.943   3.636   3.840
 5585SOL     OW17653   0.475   0.139   3.375
 5585SOL    HW117654   0.394   0.193   3.353
 5585SOL    HW217655   0.487   0.067   3.307
 5586SOL     OW17656   2.203   0.784   6.722
 5586SOL    HW117657   2.202   0.851   6.796
 5586SOL    HW217658   2.126   0.721   6.733
 5587SOL     OW17659   3.746   6.204   3.526
 5587SOL    HW117660   3.748   6.165   3.618
 5587SOL    HW217661   3.653   6.235   3.505
 5588SOL     OW17662   5.445   6.393   6.486
 5588SOL    HW117663   5.397   6.324   6.431
 5588SOL    HW217664   5.383   6.467   6.509
 5589SOL     OW17665   2.086   4.037   0.321
 5589SOL    HW117666   2.118   4.119   0.274
 5589SOL    HW217667   2.132   3.957   0.283
 5590SOL     OW17668   6.852   0.251   3.690
 5590SOL    HW117669   6.917   0.199   3.746
 5590SOL    HW217670   6.843   0.344   3.727
 5591SOL     OW17671   5.869   0.230   0.557
 5591SOL    HW117672   5.888   0.283   0.474
 5591SOL    HW217673   5.772   0.233   0.577
 5592SOL     OW17674   1.361   2.989   2.767
 5592SOL    HW117675   1.325   3.063   2.710
 5592SOL    HW217676   1.352   2.902   2.719
 5593SOL     OW17677   2.177   4.179   4.828
 5593SOL    HW117678   2.078   4.169   4.817
 5593SOL    HW217679   2.210   4.112   4.895
 5594SOL     OW17680   2.493   1.380   6.241
 5594SOL    HW117681   2.557   1.435   6.295
 5594SOL    HW217682   2.524   1.285   6.239
 5595SOL     OW17683   0.878   3.160   6.747
 5595SOL    HW117684   0.835   3.073   6.724
 5595SOL    HW217685   0.855   3.228   6.677
 5596SOL     OW17686   4.972   3.609   4.113
 5596SOL    HW117687   4.915   3.584   4.034
 5596SOL    HW217688   4.959   3.541   4.186
 5597SOL     OW17689   6.984   1.752   6.591
 5597SOL    HW117690   6.903   1.782   6.541
 5597SOL    HW217691   6.983   1.793   6.683
 5598SOL     OW17692   6.161   1.013   4.012
 5598SOL    HW117693   6.110   1.078   3.955
 5598SOL    HW217694   6.097   0.951   4.057
 5599SOL     OW17695   5.377   3.147   2.986
 5599SOL    HW117696   5.379   3.049   3.006
 5599SOL    HW217697   5.341   3.197   3.065
 5600SOL     OW17698   1.942   2.729   1.842
 5600SOL    HW117699   2.036   2.712   1.813
 5600SOL    HW217700   1.924   2.682   1.928
 5601SOL     OW17701   5.789   2.596   6.663
 5601SOL    HW117702   5.797   2.546   6.749
 5601SOL    HW217703   5.695   2.592   6.631
 5602SOL     OW17704   6.467   1.935   3.236
 5602SOL    HW117705   6.441   1.880   3.156
 5602SOL    HW217706   6.517   1.877   3.300
 5603SOL     OW17707   3.711   2.276   6.216
 5603SOL    HW117708   3.786   2.343   6.221
 5603SOL    HW217709   3.661   2.289   6.130
 5604SOL     OW17710   1.198   5.594   3.140
 5604SOL    HW117711   1.159   5.686   3.137
 5604SOL    HW217712   1.164   5.546   3.221
 5605SOL     OW17713   3.697   0.042   4.414
 5605SOL    HW117714   3.643   0.079   4.338
 5605SOL    HW217715   3.659   6.974   4.441
 5606SOL     OW17716   4.351   3.392   1.069
 5606SOL    HW117717   4.429   3.365   1.126
 5606SOL    HW217718   4.285   3.441   1.125
 5607SOL     OW17719   0.550   2.485   2.933
 5607SOL    HW117720   0.601   2.444   3.009
 5607SOL    HW217721   0.513   2.412   2.875
 5608SOL     OW17722   6.197   0.234   3.806
 5608SOL    HW117723   6.114   0.190   3.839
 5608SOL    HW217724   6.181   0.332   3.794
 5609SOL     OW17725   6.424   0.739   0.006
 5609SOL    HW117726   6.431   0.645   0.040
 5609SOL    HW217727   6.516   0.780   0.004
 5610SOL     OW17728   5.820   6.208   5.940
 5610SOL    HW117729   5.816   6.303   5.908
 5610SOL    HW217730   5.747   6.156   5.896
 5611SOL     OW17731   6.785   3.748   1.404
 5611SOL    HW117732   6.817   3.790   1.318
 5611SOL    HW217733   6.798   3.813   1.479
 5612SOL     OW17734   4.548   2.089   1.463
 5612SOL    HW117735   4.510   1.997   1.447
 5612SOL    HW217736   4.494   2.135   1.534
 5613SOL     OW17737   6.628   5.252   5.305
 5613SOL    HW117738   6.549   5.304   5.337
 5613SOL    HW217739   6.612   5.154   5.321
 5614SOL     OW17740   5.197   2.091   4.882
 5614SOL    HW117741   5.183   2.006   4.934
 5614SOL    HW217742   5.278   2.081   4.825
 5615SOL     OW17743   0.483   3.293   2.844
 5615SOL    HW117744   0.570   3.264   2.805
 5615SOL    HW217745   0.490   3.387   2.877
 5616SOL     OW17746   1.611   3.274   1.797
 5616SOL    HW117747   1.708   3.252   1.797
 5616SOL    HW217748   1.578   3.278   1.892
 5617SOL     OW17749   0.601   5.151   5.816
 5617SOL    HW117750   0.509   5.189   5.805
 5617SOL    HW217751   0.611   5.114   5.908
 5618SOL     OW17752   4.750   0.141   2.904
 5618SOL    HW117753   4.717   0.159   2.997
 5618SOL    HW217754   4.849   0.153   2.900
 5619SOL     OW17755   2.896   3.581   3.330
 5619SOL    HW117756   2.983   3.629   3.319
 5619SOL    HW217757   2.878   3.567   3.427
 5620SOL     OW17758   5.118   4.885   5.473
 5620SOL    HW117759   5.082   4.871   5.565
 5620SOL    HW217760   5.181   4.810   5.450
 5621SOL     OW17761   1.351   3.254   6.268
 5621SOL    HW117762   1.429   3.207   6.228
 5621SOL    HW217763   1.302   3.304   6.195
 5622SOL     OW17764   5.916   5.633   3.372
 5622SOL    HW117765   5.947   5.558   3.314
 5622SOL    HW217766   5.948   5.720   3.333
 5623SOL     OW17767   4.683   4.700   3.836
 5623SOL    HW117768   4.626   4.637   3.890
 5623SOL    HW217769   4.780   4.684   3.858
 5624SOL     OW17770   5.159   4.001   3.712
 5624SOL    HW117771   5.101   3.943   3.655
 5624SOL    HW217772   5.146   3.976   3.808
 5625SOL     OW17773   2.956   6.526   6.283
 5625SOL    HW117774   2.893   6.488   6.215
 5625SOL    HW217775   2.964   6.462   6.360
 5626SOL     OW17776   1.954   5.126   6.593
 5626SOL    HW117777   1.901   5.049   6.628
 5626SOL    HW217778   1.915   5.157   6.506
 5627SOL     OW17779   1.210   5.364   0.713
 5627SOL    HW117780   1.176   5.302   0.642
 5627SOL    HW217781   1.188   5.326   0.803
 5628SOL     OW17782   1.861   2.976   0.047
 5628SOL    HW117783   1.843   3.071   0.022
 5628SOL    HW217784   1.940   2.942   7.016
 5629SOL     OW17785   0.011   3.491   4.449
 5629SOL    HW117786   7.007   3.509   4.544
 5629SOL    HW217787   0.013   3.576   4.397
 5630SOL     OW17788   1.806   4.435   0.485
 5630SOL    HW117789   1.735   4.429   0.555
 5630SOL    HW217790   1.887   4.481   0.523
 5631SOL     OW17791   4.060   0.502   2.649
 5631SOL    HW117792   4.134   0.507   2.581
 5631SOL    HW217793   3.973   0.519   2.604
 5632SOL     OW17794   3.621   6.597   6.538
 5632SOL    HW117795   3.637   6.632   6.446
 5632SOL    HW217796   3.523   6.592   6.554
 5633SOL     OW17797   1.443   5.408   5.470
 5633SOL    HW117798   1.490   5.457   5.397
 5633SOL    HW217799   1.496   5.415   5.554
 5634SOL     OW17800   2.767   0.650   2.008
 5634SOL    HW117801   2.723   0.676   1.922
 5634SOL    HW217802   2.857   0.694   2.014
 5635SOL     OW17803   3.675   0.388   2.401
 5635SOL    HW117804   3.689   0.320   2.474
 5635SOL    HW217805   3.730   0.469   2.420
 5636SOL     OW17806   5.346   0.213   4.878
 5636SOL    HW117807   5.420   0.276   4.902
 5636SOL    HW217808   5.268   0.264   4.843
 5637SOL     OW17809   5.148   6.812   5.366
 5637SOL    HW117810   5.230   6.864   5.344
 5637SOL    HW217811   5.077   6.874   5.402
 5638SOL     OW17812   0.213   5.662   0.212
 5638SOL    HW117813   0.260   5.602   0.276
 5638SOL    HW217814   0.191   5.611   0.129
 5639SOL     OW17815   3.058   6.920   2.323
 5639SOL    HW117816   3.098   7.004   2.361
 5639SOL    HW217817   2.996   6.943   2.248
 5640SOL     OW17818   3.479   0.156   3.834
 5640SOL    HW117819   3.519   0.155   3.742
 5640SOL    HW217820   3.519   0.083   3.889
 5641SOL     OW17821   6.484   4.705   3.664
 5641SOL    HW117822   6.400   4.658   3.636
 5641SOL    HW217823   6.465   4.803   3.675
 5642SOL     OW17824   2.509   2.668   6.210
 5642SOL    HW117825   2.424   2.716   6.189
 5642SOL    HW217826   2.491   2.592   6.273
 5643SOL     OW17827   5.868   3.072   3.845
 5643SOL    HW117828   5.903   3.070   3.752
 5643SOL    HW217829   5.839   2.981   3.873
 5644SOL     OW17830   3.485   0.637   6.047
 5644SOL    HW117831   3.572   0.603   6.083
 5644SOL    HW217832   3.410   0.581   6.082
 5645SOL     OW17833   5.916   6.800   2.957
 5645SOL    HW117834   5.917   6.894   2.991
 5645SOL    HW217835   5.823   6.775   2.930
 5646SOL     OW17836   6.302   0.218   3.555
 5646SOL    HW117837   6.252   0.222   3.641
 5646SOL    HW217838   6.394   0.182   3.570
 5647SOL     OW17839   5.829   3.734   6.536
 5647SOL    HW117840   5.783   3.792   6.603
 5647SOL    HW217841   5.765   3.663   6.504
 5648SOL     OW17842   2.324   1.658   4.279
 5648SOL    HW117843   2.259   1.609   4.220
 5648SOL    HW217844   2.299   1.755   4.283
 5649SOL     OW17845   0.711   0.440   5.127
 5649SOL    HW117846   0.806   0.447   5.097
 5649SOL    HW217847   0.685   0.343   5.132
 5650SOL     OW17848   7.013   4.866   5.155
 5650SOL    HW117849   6.980   4.787   5.208
 5650SOL    HW217850   0.082   4.893   5.188
 5651SOL     OW17851   5.889   0.501   2.550
 5651SOL    HW117852   5.979   0.537   2.574
 5651SOL    HW217853   5.849   0.557   2.478
 5652SOL     OW17854   5.090   4.447   6.932
 5652SOL    HW117855   5.104   4.535   6.886
 5652SOL    HW217856   5.170   4.425   6.987
 5653SOL     OW17857   1.992   6.032   6.944
 5653SOL    HW117858   1.938   6.050   6.861
 5653SOL    HW217859   1.994   5.933   6.961
 5654SOL     OW17860   1.690   0.130   0.199
 5654SOL    HW117861   1.635   0.092   0.274
 5654SOL    HW217862   1.633   0.142   0.118
 5655SOL     OW17863   6.298   4.970   3.132
 5655SOL    HW117864   6.299   5.065   3.165
 5655SOL    HW217865   6.253   4.967   3.042
 5656SOL     OW17866   3.641   5.357   6.386
 5656SOL    HW117867   3.629   5.348   6.485
 5656SOL    HW217868   3.598   5.441   6.355
 5657SOL     OW17869   4.615   5.071   1.849
 5657SOL    HW117870   4.649   5.143   1.910
 5657SOL    HW217871   4.567   5.113   1.772
 5658SOL     OW17872   4.469   6.476   5.821
 5658SOL    HW117873   4.378   6.516   5.821
 5658SOL    HW217874   4.534   6.540   5.781
 5659SOL     OW17875   3.656   4.099   3.231
 5659SOL    HW117876   3.701   4.060   3.151
 5659SOL    HW217877   3.708   4.078   3.313
 5660SOL     OW17878   6.875   5.566   1.704
 5660SOL    HW117879   6.781   5.551   1.676
 5660SOL    HW217880   6.905   5.656   1.672
 5661SOL     OW17881   6.165   5.943   4.645
 5661SOL    HW117882   6.193   6.016   4.708
 5661SOL    HW217883   6.246   5.898   4.608
 5662SOL     OW17884   1.732   5.109   4.413
 5662SOL    HW117885   1.760   5.134   4.321
 5662SOL    HW217886   1.754   5.013   4.431
 5663SOL     OW17887   2.521   3.666   1.047
 5663SOL    HW117888   2.421   3.668   1.041
 5663SOL    HW217889   2.560   3.705   0.963
 5664SOL     OW17890   6.430   6.082   1.956
 5664SOL    HW117891   6.419   6.119   1.864
 5664SOL    HW217892   6.402   6.150   2.023
 5665SOL     OW17893   1.310   0.997   5.796
 5665SOL    HW117894   1.381   0.991   5.866
 5665SOL    HW217895   1.351   1.022   5.709
 5666SOL     OW17896   5.739   5.334   6.841
 5666SOL    HW117897   5.694   5.347   6.753
 5666SOL    HW217898   5.738   5.420   6.892
 5667SOL     OW17899   5.593   4.495   2.512
 5667SOL    HW117900   5.519   4.488   2.445
 5667SOL    HW217901   5.577   4.574   2.571
 5668SOL     OW17902   6.365   2.264   6.769
 5668SOL    HW117903   6.345   2.337   6.703
 5668SOL    HW217904   6.464   2.252   6.776
 5669SOL     OW17905   0.083   3.020   4.820
 5669SOL    HW117906   0.177   2.994   4.841
 5669SOL    HW217907   0.083   3.101   4.761
 5670SOL     OW17908   1.720   3.487   2.217
 5670SOL    HW117909   1.716   3.575   2.264
 5670SOL    HW217910   1.719   3.413   2.284
 5671SOL     OW17911   1.113   0.851   5.011
 5671SOL    HW117912   1.103   0.802   4.925
 5671SOL    HW217913   1.109   0.950   4.994
 5672SOL     OW17914   4.652   4.264   5.936
 5672SOL    HW117915   4.593   4.231   5.863
 5672SOL    HW217916   4.679   4.188   5.995
 5673SOL     OW17917   1.619   7.018   0.665
 5673SOL    HW117918   1.677   6.938   0.652
 5673SOL    HW217919   1.561   7.003   0.746
 5674SOL     OW17920   0.182   3.007   1.306
 5674SOL    HW117921   0.176   3.036   1.402
 5674SOL    HW217922   0.117   2.933   1.289
 5675SOL     OW17923   4.044   1.208   5.851
 5675SOL    HW117924   4.004   1.287   5.897
 5675SOL    HW217925   4.048   1.224   5.753
 5676SOL     OW17926   2.556   0.212   2.204
 5676SOL    HW117927   2.497   0.157   2.144
 5676SOL    HW217928   2.615   0.270   2.148
 5677SOL     OW17929   6.279   0.206   2.911
 5677SOL    HW117930   6.375   0.225   2.936
 5677SOL    HW217931   6.249   0.123   2.958
 5678SOL     OW17932   1.074   5.373   3.041
 5678SOL    HW117933   1.050   5.359   2.945
 5678SOL    HW217934   1.118   5.463   3.051
 5679SOL     OW17935   3.831   5.938   5.741
 5679SOL    HW117936   3.793   5.872   5.806
 5679SOL    HW217937   3.930   5.928   5.737
 5680SOL     OW17938   1.640   6.834   6.975
 5680SOL    HW117939   1.550   6.822   7.016
 5680SOL    HW217940   1.708   6.849   0.027
 5681SOL     OW17941   2.633   4.343   6.454
 5681SOL    HW117942   2.694   4.319   6.379
 5681SOL    HW217943   2.621   4.264   6.514
 5682SOL     OW17944   1.942   2.798   3.991
 5682SOL    HW117945   1.999   2.861   4.045
 5682SOL    HW217946   1.863   2.847   3.954
 5683SOL     OW17947   4.103   3.673   5.105
 5683SOL    HW117948   4.105   3.598   5.171
 5683SOL    HW217949   4.153   3.646   5.023
 5684SOL     OW17950   2.943   3.826   3.128
 5684SOL    HW117951   2.893   3.798   3.210
 5684SOL    HW217952   3.009   3.897   3.151
 5685SOL     OW17953   0.362   6.007   1.286
 5685SOL    HW117954   0.447   5.994   1.338
 5685SOL    HW217955   0.337   5.921   1.241
 5686SOL     OW17956   3.506   4.633   0.004
 5686SOL    HW117957   3.450   4.550   0.013
 5686SOL    HW217958   3.557   4.630   6.939
 5687SOL     OW17959   4.330   5.667   6.519
 5687SOL    HW117960   4.335   5.673   6.619
 5687SOL    HW217961   4.267   5.736   6.484
 5688SOL     OW17962   5.100   1.658   1.883
 5688SOL    HW117963   5.169   1.727   1.904
 5688SOL    HW217964   5.046   1.638   1.965
 5689SOL     OW17965   4.267   3.883   5.791
 5689SOL    HW117966   4.195   3.952   5.782
 5689SOL    HW217967   4.282   3.838   5.704
 5690SOL     OW17968   3.800   6.940   3.452
 5690SOL    HW117969   3.815   6.990   3.367
 5690SOL    HW217970   3.728   6.872   3.439
 5691SOL     OW17971   3.609   0.391   4.748
 5691SOL    HW117972   3.640   0.476   4.793
 5691SOL    HW217973   3.689   0.339   4.718
 5692SOL     OW17974   5.503   2.644   6.325
 5692SOL    HW117975   5.437   2.683   6.261
 5692SOL    HW217976   5.531   2.713   6.392
 5693SOL     OW17977   4.957   2.447   2.573
 5693SOL    HW117978   5.011   2.501   2.509
 5693SOL    HW217979   4.860   2.468   2.562
 5694SOL     OW17980   1.840   2.011   4.453
 5694SOL    HW117981   1.779   1.973   4.383
 5694SOL    HW217982   1.793   2.084   4.502
 5695SOL     OW17983   2.115   4.020   3.313
 5695SOL    HW117984   2.157   4.061   3.232
 5695SOL    HW217985   2.117   4.085   3.388
 5696SOL     OW17986   2.874   0.575   5.985
 5696SOL    HW117987   2.839   0.595   5.893
 5696SOL    HW217988   2.972   0.555   5.980
 5697SOL     OW17989   6.132   3.782   0.272
 5697SOL    HW117990   6.119   3.779   0.173
 5697SOL    HW217991   6.162   3.873   0.298
 5698SOL     OW17992   1.666   4.534   3.690
 5698SOL    HW117993   1.598   4.564   3.758
 5698SOL    HW217994   1.757   4.560   3.721
 5699SOL     OW17995   0.170   2.466   5.297
 5699SOL    HW117996   0.078   2.460   5.337
 5699SOL    HW217997   0.230   2.398   5.340
 5700SOL     OW17998   1.174   5.355   3.614
 5700SOL    HW117999   1.194   5.265   3.652
 5700SOL    HW218000   1.079   5.379   3.631
 5701SOL     OW18001   4.821   3.932   2.909
 5701SOL    HW118002   4.919   3.917   2.899
 5701SOL    HW218003   4.782   3.858   2.965
 5702SOL     OW18004   3.236   0.532   6.773
 5702SOL    HW118005   3.189   0.620   6.768
 5702SOL    HW218006   3.282   0.524   6.861
 5703SOL     OW18007   4.593   4.420   1.741
 5703SOL    HW118008   4.538   4.366   1.805
 5703SOL    HW218009   4.557   4.513   1.736
 5704SOL     OW18010   5.052   4.207   3.487
 5704SOL    HW118011   5.137   4.162   3.460
 5704SOL    HW218012   5.036   4.285   3.427
 5705SOL     OW18013   6.350   1.558   3.928
 5705SOL    HW118014   6.339   1.651   3.962
 5705SOL    HW218015   6.446   1.543   3.902
 5706SOL     OW18016   1.931   1.191   6.492
 5706SOL    HW118017   1.883   1.252   6.429
 5706SOL    HW218018   1.902   1.097   6.476
 5707SOL     OW18019   3.839   1.597   0.117
 5707SOL    HW118020   3.752   1.636   0.088
 5707SOL    HW218021   3.857   1.622   0.212
 5708SOL     OW18022   6.665   0.100   0.967
 5708SOL    HW118023   6.757   0.080   0.998
 5708SOL    HW218024   6.668   0.149   0.880
 5709SOL     OW18025   1.303   2.524   0.909
 5709SOL    HW118026   1.391   2.477   0.918
 5709SOL    HW218027   1.308   2.589   0.833
 5710SOL     OW18028   3.450   4.551   0.518
 5710SOL    HW118029   3.423   4.643   0.487
 5710SOL    HW218030   3.548   4.538   0.502
 5711SOL     OW18031   5.405   1.774   5.014
 5711SOL    HW118032   5.360   1.766   4.925
 5711SOL    HW218033   5.434   1.868   5.028
 5712SOL     OW18034   6.205   6.459   0.039
 5712SOL    HW118035   6.175   6.545   0.081
 5712SOL    HW218036   6.305   6.455   0.039
 5713SOL     OW18037   0.186   2.493   2.725
 5713SOL    HW118038   0.252   2.441   2.779
 5713SOL    HW218039   0.230   2.574   2.688
 5714SOL     OW18040   2.036   0.545   6.481
 5714SOL    HW118041   2.037   0.618   6.413
 5714SOL    HW218042   1.997   0.578   6.567
 5715SOL     OW18043   1.679   0.139   3.316
 5715SOL    HW118044   1.751   0.207   3.330
 5715SOL    HW218045   1.637   0.153   3.227
 5716SOL     OW18046   1.726   2.271   5.246
 5716SOL    HW118047   1.732   2.216   5.163
 5716SOL    HW218048   1.813   2.317   5.262
 5717SOL     OW18049   0.687   3.284   5.852
 5717SOL    HW118050   0.743   3.340   5.791
 5717SOL    HW218051   0.746   3.244   5.923
 5718SOL     OW18052   2.546   4.937   6.291
 5718SOL    HW118053   2.638   4.974   6.304
 5718SOL    HW218054   2.518   4.950   6.196
 5719SOL     OW18055   2.248   0.727   0.847
 5719SOL    HW118056   2.314   0.795   0.878
 5719SOL    HW218057   2.235   0.736   0.748
 5720SOL     OW18058   1.532   5.952   3.829
 5720SOL    HW118059   1.550   6.050   3.822
 5720SOL    HW218060   1.618   5.902   3.833
 5721SOL     OW18061   6.513   3.858   0.098
 5721SOL    HW118062   6.487   3.871   0.193
 5721SOL    HW218063   6.436   3.885   0.039
 5722SOL     OW18064   5.515   1.271   3.961
 5722SOL    HW118065   5.452   1.199   3.932
 5722SOL    HW218066   5.602   1.261   3.912
 5723SOL     OW18067   0.514   4.667   1.245
 5723SOL    HW118068   0.428   4.650   1.197
 5723SOL    HW218069   0.529   4.766   1.252
 5724SOL     OW18070   4.813   2.789   5.763
 5724SOL    HW118071   4.739   2.766   5.826
 5724SOL    HW218072   4.807   2.886   5.738
 5725SOL     OW18073   5.380   6.514   5.488
 5725SOL    HW118074   5.476   6.520   5.515
 5725SOL    HW218075   5.370   6.545   5.393
 5726SOL     OW18076   4.215   4.532   5.720
 5726SOL    HW118077   4.264   4.583   5.791
 5726SOL    HW218078   4.117   4.537   5.738
 5727SOL     OW18079   5.654   2.487   4.254
 5727SOL    HW118080   5.577   2.438   4.294
 5727SOL    HW218081   5.720   2.510   4.325
 5728SOL     OW18082   4.555   0.555   5.365
 5728SOL    HW118083   4.551   0.464   5.324
 5728SOL    HW218084   4.638   0.602   5.335
 5729SOL     OW18085   1.294   3.027   3.916
 5729SOL    HW118086   1.220   2.968   3.947
 5729SOL    HW218087   1.325   3.085   3.992
 5730SOL     OW18088   4.203   4.774   0.308
 5730SOL    HW118089   4.212   4.722   0.392
 5730SOL    HW218090   4.243   4.865   0.321
 5731SOL     OW18091   4.473   1.392   4.760
 5731SOL    HW118092   4.562   1.438   4.768
 5731SOL    HW218093   4.405   1.440   4.815
 5732SOL     OW18094   5.431   4.488   4.745
 5732SOL    HW118095   5.414   4.403   4.695
 5732SOL    HW218096   5.440   4.564   4.680
 5733SOL     OW18097   2.657   0.396   2.012
 5733SOL    HW118098   2.584   0.425   1.950
 5733SOL    HW218099   2.718   0.474   2.029
 5734SOL     OW18100   1.815   6.655   6.008
 5734SOL    HW118101   1.861   6.622   5.926
 5734SOL    HW218102   1.813   6.755   6.007
 5735SOL     OW18103   5.536   0.885   1.349
 5735SOL    HW118104   5.477   0.959   1.317
 5735SOL    HW218105   5.583   0.914   1.432
 5736SOL     OW18106   5.603   3.590   6.379
 5736SOL    HW118107   5.644   3.517   6.324
 5736SOL    HW218108   5.586   3.670   6.320
 5737SOL     OW18109   5.411   5.823   2.229
 5737SOL    HW118110   5.369   5.913   2.223
 5737SOL    HW218111   5.482   5.823   2.300
 5738SOL     OW18112   2.407   0.773   1.148
 5738SOL    HW118113   2.441   0.737   1.061
 5738SOL    HW218114   2.414   0.702   1.218
 5739SOL     OW18115   2.348   0.804   5.078
 5739SOL    HW118116   2.357   0.748   4.996
 5739SOL    HW218117   2.431   0.858   5.091
 5740SOL     OW18118   4.918   3.366   2.179
 5740SOL    HW118119   4.906   3.376   2.080
 5740SOL    HW218120   4.878   3.445   2.226
 5741SOL     OW18121   1.420   3.371   4.323
 5741SOL    HW118122   1.489   3.433   4.361
 5741SOL    HW218123   1.360   3.422   4.260
 5742SOL     OW18124   6.004   5.874   2.453
 5742SOL    HW118125   5.991   5.913   2.544
 5742SOL    HW218126   5.977   5.778   2.453
 5743SOL     OW18127   3.586   5.578   0.490
 5743SOL    HW118128   3.639   5.617   0.565
 5743SOL    HW218129   3.637   5.503   0.448
 5744SOL     OW18130   5.137   6.038   3.449
 5744SOL    HW118131   5.156   5.941   3.461
 5744SOL    HW218132   5.046   6.049   3.409
 5745SOL     OW18133   1.359   3.258   2.587
 5745SOL    HW118134   1.407   3.192   2.529
 5745SOL    HW218135   1.265   3.226   2.602
 5746SOL     OW18136   5.360   0.389   2.949
 5746SOL    HW118137   5.457   0.385   2.924
 5746SOL    HW218138   5.340   0.318   3.017
 5747SOL     OW18139   2.007   6.902   1.591
 5747SOL    HW118140   2.010   6.994   1.553
 5747SOL    HW218141   1.913   6.878   1.613
 5748SOL     OW18142   5.836   6.529   6.997
 5748SOL    HW118143   5.883   6.570   0.054
 5748SOL    HW218144   5.850   6.430   6.999
 5749SOL     OW18145   1.732   6.082   6.108
 5749SOL    HW118146   1.820   6.037   6.122
 5749SOL    HW218147   1.731   6.125   6.017
 5750SOL     OW18148   6.583   2.817   4.112
 5750SOL    HW118149   6.616   2.732   4.154
 5750SOL    HW218150   6.660   2.870   4.078
 5751SOL     OW18151   0.402   3.511   4.499
 5751SOL    HW118152   0.351   3.590   4.532
 5751SOL    HW218153   0.408   3.515   4.399
 5752SOL     OW18154   5.439   0.988   0.384
 5752SOL    HW118155   5.509   1.057   0.402
 5752SOL    HW218156   5.371   0.990   0.457
 5753SOL     OW18157   3.857   3.955   4.511
 5753SOL    HW118158   3.854   3.946   4.610
 5753SOL    HW218159   3.805   3.881   4.469
 5754SOL     OW18160   6.449   5.834   1.084
 5754SOL    HW118161   6.446   5.928   1.050
 5754SOL    HW218162   6.356   5.797   1.086
 5755SOL     OW18163   1.500   3.084   6.838
 5755SOL    HW118164   1.505   2.987   6.863
 5755SOL    HW218165   1.480   3.092   6.741
 5756SOL     OW18166   6.436   6.367   1.851
 5756SOL    HW118167   6.459   6.300   1.781
 5756SOL    HW218168   6.348   6.409   1.829
 5757SOL     OW18169   0.305   1.362   3.577
 5757SOL    HW118170   0.266   1.449   3.607
 5757SOL    HW218171   0.334   1.309   3.656
 5758SOL     OW18172   6.128   6.635   3.029
 5758SOL    HW118173   6.147   6.662   3.124
 5758SOL    HW218174   6.052   6.689   2.994
 5759SOL     OW18175   2.368   0.038   2.402
 5759SOL    HW118176   2.313   0.118   2.422
 5759SOL    HW218177   2.458   0.047   2.444
 5760SOL     OW18178   0.874   1.899   6.589
 5760SOL    HW118179   0.956   1.948   6.617
 5760SOL    HW218180   0.889   1.860   6.497
 5761SOL     OW18181   6.667   6.309   4.855
 5761SOL    HW118182   6.706   6.358   4.932
 5761SOL    HW218183   6.603   6.368   4.806
 5762SOL     OW18184   0.924   5.579   5.862
 5762SOL    HW118185   0.982   5.626   5.795
 5762SOL    HW218186   0.875   5.504   5.817
 5763SOL     OW18187   5.588   0.274   0.583
 5763SOL    HW118188   5.613   0.348   0.645
 5763SOL    HW218189   5.524   0.212   0.628
 5764SOL     OW18190   4.760   6.409   4.191
 5764SOL    HW118191   4.726   6.315   4.199
 5764SOL    HW218192   4.762   6.452   4.281
 5765SOL     OW18193   6.807   5.174   2.270
 5765SOL    HW118194   6.761   5.085   2.269
 5765SOL    HW218195   6.812   5.211   2.177
 5766SOL     OW18196   0.801   1.652   3.865
 5766SOL    HW118197   0.762   1.566   3.833
 5766SOL    HW218198   0.793   1.657   3.965
 5767SOL     OW18199   4.254   6.726   0.465
 5767SOL    HW118200   4.214   6.730   0.374
 5767SOL    HW218201   4.265   6.818   0.502
 5768SOL     OW18202   1.324   0.855   5.277
 5768SOL    HW118203   1.384   0.784   5.314
 5768SOL    HW218204   1.263   0.815   5.209
 5769SOL     OW18205   0.801   2.998   5.684
 5769SOL    HW118206   0.745   3.008   5.602
 5769SOL    HW218207   0.851   3.083   5.701
 5770SOL     OW18208   1.953   4.569   2.072
 5770SOL    HW118209   1.973   4.589   2.168
 5770SOL    HW218210   1.890   4.492   2.066
 5771SOL     OW18211   2.649   4.955   3.758
 5771SOL    HW118212   2.646   4.885   3.687
 5771SOL    HW218213   2.610   5.040   3.723
 5772SOL     OW18214   3.045   0.219   3.109
 5772SOL    HW118215   2.959   0.205   3.158
 5772SOL    HW218216   3.050   0.313   3.076
 5773SOL     OW18217   5.550   1.027   3.390
 5773SOL    HW118218   5.458   1.048   3.357
 5773SOL    HW218219   5.614   1.097   3.358
 5774SOL     OW18220   1.320   0.003   3.139
 5774SOL    HW118221   1.241   6.996   3.084
 5774SOL    HW218222   1.352   6.946   3.194
 5775SOL     OW18223   5.944   5.015   2.189
 5775SOL    HW118224   5.923   5.033   2.286
 5775SOL    HW218225   5.922   5.096   2.135
 5776SOL     OW18226   2.896   1.202   4.324
 5776SOL    HW118227   2.877   1.278   4.262
 5776SOL    HW218228   2.973   1.149   4.289
 5777SOL     OW18229   1.266   0.313   1.505
 5777SOL    HW118230   1.208   0.298   1.585
 5777SOL    HW218231   1.343   0.371   1.530
 5778SOL     OW18232   6.858   0.412   0.678
 5778SOL    HW118233   6.903   0.483   0.624
 5778SOL    HW218234   6.867   0.433   0.775
 5779SOL     OW18235   5.731   1.345   6.902
 5779SOL    HW118236   5.827   1.330   6.927
 5779SOL    HW218237   5.676   1.351   6.985
 5780SOL     OW18238   5.151   4.862   4.122
 5780SOL    HW118239   5.198   4.907   4.046
 5780SOL    HW218240   5.062   4.905   4.136
 5781SOL     OW18241   1.639   5.391   6.032
 5781SOL    HW118242   1.646   5.293   6.049
 5781SOL    HW218243   1.704   5.440   6.090
 5782SOL     OW18244   0.045   0.865   6.903
 5782SOL    HW118245   0.026   0.767   6.916
 5782SOL    HW218246   6.996   0.919   6.952
 5783SOL     OW18247   2.504   2.522   0.034
 5783SOL    HW118248   2.494   2.588   0.109
 5783SOL    HW218249   2.521   2.572   6.969
 5784SOL     OW18250   6.927   6.530   6.604
 5784SOL    HW118251   6.936   6.447   6.548
 5784SOL    HW218252   7.011   6.543   6.656
 5785SOL     OW18253   1.414   1.077   0.681
 5785SOL    HW118254   1.366   1.038   0.602
 5785SOL    HW218255   1.492   1.130   0.649
 5786SOL     OW18256   6.413   5.327   1.318
 5786SOL    HW118257   6.489   5.391   1.319
 5786SOL    HW218258   6.448   5.234   1.305
 5787SOL     OW18259   2.167   2.970   5.839
 5787SOL    HW118260   2.243   3.032   5.858
 5787SOL    HW218261   2.105   3.013   5.774
 5788SOL     OW18262   3.148   0.850   3.871
 5788SOL    HW118263   3.095   0.823   3.791
 5788SOL    HW218264   3.245   0.857   3.847
 5789SOL     OW18265   3.784   5.163   6.288
 5789SOL    HW118266   3.730   5.238   6.326
 5789SOL    HW218267   3.822   5.191   6.200
 5790SOL     OW18268   0.980   3.796   3.617
 5790SOL    HW118269   0.892   3.812   3.571
 5790SOL    HW218270   1.051   3.851   3.574
 5791SOL     OW18271   2.028   0.732   3.158
 5791SOL    HW118272   2.052   0.718   3.255
 5791SOL    HW218273   2.069   0.660   3.103
 5792SOL     OW18274   0.027   2.278   2.684
 5792SOL    HW118275   0.038   2.204   2.618
 5792SOL    HW218276   0.075   2.359   2.651
 5793SOL     OW18277   6.419   0.739   4.702
 5793SOL    HW118278   6.366   0.661   4.670
 5793SOL    HW218279   6.492   0.759   4.637
 5794SOL     OW18280   5.968   4.736   6.211
 5794SOL    HW118281   6.019   4.665   6.161
 5794SOL    HW218282   5.894   4.770   6.153
 5795SOL     OW18283   5.744   4.069   6.588
 5795SOL    HW118284   5.652   4.099   6.561
 5795SOL    HW218285   5.801   4.059   6.506
 5796SOL     OW18286   3.084   2.226   0.597
 5796SOL    HW118287   3.169   2.278   0.602
 5796SOL    HW218288   3.023   2.268   0.530
 5797SOL     OW18289   2.968   2.364   5.519
 5797SOL    HW118290   2.907   2.332   5.446
 5797SOL    HW218291   2.922   2.355   5.607
 5798SOL     OW18292   6.691   5.385   4.528
 5798SOL    HW118293   6.708   5.364   4.432
 5798SOL    HW218294   6.629   5.316   4.567
 5799SOL     OW18295   5.122   1.008   4.105
 5799SOL    HW118296   5.049   1.075   4.096
 5799SOL    HW218297   5.092   0.921   4.067
 5800SOL     OW18298   6.206   5.766   6.915
 5800SOL    HW118299   6.187   5.818   6.832
 5800SOL    HW218300   6.217   5.829   6.992
 5801SOL     OW18301   1.956   0.931   2.711
 5801SOL    HW118302   1.953   0.904   2.614
 5801SOL    HW218303   2.037   0.987   2.727
 5802SOL     OW18304   0.992   2.740   4.855
 5802SOL    HW118305   0.898   2.773   4.861
 5802SOL    HW218306   1.018   2.732   4.759
 5803SOL     OW18307   1.541   4.667   0.852
 5803SOL    HW118308   1.549   4.665   0.952
 5803SOL    HW218309   1.595   4.743   0.816
 5804SOL     OW18310   6.644   2.842   6.163
 5804SOL    HW118311   6.654   2.743   6.152
 5804SOL    HW218312   6.651   2.866   6.259
 5805SOL     OW18313   5.950   3.445   6.649
 5805SOL    HW118314   6.023   3.410   6.590
 5805SOL    HW218315   5.889   3.369   6.674
 5806SOL     OW18316   0.024   6.905   6.560
 5806SOL    HW118317   0.055   6.997   6.536
 5806SOL    HW218318   7.016   6.857   6.477
 5807SOL     OW18319   2.250   3.650   1.708
 5807SOL    HW118320   2.275   3.585   1.780
 5807SOL    HW218321   2.308   3.634   1.628
 5808SOL     OW18322   6.269   1.694   3.427
 5808SOL    HW118323   6.193   1.658   3.481
 5808SOL    HW218324   6.297   1.782   3.465
 5809SOL     OW18325   0.280   3.171   4.336
 5809SOL    HW118326   0.376   3.193   4.322
 5809SOL    HW218327   0.223   3.236   4.287
 5810SOL     OW18328   2.320   2.157   2.795
 5810SOL    HW118329   2.404   2.140   2.846
 5810SOL    HW218330   2.289   2.251   2.811
 5811SOL     OW18331   2.945   0.800   2.247
 5811SOL    HW118332   2.993   0.821   2.332
 5811SOL    HW218333   2.860   0.752   2.268
 5812SOL     OW18334   4.500   0.586   4.491
 5812SOL    HW118335   4.552   0.601   4.575
 5812SOL    HW218336   4.500   0.670   4.437
 5813SOL     OW18337   1.484   1.163   5.033
 5813SOL    HW118338   1.515   1.069   5.049
 5813SOL    HW218339   1.423   1.190   5.107
 5814SOL     OW18340   7.018   5.055   0.557
 5814SOL    HW118341   6.983   5.005   0.478
 5814SOL    HW218342   6.978   5.146   0.559
 5815SOL     OW18343   3.579   1.267   3.669
 5815SOL    HW118344   3.598   1.256   3.571
 5815SOL    HW218345   3.492   1.315   3.680
 5816SOL     OW18346   4.871   6.931   1.138
 5816SOL    HW118347   4.800   6.939   1.207
 5816SOL    HW218348   4.922   7.017   1.132
 5817SOL     OW18349   5.848   2.050   6.008
 5817SOL    HW118350   5.869   2.023   6.102
 5817SOL    HW218351   5.931   2.043   5.952
 5818SOL     OW18352   6.028   6.376   5.781
 5818SOL    HW118353   6.086   6.329   5.715
 5818SOL    HW218354   5.993   6.460   5.739
 5819SOL     OW18355   5.421   0.450   1.150
 5819SOL    HW118356   5.434   0.429   1.246
 5819SOL    HW218357   5.429   0.548   1.135
 5820SOL     OW18358   5.776   5.373   2.367
 5820SOL    HW118359   5.679   5.374   2.343
 5820SOL    HW218360   5.797   5.289   2.417
 5821SOL     OW18361   3.216   6.706   2.273
 5821SOL    HW118362   3.208   6.648   2.353
 5821SOL    HW218363   3.162   6.790   2.287
 5822SOL     OW18364   0.808   1.254   2.225
 5822SOL    HW118365   0.887   1.227   2.170
 5822SOL    HW218366   0.803   1.354   2.229
 5823SOL     OW18367   2.263   3.005   4.355
 5823SOL    HW118368   2.239   2.977   4.448
 5823SOL    HW218369   2.284   3.102   4.354
 5824SOL     OW18370   4.039   0.619   3.338
 5824SOL    HW118371   4.001   0.705   3.305
 5824SOL    HW218372   3.971   0.546   3.329
 5825SOL     OW18373   2.930   1.071   1.165
 5825SOL    HW118374   2.957   1.121   1.247
 5825SOL    HW218375   2.858   1.006   1.187
 5826SOL     OW18376   6.592   6.774   4.478
 5826SOL    HW118377   6.520   6.758   4.546
 5826SOL    HW218378   6.552   6.775   4.386
 5827SOL     OW18379   1.967   4.988   5.319
 5827SOL    HW118380   1.947   5.057   5.390
 5827SOL    HW218381   1.938   5.024   5.230
 5828SOL     OW18382   6.508   2.296   1.719
 5828SOL    HW118383   6.510   2.207   1.673
 5828SOL    HW218384   6.509   2.369   1.652
 5829SOL     OW18385   1.453   1.704   1.969
 5829SOL    HW118386   1.445   1.750   2.057
 5829SOL    HW218387   1.515   1.626   1.977
 5830SOL     OW18388   2.108   1.216   5.242
 5830SOL    HW118389   2.078   1.129   5.204
 5830SOL    HW218390   2.208   1.222   5.236
 5831SOL     OW18391   5.960   6.153   2.991
 5831SOL    HW118392   5.983   6.086   2.921
 5831SOL    HW218393   6.042   6.205   3.016
 5832SOL     OW18394   3.418   3.491   4.651
 5832SOL    HW118395   3.449   3.402   4.686
 5832SOL    HW218396   3.449   3.564   4.713
 5833SOL     OW18397   3.535   3.264   5.012
 5833SOL    HW118398   3.619   3.244   5.062
 5833SOL    HW218399   3.468   3.307   5.073
 5834SOL     OW18400   6.414   0.934   0.269
 5834SOL    HW118401   6.353   0.959   0.344
 5834SOL    HW218402   6.393   0.989   0.189
 5835SOL     OW18403   5.305   2.754   4.315
 5835SOL    HW118404   5.364   2.681   4.351
 5835SOL    HW218405   5.259   2.800   4.391
 5836SOL     OW18406   3.228   6.860   2.715
 5836SOL    HW118407   3.150   6.862   2.778
 5836SOL    HW218408   3.211   6.924   2.639
 5837SOL     OW18409   4.586   4.710   6.647
 5837SOL    HW118410   4.552   4.793   6.603
 5837SOL    HW218411   4.585   4.635   6.580
 5838SOL     OW18412   0.458   1.362   5.320
 5838SOL    HW118413   0.476   1.455   5.288
 5838SOL    HW218414   0.392   1.318   5.259
 5839SOL     OW18415   0.067   2.628   2.383
 5839SOL    HW118416   0.145   2.638   2.444
 5839SOL    HW218417   0.093   2.574   2.303
 5840SOL     OW18418   2.753   5.609   0.401
 5840SOL    HW118419   2.831   5.563   0.443
 5840SOL    HW218420   2.777   5.639   0.308
 5841SOL     OW18421   6.407   2.128   2.523
 5841SOL    HW118422   6.463   2.090   2.596
 5841SOL    HW218423   6.340   2.060   2.493
 5842SOL     OW18424   3.888   3.411   0.193
 5842SOL    HW118425   3.892   3.469   0.112
 5842SOL    HW218426   3.964   3.432   0.254
 5843SOL     OW18427   1.166   3.116   1.154
 5843SOL    HW118428   1.224   3.044   1.114
 5843SOL    HW218429   1.222   3.173   1.214
 5844SOL     OW18430   1.442   5.937   6.590
 5844SOL    HW118431   1.494   5.935   6.675
 5844SOL    HW218432   1.388   5.854   6.582
 5845SOL     OW18433   1.124   2.406   4.667
 5845SOL    HW118434   1.107   2.504   4.678
 5845SOL    HW218435   1.055   2.354   4.717
 5846SOL     OW18436   0.966   3.360   6.337
 5846SOL    HW118437   0.988   3.272   6.296
 5846SOL    HW218438   0.969   3.431   6.266
 5847SOL     OW18439   1.406   2.066   3.746
 5847SOL    HW118440   1.323   2.037   3.697
 5847SOL    HW218441   1.428   2.160   3.722
 5848SOL     OW18442   1.224   5.101   3.741
 5848SOL    HW118443   1.253   5.050   3.660
 5848SOL    HW218444   1.149   5.052   3.786
 5849SOL     OW18445   3.182   6.945   5.578
 5849SOL    HW118446   3.124   6.890   5.638
 5849SOL    HW218447   3.198   6.896   5.492
 5850SOL     OW18448   0.982   4.464   3.427
 5850SOL    HW118449   0.969   4.372   3.390
 5850SOL    HW218450   0.914   4.480   3.499
 5851SOL     OW18451   5.322   3.082   2.219
 5851SOL    HW118452   5.269   3.050   2.141
 5851SOL    HW218453   5.410   3.116   2.188
 5852SOL     OW18454   3.959   5.617   2.735
 5852SOL    HW118455   3.881   5.564   2.767
 5852SOL    HW218456   3.984   5.684   2.805
 5853SOL     OW18457   4.582   4.450   5.572
 5853SOL    HW118458   4.523   4.406   5.504
 5853SOL    HW218459   4.543   4.538   5.598
 5854SOL     OW18460   1.006   0.973   6.807
 5854SOL    HW118461   0.981   0.896   6.866
 5854SOL    HW218462   0.973   1.058   6.847
 5855SOL     OW18463   1.938   1.304   4.934
 5855SOL    HW118464   1.899   1.337   4.848
 5855SOL    HW218465   2.017   1.246   4.915
 5856SOL     OW18466   2.249   5.094   3.177
 5856SOL    HW118467   2.276   5.165   3.242
 5856SOL    HW218468   2.237   5.134   3.086
 5857SOL     OW18469   0.240   2.151   5.413
 5857SOL    HW118470   0.275   2.067   5.453
 5857SOL    HW218471   0.316   2.212   5.390
 5858SOL     OW18472   3.610   6.699   3.491
 5858SOL    HW118473   3.652   6.670   3.577
 5858SOL    HW218474   3.659   6.657   3.414
 5859SOL     OW18475   6.627   5.626   1.655
 5859SOL    HW118476   6.578   5.671   1.580
 5859SOL    HW218477   6.641   5.692   1.729
 5860SOL     OW18478   0.696   3.525   0.920
 5860SOL    HW118479   0.703   3.618   0.955
 5860SOL    HW218480   0.778   3.503   0.867
 5861SOL     OW18481   5.979   2.107   4.175
 5861SOL    HW118482   5.992   2.184   4.239
 5861SOL    HW218483   5.882   2.099   4.153
 5862SOL     OW18484   4.651   4.331   3.756
 5862SOL    HW118485   4.748   4.351   3.740
 5862SOL    HW218486   4.643   4.276   3.839
 5863SOL     OW18487   1.850   1.595   1.210
 5863SOL    HW118488   1.826   1.661   1.138
 5863SOL    HW218489   1.885   1.644   1.290
 5864SOL     OW18490   4.185   5.472   0.545
 5864SOL    HW118491   4.273   5.451   0.502
 5864SOL    HW218492   4.198   5.486   0.643
 5865SOL     OW18493   4.530   0.855   3.675
 5865SOL    HW118494   4.557   0.805   3.594
 5865SOL    HW218495   4.520   0.792   3.752
 5866SOL     OW18496   3.209   1.791   6.687
 5866SOL    HW118497   3.175   1.878   6.724
 5866SOL    HW218498   3.197   1.719   6.755
 5867SOL     OW18499   0.375   2.963   1.126
 5867SOL    HW118500   0.315   2.968   1.206
 5867SOL    HW218501   0.460   2.916   1.152
 5868SOL     OW18502   1.480   6.864   4.404
 5868SOL    HW118503   1.490   6.858   4.503
 5868SOL    HW218504   1.570   6.860   4.360
 5869SOL     OW18505   3.207   4.870   3.862
 5869SOL    HW118506   3.201   4.775   3.892
 5869SOL    HW218507   3.283   4.880   3.798
 5870SOL     OW18508   5.457   5.126   4.260
 5870SOL    HW118509   5.555   5.139   4.275
 5870SOL    HW218510   5.427   5.187   4.187
 5871SOL     OW18511   2.455   3.586   0.514
 5871SOL    HW118512   2.473   3.498   0.560
 5871SOL    HW218513   2.397   3.570   0.434
 5872SOL     OW18514   3.947   5.769   4.220
 5872SOL    HW118515   3.934   5.723   4.132
 5872SOL    HW218516   4.011   5.716   4.276
 5873SOL     OW18517   1.978   3.518   0.147
 5873SOL    HW118518   1.952   3.447   0.213
 5873SOL    HW218519   1.898   3.572   0.123
 5874SOL     OW18520   1.281   4.167   6.797
 5874SOL    HW118521   1.243   4.091   6.851
 5874SOL    HW218522   1.367   4.137   6.754
 5875SOL     OW18523   4.444   2.134   0.700
 5875SOL    HW118524   4.378   2.188   0.647
 5875SOL    HW218525   4.410   2.040   0.710
 5876SOL     OW18526   3.811   4.112   6.094
 5876SOL    HW118527   3.734   4.049   6.083
 5876SOL    HW218528   3.880   4.071   6.153
 5877SOL     OW18529   5.974   0.256   2.553
 5877SOL    HW118530   5.951   0.353   2.550
 5877SOL    HW218531   6.069   0.245   2.581
 5878SOL     OW18532   5.007   4.327   2.141
 5878SOL    HW118533   4.929   4.264   2.149
 5878SOL    HW218534   4.976   4.420   2.158
 5879SOL     OW18535   3.215   3.840   5.262
 5879SOL    HW118536   3.203   3.860   5.359
 5879SOL    HW218537   3.270   3.757   5.252
 5880SOL     OW18538   5.742   2.529   6.960
 5880SOL    HW118539   5.785   2.580   0.014
 5880SOL    HW218540   5.647   2.560   6.949
 5881SOL     OW18541   1.709   6.630   2.826
 5881SOL    HW118542   1.768   6.577   2.764
 5881SOL    HW218543   1.743   6.724   2.831
 5882SOL     OW18544   1.268   4.899   5.448
 5882SOL    HW118545   1.292   4.950   5.530
 5882SOL    HW218546   1.170   4.906   5.431
 5883SOL     OW18547   6.870   5.487   0.304
 5883SOL    HW118548   6.866   5.579   0.342
 5883SOL    HW218549   6.961   5.449   0.318
 5884SOL     OW18550   6.910   0.933   2.261
 5884SOL    HW118551   6.962   0.904   2.341
 5884SOL    HW218552   6.816   0.956   2.288
 5885SOL     OW18553   0.281   5.363   0.732
 5885SOL    HW118554   0.361   5.350   0.674
 5885SOL    HW218555   0.200   5.376   0.675
 5886SOL     OW18556   1.794   4.958   3.513
 5886SOL    HW118557   1.861   5.032   3.506
 5886SOL    HW218558   1.811   4.890   3.442
 5887SOL     OW18559   2.991   2.856   0.364
 5887SOL    HW118560   3.025   2.950   0.356
 5887SOL    HW218561   3.043   2.808   0.434
 5888SOL     OW18562   2.807   6.194   1.280
 5888SOL    HW118563   2.793   6.153   1.370
 5888SOL    HW218564   2.719   6.216   1.239
 5889SOL     OW18565   5.768   1.178   2.230
 5889SOL    HW118566   5.854   1.221   2.202
 5889SOL    HW218567   5.762   1.179   2.330
 5890SOL     OW18568   2.536   5.172   3.648
 5890SOL    HW118569   2.592   5.235   3.701
 5890SOL    HW218570   2.446   5.212   3.633
 5891SOL     OW18571   2.550   3.756   6.546
 5891SOL    HW118572   2.552   3.852   6.573
 5891SOL    HW218573   2.557   3.698   6.627
 5892SOL     OW18574   1.278   2.649   0.665
 5892SOL    HW118575   1.209   2.650   0.592
 5892SOL    HW218576   1.306   2.743   0.685
 5893SOL     OW18577   0.782   6.372   1.400
 5893SOL    HW118578   0.810   6.382   1.496
 5893SOL    HW218579   0.820   6.448   1.347
 5894SOL     OW18580   1.924   5.866   6.717
 5894SOL    HW118581   1.934   5.810   6.799
 5894SOL    HW218582   1.923   5.808   6.636
 5895SOL     OW18583   5.859   4.002   2.940
 5895SOL    HW118584   5.875   4.038   2.847
 5895SOL    HW218585   5.766   3.967   2.946
 5896SOL     OW18586   5.548   2.008   2.211
 5896SOL    HW118587   5.505   1.918   2.212
 5896SOL    HW218588   5.478   2.079   2.223
 5897SOL     OW18589   3.585   2.258   0.497
 5897SOL    HW118590   3.586   2.284   0.400
 5897SOL    HW218591   3.619   2.334   0.552
 5898SOL     OW18592   2.221   0.970   6.912
 5898SOL    HW118593   2.142   1.015   6.871
 5898SOL    HW218594   2.203   0.950   7.008
 5899SOL     OW18595   6.992   6.741   6.789
 5899SOL    HW118596   0.013   6.799   6.719
 5899SOL    HW218597   6.893   6.753   6.789
 5900SOL     OW18598   6.110   6.431   2.276
 5900SOL    HW118599   6.176   6.501   2.301
 5900SOL    HW218600   6.102   6.365   2.351
 5901SOL     OW18601   2.456   0.339   5.074
 5901SOL    HW118602   2.485   0.433   5.056
 5901SOL    HW218603   2.458   0.323   5.173
 5902SOL     OW18604   3.921   4.264   5.613
 5902SOL    HW118605   3.905   4.322   5.534
 5902SOL    HW218606   3.894   4.170   5.592
 5903SOL     OW18607   6.673   2.134   5.362
 5903SOL    HW118608   6.601   2.065   5.366
 5903SOL    HW218609   6.710   2.139   5.269
 5904SOL     OW18610   0.299   4.881   1.462
 5904SOL    HW118611   0.230   4.809   1.458
 5904SOL    HW218612   0.379   4.854   1.408
 5905SOL     OW18613   5.964   2.400   4.938
 5905SOL    HW118614   5.911   2.345   5.003
 5905SOL    HW218615   5.903   2.466   4.893
 5906SOL     OW18616   4.430   1.399   5.985
 5906SOL    HW118617   4.382   1.312   5.975
 5906SOL    HW218618   4.525   1.389   5.954
 5907SOL     OW18619   1.333   3.164   5.852
 5907SOL    HW118620   1.366   3.245   5.802
 5907SOL    HW218621   1.307   3.093   5.786
 5908SOL     OW18622   4.365   4.279   6.502
 5908SOL    HW118623   4.431   4.305   6.431
 5908SOL    HW218624   4.360   4.352   6.571
 5909SOL     OW18625   6.328   5.030   4.173
 5909SOL    HW118626   6.382   5.031   4.257
 5909SOL    HW218627   6.237   5.069   4.192
 5910SOL     OW18628   3.264   4.744   0.998
 5910SOL    HW118629   3.248   4.843   0.992
 5910SOL    HW218630   3.181   4.695   0.971
 5911SOL     OW18631   6.295   0.077   6.758
 5911SOL    HW118632   6.370   0.120   6.708
 5911SOL    HW218633   6.237   0.148   6.799
 5912SOL     OW18634   0.687   3.370   5.242
 5912SOL    HW118635   0.588   3.365   5.254
 5912SOL    HW218636   0.713   3.331   5.154
 5913SOL     OW18637   1.749   2.520   4.311
 5913SOL    HW118638   1.651   2.524   4.333
 5913SOL    HW218639   1.773   2.594   4.249
 5914SOL     OW18640   1.359   5.991   1.058
 5914SOL    HW118641   1.360   6.080   1.013
 5914SOL    HW218642   1.401   5.999   1.149
 5915SOL     OW18643   5.599   3.268   4.578
 5915SOL    HW118644   5.508   3.308   4.586
 5915SOL    HW218645   5.639   3.260   4.669
 5916SOL     OW18646   3.031   0.149   6.049
 5916SOL    HW118647   3.117   0.098   6.037
 5916SOL    HW218648   3.048   0.229   6.106
 5917SOL     OW18649   3.935   3.956   2.503
 5917SOL    HW118650   3.970   3.908   2.422
 5917SOL    HW218651   3.981   3.923   2.585
 5918SOL     OW18652   2.511   2.249   4.215
 5918SOL    HW118653   2.518   2.163   4.265
 5918SOL    HW218654   2.598   2.298   4.223
 5919SOL     OW18655   1.390   2.312   6.687
 5919SOL    HW118656   1.487   2.333   6.687
 5919SOL    HW218657   1.368   2.249   6.612
 5920SOL     OW18658   2.505   5.271   0.047
 5920SOL    HW118659   2.557   5.194   0.010
 5920SOL    HW218660   2.562   5.320   0.113
 5921SOL     OW18661   3.986   5.566   5.697
 5921SOL    HW118662   4.037   5.497   5.749
 5921SOL    HW218663   4.014   5.657   5.727
 5922SOL     OW18664   6.040   4.658   1.325
 5922SOL    HW118665   5.949   4.662   1.283
 5922SOL    HW218666   6.109   4.684   1.258
 5923SOL     OW18667   0.277   0.766   3.553
 5923SOL    HW118668   0.246   0.671   3.546
 5923SOL    HW218669   0.254   0.814   3.469
 5924SOL     OW18670   6.240   1.853   5.004
 5924SOL    HW118671   6.289   1.769   4.980
 5924SOL    HW218672   6.252   1.920   4.931
 5925SOL     OW18673   6.469   6.094   0.686
 5925SOL    HW118674   6.481   6.087   0.785
 5925SOL    HW218675   6.380   6.134   0.665
 5926SOL     OW18676   2.991   5.504   2.012
 5926SOL    HW118677   3.052   5.571   1.970
 5926SOL    HW218678   3.025   5.412   1.993
 5927SOL     OW18679   2.195   5.286   1.991
 5927SOL    HW118680   2.275   5.325   1.945
 5927SOL    HW218681   2.129   5.255   1.922
 5928SOL     OW18682   1.079   6.008   1.030
 5928SOL    HW118683   1.174   6.025   1.056
 5928SOL    HW218684   1.075   5.985   0.933
 5929SOL     OW18685   0.638   6.679   5.230
 5929SOL    HW118686   0.636   6.719   5.138
 5929SOL    HW218687   0.576   6.601   5.233
 5930SOL     OW18688   6.380   1.338   4.947
 5930SOL    HW118689   6.438   1.342   5.029
 5930SOL    HW218690   6.318   1.260   4.954
 5931SOL     OW18691   5.651   5.015   0.720
 5931SOL    HW118692   5.686   5.073   0.646
 5931SOL    HW218693   5.690   5.047   0.807
 5932SOL     OW18694   2.346   0.402   0.217
 5932SOL    HW118695   2.286   0.323   0.209
 5932SOL    HW218696   2.441   0.372   0.220
 5933SOL     OW18697   6.177   3.562   2.908
 5933SOL    HW118698   6.221   3.536   2.994
 5933SOL    HW218699   6.102   3.626   2.926
 5934SOL     OW18700   3.905   3.818   2.268
 5934SOL    HW118701   3.810   3.791   2.287
 5934SOL    HW218702   3.906   3.897   2.206
 5935SOL     OW18703   3.920   3.111   2.812
 5935SOL    HW118704   3.908   3.049   2.734
 5935SOL    HW218705   3.871   3.074   2.891
 5936SOL     OW18706   6.224   6.183   6.612
 5936SOL    HW118707   6.238   6.216   6.518
 5936SOL    HW218708   6.147   6.232   6.653
 5937SOL     OW18709   1.333   4.480   0.434
 5937SOL    HW118710   1.315   4.541   0.357
 5937SOL    HW218711   1.247   4.440   0.467
 5938SOL     OW18712   2.068   4.479   0.909
 5938SOL    HW118713   2.158   4.437   0.896
 5938SOL    HW218714   2.079   4.573   0.941
 5939SOL     OW18715   1.889   1.678   2.682
 5939SOL    HW118716   1.974   1.727   2.662
 5939SOL    HW218717   1.886   1.593   2.631
 5940SOL     OW18718   3.964   5.222   3.075
 5940SOL    HW118719   3.997   5.300   3.129
 5940SOL    HW218720   3.887   5.179   3.121
 5941SOL     OW18721   6.871   3.137   2.972
 5941SOL    HW118722   6.789   3.189   2.947
 5941SOL    HW218723   6.851   3.079   3.051
 5942SOL     OW18724   6.960   2.076   4.632
 5942SOL    HW118725   6.970   2.077   4.731
 5942SOL    HW218726   7.000   2.159   4.594
 5943SOL     OW18727   1.396   4.762   0.463
 5943SOL    HW118728   1.331   4.746   0.389
 5943SOL    HW218729   1.369   4.710   0.544
 5944SOL     OW18730   4.917   2.328   3.260
 5944SOL    HW118731   4.887   2.356   3.169
 5944SOL    HW218732   4.960   2.238   3.255
 5945SOL     OW18733   6.538   4.976   6.153
 5945SOL    HW118734   6.488   4.937   6.230
 5945SOL    HW218735   6.541   5.076   6.162
 5946SOL     OW18736   3.674   2.748   5.364
 5946SOL    HW118737   3.648   2.802   5.285
 5946SOL    HW218738   3.620   2.777   5.444
 5947SOL     OW18739   4.662   4.137   1.715
 5947SOL    HW118740   4.629   4.226   1.683
 5947SOL    HW218741   4.743   4.150   1.771
 5948SOL     OW18742   3.394   5.109   3.531
 5948SOL    HW118743   3.433   5.078   3.445
 5948SOL    HW218744   3.456   5.174   3.575
 5949SOL     OW18745   4.538   4.397   2.550
 5949SOL    HW118746   4.552   4.447   2.465
 5949SOL    HW218747   4.463   4.439   2.601
 5950SOL     OW18748   5.797   2.802   3.968
 5950SOL    HW118749   5.714   2.747   3.960
 5950SOL    HW218750   5.875   2.743   3.990
 5951SOL     OW18751   2.098   6.797   4.144
 5951SOL    HW118752   2.112   6.894   4.161
 5951SOL    HW218753   2.013   6.767   4.187
 5952SOL     OW18754   0.208   5.366   4.878
 5952SOL    HW118755   0.266   5.329   4.805
 5952SOL    HW218756   0.186   5.293   4.943
 5953SOL     OW18757   1.231   3.339   6.034
 5953SOL    HW118758   1.258   3.252   5.993
 5953SOL    HW218759   1.251   3.414   5.971
 5954SOL     OW18760   1.012   4.932   6.625
 5954SOL    HW118761   0.954   4.999   6.671
 5954SOL    HW218762   1.088   4.979   6.580
 5955SOL     OW18763   4.615   5.192   2.980
 5955SOL    HW118764   4.709   5.179   2.950
 5955SOL    HW218765   4.558   5.217   2.901
 5956SOL     OW18766   6.977   2.243   6.687
 5956SOL    HW118767   6.910   2.228   6.614
 5956SOL    HW218768   6.952   2.188   6.767
 5957SOL     OW18769   4.799   6.584   5.495
 5957SOL    HW118770   4.804   6.496   5.543
 5957SOL    HW218771   4.830   6.657   5.556
 5958SOL     OW18772   1.110   5.091   2.483
 5958SOL    HW118773   1.197   5.138   2.469
 5958SOL    HW218774   1.034   5.152   2.460
 5959SOL     OW18775   1.868   0.905   6.516
 5959SOL    HW118776   1.891   0.927   6.421
 5959SOL    HW218777   1.944   0.854   6.557
 5960SOL     OW18778   3.672   6.361   5.118
 5960SOL    HW118779   3.692   6.443   5.064
 5960SOL    HW218780   3.641   6.288   5.058
 5961SOL     OW18781   2.495   0.818   5.485
 5961SOL    HW118782   2.593   0.830   5.465
 5961SOL    HW218783   2.482   0.735   5.539
 5962SOL     OW18784   5.078   4.094   2.597
 5962SOL    HW118785   4.986   4.107   2.560
 5962SOL    HW218786   5.071   4.067   2.693
 5963SOL     OW18787   4.041   3.991   1.883
 5963SOL    HW118788   4.004   4.055   1.950
 5963SOL    HW218789   4.097   4.040   1.817
 5964SOL     OW18790   2.103   3.632   5.701
 5964SOL    HW118791   2.016   3.679   5.685
 5964SOL    HW218792   2.178   3.698   5.701
 5965SOL     OW18793   2.395   1.595   3.916
 5965SOL    HW118794   2.329   1.538   3.964
 5965SOL    HW218795   2.391   1.575   3.818
 5966SOL     OW18796   2.242   5.759   3.931
 5966SOL    HW118797   2.204   5.804   4.011
 5966SOL    HW218798   2.325   5.710   3.957
 5967SOL     OW18799   4.507   6.236   2.091
 5967SOL    HW118800   4.571   6.254   2.166
 5967SOL    HW218801   4.510   6.312   2.026
 5968SOL     OW18802   0.267   2.081   4.145
 5968SOL    HW118803   0.171   2.057   4.127
 5968SOL    HW218804   0.325   2.045   4.073
 5969SOL     OW18805   5.621   2.741   2.830
 5969SOL    HW118806   5.712   2.780   2.841
 5969SOL    HW218807   5.619   2.648   2.867
 5970SOL     OW18808   1.886   3.264   3.493
 5970SOL    HW118809   1.809   3.202   3.502
 5970SOL    HW218810   1.854   3.354   3.464
 5971SOL     OW18811   2.837   6.648   2.761
 5971SOL    HW118812   2.761   6.583   2.765
 5971SOL    HW218813   2.912   6.615   2.819
 5972SOL     OW18814   4.974   0.146   1.847
 5972SOL    HW118815   5.006   0.069   1.791
 5972SOL    HW218816   4.900   0.194   1.800
 5973SOL     OW18817   1.446   4.178   2.889
 5973SOL    HW118818   1.357   4.217   2.865
 5973SOL    HW218819   1.450   4.159   2.987
 5974SOL     OW18820   1.295   3.653   6.213
 5974SOL    HW118821   1.391   3.660   6.241
 5974SOL    HW218822   1.257   3.567   6.246
 5975SOL     OW18823   2.343   2.961   6.800
 5975SOL    HW118824   2.332   2.876   6.748
 5975SOL    HW218825   2.439   2.975   6.822
 5976SOL     OW18826   3.416   2.999   4.662
 5976SOL    HW118827   3.319   3.005   4.640
 5976SOL    HW218828   3.449   3.087   4.696
 5977SOL     OW18829   0.868   3.780   3.189
 5977SOL    HW118830   0.857   3.711   3.117
 5977SOL    HW218831   0.843   3.870   3.153
 5978SOL     OW18832   5.085   5.148   2.722
 5978SOL    HW118833   5.152   5.136   2.650
 5978SOL    HW218834   5.130   5.183   2.804
 5979SOL     OW18835   0.961   1.366   1.823
 5979SOL    HW118836   0.891   1.437   1.826
 5979SOL    HW218837   0.991   1.353   1.728
 5980SOL     OW18838   6.519   3.410   6.231
 5980SOL    HW118839   6.563   3.457   6.308
 5980SOL    HW218840   6.588   3.379   6.167
 5981SOL     OW18841   4.070   1.880   0.852
 5981SOL    HW118842   4.073   1.872   0.752
 5981SOL    HW218843   4.005   1.952   0.877
 5982SOL     OW18844   5.743   2.187   0.061
 5982SOL    HW118845   5.681   2.263   0.040
 5982SOL    HW218846   5.795   2.163   7.000
 5983SOL     OW18847   0.864   0.691   4.802
 5983SOL    HW118848   0.952   0.679   4.757
 5983SOL    HW218849   0.791   0.654   4.745
 5984SOL     OW18850   0.756   6.748   5.906
 5984SOL    HW118851   0.717   6.827   5.953
 5984SOL    HW218852   0.684   6.702   5.854
 5985SOL     OW18853   5.130   3.089   4.236
 5985SOL    HW118854   5.194   3.150   4.190
 5985SOL    HW218855   5.109   3.011   4.177
 5986SOL     OW18856   3.314   2.889   2.553
 5986SOL    HW118857   3.242   2.820   2.555
 5986SOL    HW218858   3.378   2.873   2.628
 5987SOL     OW18859   4.532   6.710   5.728
 5987SOL    HW118860   4.474   6.771   5.781
 5987SOL    HW218861   4.580   6.762   5.657
 5988SOL     OW18862   3.726   0.334   5.140
 5988SOL    HW118863   3.819   0.353   5.107
 5988SOL    HW218864   3.687   0.417   5.178
 5989SOL     OW18865   2.774   1.803   6.516
 5989SOL    HW118866   2.693   1.755   6.483
 5989SOL    HW218867   2.787   1.784   6.613
 5990SOL     OW18868   3.426   4.983   2.339
 5990SOL    HW118869   3.344   4.971   2.283
 5990SOL    HW218870   3.399   5.002   2.433
 5991SOL     OW18871   3.018   5.311   3.913
 5991SOL    HW118872   2.947   5.328   3.845
 5991SOL    HW218873   3.102   5.280   3.866
 5992SOL     OW18874   4.400   2.448   4.278
 5992SOL    HW118875   4.358   2.377   4.334
 5992SOL    HW218876   4.369   2.440   4.184
 5993SOL     OW18877   3.549   5.731   3.916
 5993SOL    HW118878   3.543   5.829   3.935
 5993SOL    HW218879   3.607   5.715   3.836
 5994SOL     OW18880   6.140   2.591   1.260
 5994SOL    HW118881   6.148   2.560   1.355
 5994SOL    HW218882   6.216   2.555   1.206
 5995SOL     OW18883   0.678   4.473   1.422
 5995SOL    HW118884   0.680   4.554   1.364
 5995SOL    HW218885   0.584   4.450   1.445
 5996SOL     OW18886   0.618   5.477   5.370
 5996SOL    HW118887   0.687   5.523   5.426
 5996SOL    HW218888   0.657   5.457   5.280
 5997SOL     OW18889   0.748   0.412   1.239
 5997SOL    HW118890   0.741   0.501   1.193
 5997SOL    HW218891   0.691   0.413   1.321
 5998SOL     OW18892   4.368   2.317   3.387
 5998SOL    HW118893   4.431   2.390   3.361
 5998SOL    HW218894   4.391   2.282   3.478
 5999SOL     OW18895   2.284   2.696   3.225
 5999SOL    HW118896   2.328   2.676   3.313
 5999SOL    HW218897   2.236   2.783   3.231
 6000SOL     OW18898   4.930   0.447   3.476
 6000SOL    HW118899   4.896   0.372   3.418
 6000SOL    HW218900   4.938   0.530   3.422
 6001SOL     OW18901   6.231   1.827   6.954
 6001SOL    HW118902   6.165   1.854   6.884
 6001SOL    HW218903   6.247   1.905   7.015
 6002SOL     OW18904   1.717   0.768   2.048
 6002SOL    HW118905   1.666   0.846   2.085
 6002SOL    HW218906   1.736   0.784   1.951
 6003SOL     OW18907   5.753   4.361   3.760
 6003SOL    HW118908   5.725   4.323   3.848
 6003SOL    HW218909   5.672   4.382   3.706
 6004SOL     OW18910   0.142   3.373   1.714
 6004SOL    HW118911   0.074   3.384   1.787
 6004SOL    HW218912   0.225   3.424   1.739
 6005SOL     OW18913   2.328   5.939   2.269
 6005SOL    HW118914   2.278   5.904   2.191
 6005SOL    HW218915   2.392   6.010   2.238
 6006SOL     OW18916   1.557   5.799   6.970
 6006SOL    HW118917   1.557   5.701   6.953
 6006SOL    HW218918   1.490   5.821   0.021
 6007SOL     OW18919   5.207   3.071   4.851
 6007SOL    HW118920   5.301   3.058   4.820
 6007SOL    HW218921   5.157   3.127   4.785
 6008SOL     OW18922   4.810   3.991   1.309
 6008SOL    HW118923   4.898   3.957   1.274
 6008SOL    HW218924   4.823   4.081   1.351
 6009SOL     OW18925   4.035   1.674   4.803
 6009SOL    HW118926   3.944   1.655   4.840
 6009SOL    HW218927   4.091   1.719   4.873
 6010SOL     OW18928   1.145   3.812   3.283
 6010SOL    HW118929   1.168   3.859   3.368
 6010SOL    HW218930   1.048   3.787   3.285
 6011SOL     OW18931   6.538   2.734   1.746
 6011SOL    HW118932   6.624   2.739   1.796
 6011SOL    HW218933   6.550   2.679   1.663
 6012SOL     OW18934   0.427   3.011   1.529
 6012SOL    HW118935   0.426   2.916   1.500
 6012SOL    HW218936   0.334   3.048   1.526
 6013SOL     OW18937   5.777   0.702   2.376
 6013SOL    HW118938   5.713   0.654   2.316
 6013SOL    HW218939   5.809   0.785   2.331
 6014SOL     OW18940   5.614   0.624   0.972
 6014SOL    HW118941   5.547   0.698   0.972
 6014SOL    HW218942   5.638   0.600   1.066
 6015SOL     OW18943   5.602   0.636   4.617
 6015SOL    HW118944   5.686   0.691   4.616
 6015SOL    HW218945   5.612   0.562   4.684
 6016SOL     OW18946   1.944   7.017   5.312
 6016SOL    HW118947   1.875   6.985   5.247
 6016SOL    HW218948   1.939   6.961   5.395
 6017SOL     OW18949   6.836   3.753   2.623
 6017SOL    HW118950   6.846   3.847   2.589
 6017SOL    HW218951   6.888   3.743   2.708
 6018SOL     OW18952   2.303   5.273   1.140
 6018SOL    HW118953   2.310   5.173   1.144
 6018SOL    HW218954   2.275   5.309   1.229
 6019SOL     OW18955   5.749   6.501   3.071
 6019SOL    HW118956   5.809   6.549   3.135
 6019SOL    HW218957   5.654   6.509   3.101
 6020SOL     OW18958   2.687   6.898   2.693
 6020SOL    HW118959   2.656   6.903   2.788
 6020SOL    HW218960   2.736   6.811   2.679
 6021SOL     OW18961   4.199   1.147   3.959
 6021SOL    HW118962   4.286   1.128   3.915
 6021SOL    HW218963   4.211   1.147   4.058
 6022SOL     OW18964   4.958   0.824   6.065
 6022SOL    HW118965   5.026   0.750   6.066
 6022SOL    HW218966   4.869   0.786   6.040
 6023SOL     OW18967   0.457   1.964   2.636
 6023SOL    HW118968   0.537   1.980   2.694
 6023SOL    HW218969   0.442   2.044   2.578
 6024SOL     OW18970   0.102   5.653   2.592
 6024SOL    HW118971   0.012   5.633   2.629
 6024SOL    HW218972   0.105   5.628   2.495
 6025SOL     OW18973   4.147   1.680   2.543
 6025SOL    HW118974   4.164   1.693   2.445
 6025SOL    HW218975   4.095   1.596   2.557
 6026SOL     OW18976   0.669   4.121   5.579
 6026SOL    HW118977   0.638   4.033   5.542
 6026SOL    HW218978   0.590   4.173   5.611
 6027SOL     OW18979   3.356   2.981   0.248
 6027SOL    HW118980   3.438   2.974   0.304
 6027SOL    HW218981   3.279   3.011   0.304
 6028SOL     OW18982   1.059   4.389   0.210
 6028SOL    HW118983   1.146   4.369   0.165
 6028SOL    HW218984   1.076   4.406   0.307
 6029SOL     OW18985   0.557   4.692   2.001
 6029SOL    HW118986   0.644   4.656   1.968
 6029SOL    HW218987   0.491   4.695   1.926
 6030SOL     OW18988   1.890   0.286   1.075
 6030SOL    HW118989   1.984   0.253   1.064
 6030SOL    HW218990   1.892   0.383   1.098
 6031SOL     OW18991   5.062   0.635   4.207
 6031SOL    HW118992   5.065   0.691   4.124
 6031SOL    HW218993   5.133   0.668   4.270
 6032SOL     OW18994   0.316   3.720   2.827
 6032SOL    HW118995   0.234   3.774   2.846
 6032SOL    HW218996   0.298   3.659   2.750
 6033SOL     OW18997   0.038   6.814   4.693
 6033SOL    HW118998   6.972   6.785   4.653
 6033SOL    HW218999   0.047   6.775   4.785
 6034SOL     OW19000   2.327   4.223   5.239
 6034SOL    HW119001   2.389   4.146   5.222
 6034SOL    HW219002   2.247   4.215   5.180
 6035SOL     OW19003   5.563   6.819   3.769
 6035SOL    HW119004   5.529   6.793   3.678
 6035SOL    HW219005   5.633   6.889   3.760
 6036SOL     OW19006   0.406   0.742   4.188
 6036SOL    HW119007   0.468   0.697   4.252
 6036SOL    HW219008   0.347   0.806   4.238
 6037SOL     OW19009   0.424   5.675   4.741
 6037SOL    HW119010   0.417   5.775   4.742
 6037SOL    HW219011   0.423   5.642   4.647
 6038SOL     OW19012   5.807   3.999   6.323
 6038SOL    HW119013   5.891   3.969   6.280
 6038SOL    HW219014   5.777   4.086   6.282
 6039SOL     OW19015   3.874   2.993   4.340
 6039SOL    HW119016   3.879   2.903   4.383
 6039SOL    HW219017   3.879   2.984   4.241
 6040SOL     OW19018   1.293   1.101   0.417
 6040SOL    HW119019   1.265   1.095   0.322
 6040SOL    HW219020   1.293   1.196   0.447
 6041SOL     OW19021   0.645   2.400   0.551
 6041SOL    HW119022   0.712   2.389   0.478
 6041SOL    HW219023   0.673   2.476   0.610
 6042SOL     OW19024   5.527   5.790   4.845
 6042SOL    HW119025   5.458   5.806   4.774
 6042SOL    HW219026   5.481   5.765   4.930
 6043SOL     OW19027   0.035   4.568   4.056
 6043SOL    HW119028   0.011   4.562   3.960
 6043SOL    HW219029   0.012   4.660   4.090
 6044SOL     OW19030   1.245   0.478   1.294
 6044SOL    HW119031   1.342   0.502   1.284
 6044SOL    HW219032   1.233   0.422   1.375
 6045SOL     OW19033   6.868   4.178   0.864
 6045SOL    HW119034   6.829   4.268   0.882
 6045SOL    HW219035   6.825   4.110   0.924
 6046SOL     OW19036   2.689   3.343   0.624
 6046SOL    HW119037   2.605   3.366   0.672
 6046SOL    HW219038   2.746   3.425   0.614
 6047SOL     OW19039   0.286   6.213   4.683
 6047SOL    HW119040   0.238   6.273   4.748
 6047SOL    HW219041   0.384   6.212   4.706
 6048SOL     OW19042   5.045   5.825   4.588
 6048SOL    HW119043   5.018   5.737   4.548
 6048SOL    HW219044   4.963   5.878   4.610
 6049SOL     OW19045   6.473   6.118   0.393
 6049SOL    HW119046   6.386   6.103   0.345
 6049SOL    HW219047   6.470   6.070   0.481
 6050SOL     OW19048   6.025   4.101   5.741
 6050SOL    HW119049   5.948   4.087   5.804
 6050SOL    HW219050   6.032   4.198   5.719
 6051SOL     OW19051   2.875   1.920   3.048
 6051SOL    HW119052   2.862   1.912   2.949
 6051SOL    HW219053   2.796   1.882   3.095
 6052SOL     OW19054   6.758   1.451   0.681
 6052SOL    HW119055   6.794   1.357   0.683
 6052SOL    HW219056   6.696   1.460   0.603
 6053SOL     OW19057   1.882   0.336   6.162
 6053SOL    HW119058   1.833   0.418   6.132
 6053SOL    HW219059   1.839   0.300   6.245
 6054SOL     OW19060   1.994   4.487   6.663
 6054SOL    HW119061   2.022   4.582   6.655
 6054SOL    HW219062   1.974   4.450   6.572
 6055SOL     OW19063   5.038   0.459   3.866
 6055SOL    HW119064   5.047   0.547   3.821
 6055SOL    HW219065   5.115   0.400   3.840
 6056SOL     OW19066   5.056   3.783   6.116
 6056SOL    HW119067   5.050   3.879   6.142
 6056SOL    HW219068   5.056   3.775   6.017
 6057SOL     OW19069   3.838   0.825   6.201
 6057SOL    HW119070   3.764   0.786   6.254
 6057SOL    HW219071   3.866   0.913   6.241
 6058SOL     OW19072   5.218   1.608   4.532
 6058SOL    HW119073   5.145   1.674   4.547
 6058SOL    HW219074   5.268   1.593   4.617
 6059SOL     OW19075   6.493   6.791   6.025
 6059SOL    HW119076   6.449   6.774   6.113
 6059SOL    HW219077   6.589   6.814   6.040
 6060SOL     OW19078   3.102   6.561   6.645
 6060SOL    HW119079   3.039   6.554   6.568
 6060SOL    HW219080   3.055   6.598   6.725
 6061SOL     OW19081   1.891   1.683   6.887
 6061SOL    HW119082   1.828   1.633   6.946
 6061SOL    HW219083   1.917   1.769   6.932
 6062SOL     OW19084   1.390   0.236   4.090
 6062SOL    HW119085   1.324   0.161   4.100
 6062SOL    HW219086   1.470   0.219   4.146
 6063SOL     OW19087   5.472   6.023   0.286
 6063SOL    HW119088   5.539   6.027   0.211
 6063SOL    HW219089   5.380   6.017   0.247
 6064SOL     OW19090   0.802   5.273   3.113
 6064SOL    HW119091   0.892   5.302   3.080
 6064SOL    HW219092   0.750   5.233   3.038
 6065SOL     OW19093   5.732   6.739   1.828
 6065SOL    HW119094   5.827   6.710   1.818
 6065SOL    HW219095   5.712   6.811   1.762
 6066SOL     OW19096   4.784   2.053   6.194
 6066SOL    HW119097   4.702   2.103   6.222
 6066SOL    HW219098   4.792   2.055   6.094
 6067SOL     OW19099   5.059   2.295   6.562
 6067SOL    HW119100   5.026   2.365   6.498
 6067SOL    HW219101   5.041   2.205   6.523
 6068SOL     OW19102   4.954   1.678   5.543
 6068SOL    HW119103   4.962   1.775   5.520
 6068SOL    HW219104   5.033   1.651   5.599
 6069SOL     OW19105   5.877   4.251   4.629
 6069SOL    HW119106   5.799   4.203   4.588
 6069SOL    HW219107   5.894   4.336   4.579
 6070SOL     OW19108   4.181   2.861   6.308
 6070SOL    HW119109   4.177   2.956   6.340
 6070SOL    HW219110   4.201   2.801   6.385
 6071SOL     OW19111   4.926   6.436   5.690
 6071SOL    HW119112   4.865   6.357   5.702
 6071SOL    HW219113   5.019   6.403   5.673
 6072SOL     OW19114   7.016   1.571   0.855
 6072SOL    HW119115   6.917   1.576   0.866
 6072SOL    HW219116   0.021   1.592   0.761
 6073SOL     OW19117   6.515   1.566   1.224
 6073SOL    HW119118   6.442   1.584   1.159
 6073SOL    HW219119   6.478   1.567   1.317
 6074SOL     OW19120   0.948   0.001   5.363
 6074SOL    HW119121   0.956   0.097   5.392
 6074SOL    HW219122   0.861   7.009   5.315
 6075SOL     OW19123   4.996   4.435   6.270
 6075SOL    HW119124   5.016   4.367   6.200
 6075SOL    HW219125   5.015   4.526   6.234
 6076SOL     OW19126   2.870   0.370   4.142
 6076SOL    HW119127   2.804   0.382   4.068
 6076SOL    HW219128   2.822   0.348   4.227
 6077SOL     OW19129   5.483   4.896   2.843
 6077SOL    HW119130   5.497   4.915   2.940
 6077SOL    HW219131   5.550   4.947   2.789
 6078SOL     OW19132   2.199   4.743   3.495
 6078SOL    HW119133   2.267   4.705   3.432
 6078SOL    HW219134   2.206   4.842   3.496
 6079SOL     OW19135   2.619   1.624   0.856
 6079SOL    HW119136   2.521   1.613   0.871
 6079SOL    HW219137   2.659   1.677   0.931
 6080SOL     OW19138   5.662   2.496   2.940
 6080SOL    HW119139   5.726   2.429   2.902
 6080SOL    HW219140   5.611   2.454   3.015
 6081SOL     OW19141   0.993   4.039   2.577
 6081SOL    HW119142   1.080   4.089   2.579
 6081SOL    HW219143   0.991   3.978   2.498
 6082SOL     OW19144   3.349   1.938   4.372
 6082SOL    HW119145   3.281   1.992   4.322
 6082SOL    HW219146   3.354   1.970   4.467
 6083SOL     OW19147   1.742   0.243   0.575
 6083SOL    HW119148   1.698   0.153   0.583
 6083SOL    HW219149   1.746   0.286   0.665
 6084SOL     OW19150   0.302   5.078   5.817
 6084SOL    HW119151   0.330   5.141   5.744
 6084SOL    HW219152   0.205   5.088   5.835
 6085SOL     OW19153   5.238   5.612   1.575
 6085SOL    HW119154   5.281   5.592   1.663
 6085SOL    HW219155   5.266   5.544   1.507
 6086SOL     OW19156   2.827   1.835   2.798
 6086SOL    HW119157   2.926   1.825   2.786
 6086SOL    HW219158   2.781   1.752   2.767
 6087SOL     OW19159   3.518   0.314   1.037
 6087SOL    HW119160   3.481   0.264   0.958
 6087SOL    HW219161   3.452   0.313   1.111
 6088SOL     OW19162   0.272   6.821   5.826
 6088SOL    HW119163   0.307   6.790   5.915
 6088SOL    HW219164   0.218   6.748   5.785
 6089SOL     OW19165   6.245   3.674   0.493
 6089SOL    HW119166   6.228   3.690   0.396
 6089SOL    HW219167   6.213   3.753   0.546
 6090SOL     OW19168   0.360   5.730   4.064
 6090SOL    HW119169   0.332   5.825   4.051
 6090SOL    HW219170   0.459   5.726   4.076
 6091SOL     OW19171   6.333   1.998   1.434
 6091SOL    HW119172   6.345   1.930   1.507
 6091SOL    HW219173   6.302   2.084   1.474
 6092SOL     OW19174   1.620   3.009   0.785
 6092SOL    HW119175   1.664   2.920   0.791
 6092SOL    HW219176   1.584   3.035   0.874
 6093SOL     OW19177   1.217   3.732   0.791
 6093SOL    HW119178   1.194   3.738   0.888
 6093SOL    HW219179   1.144   3.684   0.742
 6094SOL     OW19180   0.827   1.083   0.899
 6094SOL    HW119181   0.921   1.055   0.885
 6094SOL    HW219182   0.775   1.071   0.814
 6095SOL     OW19183   6.583   3.747   5.317
 6095SOL    HW119184   6.678   3.719   5.330
 6095SOL    HW219185   6.551   3.797   5.398
 6096SOL     OW19186   4.447   1.549   2.762
 6096SOL    HW119187   4.542   1.560   2.791
 6096SOL    HW219188   4.410   1.638   2.736
 6097SOL     OW19189   3.268   1.939   2.097
 6097SOL    HW119190   3.216   1.981   2.023
 6097SOL    HW219191   3.225   1.852   2.123
 6098SOL     OW19192   1.609   0.876   6.337
 6098SOL    HW119193   1.692   0.822   6.323
 6098SOL    HW219194   1.631   0.959   6.389
 6099SOL     OW19195   5.897   4.342   5.376
 6099SOL    HW119196   5.808   4.297   5.382
 6099SOL    HW219197   5.969   4.274   5.388
 6100SOL     OW19198   6.864   2.446   0.096
 6100SOL    HW119199   6.923   2.513   0.141
 6100SOL    HW219200   6.863   2.464   7.018
 6101SOL     OW19201   5.977   0.084   3.793
 6101SOL    HW119202   5.917   0.099   3.714
 6101SOL    HW219203   6.001   7.008   3.798
 6102SOL     OW19204   3.138   0.150   5.016
 6102SOL    HW119205   3.176   0.126   5.105
 6102SOL    HW219206   3.202   0.210   4.968
 6103SOL     OW19207   6.127   1.168   5.522
 6103SOL    HW119208   6.111   1.106   5.445
 6103SOL    HW219209   6.041   1.183   5.571
 6104SOL     OW19210   1.320   3.286   0.911
 6104SOL    HW119211   1.259   3.328   0.978
 6104SOL    HW219212   1.289   3.193   0.891
 6105SOL     OW19213   3.559   5.095   4.657
 6105SOL    HW119214   3.506   5.013   4.678
 6105SOL    HW219215   3.566   5.107   4.558
 6106SOL     OW19216   3.211   4.966   4.134
 6106SOL    HW119217   3.226   4.963   4.035
 6106SOL    HW219218   3.296   4.942   4.180
 6107SOL     OW19219   2.210   4.826   5.427
 6107SOL    HW119220   2.234   4.818   5.524
 6107SOL    HW219221   2.131   4.886   5.417
 6108SOL     OW19222   5.826   1.379   4.341
 6108SOL    HW119223   5.743   1.377   4.285
 6108SOL    HW219224   5.864   1.287   4.346
 6109SOL     OW19225   6.597   4.430   1.951
 6109SOL    HW119226   6.584   4.403   1.856
 6109SOL    HW219227   6.511   4.419   2.001
 6110SOL     OW19228   3.491   2.112   3.280
 6110SOL    HW119229   3.577   2.102   3.230
 6110SOL    HW219230   3.508   2.103   3.378
 6111SOL     OW19231   0.391   4.559   3.206
 6111SOL    HW119232   0.358   4.469   3.178
 6111SOL    HW219233   0.352   4.583   3.295
 6112SOL     OW19234   0.848   2.291   1.254
 6112SOL    HW119235   0.870   2.344   1.172
 6112SOL    HW219236   0.919   2.221   1.268
 6113SOL     OW19237   1.818   5.190   5.441
 6113SOL    HW119238   1.765   5.225   5.363
 6113SOL    HW219239   1.759   5.135   5.499
 6114SOL     OW19240   5.567   5.479   0.998
 6114SOL    HW119241   5.608   5.399   1.040
 6114SOL    HW219242   5.468   5.468   0.994
 6115SOL     OW19243   6.319   4.417   2.350
 6115SOL    HW119244   6.307   4.502   2.401
 6115SOL    HW219245   6.245   4.354   2.372
 6116SOL     OW19246   3.511   2.031   0.917
 6116SOL    HW119247   3.572   2.091   0.865
 6116SOL    HW219248   3.447   2.086   0.970
 6117SOL     OW19249   5.754   6.670   3.947
 6117SOL    HW119250   5.765   6.595   3.882
 6117SOL    HW219251   5.671   6.722   3.924
 6118SOL     OW19252   6.379   0.262   3.285
 6118SOL    HW119253   6.428   0.188   3.239
 6118SOL    HW219254   6.357   0.234   3.379
 6119SOL     OW19255   6.195   5.864   4.206
 6119SOL    HW119256   6.137   5.911   4.272
 6119SOL    HW219257   6.164   5.769   4.196
 6120SOL     OW19258   2.591   1.470   3.425
 6120SOL    HW119259   2.674   1.455   3.371
 6120SOL    HW219260   2.594   1.412   3.507
 6121SOL     OW19261   6.635   2.081   4.477
 6121SOL    HW119262   6.708   2.132   4.430
 6121SOL    HW219263   6.672   1.996   4.514
 6122SOL     OW19264   4.394   6.461   4.219
 6122SOL    HW119265   4.322   6.404   4.179
 6122SOL    HW219266   4.408   6.541   4.161
 6123SOL     OW19267   6.246   1.771   2.820
 6123SOL    HW119268   6.222   1.867   2.807
 6123SOL    HW219269   6.183   1.714   2.767
 6124SOL     OW19270   2.877   0.247   4.984
 6124SOL    HW119271   2.958   0.189   4.976
 6124SOL    HW219272   2.796   0.195   4.960
 6125SOL     OW19273   0.699   4.790   2.223
 6125SOL    HW119274   0.630   4.835   2.280
 6125SOL    HW219275   0.656   4.759   2.138
 6126SOL     OW19276   4.081   6.067   2.416
 6126SOL    HW119277   4.167   6.089   2.369
 6126SOL    HW219278   4.011   6.044   2.348
 6127SOL     OW19279   2.008   4.864   1.809
 6127SOL    HW119280   2.032   4.769   1.829
 6127SOL    HW219281   2.052   4.924   1.875
 6128SOL     OW19282   5.081   2.985   1.363
 6128SOL    HW119283   5.161   2.986   1.303
 6128SOL    HW219284   5.107   2.952   1.454
 6129SOL     OW19285   6.276   3.826   3.500
 6129SOL    HW119286   6.372   3.816   3.473
 6129SOL    HW219287   6.230   3.888   3.437
 6130SOL     OW19288   5.261   4.610   1.996
 6130SOL    HW119289   5.349   4.638   2.034
 6130SOL    HW219290   5.240   4.665   1.915
 6131SOL     OW19291   6.519   1.586   5.189
 6131SOL    HW119292   6.536   1.491   5.216
 6131SOL    HW219293   6.579   1.647   5.240
 6132SOL     OW19294   6.869   2.804   0.735
 6132SOL    HW119295   6.799   2.830   0.802
 6132SOL    HW219296   6.837   2.828   0.643
 6133SOL     OW19297   1.104   4.324   0.934
 6133SOL    HW119298   1.197   4.360   0.925
 6133SOL    HW219299   1.106   4.225   0.925
 6134SOL     OW19300   4.386   3.744   6.973
 6134SOL    HW119301   4.393   3.678   6.898
 6134SOL    HW219302   4.431   3.707   0.034
 6135SOL     OW19303   5.560   0.258   2.737
 6135SOL    HW119304   5.526   0.168   2.767
 6135SOL    HW219305   5.600   0.306   2.815
 6136SOL     OW19306   0.632   1.618   2.415
 6136SOL    HW119307   0.640   1.572   2.326
 6136SOL    HW219308   0.707   1.588   2.474
 6137SOL     OW19309   3.057   6.990   6.440
 6137SOL    HW119310   3.071   7.009   6.537
 6137SOL    HW219311   3.141   7.011   6.390
 6138SOL     OW19312   5.296   0.199   3.119
 6138SOL    HW119313   5.213   0.169   3.167
 6138SOL    HW219314   5.347   0.119   3.087
 6139SOL     OW19315   2.587   5.660   3.311
 6139SOL    HW119316   2.628   5.751   3.302
 6139SOL    HW219317   2.564   5.643   3.406
 6140SOL     OW19318   1.213   5.254   1.141
 6140SOL    HW119319   1.143   5.321   1.117
 6140SOL    HW219320   1.173   5.184   1.201
 6141SOL     OW19321   6.615   5.935   5.780
 6141SOL    HW119322   6.541   5.868   5.788
 6141SOL    HW219323   6.703   5.888   5.780
 6142SOL     OW19324   1.037   4.252   3.120
 6142SOL    HW119325   1.091   4.175   3.086
 6142SOL    HW219326   1.082   4.338   3.095
 6143SOL     OW19327   6.312   4.253   6.806
 6143SOL    HW119328   6.294   4.315   6.730
 6143SOL    HW219329   6.403   4.213   6.796
 6144SOL     OW19330   6.918   4.451   4.490
 6144SOL    HW119331   6.991   4.514   4.514
 6144SOL    HW219332   6.941   4.406   4.403
 6145SOL     OW19333   5.917   5.425   3.174
 6145SOL    HW119334   6.014   5.406   3.158
 6145SOL    HW219335   5.871   5.342   3.205
 6146SOL     OW19336   5.625   2.754   3.424
 6146SOL    HW119337   5.719   2.724   3.409
 6146SOL    HW219338   5.562   2.690   3.379
 6147SOL     OW19339   0.982   3.972   2.839
 6147SOL    HW119340   1.062   4.012   2.884
 6147SOL    HW219341   0.994   3.975   2.740
 6148SOL     OW19342   6.236   5.614   3.319
 6148SOL    HW119343   6.241   5.714   3.320
 6148SOL    HW219344   6.186   5.584   3.238
 6149SOL     OW19345   2.091   6.397   4.897
 6149SOL    HW119346   2.135   6.310   4.875
 6149SOL    HW219347   2.107   6.463   4.823
 6150SOL     OW19348   4.485   5.897   6.094
 6150SOL    HW119349   4.511   5.805   6.065
 6150SOL    HW219350   4.555   5.935   6.154
 6151SOL     OW19351   4.678   0.307   5.586
 6151SOL    HW119352   4.686   0.319   5.488
 6151SOL    HW219353   4.652   0.212   5.606
 6152SOL     OW19354   6.894   4.630   5.336
 6152SOL    HW119355   6.889   4.707   5.400
 6152SOL    HW219356   6.804   4.586   5.330
 6153SOL     OW19357   4.479   4.967   6.613
 6153SOL    HW119358   4.529   5.029   6.672
 6153SOL    HW219359   4.385   5.001   6.601
 6154SOL     OW19360   5.252   2.811   3.763
 6154SOL    HW119361   5.306   2.878   3.713
 6154SOL    HW219362   5.250   2.835   3.860
 6155SOL     OW19363   2.135   4.719   4.436
 6155SOL    HW119364   2.181   4.687   4.518
 6155SOL    HW219365   2.200   4.769   4.379
 6156SOL     OW19366   5.835   0.792   4.578
 6156SOL    HW119367   5.819   0.873   4.635
 6156SOL    HW219368   5.909   0.812   4.513
 6157SOL     OW19369   1.049   1.580   3.758
 6157SOL    HW119370   1.083   1.493   3.794
 6157SOL    HW219371   0.962   1.603   3.802
 6158SOL     OW19372   5.209   6.779   0.342
 6158SOL    HW119373   5.253   6.838   0.275
 6158SOL    HW219374   5.147   6.833   0.399
 6159SOL     OW19375   5.217   3.148   6.701
 6159SOL    HW119376   5.184   3.162   6.794
 6159SOL    HW219377   5.139   3.136   6.640
 6160SOL     OW19378   6.449   4.622   0.852
 6160SOL    HW119379   6.387   4.699   0.861
 6160SOL    HW219380   6.460   4.598   0.755
 6161SOL     OW19381   5.843   0.337   6.400
 6161SOL    HW119382   5.867   0.250   6.357
 6161SOL    HW219383   5.898   0.350   6.482
 6162SOL     OW19384   5.700   5.218   4.343
 6162SOL    HW119385   5.645   5.202   4.425
 6162SOL    HW219386   5.789   5.174   4.354
 6163SOL     OW19387   6.696   4.196   2.107
 6163SOL    HW119388   6.686   4.291   2.076
 6163SOL    HW219389   6.777   4.156   2.065
 6164SOL     OW19390   4.945   2.718   0.701
 6164SOL    HW119391   4.973   2.771   0.620
 6164SOL    HW219392   4.968   2.622   0.688
 6165SOL     OW19393   3.975   0.517   1.802
 6165SOL    HW119394   4.000   0.427   1.836
 6165SOL    HW219395   3.880   0.518   1.773
 6166SOL     OW19396   3.998   1.337   0.706
 6166SOL    HW119397   4.044   1.423   0.727
 6166SOL    HW219398   3.946   1.347   0.621
 6167SOL     OW19399   7.008   5.423   3.722
 6167SOL    HW119400   7.016   5.457   3.816
 6167SOL    HW219401   6.959   5.337   3.722
 6168SOL     OW19402   0.878   2.984   0.993
 6168SOL    HW119403   0.950   2.968   1.060
 6168SOL    HW219404   0.895   3.072   0.946
 6169SOL     OW19405   1.976   4.534   1.529
 6169SOL    HW119406   1.894   4.535   1.586
 6169SOL    HW219407   2.031   4.454   1.552
 6170SOL     OW19408   6.823   1.841   3.686
 6170SOL    HW119409   6.868   1.871   3.602
 6170SOL    HW219410   6.740   1.895   3.700
 6171SOL     OW19411   5.988   0.972   5.819
 6171SOL    HW119412   5.932   0.948   5.740
 6171SOL    HW219413   5.930   0.979   5.900
 6172SOL     OW19414   1.017   4.535   4.324
 6172SOL    HW119415   1.031   4.498   4.416
 6172SOL    HW219416   1.053   4.628   4.319
 6173SOL     OW19417   5.630   6.208   2.942
 6173SOL    HW119418   5.638   6.135   2.874
 6173SOL    HW219419   5.715   6.260   2.945
 6174SOL     OW19420   6.600   2.630   2.761
 6174SOL    HW119421   6.563   2.689   2.688
 6174SOL    HW219422   6.610   2.683   2.845
 6175SOL     OW19423   3.880   1.857   6.947
 6175SOL    HW119424   3.904   1.886   0.019
 6175SOL    HW219425   3.942   1.899   6.882
 6176SOL     OW19426   2.925   3.700   6.167
 6176SOL    HW119427   2.923   3.650   6.254
 6176SOL    HW219428   2.832   3.718   6.136
 6177SOL     OW19429   5.995   5.702   1.475
 6177SOL    HW119430   6.051   5.776   1.513
 6177SOL    HW219431   6.051   5.646   1.414
 6178SOL     OW19432   4.187   4.876   2.089
 6178SOL    HW119433   4.123   4.882   2.166
 6178SOL    HW219434   4.237   4.790   2.095
 6179SOL     OW19435   5.761   5.116   5.214
 6179SOL    HW119436   5.763   5.095   5.117
 6179SOL    HW219437   5.854   5.114   5.251
 6180SOL     OW19438   2.256   4.027   6.461
 6180SOL    HW119439   2.160   4.026   6.434
 6180SOL    HW219440   2.282   4.120   6.489
 6181SOL     OW19441   6.210   6.196   0.144
 6181SOL    HW119442   6.282   6.159   0.085
 6181SOL    HW219443   6.190   6.290   0.118
 6182SOL     OW19444   2.774   2.465   6.619
 6182SOL    HW119445   2.844   2.416   6.671
 6182SOL    HW219446   2.713   2.399   6.575
 6183SOL     OW19447   0.211   0.717   0.646
 6183SOL    HW119448   0.238   0.768   0.565
 6183SOL    HW219449   0.147   0.645   0.620
 6184SOL     OW19450   3.376   6.670   5.197
 6184SOL    HW119451   3.386   6.675   5.097
 6184SOL    HW219452   3.407   6.756   5.237
 6185SOL     OW19453   3.440   3.237   5.477
 6185SOL    HW119454   3.481   3.319   5.438
 6185SOL    HW219455   3.493   3.157   5.450
 6186SOL     OW19456   1.445   1.926   2.855
 6186SOL    HW119457   1.464   1.839   2.900
 6186SOL    HW219458   1.465   2.001   2.919
 6187SOL     OW19459   3.053   1.851   6.350
 6187SOL    HW119460   3.137   1.895   6.319
 6187SOL    HW219461   3.010   1.908   6.421
 6188SOL     OW19462   2.030   1.474   5.782
 6188SOL    HW119463   1.946   1.439   5.741
 6188SOL    HW219464   2.101   1.482   5.713
 6189SOL     OW19465   6.603   5.312   0.425
 6189SOL    HW119466   6.642   5.402   0.442
 6189SOL    HW219467   6.514   5.321   0.382
 6190SOL     OW19468   0.326   3.245   3.643
 6190SOL    HW119469   0.402   3.180   3.647
 6190SOL    HW219470   0.348   3.325   3.699
 6191SOL     OW19471   2.340   4.069   1.016
 6191SOL    HW119472   2.298   4.073   0.926
 6191SOL    HW219473   2.274   4.034   1.082
 6192SOL     OW19474   2.966   2.033   1.344
 6192SOL    HW119475   2.967   1.940   1.308
 6192SOL    HW219476   3.057   2.057   1.377
 6193SOL     OW19477   4.112   6.126   6.764
 6193SOL    HW119478   4.209   6.121   6.744
 6193SOL    HW219479   4.084   6.221   6.772
 6194SOL     OW19480   5.503   6.988   6.312
 6194SOL    HW119481   5.579   6.967   6.250
 6194SOL    HW219482   5.443   6.908   6.320
 6195SOL     OW19483   5.065   6.025   6.140
 6195SOL    HW119484   4.979   5.980   6.115
 6195SOL    HW219485   5.114   6.053   6.058
 6196SOL     OW19486   6.098   3.480   3.496
 6196SOL    HW119487   6.063   3.488   3.403
 6196SOL    HW219488   6.106   3.384   3.522
 6197SOL     OW19489   1.041   5.458   1.117
 6197SOL    HW119490   1.055   5.542   1.063
 6197SOL    HW219491   0.943   5.440   1.125
 6198SOL     OW19492   5.994   1.366   6.699
 6198SOL    HW119493   5.992   1.428   6.777
 6198SOL    HW219494   6.087   1.332   6.686
 6199SOL     OW19495   2.090   6.643   6.461
 6199SOL    HW119496   1.992   6.656   6.476
 6199SOL    HW219497   2.139   6.657   6.547
 6200SOL     OW19498   1.084   0.200   0.732
 6200SOL    HW119499   1.061   0.107   0.705
 6200SOL    HW219500   1.139   0.243   0.660
 6201SOL     OW19501   0.499   4.910   3.285
 6201SOL    HW119502   0.468   4.833   3.230
 6201SOL    HW219503   0.438   4.988   3.272
 6202SOL     OW19504   5.617   0.571   2.186
 6202SOL    HW119505   5.621   0.659   2.139
 6202SOL    HW219506   5.532   0.564   2.238
 6203SOL     OW19507   6.604   0.521   1.877
 6203SOL    HW119508   6.621   0.619   1.868
 6203SOL    HW219509   6.505   0.503   1.875
 6204SOL     OW19510   1.411   5.548   4.833
 6204SOL    HW119511   1.402   5.529   4.735
 6204SOL    HW219512   1.469   5.628   4.847
 6205SOL     OW19513   5.985   4.741   3.796
 6205SOL    HW119514   5.995   4.684   3.878
 6205SOL    HW219515   6.070   4.790   3.779
 6206SOL     OW19516   5.700   2.088   3.563
 6206SOL    HW119517   5.659   2.043   3.642
 6206SOL    HW219518   5.645   2.069   3.482
 6207SOL     OW19519   1.699   5.756   3.548
 6207SOL    HW119520   1.733   5.707   3.629
 6207SOL    HW219521   1.621   5.707   3.510
 6208SOL     OW19522   3.989   4.484   6.275
 6208SOL    HW119523   4.036   4.458   6.191
 6208SOL    HW219524   3.894   4.507   6.254
 6209SOL     OW19525   4.005   1.328   2.037
 6209SOL    HW119526   4.008   1.350   2.135
 6209SOL    HW219527   4.016   1.412   1.984
 6210SOL     OW19528   5.724   1.006   4.068
 6210SOL    HW119529   5.713   0.997   3.969
 6210SOL    HW219530   5.773   1.091   4.088
 6211SOL     OW19531   5.484   3.410   5.044
 6211SOL    HW119532   5.390   3.379   5.060
 6211SOL    HW219533   5.535   3.337   4.997
 6212SOL     OW19534   5.195   4.420   5.144
 6212SOL    HW119535   5.115   4.367   5.171
 6212SOL    HW219536   5.170   4.484   5.071
 6213SOL     OW19537   4.891   6.086   0.421
 6213SOL    HW119538   4.896   6.015   0.351
 6213SOL    HW219539   4.854   6.170   0.381
 6214SOL     OW19540   6.033   0.156   6.606
 6214SOL    HW119541   6.068   0.244   6.577
 6214SOL    HW219542   6.109   0.094   6.626
 6215SOL     OW19543   5.580   1.984   5.401
 6215SOL    HW119544   5.510   1.921   5.367
 6215SOL    HW219545   5.668   1.962   5.361
 6216SOL     OW19546   4.744   1.766   5.183
 6216SOL    HW119547   4.771   1.786   5.089
 6216SOL    HW219548   4.692   1.844   5.220
 6217SOL     OW19549   0.328   4.199   2.410
 6217SOL    HW119550   0.247   4.147   2.383
 6217SOL    HW219551   0.328   4.288   2.364
 6218SOL     OW19552   4.345   6.376   1.159
 6218SOL    HW119553   4.246   6.367   1.147
 6218SOL    HW219554   4.369   6.472   1.172
 6219SOL     OW19555   2.009   0.299   6.868
 6219SOL    HW119556   2.034   0.369   6.934
 6219SOL    HW219557   2.051   0.319   6.779
 6220SOL     OW19558   3.274   6.910   1.960
 6220SOL    HW119559   3.239   6.831   1.909
 6220SOL    HW219560   3.198   6.965   1.993
 6221SOL     OW19561   4.738   5.228   5.818
 6221SOL    HW119562   4.660   5.230   5.881
 6221SOL    HW219563   4.803   5.299   5.843
 6222SOL     OW19564   6.804   1.212   2.461
 6222SOL    HW119565   6.791   1.146   2.535
 6222SOL    HW219566   6.737   1.285   2.469
 6223SOL     OW19567   6.651   4.663   4.601
 6223SOL    HW119568   6.666   4.569   4.570
 6223SOL    HW219569   6.734   4.716   4.589
 6224SOL     OW19570   3.844   6.493   0.146
 6224SOL    HW119571   3.793   6.518   0.228
 6224SOL    HW219572   3.820   6.554   0.071
 6225SOL     OW19573   4.988   6.347   6.195
 6225SOL    HW119574   4.980   6.247   6.197
 6225SOL    HW219575   4.915   6.385   6.138
 6226SOL     OW19576   0.833   0.899   4.039
 6226SOL    HW119577   0.743   0.863   4.016
 6226SOL    HW219578   0.840   0.994   4.009
 6227SOL     OW19579   2.683   5.088   5.871
 6227SOL    HW119580   2.688   5.143   5.954
 6227SOL    HW219581   2.707   5.145   5.792
 6228SOL     OW19582   0.883   3.149   3.366
 6228SOL    HW119583   0.844   3.241   3.361
 6228SOL    HW219584   0.978   3.155   3.395
 6229SOL     OW19585   0.428   3.873   4.256
 6229SOL    HW119586   0.511   3.930   4.253
 6229SOL    HW219587   0.385   3.872   4.166
 6230SOL     OW19588   0.843   0.643   1.627
 6230SOL    HW119589   0.758   0.628   1.679
 6230SOL    HW219590   0.903   0.564   1.638
 6231SOL     OW19591   2.297   5.477   5.820
 6231SOL    HW119592   2.290   5.385   5.781
 6231SOL    HW219593   2.302   5.544   5.746
 6232SOL     OW19594   4.401   0.312   6.889
 6232SOL    HW119595   4.352   0.400   6.887
 6232SOL    HW219596   4.470   0.315   6.961
 6233SOL     OW19597   0.118   3.688   1.052
 6233SOL    HW119598   0.131   3.631   1.133
 6233SOL    HW219599   0.091   3.630   0.974
 6234SOL     OW19600   5.132   5.389   3.943
 6234SOL    HW119601   5.190   5.311   3.968
 6234SOL    HW219602   5.136   5.404   3.844
 6235SOL     OW19603   0.668   0.878   2.001
 6235SOL    HW119604   0.732   0.950   1.974
 6235SOL    HW219605   0.635   0.830   1.920
 6236SOL     OW19606   6.688   5.896   1.241
 6236SOL    HW119607   6.607   5.859   1.195
 6236SOL    HW219608   6.659   5.957   1.315
 6237SOL     OW19609   3.330   0.889   2.483
 6237SOL    HW119610   3.393   0.830   2.534
 6237SOL    HW219611   3.293   0.959   2.544
 6238SOL     OW19612   2.502   0.965   3.457
 6238SOL    HW119613   2.511   1.009   3.546
 6238SOL    HW219614   2.436   0.890   3.464
 6239SOL     OW19615   4.559   1.699   4.356
 6239SOL    HW119616   4.626   1.742   4.416
 6239SOL    HW219617   4.602   1.624   4.306
 6240SOL     OW19618   4.052   3.282   4.103
 6240SOL    HW119619   3.977   3.348   4.097
 6240SOL    HW219620   4.014   3.190   4.113
 6241SOL     OW19621   3.605   0.066   3.587
 6241SOL    HW119622   3.668   7.012   3.607
 6241SOL    HW219623   3.637   0.116   3.506
 6242SOL     OW19624   3.200   2.129   4.205
 6242SOL    HW119625   3.279   2.139   4.143
 6242SOL    HW219626   3.116   2.142   4.153
 6243SOL     OW19627   4.239   1.388   0.043
 6243SOL    HW119628   4.276   1.297   0.059
 6243SOL    HW219629   4.158   1.381   7.005
 6244SOL     OW19630   4.513   2.423   1.991
 6244SOL    HW119631   4.461   2.423   2.077
 6244SOL    HW219632   4.535   2.517   1.966
 6245SOL     OW19633   0.077   5.243   2.265
 6245SOL    HW119634   0.127   5.312   2.318
 6245SOL    HW219635   7.016   5.215   2.316
 6246SOL     OW19636   0.510   6.707   4.980
 6246SOL    HW119637   0.540   6.760   4.900
 6246SOL    HW219638   0.417   6.672   4.963
 6247SOL     OW19639   5.544   5.261   2.921
 6247SOL    HW119640   5.594   5.284   3.004
 6247SOL    HW219641   5.580   5.176   2.883
 6248SOL     OW19642   4.233   2.730   5.553
 6248SOL    HW119643   4.273   2.704   5.466
 6248SOL    HW219644   4.306   2.747   5.620
 6249SOL     OW19645   5.715   3.784   3.604
 6249SOL    HW119646   5.743   3.877   3.582
 6249SOL    HW219647   5.616   3.774   3.589
 6250SOL     OW19648   5.790   6.900   6.182
 6250SOL    HW119649   5.853   6.965   6.225
 6250SOL    HW219650   5.726   6.950   6.124
 6251SOL     OW19651   2.819   0.765   4.457
 6251SOL    HW119652   2.822   0.829   4.533
 6251SOL    HW219653   2.889   0.789   4.390
 6252SOL     OW19654   3.026   5.583   0.756
 6252SOL    HW119655   2.965   5.508   0.782
 6252SOL    HW219656   2.972   5.667   0.747
 6253SOL     OW19657   4.907   6.302   3.993
 6253SOL    HW119658   4.837   6.246   3.950
 6253SOL    HW219659   4.868   6.344   4.076
 6254SOL     OW19660   0.579   0.095   1.535
 6254SOL    HW119661   0.500   0.049   1.574
 6254SOL    HW219662   0.575   0.193   1.557
 6255SOL     OW19663   1.680   1.450   0.832
 6255SOL    HW119664   1.769   1.409   0.810
 6255SOL    HW219665   1.649   1.504   0.754
 6256SOL     OW19666   6.120   5.574   2.174
 6256SOL    HW119667   6.081   5.552   2.263
 6256SOL    HW219668   6.155   5.490   2.131
 6257SOL     OW19669   3.644   3.592   0.853
 6257SOL    HW119670   3.566   3.614   0.911
 6257SOL    HW219671   3.729   3.607   0.904
 6258SOL     OW19672   4.302   5.264   4.868
 6258SOL    HW119673   4.292   5.284   4.965
 6258SOL    HW219674   4.215   5.232   4.831
 6259SOL     OW19675   4.272   0.830   5.106
 6259SOL    HW119676   4.313   0.746   5.141
 6259SOL    HW219677   4.233   0.882   5.182
 6260SOL     OW19678   3.035   1.991   0.741
 6260SOL    HW119679   2.979   1.945   0.672
 6260SOL    HW219680   3.068   2.078   0.704
 6261SOL     OW19681   3.867   0.046   0.710
 6261SOL    HW119682   3.782   0.011   0.672
 6261SOL    HW219683   3.862   0.046   0.810
 6262SOL     OW19684   6.096   0.845   2.559
 6262SOL    HW119685   6.035   0.843   2.638
 6262SOL    HW219686   6.170   0.910   2.575
 6263SOL     OW19687   6.002   6.070   6.326
 6263SOL    HW119688   5.924   6.019   6.362
 6263SOL    HW219689   6.087   6.033   6.364
 6264SOL     OW19690   1.330   6.027   0.533
 6264SOL    HW119691   1.410   5.996   0.482
 6264SOL    HW219692   1.305   5.959   0.601
 6265SOL     OW19693   3.478   0.169   6.877
 6265SOL    HW119694   3.431   0.081   6.886
 6265SOL    HW219695   3.533   0.169   6.793
 6266SOL     OW19696   3.546   5.211   3.023
 6266SOL    HW119697   3.517   5.222   3.118
 6266SOL    HW219698   3.646   5.208   3.019
 6267SOL     OW19699   0.615   6.299   4.317
 6267SOL    HW119700   0.665   6.225   4.362
 6267SOL    HW219701   0.528   6.314   4.362
 6268SOL     OW19702   3.753   1.717   1.324
 6268SOL    HW119703   3.706   1.631   1.343
 6268SOL    HW219704   3.718   1.757   1.239
 6269SOL     OW19705   6.442   6.275   6.797
 6269SOL    HW119706   6.355   6.302   6.754
 6269SOL    HW219707   6.506   6.352   6.795
 6270SOL     OW19708   1.393   6.248   0.950
 6270SOL    HW119709   1.426   6.324   1.005
 6270SOL    HW219710   1.421   6.261   0.855
 6271SOL     OW19711   6.690   2.956   6.410
 6271SOL    HW119712   6.701   3.055   6.404
 6271SOL    HW219713   6.709   2.926   6.503
 6272SOL     OW19714   0.679   1.526   6.736
 6272SOL    HW119715   0.677   1.479   6.824
 6272SOL    HW219716   0.649   1.620   6.747
 6273SOL     OW19717   0.287   6.241   2.791
 6273SOL    HW119718   0.380   6.256   2.760
 6273SOL    HW219719   0.235   6.193   2.721
 6274SOL     OW19720   2.937   6.290   3.955
 6274SOL    HW119721   3.021   6.308   4.006
 6274SOL    HW219722   2.958   6.238   3.872
 6275SOL     OW19723   2.497   5.770   0.421
 6275SOL    HW119724   2.556   5.841   0.459
 6275SOL    HW219725   2.550   5.687   0.404
 6276SOL     OW19726   1.907   5.532   2.477
 6276SOL    HW119727   1.882   5.435   2.479
 6276SOL    HW219728   2.003   5.542   2.502
 6277SOL     OW19729   5.042   2.469   1.145
 6277SOL    HW119730   5.055   2.385   1.197
 6277SOL    HW219731   5.070   2.547   1.200
 6278SOL     OW19732   4.030   2.463   0.567
 6278SOL    HW119733   4.043   2.457   0.666
 6278SOL    HW219734   4.119   2.465   0.522
 6279SOL     OW19735   2.242   6.534   2.010
 6279SOL    HW119736   2.244   6.530   1.910
 6279SOL    HW219737   2.329   6.570   2.043
 6280SOL     OW19738   5.049   1.281   6.224
 6280SOL    HW119739   5.141   1.290   6.186
 6280SOL    HW219740   4.982   1.322   6.161
 6281SOL     OW19741   5.023   4.049   6.206
 6281SOL    HW119742   5.096   4.028   6.271
 6281SOL    HW219743   5.050   4.127   6.150
 6282SOL     OW19744   0.834   3.460   5.695
 6282SOL    HW119745   0.820   3.428   5.601
 6282SOL    HW219746   0.931   3.461   5.716
 6283SOL     OW19747   2.775   0.317   4.399
 6283SOL    HW119748   2.697   0.261   4.426
 6283SOL    HW219749   2.747   0.412   4.390
 6284SOL     OW19750   1.801   3.245   5.534
 6284SOL    HW119751   1.857   3.312   5.582
 6284SOL    HW219752   1.817   3.154   5.572
 6285SOL     OW19753   1.419   3.964   2.717
 6285SOL    HW119754   1.445   4.011   2.801
 6285SOL    HW219755   1.441   4.022   2.638
 6286SOL     OW19756   0.616   2.340   6.757
 6286SOL    HW119757   0.577   2.252   6.782
 6286SOL    HW219758   0.619   2.348   6.657
 6287SOL     OW19759   4.689   4.729   4.700
 6287SOL    HW119760   4.620   4.750   4.770
 6287SOL    HW219761   4.653   4.662   4.636
 6288SOL     OW19762   2.950   3.269   6.256
 6288SOL    HW119763   3.001   3.342   6.210
 6288SOL    HW219764   2.923   3.200   6.189
 6289SOL     OW19765   2.153   4.633   4.762
 6289SOL    HW119766   2.177   4.685   4.844
 6289SOL    HW219767   2.237   4.597   4.720
 6290SOL     OW19768   6.505   6.962   3.964
 6290SOL    HW119769   6.435   6.924   3.904
 6290SOL    HW219770   6.514   0.040   3.947
 6291SOL     OW19771   3.556   3.639   1.959
 6291SOL    HW119772   3.602   3.609   2.042
 6291SOL    HW219773   3.558   3.566   1.891
 6292SOL     OW19774   1.429   4.770   4.776
 6292SOL    HW119775   1.498   4.841   4.761
 6292SOL    HW219776   1.376   4.756   4.692
 6293SOL     OW19777   2.800   1.233   6.369
 6293SOL    HW119778   2.712   1.190   6.349
 6293SOL    HW219779   2.792   1.291   6.450
 6294SOL     OW19780   1.864   1.376   2.560
 6294SOL    HW119781   1.782   1.360   2.616
 6294SOL    HW219782   1.881   1.297   2.502
 6295SOL     OW19783   4.650   3.754   6.480
 6295SOL    HW119784   4.673   3.688   6.551
 6295SOL    HW219785   4.706   3.736   6.399
 6296SOL     OW19786   0.748   2.833   0.052
 6296SOL    HW119787   0.684   2.910   0.044
 6296SOL    HW219788   0.820   2.857   0.117
 6297SOL     OW19789   6.665   1.268   4.013
 6297SOL    HW119790   6.599   1.196   4.033
 6297SOL    HW219791   6.750   1.251   4.062
 6298SOL     OW19792   6.994   6.735   0.266
 6298SOL    HW119793   0.059   6.694   0.297
 6298SOL    HW219794   7.009   6.831   0.244
 6299SOL     OW19795   3.627   2.061   4.073
 6299SOL    HW119796   3.686   2.038   3.996
 6299SOL    HW219797   3.532   2.069   4.041
 6300SOL     OW19798   3.067   2.119   0.968
 6300SOL    HW119799   2.990   2.179   0.991
 6300SOL    HW219800   3.040   2.057   0.895
 6301SOL     OW19801   3.720   6.185   0.167
 6301SOL    HW119802   3.813   6.193   0.203
 6301SOL    HW219803   3.671   6.113   0.217
 6302SOL     OW19804   1.539   3.324   0.223
 6302SOL    HW119805   1.502   3.230   0.219
 6302SOL    HW219806   1.511   3.367   0.308
 6303SOL     OW19807   6.885   4.810   4.582
 6303SOL    HW119808   6.899   4.833   4.486
 6303SOL    HW219809   6.960   4.848   4.636
 6304SOL     OW19810   2.707   0.929   4.196
 6304SOL    HW119811   2.758   0.870   4.259
 6304SOL    HW219812   2.744   0.918   4.103
 6305SOL     OW19813   0.714   5.748   5.866
 6305SOL    HW119814   0.674   5.721   5.778
 6305SOL    HW219815   0.792   5.689   5.887
 6306SOL     OW19816   0.807   4.348   4.321
 6306SOL    HW119817   0.787   4.298   4.405
 6306SOL    HW219818   0.901   4.383   4.325
 6307SOL     OW19819   3.110   3.077   2.669
 6307SOL    HW119820   3.162   3.023   2.604
 6307SOL    HW219821   3.152   3.069   2.760
 6308SOL     OW19822   1.106   2.094   0.972
 6308SOL    HW119823   1.013   2.075   0.940
 6308SOL    HW219824   1.109   2.090   1.072
 6309SOL     OW19825   1.771   6.008   4.628
 6309SOL    HW119826   1.869   6.008   4.606
 6309SOL    HW219827   1.759   6.020   4.727
 6310SOL     OW19828   0.423   0.066   3.637
 6310SOL    HW119829   0.324   0.071   3.625
 6310SOL    HW219830   0.469   0.082   3.550
 6311SOL     OW19831   6.644   1.113   6.391
 6311SOL    HW119832   6.580   1.178   6.349
 6311SOL    HW219833   6.705   1.163   6.453
 6312SOL     OW19834   3.246   5.447   1.211
 6312SOL    HW119835   3.337   5.405   1.212
 6312SOL    HW219836   3.248   5.528   1.151
 6313SOL     OW19837   5.699   5.005   4.057
 6313SOL    HW119838   5.688   5.084   3.996
 6313SOL    HW219839   5.627   4.939   4.040
 6314SOL     OW19840   2.079   6.721   3.033
 6314SOL    HW119841   1.984   6.690   3.041
 6314SOL    HW219842   2.118   6.732   3.124
 6315SOL     OW19843   2.534   2.253   3.625
 6315SOL    HW119844   2.483   2.167   3.620
 6315SOL    HW219845   2.533   2.297   3.535
 6316SOL     OW19846   4.609   0.392   5.164
 6316SOL    HW119847   4.620   0.354   5.072
 6316SOL    HW219848   4.684   0.456   5.182
 6317SOL     OW19849   4.591   4.784   2.719
 6317SOL    HW119850   4.653   4.713   2.686
 6317SOL    HW219851   4.629   4.826   2.801
 6318SOL     OW19852   6.740   6.920   0.173
 6318SOL    HW119853   6.791   6.983   0.232
 6318SOL    HW219854   6.703   6.971   0.095
 6319SOL     OW19855   4.732   2.434   4.511
 6319SOL    HW119856   4.700   2.525   4.540
 6319SOL    HW219857   4.781   2.442   4.425
 6320SOL     OW19858   6.549   1.699   6.183
 6320SOL    HW119859   6.571   1.796   6.187
 6320SOL    HW219860   6.541   1.670   6.088
 6321SOL     OW19861   0.788   3.035   0.298
 6321SOL    HW119862   0.881   3.000   0.291
 6321SOL    HW219863   0.791   3.135   0.306
 6322SOL     OW19864   1.503   1.705   3.015
 6322SOL    HW119865   1.443   1.733   3.090
 6322SOL    HW219866   1.554   1.624   3.043
 6323SOL     OW19867   1.836   5.576   1.041
 6323SOL    HW119868   1.792   5.614   1.123
 6323SOL    HW219869   1.767   5.565   0.970
 6324SOL     OW19870   4.633   2.854   1.397
 6324SOL    HW119871   4.646   2.761   1.431
 6324SOL    HW219872   4.535   2.873   1.386
 6325SOL     OW19873   1.315   3.528   3.351
 6325SOL    HW119874   1.342   3.437   3.317
 6325SOL    HW219875   1.216   3.531   3.363
 6326SOL     OW19876   4.934   5.055   5.367
 6326SOL    HW119877   4.886   5.104   5.440
 6326SOL    HW219878   5.004   4.996   5.407
 6327SOL     OW19879   0.651   0.958   2.854
 6327SOL    HW119880   0.653   0.928   2.759
 6327SOL    HW219881   0.699   1.046   2.862
 6328SOL     OW19882   4.363   3.373   5.373
 6328SOL    HW119883   4.406   3.455   5.333
 6328SOL    HW219884   4.428   3.329   5.435
 6329SOL     OW19885   0.504   2.858   5.020
 6329SOL    HW119886   0.480   2.768   5.057
 6329SOL    HW219887   0.586   2.851   4.963
 6330SOL     OW19888   4.389   2.094   3.841
 6330SOL    HW119889   4.400   2.022   3.772
 6330SOL    HW219890   4.415   2.058   3.931
 6331SOL     OW19891   1.551   3.730   3.955
 6331SOL    HW119892   1.597   3.704   3.871
 6331SOL    HW219893   1.580   3.822   3.981
 6332SOL     OW19894   4.160   1.559   0.450
 6332SOL    HW119895   4.130   1.480   0.396
 6332SOL    HW219896   4.211   1.527   0.530
 6333SOL     OW19897   5.406   0.534   0.607
 6333SOL    HW119898   5.408   0.593   0.527
 6333SOL    HW219899   5.500   0.522   0.642
 6334SOL     OW19900   2.184   1.105   1.969
 6334SOL    HW119901   2.238   1.104   1.885
 6334SOL    HW219902   2.197   1.192   2.016
 6335SOL     OW19903   6.732   3.269   6.099
 6335SOL    HW119904   6.820   3.221   6.101
 6335SOL    HW219905   6.662   3.209   6.059
 6336SOL     OW19906   1.289   4.573   5.470
 6336SOL    HW119907   1.324   4.510   5.401
 6336SOL    HW219908   1.266   4.661   5.428
 6337SOL     OW19909   6.166   6.961   4.828
 6337SOL    HW119910   6.076   6.934   4.861
 6337SOL    HW219911   6.158   0.021   4.770
 6338SOL     OW19912   0.802   0.582   3.102
 6338SOL    HW119913   0.832   0.495   3.141
 6338SOL    HW219914   0.874   0.650   3.112
 6339SOL     OW19915   0.348   3.532   3.205
 6339SOL    HW119916   0.386   3.494   3.289
 6339SOL    HW219917   0.253   3.502   3.196
 6340SOL     OW19918   2.866   5.447   6.545
 6340SOL    HW119919   2.792   5.507   6.516
 6340SOL    HW219920   2.884   5.378   6.475
 6341SOL     OW19921   0.479   4.585   2.647
 6341SOL    HW119922   0.458   4.555   2.740
 6341SOL    HW219923   0.544   4.661   2.651
 6342SOL     OW19924   2.334   0.696   1.488
 6342SOL    HW119925   2.331   0.596   1.484
 6342SOL    HW219926   2.242   0.731   1.506
 6343SOL     OW19927   1.206   5.530   0.004
 6343SOL    HW119928   1.136   5.459   0.012
 6343SOL    HW219929   1.172   5.615   0.044
 6344SOL     OW19930   0.998   1.285   4.756
 6344SOL    HW119931   0.904   1.294   4.724
 6344SOL    HW219932   1.019   1.360   4.820
 6345SOL     OW19933   6.346   3.015   2.679
 6345SOL    HW119934   6.443   3.010   2.656
 6345SOL    HW219935   6.310   2.923   2.694
 6346SOL     OW19936   0.467   4.614   5.094
 6346SOL    HW119937   0.441   4.589   5.000
 6346SOL    HW219938   0.385   4.616   5.151
 6347SOL     OW19939   1.963   2.460   3.706
 6347SOL    HW119940   2.032   2.478   3.775
 6347SOL    HW219941   1.930   2.366   3.716
 6348SOL     OW19942   0.880   2.556   6.688
 6348SOL    HW119943   0.969   2.529   6.651
 6348SOL    HW219944   0.858   2.498   6.767
 6349SOL     OW19945   5.541   0.929   0.999
 6349SOL    HW119946   5.501   0.957   0.912
 6349SOL    HW219947   5.469   0.894   1.059
 6350SOL     OW19948   0.604   6.127   1.045
 6350SOL    HW119949   0.578   6.038   1.008
 6350SOL    HW219950   0.694   6.153   1.009
 6351SOL     OW19951   5.995   2.974   1.935
 6351SOL    HW119952   6.012   2.944   2.029
 6351SOL    HW219953   6.023   2.902   1.872
 6352SOL     OW19954   4.455   0.868   4.363
 6352SOL    HW119955   4.431   0.881   4.459
 6352SOL    HW219956   4.373   0.877   4.306
 6353SOL     OW19957   3.333   6.664   5.705
 6353SOL    HW119958   3.377   6.751   5.684
 6353SOL    HW219959   3.254   6.679   5.765
 6354SOL     OW19960   5.298   4.733   2.417
 6354SOL    HW119961   5.232   4.662   2.440
 6354SOL    HW219962   5.262   4.789   2.342
 6355SOL     OW19963   4.368   5.791   0.646
 6355SOL    HW119964   4.276   5.828   0.663
 6355SOL    HW219965   4.371   5.748   0.556
 6356SOL     OW19966   6.771   6.775   5.938
 6356SOL    HW119967   6.789   6.787   6.035
 6356SOL    HW219968   6.716   6.693   5.924
 6357SOL     OW19969   4.893   1.827   3.150
 6357SOL    HW119970   4.959   1.761   3.113
 6357SOL    HW219971   4.895   1.911   3.096
 6358SOL     OW19972   1.195   1.500   4.507
 6358SOL    HW119973   1.217   1.410   4.544
 6358SOL    HW219974   1.157   1.490   4.415
 6359SOL     OW19975   6.105   5.095   0.759
 6359SOL    HW119976   6.078   5.002   0.733
 6359SOL    HW219977   6.046   5.161   0.712
 6360SOL     OW19978   2.074   2.693   0.934
 6360SOL    HW119979   2.165   2.661   0.959
 6360SOL    HW219980   2.048   2.769   0.993
 6361SOL     OW19981   0.516   2.061   1.942
 6361SOL    HW119982   0.514   2.132   2.013
 6361SOL    HW219983   0.426   2.054   1.900
 6362SOL     OW19984   1.308   5.155   0.288
 6362SOL    HW119985   1.355   5.106   0.362
 6362SOL    HW219986   1.375   5.193   0.225
 6363SOL     OW19987   1.005   2.409   2.107
 6363SOL    HW119988   0.909   2.392   2.129
 6363SOL    HW219989   1.045   2.468   2.176
 6364SOL     OW19990   2.999   1.534   4.078
 6364SOL    HW119991   2.979   1.437   4.083
 6364SOL    HW219992   2.942   1.584   4.143
 6365SOL     OW19993   6.385   6.712   2.971
 6365SOL    HW119994   6.433   6.743   3.054
 6365SOL    HW219995   6.290   6.690   2.994
 6366SOL     OW19996   5.856   1.507   5.412
 6366SOL    HW119997   5.948   1.487   5.378
 6366SOL    HW219998   5.852   1.491   5.511
 6367SOL     OW19999   1.078   2.311   4.407
 6367SOL    HW120000   1.119   2.340   4.493
 6367SOL    HW220001   1.025   2.228   4.421
 6368SOL     OW20002   4.896   3.293   5.010
 6368SOL    HW120003   4.953   3.271   4.931
 6368SOL    HW220004   4.850   3.381   4.995
 6369SOL     OW20005   3.853   4.196   0.864
 6369SOL    HW120006   3.791   4.159   0.934
 6369SOL    HW220007   3.811   4.275   0.820
 6370SOL     OW20008   5.757   3.950   4.947
 6370SOL    HW120009   5.701   4.032   4.939
 6370SOL    HW220010   5.853   3.973   4.930
 6371SOL     OW20011   5.291   3.944   0.794
 6371SOL    HW120012   5.260   4.003   0.869
 6371SOL    HW220013   5.250   3.976   0.708
 6372SOL     OW20014   6.679   1.331   0.923
 6372SOL    HW120015   6.674   1.325   1.023
 6372SOL    HW220016   6.729   1.414   0.897
 6373SOL     OW20017   5.131   2.715   1.813
 6373SOL    HW120018   5.126   2.658   1.895
 6373SOL    HW220019   5.055   2.692   1.752
 6374SOL     OW20020   3.977   3.980   6.250
 6374SOL    HW120021   4.039   4.033   6.308
 6374SOL    HW220022   3.977   3.884   6.281
 6375SOL     OW20023   4.773   1.123   1.527
 6375SOL    HW120024   4.693   1.182   1.518
 6375SOL    HW220025   4.820   1.117   1.439
 6376SOL     OW20026   2.730   6.656   0.114
 6376SOL    HW120027   2.666   6.649   0.191
 6376SOL    HW220028   2.793   6.578   0.115
 6377SOL     OW20029   7.014   0.599   6.926
 6377SOL    HW120030   6.924   0.562   6.952
 6377SOL    HW220031   0.040   0.533   6.867
 6378SOL     OW20032   5.836   3.989   2.398
 6378SOL    HW120033   5.834   4.040   2.312
 6378SOL    HW220034   5.790   3.901   2.387
 6379SOL     OW20035   2.410   5.684   0.011
 6379SOL    HW120036   2.378   5.725   0.097
 6379SOL    HW220037   2.400   5.751   6.958
 6380SOL     OW20038   2.020   2.872   4.978
 6380SOL    HW120039   2.082   2.867   4.900
 6380SOL    HW220040   2.065   2.920   5.053
 6381SOL     OW20041   3.731   3.893   0.657
 6381SOL    HW120042   3.764   3.911   0.750
 6381SOL    HW220043   3.760   3.802   0.629
 6382SOL     OW20044   1.380   1.101   0.948
 6382SOL    HW120045   1.402   1.187   0.994
 6382SOL    HW220046   1.402   1.109   0.851
 6383SOL     OW20047   2.440   2.258   2.453
 6383SOL    HW120048   2.449   2.223   2.360
 6383SOL    HW220049   2.527   2.247   2.501
 6384SOL     OW20050   6.480   1.831   2.094
 6384SOL    HW120051   6.493   1.872   2.004
 6384SOL    HW220052   6.529   1.886   2.162
 6385SOL     OW20053   6.934   3.453   0.803
 6385SOL    HW120054   7.015   3.499   0.766
 6385SOL    HW220055   6.964   3.382   0.867
 6386SOL     OW20056   3.503   3.550   0.225
 6386SOL    HW120057   3.462   3.484   0.163
 6386SOL    HW220058   3.471   3.532   0.318
 6387SOL     OW20059   6.577   0.624   6.251
 6387SOL    HW120060   6.502   0.624   6.184
 6387SOL    HW220061   6.573   0.707   6.305
 6388SOL     OW20062   6.172   5.528   1.350
 6388SOL    HW120063   6.243   5.458   1.359
 6388SOL    HW220064   6.108   5.500   1.277
 6389SOL     OW20065   6.745   6.656   0.899
 6389SOL    HW120066   6.677   6.725   0.875
 6389SOL    HW220067   6.773   6.669   0.994
 6390SOL     OW20068   5.266   6.570   6.571
 6390SOL    HW120069   5.184   6.564   6.514
 6390SOL    HW220070   5.247   6.530   6.661
 6391SOL     OW20071   1.705   2.212   4.626
 6391SOL    HW120072   1.778   2.280   4.614
 6391SOL    HW220073   1.719   2.164   4.712
 6392SOL     OW20074   5.074   6.926   4.162
 6392SOL    HW120075   5.003   6.855   4.158
 6392SOL    HW220076   5.032   7.015   4.143
 6393SOL     OW20077   2.088   5.264   0.481
 6393SOL    HW120078   2.169   5.258   0.423
 6393SOL    HW220079   2.070   5.175   0.523
 6394SOL     OW20080   1.814   5.181   2.246
 6394SOL    HW120081   1.914   5.190   2.253
 6394SOL    HW220082   1.771   5.230   2.321
 6395SOL     OW20083   1.450   4.352   4.591
 6395SOL    HW120084   1.480   4.444   4.617
 6395SOL    HW220085   1.471   4.336   4.495
 6396SOL     OW20086   1.792   3.301   4.980
 6396SOL    HW120087   1.868   3.286   5.044
 6396SOL    HW220088   1.782   3.221   4.922
 6397SOL     OW20089   6.590   3.059   5.052
 6397SOL    HW120090   6.539   3.030   5.133
 6397SOL    HW220091   6.653   2.987   5.025
 6398SOL     OW20092   1.791   0.093   2.578
 6398SOL    HW120093   1.817   0.087   2.675
 6398SOL    HW220094   1.823   0.011   2.530
 6399SOL     OW20095   2.523   6.888   6.934
 6399SOL    HW120096   2.504   6.801   6.979
 6399SOL    HW220097   2.556   6.954   7.001
 6400SOL     OW20098   0.615   6.724   2.714
 6400SOL    HW120099   0.681   6.750   2.644
 6400SOL    HW220100   0.602   6.800   2.777
 6401SOL     OW20101   3.954   5.112   2.069
 6401SOL    HW120102   3.973   5.113   2.167
 6401SOL    HW220103   3.906   5.028   2.045
 6402SOL     OW20104   3.694   4.289   6.267
 6402SOL    HW120105   3.679   4.367   6.206
 6402SOL    HW220106   3.728   4.211   6.214
 6403SOL     OW20107   4.750   5.588   5.778
 6403SOL    HW120108   4.825   5.531   5.810
 6403SOL    HW220109   4.766   5.614   5.682
 6404SOL     OW20110   4.681   5.507   6.689
 6404SOL    HW120111   4.636   5.553   6.766
 6404SOL    HW220112   4.733   5.574   6.636
 6405SOL     OW20113   4.493   0.943   2.518
 6405SOL    HW120114   4.457   1.019   2.463
 6405SOL    HW220115   4.421   0.908   2.577
 6406SOL     OW20116   0.507   3.322   2.401
 6406SOL    HW120117   0.483   3.340   2.305
 6406SOL    HW220118   0.424   3.326   2.457
 6407SOL     OW20119   0.499   0.008   2.116
 6407SOL    HW120120   0.567   0.082   2.110
 6407SOL    HW220121   0.524   6.955   2.053
 6408SOL     OW20122   0.437   1.462   1.822
 6408SOL    HW120123   0.503   1.399   1.862
 6408SOL    HW220124   0.345   1.434   1.848
 6409SOL     OW20125   5.954   4.157   3.377
 6409SOL    HW120126   5.981   4.206   3.460
 6409SOL    HW220127   6.020   4.084   3.358
 6410SOL     OW20128   1.760   0.864   0.645
 6410SOL    HW120129   1.801   0.924   0.713
 6410SOL    HW220130   1.670   0.835   0.676
 6411SOL     OW20131   0.778   2.492   3.537
 6411SOL    HW120132   0.810   2.580   3.573
 6411SOL    HW220133   0.844   2.457   3.471
 6412SOL     OW20134   3.417   0.433   6.980
 6412SOL    HW120135   3.499   0.477   6.945
 6412SOL    HW220136   3.419   0.335   6.958
 6413SOL     OW20137   4.553   5.875   2.879
 6413SOL    HW120138   4.579   5.884   2.975
 6413SOL    HW220139   4.607   5.938   2.824
 6414SOL     OW20140   3.069   0.289   6.751
 6414SOL    HW120141   3.004   0.287   6.827
 6414SOL    HW220142   3.117   0.377   6.751
 6415SOL     OW20143   0.608   1.677   3.578
 6415SOL    HW120144   0.548   1.653   3.502
 6415SOL    HW220145   0.703   1.653   3.555
 6416SOL     OW20146   3.298   5.107   0.290
 6416SOL    HW120147   3.328   5.089   0.384
 6416SOL    HW220148   3.280   5.020   0.244
 6417SOL     OW20149   4.457   3.556   6.747
 6417SOL    HW120150   4.442   3.582   6.651
 6417SOL    HW220151   4.391   3.486   6.773
 6418SOL     OW20152   5.051   5.459   0.516
 6418SOL    HW120153   5.130   5.420   0.563
 6418SOL    HW220154   5.035   5.409   0.430
 6419SOL     OW20155   0.634   6.861   6.502
 6419SOL    HW120156   0.614   6.774   6.457
 6419SOL    HW220157   0.549   6.913   6.512
 6420SOL     OW20158   2.501   4.731   3.677
 6420SOL    HW120159   2.466   4.815   3.718
 6420SOL    HW220160   2.442   4.655   3.703
 6421SOL     OW20161   5.377   6.737   2.101
 6421SOL    HW120162   5.366   6.785   2.188
 6421SOL    HW220163   5.373   6.802   2.026
 6422SOL     OW20164   0.662   1.935   4.907
 6422SOL    HW120165   0.570   1.949   4.872
 6422SOL    HW220166   0.708   1.863   4.854
 6423SOL     OW20167   1.065   4.422   4.570
 6423SOL    HW120168   0.993   4.353   4.571
 6423SOL    HW220169   1.108   4.427   4.661
 6424SOL     OW20170   6.687   4.143   6.109
 6424SOL    HW120171   6.677   4.207   6.186
 6424SOL    HW220172   6.772   4.164   6.060
 6425SOL     OW20173   0.492   6.541   4.701
 6425SOL    HW120174   0.433   6.588   4.636
 6425SOL    HW220175   0.496   6.444   4.679
 6426SOL     OW20176   4.309   5.380   4.141
 6426SOL    HW120177   4.290   5.393   4.044
 6426SOL    HW220178   4.407   5.365   4.154
 6427SOL     OW20179   3.935   3.033   3.811
 6427SOL    HW120180   3.977   3.123   3.803
 6427SOL    HW220181   3.896   3.006   3.723
 6428SOL     OW20182   6.033   2.651   0.429
 6428SOL    HW120183   5.950   2.675   0.478
 6428SOL    HW220184   6.010   2.597   0.348
 6429SOL     OW20185   2.283   1.659   5.041
 6429SOL    HW120186   2.309   1.627   4.950
 6429SOL    HW220187   2.211   1.600   5.078
 6430SOL     OW20188   5.667   1.539   5.012
 6430SOL    HW120189   5.657   1.572   5.106
 6430SOL    HW220190   5.642   1.443   5.008
 6431SOL     OW20191   3.440   5.400   2.849
 6431SOL    HW120192   3.494   5.341   2.909
 6431SOL    HW220193   3.474   5.394   2.756
 6432SOL     OW20194   4.242   3.702   6.306
 6432SOL    HW120195   4.282   3.754   6.231
 6432SOL    HW220196   4.256   3.752   6.392
 6433SOL     OW20197   3.482   5.298   6.095
 6433SOL    HW120198   3.525   5.220   6.048
 6433SOL    HW220199   3.484   5.282   6.194
 6434SOL     OW20200   6.274   5.483   5.941
 6434SOL    HW120201   6.246   5.458   5.848
 6434SOL    HW220202   6.317   5.573   5.940
 6435SOL     OW20203   4.420   1.191   0.894
 6435SOL    HW120204   4.468   1.149   0.817
 6435SOL    HW220205   4.418   1.290   0.882
 6436SOL     OW20206   0.563   3.477   3.798
 6436SOL    HW120207   0.651   3.430   3.802
 6436SOL    HW220208   0.497   3.427   3.854
 6437SOL     OW20209   1.815   2.764   5.929
 6437SOL    HW120210   1.860   2.702   5.864
 6437SOL    HW220211   1.717   2.743   5.932
 6438SOL     OW20212   0.293   5.047   0.598
 6438SOL    HW120213   0.197   5.066   0.579
 6438SOL    HW220214   0.301   4.981   0.672
 6439SOL     OW20215   5.291   6.776   2.860
 6439SOL    HW120216   5.357   6.755   2.789
 6439SOL    HW220217   5.331   6.759   2.950
 6440SOL     OW20218   2.339   1.616   6.258
 6440SOL    HW120219   2.243   1.591   6.243
 6440SOL    HW220220   2.396   1.534   6.249
 6441SOL     OW20221   0.567   2.550   1.933
 6441SOL    HW120222   0.523   2.604   1.862
 6441SOL    HW220223   0.503   2.483   1.969
 6442SOL     OW20224   2.278   1.920   4.289
 6442SOL    HW120225   2.367   1.961   4.306
 6442SOL    HW220226   2.206   1.983   4.317
 6443SOL     OW20227   3.063   2.607   6.468
 6443SOL    HW120228   2.968   2.577   6.479
 6443SOL    HW220229   3.093   2.592   6.374
 6444SOL     OW20230   6.903   3.647   5.144
 6444SOL    HW120231   6.906   3.567   5.204
 6444SOL    HW220232   6.828   3.637   5.079
 6445SOL     OW20233   3.302   3.049   3.453
 6445SOL    HW120234   3.247   3.020   3.375
 6445SOL    HW220235   3.256   3.022   3.538
 6446SOL     OW20236   1.085   1.217   1.236
 6446SOL    HW120237   1.133   1.129   1.232
 6446SOL    HW220238   1.090   1.261   1.146
 6447SOL     OW20239   6.336   3.742   1.246
 6447SOL    HW120240   6.408   3.752   1.315
 6447SOL    HW220241   6.299   3.649   1.250
 6448SOL     OW20242   4.124   4.753   1.409
 6448SOL    HW120243   4.166   4.760   1.319
 6448SOL    HW220244   4.037   4.705   1.401
 6449SOL     OW20245   4.009   5.201   0.253
 6449SOL    HW120246   3.921   5.165   0.284
 6449SOL    HW220247   4.009   5.301   0.259
 6450SOL     OW20248   5.406   3.688   6.864
 6450SOL    HW120249   5.442   3.621   6.929
 6450SOL    HW220250   5.325   3.650   6.819
 6451SOL     OW20251   4.442   2.677   1.649
 6451SOL    HW120252   4.369   2.611   1.630
 6451SOL    HW220253   4.406   2.770   1.637
 6452SOL     OW20254   4.251   1.963   4.809
 6452SOL    HW120255   4.263   1.994   4.903
 6452SOL    HW220256   4.187   2.024   4.762
 6453SOL     OW20257   2.417   0.809   2.960
 6453SOL    HW120258   2.379   0.717   2.963
 6453SOL    HW220259   2.389   0.859   3.042
 6454SOL     OW20260   5.177   3.473   4.484
 6454SOL    HW120261   5.207   3.443   4.394
 6454SOL    HW220262   5.080   3.497   4.480
 6455SOL     OW20263   0.276   2.904   4.330
 6455SOL    HW120264   0.264   3.002   4.315
 6455SOL    HW220265   0.228   2.853   4.259
 6456SOL     OW20266   6.686   1.844   2.743
 6456SOL    HW120267   6.611   1.906   2.766
 6456SOL    HW220268   6.720   1.802   2.827
 6457SOL     OW20269   2.174   6.607   2.341
 6457SOL    HW120270   2.263   6.562   2.334
 6457SOL    HW220271   2.103   6.543   2.312
 6458SOL     OW20272   0.696   0.079   4.227
 6458SOL    HW120273   0.654   0.169   4.229
 6458SOL    HW220274   0.733   0.061   4.135
 6459SOL     OW20275   0.552   3.081   3.074
 6459SOL    HW120276   0.537   3.108   2.979
 6459SOL    HW220277   0.553   3.161   3.132
 6460SOL     OW20278   1.389   5.190   6.221
 6460SOL    HW120279   1.396   5.235   6.310
 6460SOL    HW220280   1.308   5.131   6.220
 6461SOL     OW20281   0.517   6.360   0.952
 6461SOL    HW120282   0.518   6.286   1.019
 6461SOL    HW220283   0.442   6.345   0.887
 6462SOL     OW20284   2.075   4.045   5.192
 6462SOL    HW120285   2.091   3.999   5.279
 6462SOL    HW220286   2.144   4.017   5.126
 6463SOL     OW20287   4.375   2.563   1.254
 6463SOL    HW120288   4.334   2.653   1.262
 6463SOL    HW220289   4.453   2.567   1.191
 6464SOL     OW20290   0.783   3.593   3.003
 6464SOL    HW120291   0.688   3.603   2.972
 6464SOL    HW220292   0.800   3.497   3.028
 6465SOL     OW20293   2.755   0.920   3.796
 6465SOL    HW120294   2.737   1.003   3.849
 6465SOL    HW220295   2.670   0.869   3.785
 6466SOL     OW20296   6.648   4.868   6.481
 6466SOL    HW120297   6.649   4.849   6.579
 6466SOL    HW220298   6.729   4.922   6.456
 6467SOL     OW20299   2.661   2.926   5.937
 6467SOL    HW120300   2.668   3.018   5.898
 6467SOL    HW220301   2.571   2.888   5.914
 6468SOL     OW20302   1.070   0.747   1.354
 6468SOL    HW120303   0.972   0.746   1.340
 6468SOL    HW220304   1.105   0.654   1.358
 6469SOL     OW20305   1.728   1.011   1.182
 6469SOL    HW120306   1.691   1.088   1.234
 6469SOL    HW220307   1.819   1.034   1.148
 6470SOL     OW20308   5.941   1.637   6.490
 6470SOL    HW120309   5.995   1.720   6.477
 6470SOL    HW220310   5.989   1.560   6.448
 6471SOL     OW20311   0.307   6.225   6.392
 6471SOL    HW120312   0.260   6.293   6.448
 6471SOL    HW220313   0.364   6.272   6.324
 6472SOL     OW20314   0.371   6.186   1.855
 6472SOL    HW120315   0.395   6.244   1.778
 6472SOL    HW220316   0.322   6.239   1.924
 6473SOL     OW20317   2.873   1.535   3.264
 6473SOL    HW120318   2.813   1.611   3.240
 6473SOL    HW220319   2.966   1.568   3.278
 6474SOL     OW20320   4.189   6.791   4.480
 6474SOL    HW120321   4.261   6.850   4.518
 6474SOL    HW220322   4.147   6.838   4.402
 6475SOL     OW20323   5.116   5.823   2.919
 6475SOL    HW120324   5.129   5.914   2.878
 6475SOL    HW220325   5.036   5.825   2.978
 6476SOL     OW20326   4.614   4.191   6.302
 6476SOL    HW120327   4.667   4.147   6.229
 6476SOL    HW220328   4.677   4.229   6.370
 6477SOL     OW20329   0.862   6.173   0.966
 6477SOL    HW120330   0.901   6.263   0.985
 6477SOL    HW220331   0.932   6.103   0.980
 6478SOL     OW20332   1.516   6.353   0.719
 6478SOL    HW120333   1.523   6.422   0.791
 6478SOL    HW220334   1.468   6.391   0.641
 6479SOL     OW20335   4.864   5.524   3.353
 6479SOL    HW120336   4.774   5.565   3.370
 6479SOL    HW220337   4.891   5.471   3.433
 6480SOL     OW20338   3.414   1.379   5.520
 6480SOL    HW120339   3.387   1.341   5.609
 6480SOL    HW220340   3.405   1.308   5.450
 6481SOL     OW20341   4.274   3.176   1.795
 6481SOL    HW120342   4.373   3.176   1.810
 6481SOL    HW220343   4.226   3.190   1.882
 6482SOL     OW20344   4.781   3.141   5.214
 6482SOL    HW120345   4.743   3.057   5.176
 6482SOL    HW220346   4.837   3.188   5.146
 6483SOL     OW20347   1.810   5.807   5.577
 6483SOL    HW120348   1.747   5.813   5.654
 6483SOL    HW220349   1.901   5.838   5.605
 6484SOL     OW20350   3.575   1.609   2.837
 6484SOL    HW120351   3.612   1.551   2.909
 6484SOL    HW220352   3.645   1.674   2.806
 6485SOL     OW20353   2.329   4.896   4.959
 6485SOL    HW120354   2.341   4.968   4.891
 6485SOL    HW220355   2.411   4.891   5.017
 6486SOL     OW20356   0.065   3.898   2.190
 6486SOL    HW120357   0.007   3.920   2.111
 6486SOL    HW220358   0.052   3.966   2.262
 6487SOL     OW20359   6.290   5.015   4.450
 6487SOL    HW120360   6.271   5.074   4.529
 6487SOL    HW220361   6.353   4.943   4.477
 6488SOL     OW20362   3.792   5.282   3.857
 6488SOL    HW120363   3.886   5.313   3.842
 6488SOL    HW220364   3.770   5.291   3.954
 6489SOL     OW20365   6.396   3.021   5.239
 6489SOL    HW120366   6.416   2.987   5.331
 6489SOL    HW220367   6.303   3.057   5.236
 6490SOL     OW20368   1.960   2.194   0.561
 6490SOL    HW120369   2.001   2.239   0.640
 6490SOL    HW220370   2.016   2.211   0.480
 6491SOL     OW20371   1.546   0.785   1.774
 6491SOL    HW120372   1.576   0.869   1.729
 6491SOL    HW220373   1.605   0.709   1.744
 6492SOL     OW20374   4.129   3.653   3.943
 6492SOL    HW120375   4.082   3.615   4.022
 6492SOL    HW220376   4.199   3.588   3.912
 6493SOL     OW20377   0.930   4.984   3.807
 6493SOL    HW120378   0.950   4.919   3.880
 6493SOL    HW220379   0.841   5.026   3.823
 6494SOL     OW20380   6.493   0.843   1.495
 6494SOL    HW120381   6.515   0.867   1.589
 6494SOL    HW220382   6.448   0.753   1.493
 6495SOL     OW20383   6.812   6.633   3.080
 6495SOL    HW120384   6.778   6.696   3.150
 6495SOL    HW220385   6.746   6.560   3.066
 6496SOL     OW20386   2.976   2.307   1.635
 6496SOL    HW120387   3.034   2.341   1.562
 6496SOL    HW220388   3.001   2.352   1.721
 6497SOL     OW20389   0.506   2.162   0.829
 6497SOL    HW120390   0.517   2.175   0.730
 6497SOL    HW220391   0.536   2.245   0.876
 6498SOL     OW20392   1.837   4.858   4.085
 6498SOL    HW120393   1.762   4.807   4.044
 6498SOL    HW220394   1.810   4.954   4.096
 6499SOL     OW20395   4.844   2.420   3.006
 6499SOL    HW120396   4.760   2.405   2.954
 6499SOL    HW220397   4.922   2.418   2.945
 6500SOL     OW20398   1.665   3.765   2.973
 6500SOL    HW120399   1.749   3.754   3.027
 6500SOL    HW220400   1.603   3.689   2.992
 6501SOL     OW20401   6.690   0.566   2.833
 6501SOL    HW120402   6.693   0.615   2.920
 6501SOL    HW220403   6.736   0.478   2.843
 6502SOL     OW20404   0.881   2.835   1.898
 6502SOL    HW120405   0.884   2.813   1.800
 6502SOL    HW220406   0.963   2.888   1.922
 6503SOL     OW20407   6.992   2.724   6.071
 6503SOL    HW120408   6.949   2.785   6.004
 6503SOL    HW220409   6.928   2.650   6.094
 6504SOL     OW20410   3.955   0.049   6.234
 6504SOL    HW120411   3.904   0.106   6.170
 6504SOL    HW220412   4.052   0.075   6.234
 6505SOL     OW20413   0.369   6.629   0.715
 6505SOL    HW120414   0.336   6.651   0.623
 6505SOL    HW220415   0.466   6.652   0.722
 6506SOL     OW20416   6.859   3.545   1.660
 6506SOL    HW120417   6.814   3.635   1.662
 6506SOL    HW220418   6.915   3.534   1.742
 6507SOL     OW20419   3.688   5.621   1.562
 6507SOL    HW120420   3.788   5.628   1.555
 6507SOL    HW220421   3.654   5.560   1.491
 6508SOL     OW20422   6.789   0.270   4.122
 6508SOL    HW120423   6.761   0.178   4.095
 6508SOL    HW220424   6.887   0.282   4.103
 6509SOL     OW20425   1.838   1.302   0.255
 6509SOL    HW120426   1.784   1.249   0.189
 6509SOL    HW220427   1.779   1.368   0.300
 6510SOL     OW20428   3.441   4.879   4.255
 6510SOL    HW120429   3.511   4.811   4.231
 6510SOL    HW220430   3.477   4.971   4.236
 6511SOL     OW20431   3.332   2.712   0.208
 6511SOL    HW120432   3.402   2.662   0.157
 6511SOL    HW220433   3.360   2.808   0.217
 6512SOL     OW20434   4.806   0.617   0.766
 6512SOL    HW120435   4.730   0.658   0.818
 6512SOL    HW220436   4.873   0.579   0.830
 6513SOL     OW20437   3.142   4.835   2.832
 6513SOL    HW120438   3.048   4.867   2.820
 6513SOL    HW220439   3.180   4.809   2.744
 6514SOL     OW20440   5.382   5.666   5.488
 6514SOL    HW120441   5.308   5.712   5.438
 6514SOL    HW220442   5.368   5.677   5.586
 6515SOL     OW20443   0.437   5.060   2.225
 6515SOL    HW120444   0.454   5.157   2.241
 6515SOL    HW220445   0.497   5.005   2.282
 6516SOL     OW20446   6.179   1.552   3.647
 6516SOL    HW120447   6.189   1.551   3.746
 6516SOL    HW220448   6.260   1.510   3.605
 6517SOL     OW20449   6.724   3.832   0.668
 6517SOL    HW120450   6.657   3.894   0.629
 6517SOL    HW220451   6.816   3.862   0.643
 6518SOL     OW20452   0.768   1.519   2.174
 6518SOL    HW120453   0.861   1.556   2.174
 6518SOL    HW220454   0.703   1.591   2.152
 6519SOL     OW20455   1.442   1.503   3.341
 6519SOL    HW120456   1.421   1.420   3.393
 6519SOL    HW220457   1.436   1.483   3.243
 6520SOL     OW20458   6.184   5.662   0.257
 6520SOL    HW120459   6.177   5.673   0.356
 6520SOL    HW220460   6.225   5.743   0.217
 6521SOL     OW20461   1.833   4.884   4.469
 6521SOL    HW120462   1.845   4.834   4.383
 6521SOL    HW220463   1.883   4.837   4.542
 6522SOL     OW20464   2.166   3.057   5.211
 6522SOL    HW120465   2.111   3.027   5.289
 6522SOL    HW220466   2.251   3.005   5.207
 6523SOL     OW20467   5.742   6.610   0.687
 6523SOL    HW120468   5.686   6.570   0.759
 6523SOL    HW220469   5.825   6.649   0.727
 6524SOL     OW20470   3.361   2.868   1.429
 6524SOL    HW120471   3.417   2.827   1.500
 6524SOL    HW220472   3.293   2.802   1.397
 6525SOL     OW20473   1.791   4.881   3.770
 6525SOL    HW120474   1.751   4.790   3.782
 6525SOL    HW220475   1.789   4.905   3.673
 6526SOL     OW20476   6.393   6.817   0.684
 6526SOL    HW120477   6.437   6.861   0.762
 6526SOL    HW220478   6.297   6.846   0.679
 6527SOL     OW20479   5.345   1.281   0.917
 6527SOL    HW120480   5.253   1.288   0.956
 6527SOL    HW220481   5.356   1.351   0.846
 6528SOL     OW20482   4.401   6.628   0.046
 6528SOL    HW120483   4.358   6.714   0.018
 6528SOL    HW220484   4.340   6.580   0.108
 6529SOL     OW20485   4.308   0.321   1.837
 6529SOL    HW120486   4.211   0.303   1.853
 6529SOL    HW220487   4.321   0.346   1.741
 6530SOL     OW20488   6.660   2.856   3.812
 6530SOL    HW120489   6.715   2.820   3.888
 6530SOL    HW220490   6.714   2.854   3.728
 6531SOL     OW20491   3.789   3.322   3.760
 6531SOL    HW120492   3.875   3.273   3.773
 6531SOL    HW220493   3.805   3.420   3.762
 6532SOL     OW20494   0.609   5.838   0.142
 6532SOL    HW120495   0.525   5.884   0.173
 6532SOL    HW220496   0.655   5.896   0.074
 6533SOL     OW20497   5.282   5.380   1.381
 6533SOL    HW120498   5.262   5.343   1.290
 6533SOL    HW220499   5.300   5.304   1.444
 6534SOL     OW20500   6.854   3.447   3.783
 6534SOL    HW120501   6.822   3.490   3.868
 6534SOL    HW220502   6.842   3.348   3.789
 6535SOL     OW20503   5.417   3.769   5.824
 6535SOL    HW120504   5.409   3.770   5.724
 6535SOL    HW220505   5.338   3.813   5.865
 6536SOL     OW20506   0.416   4.981   5.519
 6536SOL    HW120507   0.431   4.886   5.491
 6536SOL    HW220508   0.496   5.036   5.493
 6537SOL     OW20509   7.004   5.517   3.980
 6537SOL    HW120510   0.026   5.493   4.067
 6537SOL    HW220511   6.996   5.616   3.971
 6538SOL     OW20512   1.418   3.150   3.533
 6538SOL    HW120513   1.354   3.073   3.530
 6538SOL    HW220514   1.395   3.215   3.461
 6539SOL     OW20515   4.532   6.790   6.647
 6539SOL    HW120516   4.541   6.694   6.622
 6539SOL    HW220517   4.622   6.826   6.673
 6540SOL     OW20518   0.546   2.500   4.941
 6540SOL    HW120519   0.599   2.416   4.929
 6540SOL    HW220520   0.560   2.559   4.862
 6541SOL     OW20521   4.138   1.797   5.369
 6541SOL    HW120522   4.040   1.804   5.350
 6541SOL    HW220523   4.190   1.811   5.285
 6542SOL     OW20524   1.698   4.452   2.273
 6542SOL    HW120525   1.618   4.394   2.260
 6542SOL    HW220526   1.707   4.476   2.369
 6543SOL     OW20527   4.427   1.326   4.286
 6543SOL    HW120528   4.523   1.332   4.260
 6543SOL    HW220529   4.419   1.330   4.386
 6544SOL     OW20530   0.709   0.471   0.793
 6544SOL    HW120531   0.756   0.542   0.844
 6544SOL    HW220532   0.671   0.404   0.856
 6545SOL     OW20533   5.441   6.226   0.819
 6545SOL    HW120534   5.453   6.171   0.737
 6545SOL    HW220535   5.357   6.279   0.811
 6546SOL     OW20536   4.373   5.109   5.465
 6546SOL    HW120537   4.375   5.203   5.499
 6546SOL    HW220538   4.425   5.050   5.526
 6547SOL     OW20539   0.735   6.086   5.411
 6547SOL    HW120540   0.693   6.081   5.502
 6547SOL    HW220541   0.761   6.180   5.391
 6548SOL     OW20542   1.236   1.697   6.144
 6548SOL    HW120543   1.222   1.796   6.139
 6548SOL    HW220544   1.155   1.650   6.110
 6549SOL     OW20545   3.857   1.253   2.762
 6549SOL    HW120546   3.926   1.181   2.771
 6549SOL    HW220547   3.774   1.214   2.722
 6550SOL     OW20548   5.992   6.653   1.833
 6550SOL    HW120549   6.074   6.708   1.827
 6550SOL    HW220550   5.994   6.597   1.916
 6551SOL     OW20551   2.562   4.835   0.806
 6551SOL    HW120552   2.597   4.783   0.883
 6551SOL    HW220553   2.620   4.820   0.726
 6552SOL     OW20554   2.156   4.234   0.126
 6552SOL    HW120555   2.168   4.292   0.207
 6552SOL    HW220556   2.077   4.267   0.074
 6553SOL     OW20557   0.043   1.974   4.073
 6553SOL    HW120558   0.056   1.958   3.976
 6553SOL    HW220559   6.966   1.983   4.093
 6554SOL     OW20560   1.143   2.362   3.667
 6554SOL    HW120561   1.077   2.332   3.598
 6554SOL    HW220562   1.215   2.415   3.622
 6555SOL     OW20563   1.577   3.940   3.303
 6555SOL    HW120564   1.636   3.879   3.252
 6555SOL    HW220565   1.530   3.889   3.376
 6556SOL     OW20566   5.045   3.370   3.077
 6556SOL    HW120567   4.981   3.294   3.061
 6556SOL    HW220568   5.103   3.349   3.156
 6557SOL     OW20569   2.252   0.557   2.611
 6557SOL    HW120570   2.219   0.547   2.517
 6557SOL    HW220571   2.329   0.620   2.613
 6558SOL     OW20572   5.674   5.967   0.746
 6558SOL    HW120573   5.673   6.048   0.805
 6558SOL    HW220574   5.594   5.910   0.768
 6559SOL     OW20575   0.399   2.002   5.808
 6559SOL    HW120576   0.376   2.083   5.863
 6559SOL    HW220577   0.316   1.963   5.769
 6560SOL     OW20578   6.834   4.930   6.693
 6560SOL    HW120579   6.849   5.009   6.752
 6560SOL    HW220580   6.884   4.852   6.729
 6561SOL     OW20581   2.442   5.303   0.751
 6561SOL    HW120582   2.414   5.397   0.729
 6561SOL    HW220583   2.513   5.273   0.687
 6562SOL     OW20584   4.828   2.495   1.882
 6562SOL    HW120585   4.916   2.529   1.848
 6562SOL    HW220586   4.844   2.438   1.963
 6563SOL     OW20587   6.151   5.327   5.451
 6563SOL    HW120588   6.085   5.397   5.425
 6563SOL    HW220589   6.226   5.326   5.386
 6564SOL     OW20590   5.153   3.054   2.472
 6564SOL    HW120591   5.060   3.090   2.461
 6564SOL    HW220592   5.204   3.067   2.388
 6565SOL     OW20593   4.915   6.250   2.477
 6565SOL    HW120594   5.015   6.246   2.475
 6565SOL    HW220595   4.886   6.335   2.521
 6566SOL     OW20596   5.513   5.253   3.590
 6566SOL    HW120597   5.484   5.332   3.644
 6566SOL    HW220598   5.572   5.284   3.515
 6567SOL     OW20599   3.386   0.826   2.942
 6567SOL    HW120600   3.297   0.786   2.918
 6567SOL    HW220601   3.388   0.846   3.039
 6568SOL     OW20602   5.338   0.744   1.120
 6568SOL    HW120603   5.260   0.744   1.057
 6568SOL    HW220604   5.306   0.724   1.213
 6569SOL     OW20605   1.275   4.886   3.563
 6569SOL    HW120606   1.215   4.898   3.484
 6569SOL    HW220607   1.366   4.922   3.541
 6570SOL     OW20608   4.282   0.195   2.454
 6570SOL    HW120609   4.188   0.211   2.484
 6570SOL    HW220610   4.294   0.098   2.434
 6571SOL     OW20611   2.624   6.469   2.782
 6571SOL    HW120612   2.589   6.381   2.748
 6571SOL    HW220613   2.571   6.544   2.742
 6572SOL     OW20614   2.172   5.939   3.597
 6572SOL    HW120615   2.084   5.978   3.624
 6572SOL    HW220616   2.157   5.862   3.536
 6573SOL     OW20617   0.069   2.208   3.450
 6573SOL    HW120618   0.107   2.148   3.520
 6573SOL    HW220619   0.132   2.215   3.373
 6574SOL     OW20620   0.383   5.321   2.037
 6574SOL    HW120621   0.313   5.388   2.011
 6574SOL    HW220622   0.360   5.232   1.998
 6575SOL     OW20623   0.192   1.580   3.708
 6575SOL    HW120624   0.132   1.595   3.787
 6575SOL    HW220625   0.185   1.658   3.646
 6576SOL     OW20626   3.931   6.745   1.668
 6576SOL    HW120627   3.975   6.668   1.622
 6576SOL    HW220628   3.881   6.712   1.748
 6577SOL     OW20629   3.604   1.092   5.031
 6577SOL    HW120630   3.649   1.003   5.031
 6577SOL    HW220631   3.659   1.157   4.978
 6578SOL     OW20632   0.840   5.403   0.257
 6578SOL    HW120633   0.892   5.371   0.178
 6578SOL    HW220634   0.852   5.339   0.333
 6579SOL     OW20635   1.522   1.685   3.814
 6579SOL    HW120636   1.484   1.717   3.901
 6579SOL    HW220637   1.506   1.755   3.744
 6580SOL     OW20638   3.236   2.298   0.261
 6580SOL    HW120639   3.327   2.293   0.220
 6580SOL    HW220640   3.205   2.206   0.284
 6581SOL     OW20641   0.454   2.589   2.259
 6581SOL    HW120642   0.379   2.619   2.200
 6581SOL    HW220643   0.525   2.659   2.261
 6582SOL     OW20644   5.028   0.607   2.883
 6582SOL    HW120645   4.990   0.518   2.858
 6582SOL    HW220646   4.991   0.678   2.822
 6583SOL     OW20647   2.631   4.687   1.022
 6583SOL    HW120648   2.602   4.632   1.100
 6583SOL    HW220649   2.724   4.720   1.037
 6584SOL     OW20650   4.251   3.112   6.093
 6584SOL    HW120651   4.252   3.113   6.193
 6584SOL    HW220652   4.168   3.066   6.061
 6585SOL     OW20653   4.993   6.712   1.565
 6585SOL    HW120654   4.966   6.805   1.588
 6585SOL    HW220655   5.008   6.705   1.466
 6586SOL     OW20656   7.014   1.381   6.499
 6586SOL    HW120657   0.030   1.452   6.559
 6586SOL    HW220658   0.053   1.371   6.420
 6587SOL     OW20659   3.675   4.949   5.002
 6587SOL    HW120660   3.587   4.933   5.047
 6587SOL    HW220661   3.681   5.044   4.973
 6588SOL     OW20662   1.078   1.244   0.191
 6588SOL    HW120663   1.099   1.152   0.159
 6588SOL    HW220664   1.014   1.239   0.268
 6589SOL     OW20665   6.109   6.809   1.609
 6589SOL    HW120666   6.022   6.838   1.650
 6589SOL    HW220667   6.174   6.786   1.681
 6590SOL     OW20668   1.343   5.932   4.674
 6590SOL    HW120669   1.416   5.971   4.618
 6590SOL    HW220670   1.289   6.006   4.715
 6591SOL     OW20671   6.273   3.125   3.759
 6591SOL    HW120672   6.368   3.138   3.789
 6591SOL    HW220673   6.213   3.185   3.810
 6592SOL     OW20674   6.676   0.563   4.066
 6592SOL    HW120675   6.736   0.614   4.128
 6592SOL    HW220676   6.731   0.522   3.993
 6593SOL     OW20677   1.918   0.599   2.724
 6593SOL    HW120678   1.865   0.675   2.763
 6593SOL    HW220679   1.906   0.598   2.624
 6594SOL     OW20680   5.548   0.138   6.989
 6594SOL    HW120681   5.554   0.233   0.000
 6594SOL    HW220682   5.468   0.128   6.930
 6595SOL     OW20683   1.157   1.747   4.978
 6595SOL    HW120684   1.237   1.796   5.013
 6595SOL    HW220685   1.119   1.796   4.900
 6596SOL     OW20686   5.690   0.773   2.912
 6596SOL    HW120687   5.693   0.724   2.825
 6596SOL    HW220688   5.678   0.708   2.987
 6597SOL     OW20689   0.820   4.667   0.951
 6597SOL    HW120690   0.753   4.624   1.011
 6597SOL    HW220691   0.904   4.687   1.003
 6598SOL     OW20692   0.830   5.184   2.432
 6598SOL    HW120693   0.788   5.182   2.342
 6598SOL    HW220694   0.866   5.093   2.455
 6599SOL     OW20695   0.832   5.373   6.284
 6599SOL    HW120696   0.866   5.434   6.213
 6599SOL    HW220697   0.735   5.392   6.301
 6600SOL     OW20698   4.579   6.235   4.860
 6600SOL    HW120699   4.568   6.276   4.950
 6600SOL    HW220700   4.676   6.217   4.842
 6601SOL     OW20701   1.169   2.876   2.028
 6601SOL    HW120702   1.244   2.815   2.004
 6601SOL    HW220703   1.195   2.971   2.008
 6602SOL     OW20704   6.738   5.476   0.778
 6602SOL    HW120705   6.687   5.557   0.749
 6602SOL    HW220706   6.773   5.489   0.870
 6603SOL     OW20707   0.084   4.083   2.387
 6603SOL    HW120708   0.101   4.059   2.483
 6603SOL    HW220709   0.002   4.140   2.381
 6604SOL     OW20710   1.046   5.441   2.708
 6604SOL    HW120711   1.096   5.526   2.728
 6604SOL    HW220712   1.055   5.419   2.611
 6605SOL     OW20713   7.019   4.868   1.210
 6605SOL    HW120714   7.002   4.966   1.217
 6605SOL    HW220715   6.954   4.818   1.267
 6606SOL     OW20716   2.051   4.263   2.631
 6606SOL    HW120717   1.977   4.221   2.578
 6606SOL    HW220718   2.064   4.358   2.601
 6607SOL     OW20719   6.530   3.532   4.188
 6607SOL    HW120720   6.513   3.476   4.107
 6607SOL    HW220721   6.487   3.489   4.267
 6608SOL     OW20722   0.819   0.531   5.495
 6608SOL    HW120723   0.738   0.478   5.519
 6608SOL    HW220724   0.790   0.623   5.467
 6609SOL     OW20725   3.093   2.408   0.028
 6609SOL    HW120726   3.102   2.361   0.116
 6609SOL    HW220727   3.183   2.420   7.007
 6610SOL     OW20728   2.959   7.011   1.568
 6610SOL    HW120729   2.948   0.086   1.597
 6610SOL    HW220730   2.878   6.959   1.594
 6611SOL     OW20731   3.447   1.319   4.598
 6611SOL    HW120732   3.454   1.219   4.599
 6611SOL    HW220733   3.524   1.358   4.649
 6612SOL     OW20734   0.266   0.007   0.047
 6612SOL    HW120735   0.186   6.999   0.099
 6612SOL    HW220736   0.246   0.003   6.970
 6613SOL     OW20737   3.864   6.659   1.349
 6613SOL    HW120738   3.903   6.672   1.258
 6613SOL    HW220739   3.933   6.618   1.409
 6614SOL     OW20740   3.719   4.787   0.897
 6614SOL    HW120741   3.762   4.749   0.815
 6614SOL    HW220742   3.622   4.760   0.899
 6615SOL     OW20743   3.151   5.646   6.070
 6615SOL    HW120744   3.195   5.577   6.012
 6615SOL    HW220745   3.184   5.637   6.164
 6616SOL     OW20746   4.398   1.521   6.847
 6616SOL    HW120747   4.391   1.618   6.824
 6616SOL    HW220748   4.341   1.502   6.927
 6617SOL     OW20749   3.301   1.259   4.070
 6617SOL    HW120750   3.348   1.292   3.988
 6617SOL    HW220751   3.317   1.323   4.145
 6618SOL     OW20752   5.697   3.008   4.120
 6618SOL    HW120753   5.727   2.938   4.056
 6618SOL    HW220754   5.717   3.099   4.083
 6619SOL     OW20755   4.884   4.989   4.146
 6619SOL    HW120756   4.857   4.922   4.214
 6619SOL    HW220757   4.906   5.076   4.191
 6620SOL     OW20758   1.192   2.573   3.417
 6620SOL    HW120759   1.275   2.588   3.365
 6620SOL    HW220760   1.207   2.600   3.512
 6621SOL     OW20761   3.284   3.565   3.549
 6621SOL    HW120762   3.352   3.570   3.476
 6621SOL    HW220763   3.258   3.470   3.565
 6622SOL     OW20764   0.185   4.863   0.863
 6622SOL    HW120765   0.087   4.881   0.871
 6622SOL    HW220766   0.235   4.918   0.931
 6623SOL     OW20767   3.500   3.751   3.418
 6623SOL    HW120768   3.589   3.709   3.434
 6623SOL    HW220769   3.476   3.743   3.322
 6624SOL     OW20770   2.366   2.282   3.245
 6624SOL    HW120771   2.296   2.256   3.178
 6624SOL    HW220772   2.445   2.321   3.198
 6625SOL     OW20773   6.864   3.942   5.202
 6625SOL    HW120774   6.948   3.997   5.209
 6625SOL    HW220775   6.886   3.846   5.223
 6626SOL     OW20776   3.198   5.853   5.343
 6626SOL    HW120777   3.164   5.898   5.426
 6626SOL    HW220778   3.220   5.923   5.275
 6627SOL     OW20779   2.846   6.605   4.223
 6627SOL    HW120780   2.766   6.547   4.207
 6627SOL    HW220781   2.904   6.563   4.293
 6628SOL     OW20782   3.576   0.594   3.068
 6628SOL    HW120783   3.524   0.679   3.071
 6628SOL    HW220784   3.674   0.615   3.072
 6629SOL     OW20785   4.440   5.578   5.253
 6629SOL    HW120786   4.429   5.578   5.153
 6629SOL    HW220787   4.465   5.670   5.283
 6630SOL     OW20788   1.439   0.325   0.216
 6630SOL    HW120789   1.492   0.321   0.301
 6630SOL    HW220790   1.348   0.288   0.232
 6631SOL     OW20791   1.889   2.536   5.750
 6631SOL    HW120792   1.867   2.477   5.673
 6631SOL    HW220793   1.984   2.567   5.742
 6632SOL     OW20794   1.259   0.295   6.754
 6632SOL    HW120795   1.326   0.370   6.760
 6632SOL    HW220796   1.171   0.331   6.724
 6633SOL     OW20797   4.274   6.448   6.289
 6633SOL    HW120798   4.361   6.411   6.257
 6633SOL    HW220799   4.203   6.429   6.221
 6634SOL     OW20800   2.734   2.163   3.375
 6634SOL    HW120801   2.660   2.108   3.334
 6634SOL    HW220802   2.805   2.178   3.306
 6635SOL     OW20803   5.348   5.581   5.882
 6635SOL    HW120804   5.291   5.649   5.837
 6635SOL    HW220805   5.423   5.627   5.930
 6636SOL     OW20806   4.193   0.950   0.851
 6636SOL    HW120807   4.248   0.867   0.855
 6636SOL    HW220808   4.253   1.029   0.838
 6637SOL     OW20809   0.299   1.832   0.038
 6637SOL    HW120810   0.336   1.825   6.965
 6637SOL    HW220811   0.236   1.756   0.054
 6638SOL     OW20812   3.212   3.311   3.509
 6638SOL    HW120813   3.124   3.275   3.480
 6638SOL    HW220814   3.282   3.240   3.500
 6639SOL     OW20815   4.635   2.590   1.462
 6639SOL    HW120816   4.550   2.596   1.515
 6639SOL    HW220817   4.645   2.498   1.426
 6640SOL     OW20818   1.246   4.162   4.650
 6640SOL    HW120819   1.309   4.237   4.630
 6640SOL    HW220820   1.214   4.169   4.744
 6641SOL     OW20821   6.191   2.818   0.050
 6641SOL    HW120822   6.248   2.876   7.013
 6641SOL    HW220823   6.160   2.870   0.130
 6642SOL     OW20824   0.998   5.155   5.983
 6642SOL    HW120825   0.901   5.136   6.002
 6642SOL    HW220826   1.028   5.098   5.906
 6643SOL     OW20827   3.687   5.528   5.987
 6643SOL    HW120828   3.623   5.470   6.038
 6643SOL    HW220829   3.649   5.620   5.979
 6644SOL     OW20830   2.296   0.194   3.758
 6644SOL    HW120831   2.386   0.195   3.802
 6644SOL    HW220832   2.232   0.246   3.814
 6645SOL     OW20833   4.403   2.248   6.074
 6645SOL    HW120834   4.387   2.265   5.977
 6645SOL    HW220835   4.326   2.283   6.128
 6646SOL     OW20836   4.456   0.006   5.695
 6646SOL    HW120837   4.404   6.970   5.632
 6646SOL    HW220838   4.409   0.093   5.709
 6647SOL     OW20839   4.213   4.489   1.150
 6647SOL    HW120840   4.281   4.441   1.093
 6647SOL    HW220841   4.197   4.437   1.234
 6648SOL     OW20842   3.238   5.789   5.717
 6648SOL    HW120843   3.333   5.779   5.746
 6648SOL    HW220844   3.232   5.857   5.644
 6649SOL     OW20845   4.649   2.741   5.981
 6649SOL    HW120846   4.606   2.781   6.062
 6649SOL    HW220847   4.626   2.643   5.977
 6650SOL     OW20848   2.698   1.248   5.415
 6650SOL    HW120849   2.720   1.345   5.417
 6650SOL    HW220850   2.683   1.215   5.509
 6651SOL     OW20851   0.002   1.476   4.768
 6651SOL    HW120852   0.077   1.426   4.725
 6651SOL    HW220853   6.957   1.505   4.698
 6652SOL     OW20854   6.971   4.343   6.704
 6652SOL    HW120855   6.883   4.391   6.705
 6652SOL    HW220856   6.988   4.303   6.794
 6653SOL     OW20857   5.438   4.566   0.002
 6653SOL    HW120858   5.465   4.573   0.098
 6653SOL    HW220859   5.377   4.642   7.000
 6654SOL     OW20860   6.576   2.190   3.188
 6654SOL    HW120861   6.547   2.096   3.174
 6654SOL    HW220862   6.676   2.194   3.188
 6655SOL     OW20863   6.814   5.898   1.009
 6655SOL    HW120864   6.761   5.887   1.093
 6655SOL    HW220865   6.910   5.877   1.027
 6656SOL     OW20866   4.243   0.836   2.656
 6656SOL    HW120867   4.271   0.751   2.702
 6656SOL    HW220868   4.163   0.874   2.702
 6657SOL     OW20869   4.745   1.827   4.551
 6657SOL    HW120870   4.697   1.861   4.632
 6657SOL    HW220871   4.761   1.903   4.487
 6658SOL     OW20872   6.940   5.834   4.583
 6658SOL    HW120873   6.851   5.858   4.622
 6658SOL    HW220874   7.003   5.910   4.594
 6659SOL     OW20875   0.554   5.411   0.913
 6659SOL    HW120876   0.547   5.410   0.813
 6659SOL    HW220877   0.517   5.496   0.949
 6660SOL     OW20878   0.764   0.375   4.343
 6660SOL    HW120879   0.681   0.357   4.290
 6660SOL    HW220880   0.740   0.398   4.437
 6661SOL     OW20881   4.332   6.317   3.807
 6661SOL    HW120882   4.358   6.380   3.734
 6661SOL    HW220883   4.247   6.270   3.782
 6662SOL     OW20884   3.366   0.089   2.506
 6662SOL    HW120885   3.433   0.113   2.576
 6662SOL    HW220886   3.279   0.133   2.526
 6663SOL     OW20887   1.913   3.976   5.458
 6663SOL    HW120888   1.884   4.062   5.501
 6663SOL    HW220889   2.011   3.978   5.443
 6664SOL     OW20890   3.370   0.025   1.721
 6664SOL    HW120891   3.349   7.010   1.812
 6664SOL    HW220892   3.374   6.969   1.656
 6665SOL     OW20893   2.869   0.708   0.087
 6665SOL    HW120894   2.964   0.709   0.117
 6665SOL    HW220895   2.821   0.788   0.124
 6666SOL     OW20896   3.151   6.247   5.477
 6666SOL    HW120897   3.126   6.317   5.544
 6666SOL    HW220898   3.217   6.285   5.412
 6667SOL     OW20899   1.612   5.975   6.776
 6667SOL    HW120900   1.604   5.940   6.869
 6667SOL    HW220901   1.702   5.950   6.739
 6668SOL     OW20902   6.715   4.161   6.950
 6668SOL    HW120903   6.743   4.103   0.006
 6668SOL    HW220904   6.714   4.106   6.866
 6669SOL     OW20905   1.433   2.371   3.372
 6669SOL    HW120906   1.435   2.448   3.436
 6669SOL    HW220907   1.505   2.382   3.304
 6670SOL     OW20908   3.467   3.510   0.483
 6670SOL    HW120909   3.536   3.540   0.549
 6670SOL    HW220910   3.382   3.562   0.497
 6671SOL     OW20911   4.570   4.883   0.511
 6671SOL    HW120912   4.507   4.919   0.443
 6671SOL    HW220913   4.648   4.841   0.465
 6672SOL     OW20914   1.636   2.849   1.142
 6672SOL    HW120915   1.676   2.847   1.233
 6672SOL    HW220916   1.692   2.794   1.080
 6673SOL     OW20917   5.755   3.394   4.319
 6673SOL    HW120918   5.698   3.356   4.392
 6673SOL    HW220919   5.699   3.408   4.237
 6674SOL     OW20920   6.834   0.181   0.246
 6674SOL    HW120921   6.774   0.190   0.167
 6674SOL    HW220922   6.779   0.185   0.330
 6675SOL     OW20923   4.995   0.898   0.067
 6675SOL    HW120924   4.925   0.966   0.047
 6675SOL    HW220925   4.983   0.863   0.160
 6676SOL     OW20926   0.923   4.098   5.141
 6676SOL    HW120927   0.831   4.111   5.104
 6676SOL    HW220928   0.990   4.134   5.076
 6677SOL     OW20929   0.405   2.071   6.508
 6677SOL    HW120930   0.348   2.148   6.536
 6677SOL    HW220931   0.491   2.072   6.558
 6678SOL     OW20932   3.254   4.214   6.579
 6678SOL    HW120933   3.297   4.290   6.628
 6678SOL    HW220934   3.155   4.224   6.583
 6679SOL     OW20935   1.691   0.967   3.837
 6679SOL    HW120936   1.624   0.904   3.877
 6679SOL    HW220937   1.732   1.023   3.909
 6680SOL     OW20938   6.174   4.668   1.627
 6680SOL    HW120939   6.248   4.722   1.586
 6680SOL    HW220940   6.203   4.573   1.635
 6681SOL     OW20941   2.513   5.954   1.128
 6681SOL    HW120942   2.535   5.865   1.166
 6681SOL    HW220943   2.460   6.007   1.194
 6682SOL     OW20944   2.399   5.680   6.377
 6682SOL    HW120945   2.431   5.588   6.401
 6682SOL    HW220946   2.441   5.708   6.291
 6683SOL     OW20947   6.468   5.298   5.614
 6683SOL    HW120948   6.431   5.390   5.622
 6683SOL    HW220949   6.568   5.301   5.614
 6684SOL     OW20950   2.948   5.720   6.327
 6684SOL    HW120951   2.874   5.660   6.357
 6684SOL    HW220952   2.941   5.733   6.228
 6685SOL     OW20953   4.212   2.738   0.799
 6685SOL    HW120954   4.221   2.663   0.865
 6685SOL    HW220955   4.301   2.783   0.789
 6686SOL     OW20956   5.011   4.553   5.540
 6686SOL    HW120957   5.070   4.625   5.576
 6686SOL    HW220958   4.934   4.539   5.602
 6687SOL     OW20959   0.388   1.838   1.112
 6687SOL    HW120960   0.352   1.811   1.201
 6687SOL    HW220961   0.322   1.895   1.064
 6688SOL     OW20962   4.515   5.847   0.882
 6688SOL    HW120963   4.512   5.944   0.906
 6688SOL    HW220964   4.458   5.830   0.802
 6689SOL     OW20965   3.364   4.869   6.031
 6689SOL    HW120966   3.385   4.776   6.061
 6689SOL    HW220967   3.448   4.921   6.021
 6690SOL     OW20968   0.737   0.757   0.287
 6690SOL    HW120969   0.786   0.673   0.308
 6690SOL    HW220970   0.694   0.749   0.197
 6691SOL     OW20971   2.630   1.564   2.099
 6691SOL    HW120972   2.716   1.601   2.066
 6691SOL    HW220973   2.595   1.621   2.174
 6692SOL     OW20974   4.470   6.426   2.416
 6692SOL    HW120975   4.567   6.412   2.398
 6692SOL    HW220976   4.421   6.438   2.329
 6693SOL     OW20977   3.369   1.160   5.732
 6693SOL    HW120978   3.278   1.165   5.691
 6693SOL    HW220979   3.366   1.102   5.813
 6694SOL     OW20980   4.464   3.940   1.684
 6694SOL    HW120981   4.529   4.016   1.679
 6694SOL    HW220982   4.378   3.973   1.723
 6695SOL     OW20983   2.898   2.548   0.408
 6695SOL    HW120984   2.856   2.624   0.357
 6695SOL    HW220985   2.998   2.556   0.403
 6696SOL     OW20986   3.873   2.922   5.121
 6696SOL    HW120987   3.885   2.978   5.203
 6696SOL    HW220988   3.942   2.849   5.120
 6697SOL     OW20989   4.458   1.725   2.170
 6697SOL    HW120990   4.472   1.799   2.103
 6697SOL    HW220991   4.485   1.756   2.261
 6698SOL     OW20992   2.882   3.819   1.502
 6698SOL    HW120993   2.895   3.740   1.441
 6698SOL    HW220994   2.829   3.889   1.454
 6699SOL     OW20995   1.507   3.296   5.678
 6699SOL    HW120996   1.547   3.276   5.588
 6699SOL    HW220997   1.546   3.381   5.714
 6700SOL     OW20998   5.619   0.569   1.532
 6700SOL    HW120999   5.545   0.514   1.492
 6700SOL    HW221000   5.582   0.623   1.608
 6701SOL     OW21001   5.811   0.174   1.605
 6701SOL    HW121002   5.866   0.244   1.649
 6701SOL    HW221003   5.814   0.186   1.505
 6702SOL     OW21004   3.765   3.148   0.515
 6702SOL    HW121005   3.803   3.122   0.604
 6702SOL    HW221006   3.804   3.090   0.444
 6703SOL     OW21007   0.349   1.304   0.580
 6703SOL    HW121008   0.415   1.229   0.573
 6703SOL    HW221009   0.389   1.388   0.544
 6704SOL     OW21010   3.350   0.226   5.460
 6704SOL    HW121011   3.401   0.299   5.504
 6704SOL    HW221012   3.259   0.220   5.499
 6705SOL     OW21013   6.841   4.199   2.407
 6705SOL    HW121014   6.781   4.172   2.331
 6705SOL    HW221015   6.854   4.298   2.406
 6706SOL     OW21016   6.862   6.867   0.545
 6706SOL    HW121017   6.805   6.786   0.556
 6706SOL    HW221018   6.941   6.846   0.488
 6707SOL     OW21019   4.301   0.896   3.155
 6707SOL    HW121020   4.298   0.798   3.133
 6707SOL    HW221021   4.363   0.910   3.232
 6708SOL     OW21022   0.678   2.808   0.544
 6708SOL    HW121023   0.725   2.877   0.600
 6708SOL    HW221024   0.597   2.850   0.501
 6709SOL     OW21025   2.316   4.172   2.213
 6709SOL    HW121026   2.326   4.073   2.198
 6709SOL    HW221027   2.236   4.188   2.271
 6710SOL     OW21028   4.684   1.303   0.609
 6710SOL    HW121029   4.620   1.227   0.625
 6710SOL    HW221030   4.653   1.355   0.529
 6711SOL     OW21031   3.579   5.876   6.204
 6711SOL    HW121032   3.520   5.905   6.129
 6711SOL    HW221033   3.582   5.947   6.274
 6712SOL     OW21034   4.858   4.251   1.374
 6712SOL    HW121035   4.945   4.300   1.376
 6712SOL    HW221036   4.783   4.315   1.393
 6713SOL     OW21037   1.633   4.606   4.441
 6713SOL    HW121038   1.657   4.597   4.538
 6713SOL    HW221039   1.711   4.645   4.391
 6714SOL     OW21040   5.468   1.454   1.353
 6714SOL    HW121041   5.434   1.433   1.261
 6714SOL    HW221042   5.512   1.543   1.354
 6715SOL     OW21043   1.063   0.174   6.334
 6715SOL    HW121044   1.145   0.117   6.338
 6715SOL    HW221045   1.027   0.175   6.241
 6716SOL     OW21046   1.239   5.487   1.809
 6716SOL    HW121047   1.149   5.463   1.773
 6716SOL    HW221048   1.307   5.476   1.737
 6717SOL     OW21049   6.040   1.940   5.619
 6717SOL    HW121050   6.081   2.031   5.613
 6717SOL    HW221051   6.046   1.896   5.529
 6718SOL     OW21052   5.055   1.639   1.024
 6718SOL    HW121053   5.113   1.585   1.084
 6718SOL    HW221054   5.048   1.594   0.935
 6719SOL     OW21055   1.452   1.633   0.375
 6719SOL    HW121056   1.516   1.706   0.398
 6719SOL    HW221057   1.361   1.656   0.409
 6720SOL     OW21058   1.594   0.901   5.719
 6720SOL    HW121059   1.673   0.896   5.657
 6720SOL    HW221060   1.512   0.922   5.666
 6721SOL     OW21061   6.044   6.704   0.717
 6721SOL    HW121062   6.122   6.762   0.695
 6721SOL    HW221063   6.028   6.705   0.816
 6722SOL     OW21064   5.671   4.321   0.545
 6722SOL    HW121065   5.578   4.360   0.548
 6722SOL    HW221066   5.737   4.391   0.570
 6723SOL     OW21067   1.587   3.060   4.438
 6723SOL    HW121068   1.542   3.146   4.415
 6723SOL    HW221069   1.677   3.079   4.477
 6724SOL     OW21070   2.269   4.185   4.120
 6724SOL    HW121071   2.205   4.260   4.137
 6724SOL    HW221072   2.280   4.173   4.021
 6725SOL     OW21073   4.919   3.255   4.046
 6725SOL    HW121074   4.864   3.175   4.021
 6725SOL    HW221075   5.014   3.227   4.058
 6726SOL     OW21076   0.583   1.270   6.437
 6726SOL    HW121077   0.572   1.362   6.399
 6726SOL    HW221078   0.555   1.270   6.534
 6727SOL     OW21079   0.994   4.692   5.354
 6727SOL    HW121080   0.918   4.677   5.291
 6727SOL    HW221081   1.078   4.706   5.302
 6728SOL     OW21082   3.469   1.676   4.129
 6728SOL    HW121083   3.568   1.674   4.125
 6728SOL    HW221084   3.439   1.683   4.224
 6729SOL     OW21085   3.925   0.959   2.266
 6729SOL    HW121086   3.926   0.890   2.194
 6729SOL    HW221087   4.000   0.943   2.329
 6730SOL     OW21088   6.879   1.934   0.524
 6730SOL    HW121089   6.793   1.887   0.541
 6730SOL    HW221090   6.895   1.942   0.426
 6731SOL     OW21091   4.199   0.212   6.144
 6731SOL    HW121092   4.246   0.198   6.231
 6731SOL    HW221093   4.167   0.306   6.138
 6732SOL     OW21094   6.881   4.844   5.506
 6732SOL    HW121095   6.824   4.849   5.588
 6732SOL    HW221096   6.970   4.886   5.524
 6733SOL     OW21097   4.789   5.024   5.122
 6733SOL    HW121098   4.849   5.055   5.048
 6733SOL    HW221099   4.841   5.021   5.208
 6734SOL     OW21100   5.956   2.121   5.357
 6734SOL    HW121101   6.055   2.116   5.346
 6734SOL    HW221102   5.934   2.136   5.453
 6735SOL     OW21103   5.723   2.408   4.019
 6735SOL    HW121104   5.693   2.457   4.101
 6735SOL    HW221105   5.648   2.406   3.953
 6736SOL     OW21106   3.419   3.923   0.708
 6736SOL    HW121107   3.431   4.014   0.747
 6736SOL    HW221108   3.509   3.881   0.692
 6737SOL     OW21109   6.666   3.551   1.048
 6737SOL    HW121110   6.723   3.505   0.980
 6737SOL    HW221111   6.711   3.549   1.137
 6738SOL     OW21112   2.050   6.509   4.381
 6738SOL    HW121113   2.147   6.492   4.368
 6738SOL    HW221114   2.038   6.592   4.435
 6739SOL     OW21115   0.034   6.771   5.485
 6739SOL    HW121116   6.985   6.810   5.424
 6739SOL    HW221117   7.010   6.727   5.563
 6740SOL     OW21118   0.224   6.852   1.823
 6740SOL    HW121119   0.165   6.926   1.856
 6740SOL    HW221120   0.268   6.807   1.901
 6741SOL     OW21121   3.569   1.684   0.137
 6741SOL    HW121122   3.510   1.739   0.078
 6741SOL    HW221123   3.517   1.604   0.170
 6742SOL     OW21124   6.291   4.196   2.941
 6742SOL    HW121125   6.383   4.184   2.979
 6742SOL    HW221126   6.251   4.107   2.921
 6743SOL     OW21127   3.875   3.349   6.654
 6743SOL    HW121128   3.904   3.426   6.712
 6743SOL    HW221129   3.790   3.373   6.607
 6744SOL     OW21130   6.544   6.695   5.624
 6744SOL    HW121131   6.456   6.686   5.669
 6744SOL    HW221132   6.558   6.619   5.561
 6745SOL     OW21133   6.656   4.122   5.672
 6745SOL    HW121134   6.593   4.074   5.611
 6745SOL    HW221135   6.605   4.186   5.729
 6746SOL     OW21136   1.057   2.141   3.109
 6746SOL    HW121137   1.113   2.214   3.070
 6746SOL    HW221138   1.079   2.055   3.064
 6747SOL     OW21139   0.549   6.411   5.002
 6747SOL    HW121140   0.550   6.511   4.999
 6747SOL    HW221141   0.587   6.379   5.089
 6748SOL     OW21142   1.889   0.514   4.901
 6748SOL    HW121143   1.796   0.482   4.915
 6748SOL    HW221144   1.887   0.596   4.843
 6749SOL     OW21145   4.166   5.204   2.275
 6749SOL    HW121146   4.250   5.152   2.286
 6749SOL    HW221147   4.158   5.272   2.347
 6750SOL     OW21148   3.348   1.033   5.975
 6750SOL    HW121149   3.288   1.028   6.054
 6750SOL    HW221150   3.443   1.023   6.004
 6751SOL     OW21151   4.176   0.715   4.496
 6751SOL    HW121152   4.150   0.775   4.420
 6751SOL    HW221153   4.220   0.769   4.567
 6752SOL     OW21154   2.239   4.702   2.753
 6752SOL    HW121155   2.249   4.799   2.732
 6752SOL    HW221156   2.327   4.656   2.740
 6753SOL     OW21157   3.840   3.096   6.817
 6753SOL    HW121158   3.907   3.146   6.762
 6753SOL    HW221159   3.749   3.110   6.779
 6754SOL     OW21160   6.462   1.216   0.519
 6754SOL    HW121161   6.553   1.246   0.491
 6754SOL    HW221162   6.456   1.217   0.619
 6755SOL     OW21163   2.933   6.032   5.790
 6755SOL    HW121164   2.858   5.965   5.786
 6755SOL    HW221165   3.002   6.001   5.855
 6756SOL     OW21166   3.432   3.401   6.520
 6756SOL    HW121167   3.339   3.400   6.483
 6756SOL    HW221168   3.497   3.399   6.444
 6757SOL     OW21169   3.946   0.034   1.690
 6757SOL    HW121170   3.950   6.971   1.634
 6757SOL    HW221171   3.868   0.027   1.753
 6758SOL     OW21172   5.103   3.025   3.279
 6758SOL    HW121173   5.114   2.940   3.330
 6758SOL    HW221174   5.005   3.043   3.265
 6759SOL     OW21175   0.907   1.828   2.835
 6759SOL    HW121176   0.972   1.865   2.901
 6759SOL    HW221177   0.889   1.732   2.857
 6760SOL     OW21178   5.379   2.207   5.513
 6760SOL    HW121179   5.405   2.303   5.513
 6760SOL    HW221180   5.283   2.198   5.485
 6761SOL     OW21181   3.502   1.413   5.082
 6761SOL    HW121182   3.449   1.388   5.001
 6761SOL    HW221183   3.589   1.451   5.054
 6762SOL     OW21184   5.945   4.977   4.754
 6762SOL    HW121185   5.890   4.896   4.774
 6762SOL    HW221186   6.039   4.963   4.785
 6763SOL     OW21187   5.633   6.949   4.111
 6763SOL    HW121188   5.552   6.936   4.169
 6763SOL    HW221189   5.673   6.860   4.090
 6764SOL     OW21190   0.289   5.099   1.922
 6764SOL    HW121191   0.275   5.037   1.846
 6764SOL    HW221192   0.246   5.062   2.004
 6765SOL     OW21193   0.057   3.448   2.433
 6765SOL    HW121194   0.046   3.355   2.398
 6765SOL    HW221195   0.015   3.513   2.369
 6766SOL     OW21196   5.875   0.200   1.339
 6766SOL    HW121197   5.865   0.297   1.316
 6766SOL    HW221198   5.798   0.149   1.301
 6767SOL     OW21199   3.353   0.028   1.015
 6767SOL    HW121200   3.411   0.006   1.094
 6767SOL    HW221201   3.272   0.078   1.046
 6768SOL     OW21202   1.839   6.808   0.143
 6768SOL    HW121203   1.906   6.834   0.074
 6768SOL    HW221204   1.874   6.830   0.234
 6769SOL     OW21205   4.860   2.943   1.549
 6769SOL    HW121206   4.804   2.945   1.632
 6769SOL    HW221207   4.801   2.944   1.468
 6770SOL     OW21208   0.310   1.724   1.715
 6770SOL    HW121209   0.355   1.672   1.787
 6770SOL    HW221210   0.379   1.775   1.663
 6771SOL     OW21211   4.642   1.734   3.112
 6771SOL    HW121212   4.608   1.691   3.195
 6771SOL    HW221213   4.742   1.744   3.118
 6772SOL     OW21214   3.956   1.779   3.907
 6772SOL    HW121215   4.001   1.781   3.818
 6772SOL    HW221216   4.012   1.729   3.972
 6773SOL     OW21217   0.582   3.761   1.373
 6773SOL    HW121218   0.669   3.719   1.345
 6773SOL    HW221219   0.536   3.799   1.293
 6774SOL     OW21220   0.691   2.623   6.484
 6774SOL    HW121221   0.731   2.610   6.575
 6774SOL    HW221222   0.661   2.717   6.473
 6775SOL     OW21223   1.399   4.373   0.051
 6775SOL    HW121224   1.425   4.466   0.078
 6775SOL    HW221225   1.365   4.373   6.978
 6776SOL     OW21226   6.142   5.514   6.625
 6776SOL    HW121227   6.213   5.514   6.696
 6776SOL    HW221228   6.184   5.494   6.536
 6777SOL     OW21229   4.791   5.741   0.041
 6777SOL    HW121230   4.830   5.819   0.090
 6777SOL    HW221231   4.710   5.709   0.089
 6778SOL     OW21232   6.667   5.643   3.577
 6778SOL    HW121233   6.737   5.681   3.517
 6778SOL    HW221234   6.581   5.636   3.526
 6779SOL     OW21235   6.450   3.559   6.668
 6779SOL    HW121236   6.452   3.548   6.569
 6779SOL    HW221237   6.491   3.478   6.711
 6780SOL     OW21238   1.122   2.902   2.300
 6780SOL    HW121239   1.106   2.908   2.201
 6780SOL    HW221240   1.191   2.831   2.318
 6781SOL     OW21241   5.884   4.851   5.561
 6781SOL    HW121242   5.943   4.920   5.602
 6781SOL    HW221243   5.940   4.778   5.522
 6782SOL     OW21244   6.212   0.890   2.954
 6782SOL    HW121245   6.229   0.804   2.905
 6782SOL    HW221246   6.143   0.875   3.025
 6783SOL     OW21247   0.328   5.973   6.427
 6783SOL    HW121248   0.419   5.938   6.404
 6783SOL    HW221249   0.325   6.071   6.409
 6784SOL     OW21250   3.752   2.900   0.109
 6784SOL    HW121251   3.816   2.973   0.087
 6784SOL    HW221252   3.681   2.935   0.170
 6785SOL     OW21253   6.325   5.646   1.657
 6785SOL    HW121254   6.242   5.596   1.677
 6785SOL    HW221255   6.405   5.589   1.675
 6786SOL     OW21256   1.675   3.495   5.790
 6786SOL    HW121257   1.660   3.583   5.834
 6786SOL    HW221258   1.770   3.488   5.759
 6787SOL     OW21259   0.967   3.407   1.715
 6787SOL    HW121260   0.995   3.357   1.633
 6787SOL    HW221261   1.035   3.393   1.788
 6788SOL     OW21262   2.925   4.879   0.876
 6788SOL    HW121263   2.908   4.915   0.968
 6788SOL    HW221264   2.986   4.801   0.882
 6789SOL     OW21265   0.576   5.544   3.312
 6789SOL    HW121266   0.566   5.450   3.344
 6789SOL    HW221267   0.529   5.606   3.376
 6790SOL     OW21268   1.473   2.498   0.566
 6790SOL    HW121269   1.493   2.550   0.483
 6790SOL    HW221270   1.396   2.541   0.614
 6791SOL     OW21271   3.553   3.988   6.275
 6791SOL    HW121272   3.466   3.996   6.324
 6791SOL    HW221273   3.629   3.992   6.339
 6792SOL     OW21274   0.347   4.572   7.019
 6792SOL    HW121275   0.359   4.576   6.920
 6792SOL    HW221276   0.374   4.481   0.031
 6793SOL     OW21277   5.807   1.442   1.501
 6793SOL    HW121278   5.770   1.373   1.563
 6793SOL    HW221279   5.763   1.530   1.519
 6794SOL     OW21280   4.336   1.557   4.508
 6794SOL    HW121281   4.360   1.624   4.578
 6794SOL    HW221282   4.379   1.582   4.422
 6795SOL     OW21283   3.227   5.816   0.148
 6795SOL    HW121284   3.305   5.759   0.174
 6795SOL    HW221285   3.258   5.910   0.134
 6796SOL     OW21286   4.000   2.167   2.951
 6796SOL    HW121287   3.976   2.205   3.040
 6796SOL    HW221288   3.919   2.167   2.892
 6797SOL     OW21289   6.809   2.744   1.888
 6797SOL    HW121290   6.792   2.811   1.960
 6797SOL    HW221291   6.824   2.654   1.928
 6798SOL     OW21292   6.348   0.343   2.490
 6798SOL    HW121293   6.394   0.307   2.409
 6798SOL    HW221294   6.315   0.266   2.546
 6799SOL     OW21295   5.037   5.825   1.981
 6799SOL    HW121296   5.059   5.789   2.071
 6799SOL    HW221297   5.102   5.897   1.957
 6800SOL     OW21298   3.380   3.855   6.858
 6800SOL    HW121299   3.381   3.952   6.880
 6800SOL    HW221300   3.291   3.816   6.882
 6801SOL     OW21301   1.161   1.960   2.858
 6801SOL    HW121302   1.254   1.936   2.831
 6801SOL    HW221303   1.123   2.025   2.791
 6802SOL     OW21304   2.566   5.036   2.722
 6802SOL    HW121305   2.476   5.063   2.756
 6802SOL    HW221306   2.606   4.969   2.785
 6803SOL     OW21307   4.737   2.395   0.388
 6803SOL    HW121308   4.705   2.442   0.470
 6803SOL    HW221309   4.801   2.453   0.338
 6804SOL     OW21310   1.055   0.228   3.679
 6804SOL    HW121311   1.086   0.162   3.747
 6804SOL    HW221312   1.061   0.187   3.588
 6805SOL     OW21313   5.106   0.810   4.909
 6805SOL    HW121314   5.055   0.841   4.829
 6805SOL    HW221315   5.173   0.880   4.935
 6806SOL     OW21316   5.436   6.194   5.265
 6806SOL    HW121317   5.345   6.206   5.304
 6806SOL    HW221318   5.471   6.103   5.288
 6807SOL     OW21319   3.286   3.092   7.008
 6807SOL    HW121320   3.326   3.033   6.938
 6807SOL    HW221321   3.302   3.052   0.078
 6808SOL     OW21322   2.118   3.322   3.951
 6808SOL    HW121323   2.107   3.309   4.050
 6808SOL    HW221324   2.136   3.234   3.908
 6809SOL     OW21325   2.148   3.996   6.724
 6809SOL    HW121326   2.210   3.996   6.645
 6809SOL    HW221327   2.053   3.994   6.692
 6810SOL     OW21328   5.490   1.838   3.013
 6810SOL    HW121329   5.554   1.913   3.028
 6810SOL    HW221330   5.420   1.866   2.947
 6811SOL     OW21331   4.753   5.811   1.903
 6811SOL    HW121332   4.680   5.867   1.942
 6811SOL    HW221333   4.832   5.812   1.964
 6812SOL     OW21334   3.706   3.001   2.428
 6812SOL    HW121335   3.710   2.957   2.339
 6812SOL    HW221336   3.624   3.057   2.435
 6813SOL     OW21337   5.124   3.264   1.216
 6813SOL    HW121338   5.034   3.225   1.234
 6813SOL    HW221339   5.140   3.267   1.117
 6814SOL     OW21340   2.856   3.170   0.480
 6814SOL    HW121341   2.837   3.080   0.519
 6814SOL    HW221342   2.783   3.233   0.506
 6815SOL     OW21343   1.731   6.893   1.640
 6815SOL    HW121344   1.690   6.849   1.560
 6815SOL    HW221345   1.664   6.952   1.683
 6816SOL     OW21346   6.474   4.012   1.408
 6816SOL    HW121347   6.492   3.940   1.475
 6816SOL    HW221348   6.378   4.010   1.382
 6817SOL     OW21349   0.762   2.355   6.205
 6817SOL    HW121350   0.784   2.324   6.297
 6817SOL    HW221351   0.821   2.433   6.182
 6818SOL     OW21352   3.323   5.411   1.730
 6818SOL    HW121353   3.230   5.431   1.698
 6818SOL    HW221354   3.321   5.396   1.829
 6819SOL     OW21355   3.067   1.158   3.938
 6819SOL    HW121356   3.067   1.075   3.881
 6819SOL    HW221357   3.151   1.161   3.992
 6820SOL     OW21358   1.493   5.012   3.899
 6820SOL    HW121359   1.532   5.101   3.873
 6820SOL    HW221360   1.393   5.016   3.888
 6821SOL     OW21361   2.594   2.558   4.383
 6821SOL    HW121362   2.604   2.523   4.290
 6821SOL    HW221363   2.685   2.580   4.420
 6822SOL     OW21364   4.900   1.951   5.525
 6822SOL    HW121365   4.827   2.003   5.480
 6822SOL    HW221366   4.906   1.978   5.621
 6823SOL     OW21367   3.837   3.485   2.749
 6823SOL    HW121368   3.795   3.430   2.821
 6823SOL    HW221369   3.931   3.507   2.774
 6824SOL     OW21370   1.416   4.792   6.199
 6824SOL    HW121371   1.359   4.870   6.225
 6824SOL    HW221372   1.487   4.777   6.268
 6825SOL     OW21373   5.211   6.961   3.933
 6825SOL    HW121374   5.289   0.003   3.929
 6825SOL    HW221375   5.182   6.951   4.028
 6826SOL     OW21376   0.832   2.871   2.760
 6826SOL    HW121377   0.785   2.842   2.843
 6826SOL    HW221378   0.927   2.840   2.762
 6827SOL     OW21379   5.865   6.289   5.025
 6827SOL    HW121380   5.855   6.313   5.122
 6827SOL    HW221381   5.777   6.301   4.979
 6828SOL     OW21382   1.976   1.764   1.365
 6828SOL    HW121383   1.916   1.831   1.408
 6828SOL    HW221384   2.033   1.810   1.297
 6829SOL     OW21385   5.406   4.745   3.574
 6829SOL    HW121386   5.445   4.724   3.664
 6829SOL    HW221387   5.454   4.823   3.534
 6830SOL     OW21388   5.082   2.365   4.475
 6830SOL    HW121389   5.060   2.407   4.387
 6830SOL    HW221390   5.073   2.265   4.467
 6831SOL     OW21391   7.004   1.313   5.765
 6831SOL    HW121392   0.004   1.353   5.676
 6831SOL    HW221393   6.937   1.240   5.753
 6832SOL     OW21394   2.943   5.072   1.777
 6832SOL    HW121395   2.904   5.002   1.837
 6832SOL    HW221396   2.895   5.070   1.689
 6833SOL     OW21397   4.140   5.714   0.256
 6833SOL    HW121398   4.082   5.640   0.291
 6833SOL    HW221399   4.107   5.741   0.165
 6834SOL     OW21400   4.064   5.433   2.422
 6834SOL    HW121401   4.071   5.457   2.325
 6834SOL    HW221402   3.973   5.395   2.439
 6835SOL     OW21403   3.766   6.927   4.769
 6835SOL    HW121404   3.811   6.938   4.858
 6835SOL    HW221405   3.669   6.908   4.783
 6836SOL     OW21406   3.597   6.076   6.370
 6836SOL    HW121407   3.662   6.149   6.388
 6836SOL    HW221408   3.537   6.064   6.449
 6837SOL     OW21409   0.684   2.651   2.602
 6837SOL    HW121410   0.740   2.711   2.659
 6837SOL    HW221411   0.685   2.683   2.507
 6838SOL     OW21412   2.563   1.872   0.684
 6838SOL    HW121413   2.616   1.827   0.755
 6838SOL    HW221414   2.588   1.835   0.594
 6839SOL     OW21415   4.383   0.764   1.561
 6839SOL    HW121416   4.379   0.857   1.595
 6839SOL    HW221417   4.416   0.764   1.467
 6840SOL     OW21418   0.966   1.146   6.438
 6840SOL    HW121419   0.893   1.134   6.371
 6840SOL    HW221420   0.981   1.061   6.488
 6841SOL     OW21421   0.286   3.390   6.098
 6841SOL    HW121422   0.300   3.296   6.067
 6841SOL    HW221423   0.275   3.450   6.019
 6842SOL     OW21424   2.491   4.611   2.982
 6842SOL    HW121425   2.571   4.658   3.020
 6842SOL    HW221426   2.460   4.658   2.900
 6843SOL     OW21427   4.337   6.919   0.888
 6843SOL    HW121428   4.372   6.999   0.840
 6843SOL    HW221429   4.256   6.884   0.841
 6844SOL     OW21430   5.296   0.385   6.295
 6844SOL    HW121431   5.314   0.479   6.325
 6844SOL    HW221432   5.378   0.330   6.309
 6845SOL     OW21433   4.913   2.191   2.658
 6845SOL    HW121434   4.819   2.189   2.693
 6845SOL    HW221435   4.931   2.280   2.617
 6846SOL     OW21436   2.460   3.642   0.041
 6846SOL    HW121437   2.367   3.608   0.056
 6846SOL    HW221438   2.473   3.728   0.092
 6847SOL     OW21439   0.002   2.766   4.592
 6847SOL    HW121440   6.944   2.795   4.646
 6847SOL    HW221441   0.086   2.803   4.632
 6848SOL     OW21442   6.938   5.092   3.303
 6848SOL    HW121443   6.996   5.088   3.222
 6848SOL    HW221444   6.930   5.186   3.335
 6849SOL     OW21445   3.109   4.050   6.108
 6849SOL    HW121446   3.097   4.031   6.205
 6849SOL    HW221447   3.045   3.994   6.055
 6850SOL     OW21448   4.801   0.223   3.759
 6850SOL    HW121449   4.749   0.309   3.762
 6850SOL    HW221450   4.893   0.239   3.795
 6851SOL     OW21451   2.144   3.484   3.366
 6851SOL    HW121452   2.180   3.573   3.391
 6851SOL    HW221453   2.103   3.441   3.446
 6852SOL     OW21454   4.418   4.670   0.106
 6852SOL    HW121455   4.375   4.729   0.175
 6852SOL    HW221456   4.480   4.725   0.050
 6853SOL     OW21457   4.123   4.581   6.485
 6853SOL    HW121458   4.082   4.542   6.403
 6853SOL    HW221459   4.052   4.601   6.553
 6854SOL     OW21460   5.088   5.748   6.404
 6854SOL    HW121461   5.140   5.717   6.324
 6854SOL    HW221462   5.129   5.711   6.487
 6855SOL     OW21463   4.279   4.935   3.207
 6855SOL    HW121464   4.280   4.990   3.291
 6855SOL    HW221465   4.361   4.880   3.201
 6856SOL     OW21466   0.231   2.281   6.587
 6856SOL    HW121467   0.150   2.248   6.635
 6856SOL    HW221468   0.280   2.345   6.646
 6857SOL     OW21469   1.236   4.126   5.606
 6857SOL    HW121470   1.143   4.161   5.621
 6857SOL    HW221471   1.256   4.127   5.508
 6858SOL     OW21472   1.987   3.974   1.902
 6858SOL    HW121473   2.029   4.049   1.952
 6858SOL    HW221474   1.959   3.902   1.966
 6859SOL     OW21475   1.983   1.601   1.881
 6859SOL    HW121476   1.919   1.670   1.913
 6859SOL    HW221477   1.948   1.558   1.798
 6860SOL     OW21478   0.620   6.591   0.874
 6860SOL    HW121479   0.689   6.559   0.809
 6860SOL    HW221480   0.569   6.513   0.909
 6861SOL     OW21481   6.313   3.243   6.329
 6861SOL    HW121482   6.401   3.280   6.299
 6861SOL    HW221483   6.252   3.235   6.251
 6862SOL     OW21484   0.851   4.369   4.014
 6862SOL    HW121485   0.910   4.419   3.951
 6862SOL    HW221486   0.870   4.399   4.108
 6863SOL     OW21487   5.591   1.390   5.354
 6863SOL    HW121488   5.557   1.463   5.413
 6863SOL    HW221489   5.691   1.392   5.352
 6864SOL     OW21490   1.563   3.590   6.254
 6864SOL    HW121491   1.567   3.507   6.198
 6864SOL    HW221492   1.648   3.601   6.304
 6865SOL     OW21493   2.342   0.507   4.195
 6865SOL    HW121494   2.357   0.524   4.292
 6865SOL    HW221495   2.369   0.588   4.142
 6866SOL     OW21496   1.200   4.686   0.295
 6866SOL    HW121497   1.196   4.735   0.208
 6866SOL    HW221498   1.108   4.674   0.331
 6867SOL     OW21499   2.100   3.725   6.552
 6867SOL    HW121500   2.151   3.740   6.467
 6867SOL    HW221501   2.162   3.692   6.622
 6868SOL     OW21502   3.080   5.080   3.520
 6868SOL    HW121503   3.178   5.074   3.541
 6868SOL    HW221504   3.040   4.988   3.521
 6869SOL     OW21505   2.693   0.906   5.903
 6869SOL    HW121506   2.686   1.004   5.920
 6869SOL    HW221507   2.619   0.858   5.949
 6870SOL     OW21508   5.567   1.982   0.126
 6870SOL    HW121509   5.585   1.955   0.220
 6870SOL    HW221510   5.644   2.035   0.091
 6871SOL     OW21511   6.802   3.174   2.516
 6871SOL    HW121512   6.866   3.177   2.440
 6871SOL    HW221513   6.811   3.257   2.571
 6872SOL     OW21514   1.959   4.182   1.237
 6872SOL    HW121515   2.034   4.123   1.205
 6872SOL    HW221516   1.898   4.202   1.160
 6873SOL     OW21517   0.788   4.395   2.902
 6873SOL    HW121518   0.807   4.334   2.825
 6873SOL    HW221519   0.789   4.343   2.987
 6874SOL     OW21520   4.796   6.226   2.924
 6874SOL    HW121521   4.758   6.193   3.010
 6874SOL    HW221522   4.728   6.283   2.877
 6875SOL     OW21523   2.586   0.998   0.673
 6875SOL    HW121524   2.544   0.936   0.606
 6875SOL    HW221525   2.675   0.962   0.699
 6876SOL     OW21526   5.488   5.410   3.344
 6876SOL    HW121527   5.519   5.484   3.403
 6876SOL    HW221528   5.418   5.444   3.281
 6877SOL     OW21529   0.650   3.625   1.698
 6877SOL    HW121530   0.634   3.578   1.612
 6877SOL    HW221531   0.591   3.706   1.703
 6878SOL     OW21532   1.870   0.975   4.640
 6878SOL    HW121533   1.801   1.042   4.668
 6878SOL    HW221534   1.886   0.982   4.542
 6879SOL     OW21535   1.323   1.511   1.078
 6879SOL    HW121536   1.407   1.488   1.127
 6879SOL    HW221537   1.325   1.608   1.052
 6880SOL     OW21538   1.415   5.690   0.307
 6880SOL    HW121539   1.423   5.756   0.383
 6880SOL    HW221540   1.401   5.739   0.222
 6881SOL     OW21541   0.323   3.444   0.397
 6881SOL    HW121542   0.313   3.535   0.356
 6881SOL    HW221543   0.235   3.412   0.430
 6882SOL     OW21544   3.147   6.236   0.217
 6882SOL    HW121545   3.093   6.172   0.272
 6882SOL    HW221546   3.190   6.303   0.278
 6883SOL     OW21547   5.023   0.512   1.447
 6883SOL    HW121548   5.077   0.501   1.531
 6883SOL    HW221549   4.939   0.459   1.454
 6884SOL     OW21550   2.050   4.494   3.359
 6884SOL    HW121551   1.975   4.554   3.330
 6884SOL    HW221552   2.075   4.515   3.453
 6885SOL     OW21553   5.933   4.428   5.088
 6885SOL    HW121554   5.909   4.391   5.177
 6885SOL    HW221555   5.897   4.368   5.016
 6886SOL     OW21556   5.273   2.961   0.251
 6886SOL    HW121557   5.218   3.039   0.280
 6886SOL    HW221558   5.213   2.882   0.236
 6887SOL     OW21559   5.625   6.034   5.881
 6887SOL    HW121560   5.576   6.001   5.961
 6887SOL    HW221561   5.694   5.966   5.854
 6888SOL     OW21562   6.332   3.945   6.940
 6888SOL    HW121563   6.312   3.868   6.879
 6888SOL    HW221564   6.272   4.022   6.917
 6889SOL     OW21565   0.312   1.898   5.467
 6889SOL    HW121566   0.238   1.888   5.533
 6889SOL    HW221567   0.400   1.890   5.514
 6890SOL     OW21568   4.937   4.610   3.862
 6890SOL    HW121569   4.957   4.625   3.959
 6890SOL    HW221570   4.963   4.516   3.838
 6891SOL     OW21571   1.580   1.472   1.227
 6891SOL    HW121572   1.663   1.528   1.227
 6891SOL    HW221573   1.589   1.399   1.159
 6892SOL     OW21574   3.127   0.942   4.937
 6892SOL    HW121575   3.212   0.974   4.979
 6892SOL    HW221576   3.130   0.842   4.928
 6893SOL     OW21577   6.162   3.247   0.527
 6893SOL    HW121578   6.156   3.248   0.427
 6893SOL    HW221579   6.070   3.238   0.566
 6894SOL     OW21580   5.857   4.730   0.255
 6894SOL    HW121581   5.837   4.632   0.259
 6894SOL    HW221582   5.859   4.760   0.160
 6895SOL     OW21583   0.946   6.158   2.454
 6895SOL    HW121584   0.912   6.066   2.473
 6895SOL    HW221585   0.920   6.219   2.529
 6896SOL     OW21586   4.742   1.353   5.532
 6896SOL    HW121587   4.756   1.294   5.452
 6896SOL    HW221588   4.715   1.444   5.502
 6897SOL     OW21589   4.346   2.655   5.332
 6897SOL    HW121590   4.266   2.619   5.284
 6897SOL    HW221591   4.428   2.634   5.280
 6898SOL     OW21592   1.759   6.766   1.258
 6898SOL    HW121593   1.702   6.807   1.187
 6898SOL    HW221594   1.702   6.739   1.335
 6899SOL     OW21595   5.767   6.317   2.483
 6899SOL    HW121596   5.863   6.292   2.496
 6899SOL    HW221597   5.754   6.357   2.393
 6900SOL     OW21598   6.399   3.454   5.005
 6900SOL    HW121599   6.345   3.537   4.989
 6900SOL    HW221600   6.387   3.424   5.100
 6901SOL     OW21601   5.583   5.106   5.998
 6901SOL    HW121602   5.665   5.093   5.943
 6901SOL    HW221603   5.503   5.112   5.938
 6902SOL     OW21604   0.575   5.545   5.691
 6902SOL    HW121605   0.567   5.459   5.641
 6902SOL    HW221606   0.556   5.622   5.630
 6903SOL     OW21607   1.561   5.801   4.890
 6903SOL    HW121608   1.626   5.816   4.965
 6903SOL    HW221609   1.563   5.879   4.828
 6904SOL     OW21610   0.266   0.373   5.637
 6904SOL    HW121611   0.206   0.310   5.688
 6904SOL    HW221612   0.290   0.332   5.549
 6905SOL     OW21613   5.178   6.202   5.908
 6905SOL    HW121614   5.143   6.295   5.898
 6905SOL    HW221615   5.205   6.166   5.819
 6906SOL     OW21616   2.733   0.744   3.557
 6906SOL    HW121617   2.664   0.761   3.627
 6906SOL    HW221618   2.760   0.831   3.515
 6907SOL     OW21619   6.015   1.716   0.763
 6907SOL    HW121620   5.966   1.764   0.836
 6907SOL    HW221621   6.062   1.782   0.705
 6908SOL     OW21622   3.354   5.341   0.724
 6908SOL    HW121623   3.385   5.300   0.809
 6908SOL    HW221624   3.337   5.439   0.737
 6909SOL     OW21625   5.295   4.948   2.614
 6909SOL    HW121626   5.331   4.932   2.706
 6909SOL    HW221627   5.299   4.863   2.561
 6910SOL     OW21628   1.034   2.109   2.664
 6910SOL    HW121629   1.040   2.209   2.671
 6910SOL    HW221630   0.943   2.083   2.632
 6911SOL     OW21631   2.374   6.325   5.640
 6911SOL    HW121632   2.452   6.273   5.605
 6911SOL    HW221633   2.400   6.421   5.651
 6912SOL     OW21634   2.774   3.889   6.865
 6912SOL    HW121635   2.844   3.896   6.794
 6912SOL    HW221636   2.784   3.801   6.913
 6913SOL     OW21637   4.413   5.654   5.675
 6913SOL    HW121638   4.355   5.623   5.600
 6913SOL    HW221639   4.504   5.676   5.640
 6914SOL     OW21640   5.700   2.219   2.064
 6914SOL    HW121641   5.676   2.309   2.101
 6914SOL    HW221642   5.651   2.148   2.115
 6915SOL     OW21643   6.907   3.447   3.414
 6915SOL    HW121644   6.923   3.363   3.467
 6915SOL    HW221645   6.822   3.438   3.362
 6916SOL     OW21646   4.632   6.328   5.986
 6916SOL    HW121647   4.671   6.241   5.955
 6916SOL    HW221648   4.576   6.367   5.913
 6917SOL     OW21649   3.359   6.426   2.352
 6917SOL    HW121650   3.260   6.430   2.358
 6917SOL    HW221651   3.398   6.407   2.442
 6918SOL     OW21652   2.255   3.538   0.324
 6918SOL    HW121653   2.215   3.628   0.310
 6918SOL    HW221654   2.242   3.482   0.241
 6919SOL     OW21655   6.238   6.178   3.290
 6919SOL    HW121656   6.321   6.215   3.331
 6919SOL    HW221657   6.257   6.152   3.195
 6920SOL     OW21658   6.339   1.823   5.575
 6920SOL    HW121659   6.310   1.733   5.542
 6920SOL    HW221660   6.389   1.871   5.503
 6921SOL     OW21661   4.332   0.346   4.344
 6921SOL    HW121662   4.407   0.384   4.399
 6921SOL    HW221663   4.367   0.318   4.255
 6922SOL     OW21664   2.727   5.266   6.714
 6922SOL    HW121665   2.750   5.362   6.700
 6922SOL    HW221666   2.679   5.231   6.633
 6923SOL     OW21667   5.236   0.215   2.677
 6923SOL    HW121668   5.251   0.133   2.622
 6923SOL    HW221669   5.323   0.264   2.688
 6924SOL     OW21670   3.130   5.717   1.936
 6924SOL    HW121671   3.229   5.730   1.937
 6924SOL    HW221672   3.097   5.728   1.842
 6925SOL     OW21673   6.150   6.622   4.820
 6925SOL    HW121674   6.215   6.657   4.753
 6925SOL    HW221675   6.172   6.658   4.910
 6926SOL     OW21676   3.161   2.027   0.380
 6926SOL    HW121677   3.133   2.069   0.466
 6926SOL    HW221678   3.260   2.017   0.377
 6927SOL     OW21679   3.731   0.140   0.387
 6927SOL    HW121680   3.820   0.094   0.380
 6927SOL    HW221681   3.675   0.115   0.308
 6928SOL     OW21682   3.478   5.480   6.979
 6928SOL    HW121683   3.561   5.500   6.928
 6928SOL    HW221684   3.495   5.406   0.023
 6929SOL     OW21685   4.935   4.875   2.668
 6929SOL    HW121686   4.980   4.859   2.756
 6929SOL    HW221687   4.959   4.966   2.635
 6930SOL     OW21688   0.822   6.561   1.855
 6930SOL    HW121689   0.791   6.643   1.807
 6930SOL    HW221690   0.864   6.497   1.790
 6931SOL     OW21691   3.167   3.624   1.012
 6931SOL    HW121692   3.067   3.615   1.015
 6931SOL    HW221693   3.209   3.535   1.024
 6932SOL     OW21694   3.747   0.135   6.061
 6932SOL    HW121695   3.702   0.136   5.972
 6932SOL    HW221696   3.709   0.209   6.118
 6933SOL     OW21697   2.883   5.745   6.006
 6933SOL    HW121698   2.837   5.678   5.948
 6933SOL    HW221699   2.982   5.732   6.000
 6934SOL     OW21700   4.971   5.267   0.122
 6934SOL    HW121701   4.972   5.296   0.026
 6934SOL    HW221702   5.058   5.291   0.165
 6935SOL     OW21703   4.047   6.225   1.827
 6935SOL    HW121704   3.977   6.175   1.877
 6935SOL    HW221705   4.069   6.176   1.743
 6936SOL     OW21706   0.842   1.744   5.965
 6936SOL    HW121707   0.932   1.788   5.958
 6936SOL    HW221708   0.845   1.655   5.919
 6937SOL     OW21709   5.777   5.376   0.515
 6937SOL    HW121710   5.795   5.430   0.433
 6937SOL    HW221711   5.786   5.279   0.494
 6938SOL     OW21712   2.731   1.185   4.843
 6938SOL    HW121713   2.664   1.252   4.874
 6938SOL    HW221714   2.747   1.197   4.745
 6939SOL     OW21715   5.819   3.719   4.016
 6939SOL    HW121716   5.854   3.699   4.107
 6939SOL    HW221717   5.778   3.811   4.014
 6940SOL     OW21718   2.818   6.622   0.849
 6940SOL    HW121719   2.844   6.712   0.883
 6940SOL    HW221720   2.722   6.624   0.819
 6941SOL     OW21721   3.741   3.323   2.524
 6941SOL    HW121722   3.701   3.246   2.574
 6941SOL    HW221723   3.795   3.379   2.587
 6942SOL     OW21724   6.646   5.071   2.872
 6942SOL    HW121725   6.681   4.995   2.818
 6942SOL    HW221726   6.547   5.077   2.861
 6943SOL     OW21727   4.663   4.955   6.354
 6943SOL    HW121728   4.659   5.025   6.425
 6943SOL    HW221729   4.751   4.906   6.360
 6944SOL     OW21730   1.221   4.732   5.212
 6944SOL    HW121731   1.197   4.747   5.116
 6944SOL    HW221732   1.307   4.777   5.232
 6945SOL     OW21733   5.413   1.852   0.877
 6945SOL    HW121734   5.344   1.833   0.947
 6945SOL    HW221735   5.482   1.914   0.914
 6946SOL     OW21736   5.107   6.097   2.891
 6946SOL    HW121737   5.129   6.178   2.945
 6946SOL    HW221738   5.010   6.075   2.902
 6947SOL     OW21739   6.406   4.214   5.279
 6947SOL    HW121740   6.483   4.151   5.271
 6947SOL    HW221741   6.380   4.246   5.188
 6948SOL     OW21742   6.910   4.617   6.529
 6948SOL    HW121743   6.825   4.593   6.575
 6948SOL    HW221744   6.903   4.594   6.432
 6949SOL     OW21745   2.725   1.316   2.743
 6949SOL    HW121746   2.660   1.273   2.681
 6949SOL    HW221747   2.703   1.291   2.837
 6950SOL     OW21748   1.509   0.836   3.986
 6950SOL    HW121749   1.445   0.778   3.938
 6950SOL    HW221750   1.459   0.899   4.046
 6951SOL     OW21751   1.412   3.717   6.770
 6951SOL    HW121752   1.350   3.785   6.733
 6951SOL    HW221753   1.424   3.732   6.868
 6952SOL     OW21754   5.000   5.757   3.345
 6952SOL    HW121755   4.947   5.672   3.343
 6952SOL    HW221756   5.095   5.737   3.367
 6953SOL     OW21757   6.349   1.416   1.461
 6953SOL    HW121758   6.372   1.335   1.406
 6953SOL    HW221759   6.394   1.410   1.550
 6954SOL     OW21760   6.631   4.285   6.323
 6954SOL    HW121761   6.573   4.360   6.355
 6954SOL    HW221762   6.653   4.225   6.399
 6955SOL     OW21763   4.604   5.597   2.915
 6955SOL    HW121764   4.575   5.673   2.857
 6955SOL    HW221765   4.704   5.599   2.926
 6956SOL     OW21766   5.415   5.180   2.150
 6956SOL    HW121767   5.433   5.146   2.058
 6956SOL    HW221768   5.488   5.151   2.212
 6957SOL     OW21769   6.336   5.304   5.238
 6957SOL    HW121770   6.365   5.218   5.197
 6957SOL    HW221771   6.301   5.365   5.166
 6958SOL     OW21772   3.558   3.153   2.679
 6958SOL    HW121773   3.519   3.171   2.588
 6958SOL    HW221774   3.506   3.202   2.748
 6959SOL     OW21775   1.783   3.951   2.801
 6959SOL    HW121776   1.726   3.899   2.865
 6959SOL    HW221777   1.865   3.985   2.848
 6960SOL     OW21778   4.929   4.675   0.596
 6960SOL    HW121779   5.023   4.679   0.564
 6960SOL    HW221780   4.912   4.750   0.660
 6961SOL     OW21781   4.559   2.812   5.480
 6961SOL    HW121782   4.570   2.897   5.531
 6961SOL    HW221783   4.478   2.818   5.422
 6962SOL     OW21784   2.692   6.032   0.051
 6962SOL    HW121785   2.715   6.002   6.979
 6962SOL    HW221786   2.660   6.126   0.050
 6963SOL     OW21787   6.693   6.034   6.835
 6963SOL    HW121788   6.787   6.041   6.800
 6963SOL    HW221789   6.694   5.984   6.921
 6964SOL     OW21790   2.074   1.500   5.068
 6964SOL    HW121791   2.140   1.489   4.993
 6964SOL    HW221792   2.007   1.425   5.064
 6965SOL     OW21793   1.702   1.576   0.080
 6965SOL    HW121794   1.611   1.579   0.039
 6965SOL    HW221795   1.696   1.539   0.173
 6966SOL     OW21796   1.265   6.472   1.238
 6966SOL    HW121797   1.250   6.568   1.215
 6966SOL    HW221798   1.182   6.420   1.221
 6967SOL     OW21799   3.795   0.798   6.937
 6967SOL    HW121800   3.730   0.807   7.012
 6967SOL    HW221801   3.820   0.888   6.902
 6968SOL     OW21802   3.471   0.359   2.880
 6968SOL    HW121803   3.466   0.390   2.974
 6968SOL    HW221804   3.519   0.427   2.824
 6969SOL     OW21805   1.841   2.655   1.605
 6969SOL    HW121806   1.874   2.705   1.686
 6969SOL    HW221807   1.832   2.558   1.627
 6970SOL     OW21808   3.554   5.656   5.524
 6970SOL    HW121809   3.622   5.587   5.550
 6970SOL    HW221810   3.544   5.722   5.598
 6971SOL     OW21811   5.957   3.995   0.089
 6971SOL    HW121812   5.975   4.041   0.002
 6971SOL    HW221813   5.940   3.898   0.072
 6972SOL     OW21814   6.003   3.813   1.652
 6972SOL    HW121815   5.995   3.817   1.552
 6972SOL    HW221816   5.957   3.892   1.693
 6973SOL     OW21817   1.013   1.392   2.863
 6973SOL    HW121818   0.984   1.303   2.828
 6973SOL    HW221819   0.940   1.459   2.849
 6974SOL     OW21820   3.837   3.289   3.196
 6974SOL    HW121821   3.786   3.368   3.230
 6974SOL    HW221822   3.805   3.206   3.242
 6975SOL     OW21823   2.942   5.657   4.468
 6975SOL    HW121824   3.022   5.602   4.492
 6975SOL    HW221825   2.912   5.635   4.375
 6976SOL     OW21826   4.356   5.189   5.868
 6976SOL    HW121827   4.349   5.287   5.849
 6976SOL    HW221828   4.393   5.141   5.788
 6977SOL     OW21829   4.996   4.612   2.156
 6977SOL    HW121830   4.910   4.653   2.125
 6977SOL    HW221831   5.071   4.676   2.143
 6978SOL     OW21832   0.785   3.421   0.515
 6978SOL    HW121833   0.807   3.427   0.418
 6978SOL    HW221834   0.696   3.376   0.526
 6979SOL     OW21835   1.346   3.740   2.587
 6979SOL    HW121836   1.380   3.821   2.635
 6979SOL    HW221837   1.246   3.737   2.594
 6980SOL     OW21838   2.555   5.041   3.390
 6980SOL    HW121839   2.585   5.076   3.480
 6980SOL    HW221840   2.579   4.944   3.383
 6981SOL     OW21841   4.504   3.290   6.595
 6981SOL    HW121842   4.512   3.242   6.507
 6981SOL    HW221843   4.588   3.277   6.648
 6982SOL     OW21844   0.478   0.761   1.788
 6982SOL    HW121845   0.389   0.804   1.776
 6982SOL    HW221846   0.471   0.664   1.763
 6983SOL     OW21847   6.238   0.007   4.440
 6983SOL    HW121848   6.321   0.026   4.387
 6983SOL    HW221849   6.171   6.982   4.383
 6984SOL     OW21850   1.329   3.275   3.261
 6984SOL    HW121851   1.235   3.302   3.239
 6984SOL    HW221852   1.374   3.239   3.179
 6985SOL     OW21853   5.135   2.745   0.201
 6985SOL    HW121854   5.092   2.669   0.251
 6985SOL    HW221855   5.156   2.716   0.108
 6986SOL     OW21856   4.562   5.062   5.674
 6986SOL    HW121857   4.646   5.109   5.702
 6986SOL    HW221858   4.563   4.969   5.712
 6987SOL     OW21859   6.966   0.994   6.531
 6987SOL    HW121860   6.924   0.959   6.448
 6987SOL    HW221861   6.917   1.076   6.561
 6988SOL     OW21862   2.206   1.377   6.708
 6988SOL    HW121863   2.243   1.292   6.671
 6988SOL    HW221864   2.116   1.395   6.669
 6989SOL     OW21865   0.796   3.784   2.304
 6989SOL    HW121866   0.792   3.710   2.371
 6989SOL    HW221867   0.712   3.838   2.308
 6990SOL     OW21868   3.693   3.761   6.542
 6990SOL    HW121869   3.720   3.852   6.510
 6990SOL    HW221870   3.696   3.696   6.467
 6991SOL     OW21871   5.696   3.461   2.714
 6991SOL    HW121872   5.605   3.436   2.746
 6991SOL    HW221873   5.719   3.407   2.633
 6992SOL     OW21874   1.325   5.022   6.947
 6992SOL    HW121875   1.354   5.104   6.897
 6992SOL    HW221876   1.227   5.006   6.930
 6993SOL     OW21877   3.645   2.289   1.614
 6993SOL    HW121878   3.673   2.311   1.707
 6993SOL    HW221879   3.650   2.372   1.557
 6994SOL     OW21880   2.803   1.283   3.159
 6994SOL    HW121881   2.842   1.370   3.190
 6994SOL    HW221882   2.862   1.208   3.190
 6995SOL     OW21883   0.277   4.091   0.525
 6995SOL    HW121884   0.219   4.109   0.605
 6995SOL    HW221885   0.371   4.076   0.555
 6996SOL     OW21886   1.154   0.922   6.161
 6996SOL    HW121887   1.057   0.903   6.146
 6996SOL    HW221888   1.195   0.955   6.076
 6997SOL     OW21889   6.387   6.480   6.240
 6997SOL    HW121890   6.384   6.578   6.217
 6997SOL    HW221891   6.432   6.468   6.328
 6998SOL     OW21892   0.030   0.403   0.282
 6998SOL    HW121893   0.062   0.387   0.376
 6998SOL    HW221894   6.983   0.333   0.259
 6999SOL     OW21895   6.786   2.799   0.025
 6999SOL    HW121896   6.821   2.761   0.110
 6999SOL    HW221897   6.795   2.731   6.972
 7000SOL     OW21898   0.390   5.709   3.439
 7000SOL    HW121899   0.328   5.708   3.517
 7000SOL    HW221900   0.380   5.796   3.389
 7001SOL     OW21901   6.833   1.595   4.606
 7001SOL    HW121902   6.738   1.564   4.598
 7001SOL    HW221903   6.837   1.694   4.588
 7002SOL     OW21904   1.073   4.901   2.686
 7002SOL    HW121905   1.119   4.821   2.648
 7002SOL    HW221906   1.103   4.983   2.638
 7003SOL     OW21907   0.594   4.768   6.785
 7003SOL    HW121908   0.568   4.765   6.881
 7003SOL    HW221909   0.694   4.759   6.777
 7004SOL     OW21910   1.760   6.866   6.733
 7004SOL    HW121911   1.836   6.931   6.738
 7004SOL    HW221912   1.727   6.846   6.825
 7005SOL     OW21913   1.214   5.479   0.368
 7005SOL    HW121914   1.146   5.552   0.373
 7005SOL    HW221915   1.251   5.475   0.275
 7006SOL     OW21916   0.511   0.271   3.801
 7006SOL    HW121917   0.468   0.188   3.765
 7006SOL    HW221918   0.601   0.249   3.839
 7007SOL     OW21919   2.089   0.436   5.945
 7007SOL    HW121920   2.064   0.359   6.004
 7007SOL    HW221921   2.169   0.483   5.983
 7008SOL     OW21922   5.194   3.151   3.758
 7008SOL    HW121923   5.281   3.108   3.735
 7008SOL    HW221924   5.123   3.118   3.696
 7009SOL     OW21925   4.779   5.501   2.383
 7009SOL    HW121926   4.796   5.487   2.481
 7009SOL    HW221927   4.710   5.573   2.372
 7010SOL     OW21928   4.856   3.125   2.642
 7010SOL    HW121929   4.883   3.051   2.703
 7010SOL    HW221930   4.853   3.211   2.693
 7011SOL     OW21931   2.465   6.561   6.179
 7011SOL    HW121932   2.367   6.565   6.198
 7011SOL    HW221933   2.484   6.602   6.090
 7012SOL     OW21934   0.085   3.343   0.518
 7012SOL    HW121935   0.102   3.267   0.580
 7012SOL    HW221936   7.017   3.332   0.474
 7013SOL     OW21937   3.648   2.630   0.362
 7013SOL    HW121938   3.727   2.570   0.372
 7013SOL    HW221939   3.574   2.599   0.421
 7014SOL     OW21940   5.899   3.273   0.663
 7014SOL    HW121941   5.893   3.373   0.658
 7014SOL    HW221942   5.820   3.237   0.712
 7015SOL     OW21943   6.265   6.079   1.220
 7015SOL    HW121944   6.208   6.030   1.154
 7015SOL    HW221945   6.206   6.129   1.284
 7016SOL     OW21946   2.945   5.008   1.137
 7016SOL    HW121947   2.990   5.097   1.124
 7016SOL    HW221948   3.006   4.947   1.187
 7017SOL     OW21949   6.242   4.903   5.850
 7017SOL    HW121950   6.308   4.845   5.897
 7017SOL    HW221951   6.275   4.998   5.851
 7018SOL     OW21952   5.014   3.526   5.156
 7018SOL    HW121953   4.969   3.549   5.242
 7018SOL    HW221954   4.946   3.521   5.083
 7019SOL     OW21955   4.030   5.573   2.202
 7019SOL    HW121956   3.943   5.556   2.248
 7019SOL    HW221957   4.017   5.642   2.130
 7020SOL     OW21958   0.898   1.999   6.236
 7020SOL    HW121959   0.906   1.901   6.254
 7020SOL    HW221960   0.829   2.015   6.166
 7021SOL     OW21961   0.743   1.722   4.757
 7021SOL    HW121962   0.833   1.683   4.777
 7021SOL    HW221963   0.745   1.763   4.666
 7022SOL     OW21964   2.376   3.649   0.776
 7022SOL    HW121965   2.452   3.706   0.745
 7022SOL    HW221966   2.340   3.597   0.699
 7023SOL     OW21967   0.411   1.598   0.890
 7023SOL    HW121968   0.478   1.527   0.914
 7023SOL    HW221969   0.404   1.605   0.791
 7024SOL     OW21970   3.280   4.076   5.156
 7024SOL    HW121971   3.247   3.988   5.191
 7024SOL    HW221972   3.245   4.149   5.214
 7025SOL     OW21973   2.716   0.630   1.220
 7025SOL    HW121974   2.765   0.713   1.194
 7025SOL    HW221975   2.745   0.555   1.160
 7026SOL     OW21976   3.309   2.266   0.953
 7026SOL    HW121977   3.231   2.206   0.932
 7026SOL    HW221978   3.352   2.295   0.868
 7027SOL     OW21979   3.089   4.825   1.964
 7027SOL    HW121980   3.111   4.728   1.976
 7027SOL    HW221981   2.991   4.835   1.946
 7028SOL     OW21982   3.505   0.435   3.623
 7028SOL    HW121983   3.449   0.497   3.568
 7028SOL    HW221984   3.490   0.453   3.720
 7029SOL     OW21985   3.380   3.856   3.630
 7029SOL    HW121986   3.375   3.942   3.578
 7029SOL    HW221987   3.426   3.787   3.574
 7030SOL     OW21988   6.394   6.948   5.015
 7030SOL    HW121989   6.303   6.956   4.974
 7030SOL    HW221990   6.459   7.006   4.965
 7031SOL     OW21991   4.755   5.905   0.712
 7031SOL    HW121992   4.768   5.841   0.637
 7031SOL    HW221993   4.742   5.855   0.798
 7032SOL     OW21994   4.506   5.041   4.390
 7032SOL    HW121995   4.570   4.993   4.450
 7032SOL    HW221996   4.528   5.139   4.390
 7033SOL     OW21997   1.701   1.269   5.857
 7033SOL    HW121998   1.762   1.315   5.923
 7033SOL    HW221999   1.624   1.329   5.837
 7034SOL     OW22000   6.282   1.391   2.362
 7034SOL    HW122001   6.325   1.424   2.446
 7034SOL    HW222002   6.350   1.344   2.306
 7035SOL     OW22003   2.626   1.755   1.767
 7035SOL    HW122004   2.605   1.851   1.746
 7035SOL    HW222005   2.723   1.746   1.786
 7036SOL     OW22006   6.020   1.391   1.675
 7036SOL    HW122007   5.968   1.430   1.598
 7036SOL    HW222008   6.063   1.464   1.727
 7037SOL     OW22009   1.673   0.487   6.155
 7037SOL    HW122010   1.634   0.548   6.086
 7037SOL    HW222011   1.600   0.432   6.197
 7038SOL     OW22012   0.627   4.331   0.692
 7038SOL    HW122013   0.668   4.412   0.650
 7038SOL    HW222014   0.531   4.350   0.713
 7039SOL     OW22015   6.859   0.043   1.748
 7039SOL    HW122016   6.890   0.125   1.699
 7039SOL    HW222017   6.903   6.983   1.709
 7040SOL     OW22018   5.732   2.115   4.890
 7040SOL    HW122019   5.759   2.023   4.862
 7040SOL    HW222020   5.798   2.150   4.957
 7041SOL     OW22021   1.211   0.395   3.900
 7041SOL    HW122022   1.279   0.336   3.944
 7041SOL    HW222023   1.227   0.398   3.802
 7042SOL     OW22024   5.860   6.298   5.548
 7042SOL    HW122025   5.904   6.218   5.507
 7042SOL    HW222026   5.894   6.311   5.641
 7043SOL     OW22027   1.800   5.807   1.254
 7043SOL    HW122028   1.897   5.808   1.231
 7043SOL    HW222029   1.750   5.864   1.188
 7044SOL     OW22030   4.775   5.845   4.910
 7044SOL    HW122031   4.679   5.820   4.925
 7044SOL    HW222032   4.789   5.940   4.938
 7045SOL     OW22033   6.015   5.923   1.835
 7045SOL    HW122034   6.084   5.869   1.786
 7045SOL    HW222035   5.934   5.866   1.851
 7046SOL     OW22036   2.167   1.723   3.580
 7046SOL    HW122037   2.118   1.787   3.639
 7046SOL    HW222038   2.251   1.693   3.626
 7047SOL     OW22039   0.917   6.757   0.636
 7047SOL    HW122040   0.876   6.828   0.693
 7047SOL    HW222041   0.879   6.668   0.661
 7048SOL     OW22042   0.590   6.376   3.741
 7048SOL    HW122043   0.492   6.357   3.742
 7048SOL    HW222044   0.605   6.474   3.759
 7049SOL     OW22045   3.660   1.695   4.399
 7049SOL    HW122046   3.571   1.677   4.441
 7049SOL    HW222047   3.660   1.786   4.358
 7050SOL     OW22048   4.105   4.243   0.526
 7050SOL    HW122049   4.012   4.207   0.529
 7050SOL    HW222050   4.144   4.228   0.436
 7051SOL     OW22051   1.161   2.032   1.901
 7051SOL    HW122052   1.082   2.050   1.843
 7051SOL    HW222053   1.225   1.972   1.853
 7052SOL     OW22054   4.450   2.036   2.814
 7052SOL    HW122055   4.430   1.943   2.781
 7052SOL    HW222056   4.379   2.098   2.781
 7053SOL     OW22057   1.260   4.579   3.388
 7053SOL    HW122058   1.249   4.677   3.375
 7053SOL    HW222059   1.172   4.538   3.412
 7054SOL     OW22060   4.786   6.840   6.719
 7054SOL    HW122061   4.753   6.884   6.802
 7054SOL    HW222062   4.869   6.887   6.687
 7055SOL     OW22063   2.479   0.278   0.516
 7055SOL    HW122064   2.427   0.198   0.489
 7055SOL    HW222065   2.540   0.306   0.442
 7056SOL     OW22066   6.934   5.202   0.928
 7056SOL    HW122067   0.013   5.195   0.934
 7056SOL    HW222068   6.904   5.287   0.973
 7057SOL     OW22069   3.307   5.752   4.851
 7057SOL    HW122070   3.357   5.719   4.771
 7057SOL    HW222071   3.301   5.679   4.919
 7058SOL     OW22072   6.458   1.824   6.563
 7058SOL    HW122073   6.426   1.821   6.657
 7058SOL    HW222074   6.391   1.872   6.506
 7059SOL     OW22075   2.177   0.160   5.295
 7059SOL    HW122076   2.243   0.128   5.363
 7059SOL    HW222077   2.092   0.107   5.303
 7060SOL     OW22078   3.343   2.329   1.554
 7060SOL    HW122079   3.402   2.329   1.474
 7060SOL    HW222080   3.320   2.424   1.578
 7061SOL     OW22081   1.588   1.001   1.606
 7061SOL    HW122082   1.617   0.967   1.516
 7061SOL    HW222083   1.522   1.075   1.594
 7062SOL     OW22084   3.318   0.612   4.746
 7062SOL    HW122085   3.231   0.619   4.695
 7062SOL    HW222086   3.380   0.551   4.698
 7063SOL     OW22087   0.245   1.498   1.535
 7063SOL    HW122088   0.287   1.587   1.553
 7063SOL    HW222089   0.162   1.488   1.590
 7064SOL     OW22090   3.046   1.401   5.480
 7064SOL    HW122091   2.957   1.442   5.500
 7064SOL    HW222092   3.043   1.359   5.389
 7065SOL     OW22093   3.665   5.875   5.011
 7065SOL    HW122094   3.641   5.854   5.105
 7065SOL    HW222095   3.763   5.893   5.004
 7066SOL     OW22096   3.573   0.169   1.360
 7066SOL    HW122097   3.524   0.083   1.347
 7066SOL    HW222098   3.508   0.245   1.356
 7067SOL     OW22099   2.318   3.972   6.202
 7067SOL    HW122100   2.289   3.999   6.294
 7067SOL    HW222101   2.278   3.883   6.180
 7068SOL     OW22102   5.026   4.211   4.439
 7068SOL    HW122103   4.943   4.186   4.389
 7068SOL    HW222104   5.105   4.201   4.378
 7069SOL     OW22105   5.143   0.599   6.075
 7069SOL    HW122106   5.130   0.555   5.986
 7069SOL    HW222107   5.230   0.570   6.115
 7070SOL     OW22108   0.432   0.912   5.626
 7070SOL    HW122109   0.407   0.822   5.660
 7070SOL    HW222110   0.406   0.920   5.529
 7071SOL     OW22111   4.444   6.270   6.871
 7071SOL    HW122112   4.416   6.360   6.906
 7071SOL    HW222113   4.421   6.264   6.774
 7072SOL     OW22114   1.059   3.765   6.128
 7072SOL    HW122115   1.076   3.832   6.057
 7072SOL    HW222116   1.144   3.714   6.147
 7073SOL     OW22117   4.517   1.104   3.554
 7073SOL    HW122118   4.530   1.032   3.621
 7073SOL    HW222119   4.553   1.190   3.590
 7074SOL     OW22120   5.847   4.409   2.623
 7074SOL    HW122121   5.919   4.470   2.588
 7074SOL    HW222122   5.762   4.427   2.574
 7075SOL     OW22123   2.485   5.402   2.853
 7075SOL    HW122124   2.408   5.448   2.898
 7075SOL    HW222125   2.560   5.390   2.918
 7076SOL     OW22126   5.493   1.445   1.071
 7076SOL    HW122127   5.583   1.483   1.053
 7076SOL    HW222128   5.478   1.366   1.010
 7077SOL     OW22129   3.477   6.301   1.393
 7077SOL    HW122130   3.505   6.205   1.392
 7077SOL    HW222131   3.547   6.357   1.347
 7078SOL     OW22132   6.859   0.954   6.289
 7078SOL    HW122133   6.781   1.014   6.311
 7078SOL    HW222134   6.825   0.864   6.260
 7079SOL     OW22135   2.159   5.770   4.661
 7079SOL    HW122136   2.100   5.693   4.635
 7079SOL    HW222137   2.168   5.772   4.760
 7080SOL     OW22138   4.110   1.618   6.178
 7080SOL    HW122139   4.188   1.644   6.121
 7080SOL    HW222140   4.127   1.645   6.272
 7081SOL     OW22141   2.059   6.590   0.424
 7081SOL    HW122142   2.065   6.558   0.329
 7081SOL    HW222143   1.991   6.663   0.430
 7082SOL     OW22144   0.919   3.540   2.153
 7082SOL    HW122145   0.873   3.528   2.065
 7082SOL    HW222146   0.909   3.635   2.183
 7083SOL     OW22147   5.127   2.861   3.521
 7083SOL    HW122148   5.065   2.784   3.502
 7083SOL    HW222149   5.217   2.826   3.545
 7084SOL     OW22150   1.097   5.083   0.717
 7084SOL    HW122151   1.062   5.123   0.632
 7084SOL    HW222152   1.023   5.079   0.784
 7085SOL     OW22153   0.381   3.894   2.485
 7085SOL    HW122154   0.335   3.844   2.558
 7085SOL    HW222155   0.356   3.991   2.489
 7086SOL     OW22156   5.282   0.821   3.499
 7086SOL    HW122157   5.318   0.756   3.431
 7086SOL    HW222158   5.337   0.905   3.495
 7087SOL     OW22159   5.161   2.238   3.665
 7087SOL    HW122160   5.159   2.297   3.584
 7087SOL    HW222161   5.255   2.225   3.696
 7088SOL     OW22162   5.909   2.569   5.283
 7088SOL    HW122163   5.923   2.471   5.270
 7088SOL    HW222164   5.813   2.587   5.300
 7089SOL     OW22165   2.630   5.521   0.892
 7089SOL    HW122166   2.695   5.446   0.896
 7089SOL    HW222167   2.541   5.489   0.923
 7090SOL     OW22168   4.672   2.811   1.117
 7090SOL    HW122169   4.665   2.835   1.214
 7090SOL    HW222170   4.609   2.736   1.096
 7091SOL     OW22171   6.315   6.751   0.356
 7091SOL    HW122172   6.286   6.657   0.376
 7091SOL    HW222173   6.239   6.814   0.373
 7092SOL     OW22174   4.150   0.076   6.579
 7092SOL    HW122175   4.074   0.082   6.514
 7092SOL    HW222176   4.235   0.101   6.532
 7093SOL     OW22177   3.780   3.410   0.440
 7093SOL    HW122178   3.793   3.421   0.342
 7093SOL    HW222179   3.767   3.314   0.463
 7094SOL     OW22180   4.617   1.088   5.437
 7094SOL    HW122181   4.691   1.135   5.389
 7094SOL    HW222182   4.645   0.994   5.457
 7095SOL     OW22183   2.551   5.079   4.292
 7095SOL    HW122184   2.589   5.057   4.202
 7095SOL    HW222185   2.536   5.178   4.299
 7096SOL     OW22186   6.585   6.435   0.740
 7096SOL    HW122187   6.638   6.459   0.821
 7096SOL    HW222188   6.641   6.379   0.679
 7097SOL     OW22189   5.160   1.720   2.290
 7097SOL    HW122190   5.211   1.641   2.326
 7097SOL    HW222191   5.112   1.694   2.207
 7098SOL     OW22192   0.698   1.256   2.974
 7098SOL    HW122193   0.690   1.309   2.889
 7098SOL    HW222194   0.678   1.315   3.052
 7099SOL     OW22195   3.365   2.110   4.607
 7099SOL    HW122196   3.454   2.154   4.596
 7099SOL    HW222197   3.344   2.100   4.704
 7100SOL     OW22198   0.139   4.211   1.390
 7100SOL    HW122199   0.111   4.295   1.436
 7100SOL    HW222200   0.227   4.225   1.344
 7101SOL     OW22201   2.661   5.732   4.282
 7101SOL    HW122202   2.593   5.803   4.265
 7101SOL    HW222203   2.649   5.697   4.375
 7102SOL     OW22204   5.703   1.429   3.050
 7102SOL    HW122205   5.642   1.488   2.998
 7102SOL    HW222206   5.798   1.455   3.031
 7103SOL     OW22207   5.445   3.867   3.980
 7103SOL    HW122208   5.447   3.807   4.060
 7103SOL    HW222209   5.518   3.935   3.987
 7104SOL     OW22210   5.068   2.845   4.508
 7104SOL    HW122211   4.986   2.884   4.550
 7104SOL    HW222212   5.121   2.797   4.578
 7105SOL     OW22213   3.811   4.099   2.757
 7105SOL    HW122214   3.863   4.044   2.691
 7105SOL    HW222215   3.806   4.051   2.844
 7106SOL     OW22216   2.854   1.888   2.103
 7106SOL    HW122217   2.893   1.979   2.087
 7106SOL    HW222218   2.755   1.897   2.115
 7107SOL     OW22219   3.682   1.551   6.652
 7107SOL    HW122220   3.737   1.468   6.652
 7107SOL    HW222221   3.585   1.527   6.649
 7108SOL     OW22222   3.473   0.394   1.953
 7108SOL    HW122223   3.477   0.356   2.046
 7108SOL    HW222224   3.563   0.388   1.911
 7109SOL     OW22225   3.166   5.898   5.953
 7109SOL    HW122226   3.164   5.826   6.022
 7109SOL    HW222227   3.189   5.859   5.864
 7110SOL     OW22228   2.666   6.150   5.014
 7110SOL    HW122229   2.731   6.091   4.966
 7110SOL    HW222230   2.574   6.111   5.006
 7111SOL     OW22231   6.852   1.030   4.869
 7111SOL    HW122232   6.873   0.955   4.806
 7111SOL    HW222233   6.754   1.031   4.888
 7112SOL     OW22234   0.474   5.038   5.188
 7112SOL    HW122235   0.570   5.030   5.160
 7112SOL    HW222236   0.455   5.133   5.212
 7113SOL     OW22237   3.608   6.680   4.967
 7113SOL    HW122238   3.601   6.775   4.998
 7113SOL    HW222239   3.517   6.639   4.963
 7114SOL     OW22240   6.201   4.017   1.360
 7114SOL    HW122241   6.157   3.998   1.272
 7114SOL    HW222242   6.183   4.112   1.386
 7115SOL     OW22243   4.781   2.969   6.165
 7115SOL    HW122244   4.869   3.010   6.186
 7115SOL    HW222245   4.711   3.040   6.161
 7116SOL     OW22246   6.553   4.379   4.940
 7116SOL    HW122247   6.588   4.296   4.897
 7116SOL    HW222248   6.619   4.412   5.008
 7117SOL     OW22249   4.789   6.989   2.711
 7117SOL    HW122250   4.877   7.007   2.666
 7117SOL    HW222251   4.773   0.040   2.780
 7118SOL     OW22252   4.476   4.191   5.740
 7118SOL    HW122253   4.379   4.166   5.738
 7118SOL    HW222254   4.488   4.281   5.697
 7119SOL     OW22255   3.029   6.639   4.922
 7119SOL    HW122256   3.048   6.540   4.922
 7119SOL    HW222257   2.960   6.659   4.991
 7120SOL     OW22258   4.103   1.340   1.118
 7120SOL    HW122259   4.084   1.351   1.216
 7120SOL    HW222260   4.075   1.248   1.089
 7121SOL     OW22261   0.912   6.238   2.194
 7121SOL    HW122262   0.950   6.157   2.150
 7121SOL    HW222263   0.927   6.233   2.293
 7122SOL     OW22264   4.068   2.037   6.808
 7122SOL    HW122265   4.136   1.978   6.764
 7122SOL    HW222266   4.113   2.111   6.857
 7123SOL     OW22267   5.270   4.887   5.991
 7123SOL    HW122268   5.189   4.917   6.040
 7123SOL    HW222269   5.259   4.791   5.965
 7124SOL     OW22270   2.775   2.921   0.534
 7124SOL    HW122271   2.840   2.890   0.465
 7124SOL    HW222272   2.691   2.867   0.526
 7125SOL     OW22273   1.011   6.474   2.071
 7125SOL    HW122274   0.984   6.394   2.124
 7125SOL    HW222275   0.940   6.498   2.006
 7126SOL     OW22276   4.140   4.766   1.099
 7126SOL    HW122277   4.180   4.675   1.084
 7126SOL    HW222278   4.041   4.758   1.102
 7127SOL     OW22279   2.671   5.934   6.058
 7127SOL    HW122280   2.742   5.866   6.040
 7127SOL    HW222281   2.709   6.008   6.114
 7128SOL     OW22282   3.355   4.160   0.136
 7128SOL    HW122283   3.294   4.082   0.149
 7128SOL    HW222284   3.442   4.141   0.181
 7129SOL     OW22285   7.008   0.177   6.775
 7129SOL    HW122286   0.013   0.207   6.867
 7129SOL    HW222287   6.972   0.255   6.723
 7130SOL     OW22288   3.638   0.474   4.366
 7130SOL    HW122289   3.586   0.559   4.361
 7130SOL    HW222290   3.672   0.461   4.460
 7131SOL     OW22291   2.207   1.384   2.001
 7131SOL    HW122292   2.293   1.432   1.985
 7131SOL    HW222293   2.130   1.446   1.985
 7132SOL     OW22294   4.776   4.631   1.836
 7132SOL    HW122295   4.722   4.559   1.794
 7132SOL    HW222296   4.722   4.679   1.905
 7133SOL     OW22297   4.677   6.047   2.670
 7133SOL    HW122298   4.606   6.009   2.610
 7133SOL    HW222299   4.762   5.997   2.656
 7134SOL     OW22300   4.722   5.277   6.910
 7134SOL    HW122301   4.761   5.223   6.836
 7134SOL    HW222302   4.756   5.371   6.904
 7135SOL     OW22303   2.124   4.384   1.292
 7135SOL    HW122304   2.061   4.306   1.286
 7135SOL    HW222305   2.081   4.457   1.345
 7136SOL     OW22306   1.449   2.678   1.580
 7136SOL    HW122307   1.441   2.697   1.677
 7136SOL    HW222308   1.437   2.580   1.563
 7137SOL     OW22309   2.981   1.231   2.464
 7137SOL    HW122310   2.965   1.294   2.540
 7137SOL    HW222311   3.079   1.214   2.456
 7138SOL     OW22312   0.426   3.308   6.996
 7138SOL    HW122313   0.426   3.232   6.931
 7138SOL    HW222314   0.359   3.377   6.968
 7139SOL     OW22315   5.716   5.947   1.397
 7139SOL    HW122316   5.627   5.904   1.387
 7139SOL    HW222317   5.734   5.965   1.494
 7140SOL     OW22318   0.001   4.871   0.047
 7140SOL    HW122319   0.044   4.796   0.098
 7140SOL    HW222320   6.927   4.848   0.026
 7141SOL     OW22321   3.272   1.081   1.219
 7141SOL    HW122322   3.289   1.179   1.212
 7141SOL    HW222323   3.226   1.061   1.305
 7142SOL     OW22324   4.839   0.144   5.315
 7142SOL    HW122325   4.832   0.106   5.223
 7142SOL    HW222326   4.886   0.232   5.312
 7143SOL     OW22327   3.203   2.569   5.973
 7143SOL    HW122328   3.114   2.580   6.017
 7143SOL    HW222329   3.258   2.651   5.987
 7144SOL     OW22330   6.841   1.063   5.725
 7144SOL    HW122331   6.832   1.032   5.820
 7144SOL    HW222332   6.892   0.995   5.673
 7145SOL     OW22333   5.789   2.243   6.323
 7145SOL    HW122334   5.843   2.239   6.408
 7145SOL    HW222335   5.815   2.324   6.271
 7146SOL     OW22336   0.396   1.963   4.816
 7146SOL    HW122337   0.332   2.039   4.806
 7146SOL    HW222338   0.352   1.889   4.868
 7147SOL     OW22339   6.587   0.312   1.179
 7147SOL    HW122340   6.685   0.332   1.182
 7147SOL    HW222341   6.567   0.255   1.100
 7148SOL     OW22342   6.027   0.012   0.968
 7148SOL    HW122343   6.061   0.079   0.901
 7148SOL    HW222344   6.032   0.050   1.060
 7149SOL     OW22345   5.124   4.288   6.083
 7149SOL    HW122346   5.157   4.297   5.989
 7149SOL    HW222347   5.202   4.280   6.145
 7150SOL     OW22348   2.935   2.290   6.848
 7150SOL    HW122349   2.973   2.214   6.794
 7150SOL    HW222350   3.000   2.316   6.919
 7151SOL     OW22351   5.164   1.512   6.839
 7151SOL    HW122352   5.192   1.416   6.835
 7151SOL    HW222353   5.244   1.570   6.824
 7152SOL     OW22354   4.575   0.055   5.404
 7152SOL    HW122355   4.603   0.002   5.484
 7152SOL    HW222356   4.651   0.061   5.339
 7153SOL     OW22357   3.467   5.795   0.735
 7153SOL    HW122358   3.515   5.767   0.818
 7153SOL    HW222359   3.453   5.894   0.737
 7154SOL     OW22360   4.987   0.916   1.850
 7154SOL    HW122361   4.965   1.010   1.825
 7154SOL    HW222362   4.903   0.861   1.851
 7155SOL     OW22363   2.043   0.414   1.394
 7155SOL    HW122364   2.137   0.404   1.425
 7155SOL    HW222365   2.042   0.455   1.303
 7156SOL     OW22366   6.531   3.889   5.865
 7156SOL    HW122367   6.626   3.878   5.893
 7156SOL    HW222368   6.492   3.970   5.910
 7157SOL     OW22369   0.382   3.969   5.758
 7157SOL    HW122370   0.333   3.997   5.675
 7157SOL    HW222371   0.398   3.870   5.755
 7158SOL     OW22372   5.388   0.150   3.842
 7158SOL    HW122373   5.301   0.164   3.796
 7158SOL    HW222374   5.449   0.096   3.784
 7159SOL     OW22375   0.581   6.498   2.864
 7159SOL    HW122376   0.583   6.572   2.797
 7159SOL    HW222377   0.537   6.417   2.824
 7160SOL     OW22378   6.116   6.915   2.488
 7160SOL    HW122379   6.117   6.869   2.577
 7160SOL    HW222380   6.022   6.926   2.457
 7161SOL     OW22381   4.163   3.633   2.276
 7161SOL    HW122382   4.212   3.642   2.189
 7161SOL    HW222383   4.093   3.704   2.283
 7162SOL     OW22384   0.126   6.270   0.754
 7162SOL    HW122385   0.154   6.177   0.778
 7162SOL    HW222386   0.036   6.289   0.796
 7163SOL     OW22387   6.334   0.544   0.997
 7163SOL    HW122388   6.344   0.473   1.066
 7163SOL    HW222389   6.284   0.622   1.036
 7164SOL     OW22390   1.550   0.746   7.000
 7164SOL    HW122391   1.533   0.794   6.914
 7164SOL    HW222392   1.495   0.662   7.003
 7165SOL     OW22393   5.146   1.927   6.906
 7165SOL    HW122394   5.097   2.002   6.861
 7165SOL    HW222395   5.101   1.840   6.884
 7166SOL     OW22396   6.908   5.528   5.165
 7166SOL    HW122397   6.883   5.436   5.194
 7166SOL    HW222398   6.885   5.593   5.237
 7167SOL     OW22399   0.411   3.311   5.850
 7167SOL    HW122400   0.508   3.289   5.837
 7167SOL    HW222401   0.403   3.402   5.891
 7168SOL     OW22402   1.292   1.298   2.470
 7168SOL    HW122403   1.288   1.335   2.563
 7168SOL    HW222404   1.387   1.283   2.444
 7169SOL     OW22405   1.788   4.414   5.800
 7169SOL    HW122406   1.884   4.414   5.774
 7169SOL    HW222407   1.765   4.501   5.844
 7170SOL     OW22408   3.631   1.439   1.051
 7170SOL    HW122409   3.613   1.434   1.149
 7170SOL    HW222410   3.684   1.359   1.022
 7171SOL     OW22411   6.736   4.434   0.803
 7171SOL    HW122412   6.718   4.512   0.743
 7171SOL    HW222413   6.698   4.351   0.761
 7172SOL     OW22414   0.483   2.407   3.706
 7172SOL    HW122415   0.438   2.345   3.771
 7172SOL    HW222416   0.576   2.373   3.687
 7173SOL     OW22417   3.914   5.401   5.068
 7173SOL    HW122418   3.857   5.456   5.007
 7173SOL    HW222419   3.857   5.361   5.140
 7174SOL     OW22420   6.488   4.022   2.122
 7174SOL    HW122421   6.550   4.092   2.087
 7174SOL    HW222422   6.541   3.953   2.171
 7175SOL     OW22423   6.323   3.524   6.057
 7175SOL    HW122424   6.386   3.464   6.107
 7175SOL    HW222425   6.242   3.472   6.032
 7176SOL     OW22426   0.408   1.003   6.481
 7176SOL    HW122427   0.468   1.078   6.453
 7176SOL    HW222428   0.408   0.931   6.412
 7177SOL     OW22429   1.379   5.957   3.286
 7177SOL    HW122430   1.405   6.035   3.343
 7177SOL    HW222431   1.334   5.888   3.343
 7178SOL     OW22432   1.133   6.421   5.263
 7178SOL    HW122433   1.096   6.486   5.328
 7178SOL    HW222434   1.230   6.406   5.282
 7179SOL     OW22435   4.523   4.946   5.985
 7179SOL    HW122436   4.576   4.961   6.068
 7179SOL    HW222437   4.490   5.033   5.950
 7180SOL     OW22438   1.483   2.982   1.793
 7180SOL    HW122439   1.540   2.943   1.721
 7180SOL    HW222440   1.527   3.063   1.831
 7181SOL     OW22441   2.479   0.783   0.135
 7181SOL    HW122442   2.571   0.801   0.168
 7181SOL    HW222443   2.480   0.768   0.036
 7182SOL     OW22444   1.765   1.473   3.423
 7182SOL    HW122445   1.673   1.495   3.457
 7182SOL    HW222446   1.760   1.442   3.328
 7183SOL     OW22447   1.553   0.021   1.793
 7183SOL    HW122448   1.517   0.105   1.835
 7183SOL    HW222449   1.561   6.971   1.863
 7184SOL     OW22450   6.806   0.539   3.811
 7184SOL    HW122451   6.861   0.615   3.846
 7184SOL    HW222452   6.717   0.574   3.781
 7185SOL     OW22453   4.060   0.314   4.062
 7185SOL    HW122454   3.990   0.276   4.000
 7185SOL    HW222455   4.019   0.331   4.151
 7186SOL     OW22456   6.527   0.860   6.366
 7186SOL    HW122457   6.548   0.958   6.372
 7186SOL    HW222458   6.473   0.833   6.445
 7187SOL     OW22459   3.713   3.233   3.999
 7187SOL    HW122460   3.764   3.250   3.915
 7187SOL    HW222461   3.751   3.153   4.045
 7188SOL     OW22462   4.563   4.345   0.524
 7188SOL    HW122463   4.624   4.320   0.599
 7188SOL    HW222464   4.611   4.405   0.460
 7189SOL     OW22465   6.901   2.393   5.868
 7189SOL    HW122466   6.909   2.299   5.901
 7189SOL    HW222467   6.992   2.433   5.859
 7190SOL     OW22468   6.333   5.517   6.796
 7190SOL    HW122469   6.394   5.482   6.868
 7190SOL    HW222470   6.296   5.606   6.824
 7191SOL     OW22471   6.521   4.673   2.154
 7191SOL    HW122472   6.570   4.671   2.241
 7191SOL    HW222473   6.475   4.586   2.140
 7192SOL     OW22474   2.549   4.033   5.430
 7192SOL    HW122475   2.496   4.010   5.347
 7192SOL    HW222476   2.557   4.132   5.438
 7193SOL     OW22477   3.546   1.542   3.846
 7193SOL    HW122478   3.526   1.599   3.926
 7193SOL    HW222479   3.645   1.528   3.839
 7194SOL     OW22480   2.887   2.469   5.966
 7194SOL    HW122481   2.894   2.521   5.881
 7194SOL    HW222482   2.832   2.521   6.032
 7195SOL     OW22483   1.347   3.578   5.808
 7195SOL    HW122484   1.440   3.594   5.777
 7195SOL    HW222485   1.303   3.665   5.829
 7196SOL     OW22486   3.192   4.042   1.529
 7196SOL    HW122487   3.236   4.124   1.494
 7196SOL    HW222488   3.151   3.991   1.453
 7197SOL     OW22489   3.369   5.157   0.001
 7197SOL    HW122490   3.288   5.208   6.993
 7197SOL    HW222491   3.428   5.141   6.943
 7198SOL     OW22492   0.988   0.411   1.680
 7198SOL    HW122493   0.997   0.370   1.589
 7198SOL    HW222494   0.936   0.349   1.739
 7199SOL     OW22495   6.076   1.171   2.996
 7199SOL    HW122496   6.042   1.105   2.930
 7199SOL    HW222497   6.170   1.150   3.020
 7200SOL     OW22498   1.038   2.783   6.944
 7200SOL    HW122499   1.084   2.851   6.887
 7200SOL    HW222500   0.942   2.777   6.918
 7201SOL     OW22501   5.921   5.970   3.992
 7201SOL    HW122502   6.000   5.909   3.986
 7201SOL    HW222503   5.952   6.060   4.025
 7202SOL     OW22504   4.652   6.796   6.180
 7202SOL    HW122505   4.734   6.798   6.122
 7202SOL    HW222506   4.575   6.836   6.130
 7203SOL     OW22507   0.609   1.933   0.970
 7203SOL    HW122508   0.548   1.883   1.031
 7203SOL    HW222509   0.573   2.025   0.956
 7204SOL     OW22510   6.166   0.863   2.282
 7204SOL    HW122511   6.221   0.822   2.355
 7204SOL    HW222512   6.071   0.870   2.312
 7205SOL     OW22513   3.320   1.662   4.376
 7205SOL    HW122514   3.266   1.656   4.460
 7205SOL    HW222515   3.333   1.759   4.352
 7206SOL     OW22516   2.259   3.555   6.708
 7206SOL    HW122517   2.358   3.566   6.703
 7206SOL    HW222518   2.232   3.476   6.653
 7207SOL     OW22519   2.106   1.388   3.174
 7207SOL    HW122520   2.181   1.439   3.215
 7207SOL    HW222521   2.054   1.341   3.246
 7208SOL     OW22522   3.970   0.961   3.897
 7208SOL    HW122523   4.058   1.006   3.913
 7208SOL    HW222524   3.911   1.022   3.845
 7209SOL     OW22525   3.529   1.100   2.025
 7209SOL    HW122526   3.629   1.106   2.018
 7209SOL    HW222527   3.492   1.190   2.045
 7210SOL     OW22528   3.603   1.254   3.936
 7210SOL    HW122529   3.597   1.269   3.838
 7210SOL    HW222530   3.665   1.321   3.977
 7211SOL     OW22531   4.070   6.166   5.863
 7211SOL    HW122532   4.046   6.077   5.824
 7211SOL    HW222533   4.048   6.167   5.961
 7212SOL     OW22534   0.830   5.527   5.564
 7212SOL    HW122535   0.789   5.461   5.627
 7212SOL    HW222536   0.896   5.480   5.505
 7213SOL     OW22537   4.304   2.676   0.191
 7213SOL    HW122538   4.393   2.681   0.146
 7213SOL    HW222539   4.284   2.763   0.235
 7214SOL     OW22540   6.135   0.820   6.059
 7214SOL    HW122541   6.065   0.876   6.103
 7214SOL    HW222542   6.225   0.860   6.076
 7215SOL     OW22543   6.725   1.491   2.258
 7215SOL    HW122544   6.636   1.508   2.216
 7215SOL    HW222545   6.713   1.467   2.354
 7216SOL     OW22546   5.171   6.794   3.638
 7216SOL    HW122547   5.213   6.884   3.656
 7216SOL    HW222548   5.073   6.805   3.627
 7217SOL     OW22549   1.164   3.012   3.360
 7217SOL    HW122550   1.192   2.955   3.438
 7217SOL    HW222551   1.238   3.018   3.294
 7218SOL     OW22552   6.436   2.175   5.134
 7218SOL    HW122553   6.506   2.116   5.095
 7218SOL    HW222554   6.371   2.201   5.062
 7219SOL     OW22555   2.912   6.064   1.869
 7219SOL    HW122556   2.989   6.060   1.805
 7219SOL    HW222557   2.828   6.040   1.821
 7220SOL     OW22558   6.221   4.037   3.338
 7220SOL    HW122559   6.275   4.089   3.404
 7220SOL    HW222560   6.275   4.023   3.255
 7221SOL     OW22561   4.208   5.097   3.433
 7221SOL    HW122562   4.226   5.192   3.406
 7221SOL    HW222563   4.202   5.091   3.532
 7222SOL     OW22564   0.041   6.378   3.786
 7222SOL    HW122565   0.118   6.441   3.795
 7222SOL    HW222566   6.980   6.420   3.825
 7223SOL     OW22567   0.088   4.722   1.815
 7223SOL    HW122568   0.033   4.717   1.899
 7223SOL    HW222569   0.035   4.686   1.739
 7224SOL     OW22570   4.508   2.088   2.513
 7224SOL    HW122571   4.571   2.087   2.435
 7224SOL    HW222572   4.556   2.058   2.595
 7225SOL     OW22573   0.899   6.203   0.242
 7225SOL    HW122574   0.861   6.142   0.173
 7225SOL    HW222575   0.871   6.172   0.333
 7226SOL     OW22576   6.234   6.510   0.453
 7226SOL    HW122577   6.135   6.506   0.437
 7226SOL    HW222578   6.262   6.428   0.504
 7227SOL     OW22579   1.942   1.613   2.952
 7227SOL    HW122580   1.915   1.647   2.862
 7227SOL    HW222581   2.022   1.555   2.943
 7228SOL     OW22582   5.694   2.900   2.572
 7228SOL    HW122583   5.714   2.981   2.628
 7228SOL    HW222584   5.637   2.837   2.625
 7229SOL     OW22585   5.928   0.756   5.075
 7229SOL    HW122586   5.893   0.819   5.006
 7229SOL    HW222587   5.886   0.666   5.063
 7230SOL     OW22588   2.336   5.543   4.633
 7230SOL    HW122589   2.411   5.483   4.604
 7230SOL    HW222590   2.249   5.496   4.619
 7231SOL     OW22591   4.028   3.377   5.778
 7231SOL    HW122592   4.128   3.389   5.783
 7231SOL    HW222593   3.985   3.467   5.771
 7232SOL     OW22594   4.674   6.051   3.482
 7232SOL    HW122595   4.722   5.974   3.523
 7232SOL    HW222596   4.575   6.040   3.495
 7233SOL     OW22597   0.714   1.177   5.732
 7233SOL    HW122598   0.692   1.161   5.636
 7233SOL    HW222599   0.800   1.229   5.738
 7234SOL     OW22600   5.721   4.603   3.926
 7234SOL    HW122601   5.766   4.542   3.860
 7234SOL    HW222602   5.729   4.564   4.018
 7235SOL     OW22603   6.088   0.198   1.888
 7235SOL    HW122604   6.030   0.263   1.938
 7235SOL    HW222605   6.137   0.247   1.815
 7236SOL     OW22606   1.737   3.945   2.525
 7236SOL    HW122607   1.721   3.947   2.624
 7236SOL    HW222608   1.770   4.034   2.494
 7237SOL     OW22609   5.800   1.165   0.235
 7237SOL    HW122610   5.794   1.066   0.245
 7237SOL    HW222611   5.831   1.206   0.321
 7238SOL     OW22612   3.927   3.898   0.268
 7238SOL    HW122613   4.017   3.877   0.229
 7238SOL    HW222614   3.868   3.818   0.260
 7239SOL     OW22615   5.609   2.451   2.266
 7239SOL    HW122616   5.633   2.524   2.330
 7239SOL    HW222617   5.576   2.372   2.316
 7240SOL     OW22618   0.052   1.630   0.585
 7240SOL    HW122619   0.147   1.654   0.566
 7240SOL    HW222620   0.025   1.553   0.527
 7241SOL     OW22621   2.160   0.536   2.361
 7241SOL    HW122622   2.189   0.514   2.268
 7241SOL    HW222623   2.086   0.603   2.358
 7242SOL     OW22624   6.696   4.406   5.369
 7242SOL    HW122625   6.702   4.416   5.270
 7242SOL    HW222626   6.743   4.323   5.397
 7243SOL     OW22627   5.698   4.513   6.120
 7243SOL    HW122628   5.757   4.591   6.101
 7243SOL    HW222629   5.602   4.542   6.114
 7244SOL     OW22630   0.315   5.835   0.021
 7244SOL    HW122631   0.294   5.778   0.101
 7244SOL    HW222632   0.235   5.837   6.980
 7245SOL     OW22633   1.602   2.651   0.325
 7245SOL    HW122634   1.579   2.742   0.360
 7245SOL    HW222635   1.697   2.651   0.294
 7246SOL     OW22636   4.002   0.206   3.164
 7246SOL    HW122637   4.072   0.212   3.235
 7246SOL    HW222638   4.044   0.176   3.078
 7247SOL     OW22639   3.000   3.818   4.086
 7247SOL    HW122640   3.027   3.742   4.026
 7247SOL    HW222641   2.901   3.814   4.101
 7248SOL     OW22642   3.007   1.431   5.948
 7248SOL    HW122643   2.911   1.439   5.974
 7248SOL    HW222644   3.035   1.335   5.954
 7249SOL     OW22645   4.071   5.122   2.537
 7249SOL    HW122646   4.085   5.097   2.441
 7249SOL    HW222647   4.109   5.213   2.553
 7250SOL     OW22648   5.647   5.346   5.308
 7250SOL    HW122649   5.683   5.270   5.254
 7250SOL    HW222650   5.556   5.371   5.274
 7251SOL     OW22651   0.865   5.150   4.856
 7251SOL    HW122652   0.895   5.214   4.786
 7251SOL    HW222653   0.911   5.169   4.942
 7252SOL     OW22654   4.144   3.559   2.543
 7252SOL    HW122655   4.091   3.475   2.530
 7252SOL    HW222656   4.169   3.596   2.453
 7253SOL     OW22657   2.840   4.960   4.669
 7253SOL    HW122658   2.926   4.973   4.718
 7253SOL    HW222659   2.769   4.931   4.732
 7254SOL     OW22660   6.245   3.325   4.115
 7254SOL    HW122661   6.185   3.251   4.146
 7254SOL    HW222662   6.286   3.370   4.194
 7255SOL     OW22663   4.657   3.945   0.148
 7255SOL    HW122664   4.671   4.008   0.224
 7255SOL    HW222665   4.674   3.993   0.062
 7256SOL     OW22666   3.237   0.329   4.833
 7256SOL    HW122667   3.152   0.382   4.832
 7256SOL    HW222668   3.307   0.380   4.883
 7257SOL     OW22669   0.800   1.407   4.607
 7257SOL    HW122670   0.736   1.422   4.532
 7257SOL    HW222671   0.853   1.491   4.623
 7258SOL     OW22672   5.705   3.156   2.676
 7258SOL    HW122673   5.799   3.188   2.686
 7258SOL    HW222674   5.666   3.192   2.592
 7259SOL     OW22675   1.449   4.270   2.526
 7259SOL    HW122676   1.476   4.175   2.507
 7259SOL    HW222677   1.349   4.276   2.528
 7260SOL     OW22678   5.477   3.253   0.888
 7260SOL    HW122679   5.571   3.284   0.875
 7260SOL    HW222680   5.440   3.221   0.800
 7261SOL     OW22681   6.742   4.531   6.772
 7261SOL    HW122682   6.680   4.473   6.826
 7261SOL    HW222683   6.822   4.554   6.828
 7262SOL     OW22684   5.441   1.282   5.165
 7262SOL    HW122685   5.500   1.320   5.236
 7262SOL    HW222686   5.417   1.188   5.188
 7263SOL     OW22687   6.793   5.481   5.863
 7263SOL    HW122688   6.807   5.470   5.961
 7263SOL    HW222689   6.874   5.523   5.823
 7264SOL     OW22690   5.544   1.026   1.606
 7264SOL    HW122691   5.636   1.045   1.571
 7264SOL    HW222692   5.496   1.112   1.620
 7265SOL     OW22693   4.207   0.682   5.921
 7265SOL    HW122694   4.122   0.717   5.959
 7265SOL    HW222695   4.194   0.659   5.825
 7266SOL     OW22696   0.493   0.914   3.049
 7266SOL    HW122697   0.552   0.940   2.973
 7266SOL    HW222698   0.533   0.836   3.097
 7267SOL     OW22699   6.436   4.133   4.438
 7267SOL    HW122700   6.358   4.122   4.377
 7267SOL    HW222701   6.469   4.228   4.433
 7268SOL     OW22702   6.328   6.542   4.506
 7268SOL    HW122703   6.330   6.641   4.510
 7268SOL    HW222704   6.234   6.510   4.506
 7269SOL     OW22705   2.369   4.492   4.470
 7269SOL    HW122706   2.454   4.487   4.522
 7269SOL    HW222707   2.318   4.407   4.481
 7270SOL     OW22708   0.745   0.816   5.027
 7270SOL    HW122709   0.649   0.802   5.006
 7270SOL    HW222710   0.801   0.777   4.953
 7271SOL     OW22711   0.638   4.711   3.030
 7271SOL    HW122712   0.580   4.678   3.105
 7271SOL    HW222713   0.586   4.709   2.945
 7272SOL     OW22714   6.222   4.126   1.654
 7272SOL    HW122715   6.270   4.119   1.567
 7272SOL    HW222716   6.272   4.076   1.724
 7273SOL     OW22717   0.815   2.048   5.635
 7273SOL    HW122718   0.898   2.013   5.593
 7273SOL    HW222719   0.836   2.088   5.724
 7274SOL     OW22720   0.485   4.659   6.083
 7274SOL    HW122721   0.423   4.657   6.161
 7274SOL    HW222722   0.470   4.742   6.030
 7275SOL     OW22723   0.792   6.190   3.350
 7275SOL    HW122724   0.711   6.147   3.309
 7275SOL    HW222725   0.875   6.148   3.313
 7276SOL     OW22726   5.012   6.098   3.707
 7276SOL    HW122727   5.107   6.082   3.734
 7276SOL    HW222728   4.985   6.029   3.639
 7277SOL     OW22729   4.601   0.297   0.074
 7277SOL    HW122730   4.659   0.249   0.009
 7277SOL    HW222731   4.635   0.390   0.087
 7278SOL     OW22732   3.408   2.862   2.283
 7278SOL    HW122733   3.374   2.873   2.377
 7278SOL    HW222734   3.508   2.851   2.285
 7279SOL     OW22735   3.058   6.772   6.209
 7279SOL    HW122736   3.014   6.687   6.236
 7279SOL    HW222737   3.031   6.845   6.272
 7280SOL     OW22738   4.533   1.779   5.830
 7280SOL    HW122739   4.457   1.720   5.858
 7280SOL    HW222740   4.519   1.871   5.867
 7281SOL     OW22741   4.964   0.981   6.283
 7281SOL    HW122742   5.003   1.067   6.248
 7281SOL    HW222743   4.955   0.915   6.209
 7282SOL     OW22744   5.299   5.459   2.101
 7282SOL    HW122745   5.259   5.464   2.192
 7282SOL    HW222746   5.381   5.401   2.104
 7283SOL     OW22747   2.146   0.834   4.211
 7283SOL    HW122748   2.235   0.801   4.182
 7283SOL    HW222749   2.101   0.880   4.135
 7284SOL     OW22750   0.698   2.275   4.980
 7284SOL    HW122751   0.773   2.290   5.044
 7284SOL    HW222752   0.614   2.257   5.031
 7285SOL     OW22753   5.552   5.007   1.446
 7285SOL    HW122754   5.646   5.030   1.469
 7285SOL    HW222755   5.547   4.974   1.352
 7286SOL     OW22756   2.328   4.367   0.977
 7286SOL    HW122757   2.355   4.278   0.939
 7286SOL    HW222758   2.343   4.367   1.076
 7287SOL     OW22759   5.706   1.561   5.952
 7287SOL    HW122760   5.684   1.472   5.992
 7287SOL    HW222761   5.804   1.579   5.964
 7288SOL     OW22762   2.861   6.786   6.515
 7288SOL    HW122763   2.909   6.859   6.467
 7288SOL    HW222764   2.789   6.750   6.456
 7289SOL     OW22765   5.618   1.996   3.802
 7289SOL    HW122766   5.551   1.980   3.874
 7289SOL    HW222767   5.709   1.975   3.836
 7290SOL     OW22768   2.949   4.947   4.187
 7290SOL    HW122769   2.930   4.889   4.266
 7290SOL    HW222770   3.048   4.962   4.179
 7291SOL     OW22771   3.072   5.250   1.948
 7291SOL    HW122772   3.022   5.187   1.889
 7291SOL    HW222773   3.156   5.206   1.980
 7292SOL     OW22774   3.458   6.822   4.661
 7292SOL    HW122775   3.360   6.842   4.655
 7292SOL    HW222776   3.493   6.799   4.570
 7293SOL     OW22777   1.879   2.027   6.167
 7293SOL    HW122778   1.880   1.998   6.263
 7293SOL    HW222779   1.797   1.992   6.123
 7294SOL     OW22780   4.014   5.722   0.760
 7294SOL    HW122781   4.092   5.670   0.792
 7294SOL    HW222782   4.041   5.818   0.745
 7295SOL     OW22783   5.413   0.144   1.598
 7295SOL    HW122784   5.401   0.044   1.594
 7295SOL    HW222785   5.491   0.166   1.655
 7296SOL     OW22786   4.140   5.374   1.994
 7296SOL    HW122787   4.044   5.388   1.973
 7296SOL    HW222788   4.193   5.454   1.965
 7297SOL     OW22789   5.309   6.750   2.461
 7297SOL    HW122790   5.254   6.690   2.519
 7297SOL    HW222791   5.398   6.708   2.444
 7298SOL     OW22792   6.561   3.824   3.873
 7298SOL    HW122793   6.497   3.807   3.948
 7298SOL    HW222794   6.580   3.738   3.825
 7299SOL     OW22795   5.333   3.394   6.695
 7299SOL    HW122796   5.432   3.408   6.704
 7299SOL    HW222797   5.314   3.296   6.697
 7300SOL     OW22798   4.621   5.227   1.070
 7300SOL    HW122799   4.565   5.269   0.998
 7300SOL    HW222800   4.572   5.148   1.108
 7301SOL     OW22801   6.940   0.750   6.057
 7301SOL    HW122802   6.974   0.840   6.032
 7301SOL    HW222803   7.016   0.689   6.079
 7302SOL     OW22804   5.321   0.640   6.334
 7302SOL    HW122805   5.235   0.691   6.337
 7302SOL    HW222806   5.390   0.689   6.389
 7303SOL     OW22807   3.328   1.239   0.866
 7303SOL    HW122808   3.402   1.184   0.905
 7303SOL    HW222809   3.240   1.194   0.884
 7304SOL     OW22810   3.989   4.027   4.953
 7304SOL    HW122811   4.081   4.064   4.944
 7304SOL    HW222812   3.955   4.043   5.046
 7305SOL     OW22813   5.602   1.309   0.115
 7305SOL    HW122814   5.658   1.257   0.179
 7305SOL    HW222815   5.514   1.263   0.103
 7306SOL     OW22816   4.885   4.989   1.293
 7306SOL    HW122817   4.847   4.940   1.371
 7306SOL    HW222818   4.979   5.016   1.313
 7307SOL     OW22819   4.146   6.650   2.916
 7307SOL    HW122820   4.057   6.604   2.915
 7307SOL    HW222821   4.166   6.688   2.826
 7308SOL     OW22822   6.445   1.782   4.744
 7308SOL    HW122823   6.419   1.876   4.766
 7308SOL    HW222824   6.425   1.722   4.822
 7309SOL     OW22825   4.467   5.777   2.331
 7309SOL    HW122826   4.487   5.706   2.264
 7309SOL    HW222827   4.368   5.788   2.339
 7310SOL     OW22828   1.705   5.397   1.567
 7310SOL    HW122829   1.718   5.302   1.596
 7310SOL    HW222830   1.719   5.404   1.468
 7311SOL     OW22831   2.687   2.304   2.217
 7311SOL    HW122832   2.751   2.349   2.156
 7311SOL    HW222833   2.736   2.267   2.296
 7312SOL     OW22834   6.770   1.742   5.735
 7312SOL    HW122835   6.807   1.675   5.671
 7312SOL    HW222836   6.821   1.828   5.727
 7313SOL     OW22837   3.968   2.659   6.963
 7313SOL    HW122838   3.931   2.708   0.021
 7313SOL    HW222839   4.019   2.723   6.905
 7314SOL     OW22840   0.533   2.925   4.413
 7314SOL    HW122841   0.594   2.857   4.372
 7314SOL    HW222842   0.445   2.924   4.365
 7315SOL     OW22843   6.975   0.486   5.397
 7315SOL    HW122844   6.904   0.545   5.435
 7315SOL    HW222845   6.976   0.399   5.446
 7316SOL     OW22846   3.658   4.079   5.418
 7316SOL    HW122847   3.688   4.144   5.347
 7316SOL    HW222848   3.598   4.127   5.483
 7317SOL     OW22849   2.896   1.204   3.553
 7317SOL    HW122850   2.954   1.140   3.602
 7317SOL    HW222851   2.944   1.291   3.542
 7318SOL     OW22852   1.337   1.906   1.496
 7318SOL    HW122853   1.330   1.887   1.594
 7318SOL    HW222854   1.250   1.883   1.451
 7319SOL     OW22855   6.733   4.066   6.499
 7319SOL    HW122856   6.829   4.060   6.526
 7319SOL    HW222857   6.707   3.984   6.449
 7320SOL     OW22858   6.561   2.482   2.155
 7320SOL    HW122859   6.607   2.486   2.243
 7320SOL    HW222860   6.546   2.574   2.120
 7321SOL     OW22861   2.949   1.568   4.526
 7321SOL    HW122862   3.036   1.522   4.546
 7321SOL    HW222863   2.883   1.546   4.597
 7322SOL     OW22864   0.540   3.344   2.099
 7322SOL    HW122865   0.497   3.253   2.100
 7322SOL    HW222866   0.566   3.367   2.006
 7323SOL     OW22867   2.067   3.871   3.071
 7323SOL    HW122868   2.053   3.960   3.026
 7323SOL    HW222869   2.049   3.881   3.168
 7324SOL     OW22870   5.358   6.095   2.188
 7324SOL    HW122871   5.260   6.112   2.179
 7324SOL    HW222872   5.400   6.170   2.239
 7325SOL     OW22873   3.102   6.489   0.456
 7325SOL    HW122874   3.149   6.463   0.540
 7325SOL    HW222875   3.016   6.536   0.479
 7326SOL     OW22876   2.993   0.153   4.448
 7326SOL    HW122877   3.067   0.219   4.441
 7326SOL    HW222878   2.907   0.198   4.423
 7327SOL     OW22879   1.627   2.580   5.345
 7327SOL    HW122880   1.693   2.619   5.281
 7327SOL    HW222881   1.583   2.501   5.302
 7328SOL     OW22882   2.423   6.629   6.993
 7328SOL    HW122883   2.327   6.648   7.014
 7328SOL    HW222884   2.474   6.618   0.057
 7329SOL     OW22885   4.337   3.376   1.452
 7329SOL    HW122886   4.330   3.465   1.405
 7329SOL    HW222887   4.323   3.303   1.386
 7330SOL     OW22888   4.711   1.821   0.683
 7330SOL    HW122889   4.651   1.850   0.609
 7330SOL    HW222890   4.788   1.768   0.646
 7331SOL     OW22891   5.343   1.284   1.882
 7331SOL    HW122892   5.246   1.267   1.901
 7331SOL    HW222893   5.370   1.372   1.922
 7332SOL     OW22894   3.655   5.346   1.474
 7332SOL    HW122895   3.752   5.340   1.447
 7332SOL    HW222896   3.640   5.289   1.555
 7333SOL     OW22897   0.306   4.924   2.538
 7333SOL    HW122898   0.282   5.018   2.563
 7333SOL    HW222899   0.230   4.864   2.561
 7334SOL     OW22900   4.060   6.554   4.496
 7334SOL    HW122901   3.973   6.596   4.525
 7334SOL    HW222902   4.134   6.621   4.506
 7335SOL     OW22903   1.917   2.721   2.820
 7335SOL    HW122904   1.958   2.720   2.729
 7335SOL    HW222905   1.824   2.756   2.815
 7336SOL     OW22906   1.845   6.094   4.175
 7336SOL    HW122907   1.901   6.169   4.141
 7336SOL    HW222908   1.848   6.018   4.110
 7337SOL     OW22909   5.307   2.528   2.197
 7337SOL    HW122910   5.297   2.593   2.273
 7337SOL    HW222911   5.342   2.441   2.232
 7338SOL     OW22912   6.379   3.334   0.209
 7338SOL    HW122913   6.410   3.418   0.165
 7338SOL    HW222914   6.434   3.318   0.291
 7339SOL     OW22915   1.381   5.533   4.506
 7339SOL    HW122916   1.446   5.560   4.435
 7339SOL    HW222917   1.311   5.474   4.467
 7340SOL     OW22918   1.944   0.002   6.269
 7340SOL    HW122919   1.958   0.039   6.177
 7340SOL    HW222920   2.026   6.973   6.297
 7341SOL     OW22921   6.558   2.299   7.017
 7341SOL    HW122922   6.589   2.272   0.088
 7341SOL    HW222923   6.483   2.365   0.004
 7342SOL     OW22924   0.204   6.753   2.122
 7342SOL    HW122925   0.132   6.799   2.174
 7342SOL    HW222926   0.193   6.654   2.130
 7343SOL     OW22927   5.379   3.164   0.643
 7343SOL    HW122928   5.353   3.233   0.575
 7343SOL    HW222929   5.343   3.075   0.617
 7344SOL     OW22930   1.645   6.359   6.417
 7344SOL    HW122931   1.578   6.426   6.450
 7344SOL    HW222932   1.700   6.401   6.344
 7345SOL     OW22933   3.334   4.942   6.347
 7345SOL    HW122934   3.292   4.975   6.262
 7345SOL    HW222935   3.317   5.008   6.420
 7346SOL     OW22936   4.379   4.561   2.702
 7346SOL    HW122937   4.339   4.580   2.791
 7346SOL    HW222938   4.458   4.621   2.687
 7347SOL     OW22939   6.043   1.903   6.746
 7347SOL    HW122940   6.122   1.960   6.724
 7347SOL    HW222941   6.005   1.866   6.661
 7348SOL     OW22942   6.089   4.273   0.753
 7348SOL    HW122943   6.065   4.176   0.750
 7348SOL    HW222944   6.188   4.282   0.763
 7349SOL     OW22945   3.787   1.702   2.052
 7349SOL    HW122946   3.700   1.654   2.045
 7349SOL    HW222947   3.790   1.776   1.985
 7350SOL     OW22948   3.481   0.963   4.016
 7350SOL    HW122949   3.577   0.936   4.019
 7350SOL    HW222950   3.470   1.050   4.064
 7351SOL     OW22951   2.700   4.683   3.958
 7351SOL    HW122952   2.745   4.725   3.879
 7351SOL    HW222953   2.612   4.645   3.929
 7352SOL     OW22954   6.025   3.434   4.362
 7352SOL    HW122955   6.044   3.362   4.429
 7352SOL    HW222956   5.930   3.426   4.332
 7353SOL     OW22957   6.534   0.835   5.851
 7353SOL    HW122958   6.507   0.837   5.947
 7353SOL    HW222959   6.517   0.744   5.814
 7354SOL     OW22960   0.234   1.285   3.332
 7354SOL    HW122961   0.258   1.315   3.424
 7354SOL    HW222962   0.145   1.323   3.307
 7355SOL     OW22963   3.011   1.420   0.207
 7355SOL    HW122964   2.977   1.382   0.121
 7355SOL    HW222965   3.023   1.519   0.197
 7356SOL     OW22966   4.213   4.115   5.986
 7356SOL    HW122967   4.226   4.047   6.058
 7356SOL    HW222968   4.141   4.084   5.923
 7357SOL     OW22969   4.836   5.898   2.191
 7357SOL    HW122970   4.813   5.918   2.286
 7357SOL    HW222971   4.918   5.841   2.187
 7358SOL     OW22972   5.801   1.026   3.065
 7358SOL    HW122973   5.769   0.944   3.017
 7358SOL    HW222974   5.901   1.028   3.064
 7359SOL     OW22975   4.751   0.273   1.764
 7359SOL    HW122976   4.737   0.174   1.762
 7359SOL    HW222977   4.680   0.316   1.820
 7360SOL     OW22978   3.015   3.350   4.771
 7360SOL    HW122979   3.096   3.301   4.805
 7360SOL    HW222980   3.020   3.446   4.798
 7361SOL     OW22981   6.831   0.061   3.218
 7361SOL    HW122982   6.802   0.127   3.287
 7361SOL    HW222983   6.928   0.040   3.229
 7362SOL     OW22984   3.126   5.454   0.174
 7362SOL    HW122985   3.211   5.487   0.216
 7362SOL    HW222986   3.101   5.366   0.215
 7363SOL     OW22987   3.665   1.068   0.327
 7363SOL    HW122988   3.584   1.015   0.352
 7363SOL    HW222989   3.646   1.124   0.247
 7364SOL     OW22990   5.582   6.478   1.528
 7364SOL    HW122991   5.598   6.403   1.592
 7364SOL    HW222992   5.666   6.532   1.519
 7365SOL     OW22993   5.269   4.381   2.125
 7365SOL    HW122994   5.271   4.456   2.059
 7365SOL    HW222995   5.174   4.350   2.136
 7366SOL     OW22996   1.770   0.679   3.797
 7366SOL    HW122997   1.726   0.606   3.851
 7366SOL    HW222998   1.794   0.755   3.857
 7367SOL     OW22999   3.734   1.337   0.049
 7367SOL    HW123000   3.808   1.273   0.028
 7367SOL    HW223001   3.773   1.425   0.074
 7368SOL     OW23002   3.704   3.266   3.495
 7368SOL    HW123003   3.748   3.320   3.567
 7368SOL    HW223004   3.625   3.315   3.459
 7369SOL     OW23005   5.224   2.477   0.327
 7369SOL    HW123006   5.217   2.462   0.426
 7369SOL    HW223007   5.158   2.419   0.280
 7370SOL     OW23008   1.936   1.129   4.379
 7370SOL    HW123009   2.010   1.072   4.344
 7370SOL    HW223010   1.969   1.223   4.392
 7371SOL     OW23011   4.069   1.345   3.818
 7371SOL    HW123012   4.107   1.284   3.887
 7371SOL    HW223013   4.078   1.303   3.727
 7372SOL     OW23014   5.752   1.127   5.453
 7372SOL    HW123015   5.822   1.108   5.522
 7372SOL    HW223016   5.790   1.187   5.383
 7373SOL     OW23017   6.178   3.038   4.717
 7373SOL    HW123018   6.269   3.010   4.748
 7373SOL    HW223019   6.170   3.021   4.619
 7374SOL     OW23020   6.533   2.308   5.917
 7374SOL    HW123021   6.531   2.384   5.853
 7374SOL    HW223022   6.560   2.224   5.870
 7375SOL     OW23023   1.629   3.967   1.744
 7375SOL    HW123024   1.676   3.884   1.715
 7375SOL    HW223025   1.685   4.047   1.721
 7376SOL     OW23026   0.136   3.597   0.644
 7376SOL    HW123027   0.117   3.505   0.610
 7376SOL    HW223028   0.212   3.594   0.708
 7377SOL     OW23029   2.309   6.210   0.838
 7377SOL    HW123030   2.257   6.182   0.918
 7377SOL    HW223031   2.249   6.217   0.759
 7378SOL     OW23032   1.747   5.441   4.268
 7378SOL    HW123033   1.834   5.488   4.255
 7378SOL    HW223034   1.725   5.436   4.365
 7379SOL     OW23035   4.182   0.962   2.412
 7379SOL    HW123036   4.195   1.051   2.454
 7379SOL    HW223037   4.208   0.890   2.476
 7380SOL     OW23038   5.300   4.172   1.627
 7380SOL    HW123039   5.336   4.157   1.719
 7380SOL    HW223040   5.236   4.099   1.605
 7381SOL     OW23041   3.642   0.109   1.790
 7381SOL    HW123042   3.559   0.073   1.747
 7381SOL    HW223043   3.678   0.185   1.735
 7382SOL     OW23044   6.369   1.459   5.807
 7382SOL    HW123045   6.443   1.395   5.827
 7382SOL    HW223046   6.408   1.549   5.787
 7383SOL     OW23047   2.185   0.366   0.995
 7383SOL    HW123048   2.133   0.408   0.921
 7383SOL    HW223049   2.202   0.434   1.066
 7384SOL     OW23050   6.507   6.889   0.944
 7384SOL    HW123051   6.583   6.951   0.963
 7384SOL    HW223052   6.451   6.878   1.027
 7385SOL     OW23053   6.297   4.287   2.680
 7385SOL    HW123054   6.261   4.249   2.766
 7385SOL    HW223055   6.383   4.242   2.657
 7386SOL     OW23056   5.184   3.615   0.286
 7386SOL    HW123057   5.227   3.525   0.289
 7386SOL    HW223058   5.085   3.605   0.281
 7387SOL     OW23059   6.625   5.648   4.514
 7387SOL    HW123060   6.683   5.568   4.533
 7387SOL    HW223061   6.610   5.654   4.415
 7388SOL     OW23062   2.378   4.330   2.589
 7388SOL    HW123063   2.431   4.319   2.505
 7388SOL    HW223064   2.284   4.355   2.566
 7389SOL     OW23065   6.413   2.890   0.391
 7389SOL    HW123066   6.447   2.878   0.298
 7389SOL    HW223067   6.315   2.911   0.388
 7390SOL     OW23068   2.441   2.640   3.775
 7390SOL    HW123069   2.407   2.651   3.868
 7390SOL    HW223070   2.520   2.579   3.775
 7391SOL     OW23071   3.765   3.903   2.967
 7391SOL    HW123072   3.761   3.846   2.885
 7391SOL    HW223073   3.822   3.859   3.035
 7392SOL     OW23074   2.907   6.881   6.752
 7392SOL    HW123075   2.898   6.804   6.815
 7392SOL    HW223076   2.891   6.851   6.658
 7393SOL     OW23077   5.348   5.220   4.021
 7393SOL    HW123078   5.415   5.280   3.978
 7393SOL    HW223079   5.326   5.144   3.959
 7394SOL     OW23080   2.284   1.937   5.448
 7394SOL    HW123081   2.348   1.905   5.379
 7394SOL    HW223082   2.211   1.870   5.462
 7395SOL     OW23083   2.703   6.263   0.802
 7395SOL    HW123084   2.735   6.266   0.707
 7395SOL    HW223085   2.713   6.170   0.837
 7396SOL     OW23086   1.943   5.242   2.497
 7396SOL    HW123087   1.940   5.145   2.517
 7396SOL    HW223088   2.031   5.265   2.455
 7397SOL     OW23089   6.147   4.599   3.977
 7397SOL    HW123090   6.220   4.667   3.973
 7397SOL    HW223091   6.093   4.615   4.059
 7398SOL     OW23092   3.064   5.072   2.581
 7398SOL    HW123093   2.997   5.033   2.644
 7398SOL    HW223094   3.024   5.077   2.489
 7399SOL     OW23095   5.266   1.577   5.712
 7399SOL    HW123096   5.179   1.559   5.759
 7399SOL    HW223097   5.335   1.604   5.778
 7400SOL     OW23098   4.979   3.316   6.056
 7400SOL    HW123099   5.023   3.261   5.985
 7400SOL    HW223100   4.880   3.318   6.039
 7401SOL     OW23101   1.385   2.638   4.573
 7401SOL    HW123102   1.441   2.577   4.628
 7401SOL    HW223103   1.396   2.617   4.476
 7402SOL     OW23104   3.731   5.610   4.445
 7402SOL    HW123105   3.653   5.605   4.383
 7402SOL    HW223106   3.717   5.547   4.522
 7403SOL     OW23107   1.798   4.373   4.356
 7403SOL    HW123108   1.890   4.363   4.393
 7403SOL    HW223109   1.780   4.470   4.338
 7404SOL     OW23110   3.180   3.742   0.770
 7404SOL    HW123111   3.261   3.797   0.751
 7404SOL    HW223112   3.201   3.675   0.841
 7405SOL     OW23113   4.008   6.589   5.203
 7405SOL    HW123114   4.019   6.490   5.193
 7405SOL    HW223115   3.972   6.627   5.118
 7406SOL     OW23116   0.786   2.157   4.423
 7406SOL    HW123117   0.729   2.115   4.493
 7406SOL    HW223118   0.761   2.120   4.333
 7407SOL     OW23119   0.793   5.917   5.215
 7407SOL    HW123120   0.782   5.981   5.291
 7407SOL    HW223121   0.890   5.907   5.193
 7408SOL     OW23122   4.606   5.203   5.234
 7408SOL    HW123123   4.519   5.154   5.221
 7408SOL    HW223124   4.676   5.162   5.175
 7409SOL     OW23125   0.093   3.822   1.444
 7409SOL    HW123126   0.131   3.847   1.355
 7409SOL    HW223127   0.086   3.722   1.450
 7410SOL     OW23128   6.982   0.621   0.534
 7410SOL    HW123129   6.975   0.713   0.573
 7410SOL    HW223130   6.919   0.613   0.456
 7411SOL     OW23131   2.876   1.542   5.179
 7411SOL    HW123132   2.970   1.574   5.175
 7411SOL    HW223133   2.827   1.590   5.252
 7412SOL     OW23134   3.763   6.899   0.125
 7412SOL    HW123135   3.821   6.959   0.070
 7412SOL    HW223136   3.819   6.854   0.195
 7413SOL     OW23137   4.696   0.808   3.216
 7413SOL    HW123138   4.657   0.801   3.124
 7413SOL    HW223139   4.636   0.865   3.273
 7414SOL     OW23140   2.783   0.989   3.381
 7414SOL    HW123141   2.836   1.059   3.429
 7414SOL    HW223142   2.686   0.999   3.403
 7415SOL     OW23143   3.892   6.737   6.645
 7415SOL    HW123144   3.867   6.776   6.556
 7415SOL    HW223145   3.820   6.757   6.711
 7416SOL     OW23146   1.657   1.075   1.986
 7416SOL    HW123147   1.715   1.062   1.905
 7416SOL    HW223148   1.562   1.051   1.963
 7417SOL     OW23149   0.608   0.828   2.551
 7417SOL    HW123150   0.705   0.835   2.575
 7417SOL    HW223151   0.578   0.733   2.561
 7418SOL     OW23152   1.279   4.128   6.063
 7418SOL    HW123153   1.186   4.132   6.099
 7418SOL    HW223154   1.332   4.062   6.117
 7419SOL     OW23155   6.820   3.633   3.994
 7419SOL    HW123156   6.861   3.551   4.032
 7419SOL    HW223157   6.785   3.691   4.067
 7420SOL     OW23158   6.952   6.559   0.733
 7420SOL    HW123159   6.947   6.461   0.755
 7420SOL    HW223160   6.873   6.606   0.773
 7421SOL     OW23161   6.067   3.927   1.091
 7421SOL    HW123162   6.044   3.829   1.093
 7421SOL    HW223163   6.161   3.937   1.059
 7422SOL     OW23164   5.580   2.886   2.084
 7422SOL    HW123165   5.551   2.903   2.178
 7422SOL    HW223166   5.606   2.790   2.075
 7423SOL     OW23167   4.800   2.338   5.865
 7423SOL    HW123168   4.794   2.388   5.951
 7423SOL    HW223169   4.834   2.398   5.793
 7424SOL     OW23170   0.109   2.541   3.330
 7424SOL    HW123171   0.133   2.581   3.241
 7424SOL    HW223172   0.191   2.534   3.386
 7425SOL     OW23173   5.879   1.060   0.516
 7425SOL    HW123174   5.950   0.991   0.522
 7425SOL    HW223175   5.920   1.150   0.499
 7426SOL     OW23176   3.135   2.664   5.649
 7426SOL    HW123177   3.222   2.629   5.614
 7426SOL    HW223178   3.130   2.649   5.748
 7427SOL     OW23179   3.116   0.617   3.515
 7427SOL    HW123180   3.100   0.521   3.540
 7427SOL    HW223181   3.096   0.675   3.594
 7428SOL     OW23182   3.817   6.316   4.707
 7428SOL    HW123183   3.857   6.264   4.782
 7428SOL    HW223184   3.884   6.324   4.633
 7429SOL     OW23185   0.779   0.030   2.010
 7429SOL    HW123186   0.743   6.961   1.985
 7429SOL    HW223187   0.875   0.022   2.036
 7430SOL     OW23188   6.341   4.560   3.210
 7430SOL    HW123189   6.293   4.497   3.148
 7430SOL    HW223190   6.377   4.638   3.158
 7431SOL     OW23191   0.895   1.577   3.511
 7431SOL    HW123192   0.955   1.553   3.587
 7431SOL    HW223193   0.840   1.498   3.485
 7432SOL     OW23194   1.932   1.295   2.987
 7432SOL    HW123195   1.998   1.332   3.052
 7432SOL    HW223196   1.980   1.240   2.919
 7433SOL     OW23197   2.890   6.418   6.546
 7433SOL    HW123198   2.917   6.321   6.544
 7433SOL    HW223199   2.802   6.427   6.591
 7434SOL     OW23200   4.372   0.021   3.736
 7434SOL    HW123201   4.469   0.035   3.717
 7434SOL    HW223202   4.355   0.035   3.834
 7435SOL     OW23203   4.824   4.199   3.187
 7435SOL    HW123204   4.808   4.101   3.202
 7435SOL    HW223205   4.784   4.227   3.100
 7436SOL     OW23206   5.482   2.907   5.938
 7436SOL    HW123207   5.563   2.953   5.902
 7436SOL    HW223208   5.399   2.955   5.907
 7437SOL     OW23209   3.369   0.216   0.819
 7437SOL    HW123210   3.338   0.136   0.871
 7437SOL    HW223211   3.352   0.201   0.721
 7438SOL     OW23212   1.928   0.042   0.025
 7438SOL    HW123213   1.947   0.106   6.972
 7438SOL    HW223214   1.869   0.085   0.093
 7439SOL     OW23215   0.765   4.769   5.963
 7439SOL    HW123216   0.862   4.744   5.964
 7439SOL    HW223217   0.712   4.698   6.009
 7440SOL     OW23218   5.665   4.040   3.958
 7440SOL    HW123219   5.627   4.130   3.938
 7440SOL    HW223220   5.765   4.048   3.965
 7441SOL     OW23221   5.219   5.937   0.659
 7441SOL    HW123222   5.260   5.869   0.599
 7441SOL    HW223223   5.192   6.017   0.606
 7442SOL     OW23224   5.408   0.506   6.742
 7442SOL    HW123225   5.339   0.551   6.686
 7442SOL    HW223226   5.468   0.575   6.784
 7443SOL     OW23227   0.157   0.772   1.141
 7443SOL    HW123228   0.254   0.756   1.126
 7443SOL    HW223229   0.143   0.867   1.170
 7444SOL     OW23230   1.243   6.585   0.197
 7444SOL    HW123231   1.215   6.498   0.236
 7444SOL    HW223232   1.163   6.642   0.181
 7445SOL     OW23233   3.978   5.733   1.948
 7445SOL    HW123234   4.018   5.821   1.976
 7445SOL    HW223235   3.882   5.746   1.923
 7446SOL     OW23236   5.650   4.462   6.874
 7446SOL    HW123237   5.580   4.504   6.932
 7446SOL    HW223238   5.706   4.400   6.929
 7447SOL     OW23239   0.525   4.490   0.367
 7447SOL    HW123240   0.551   4.445   0.282
 7447SOL    HW223241   0.604   4.495   0.428
 7448SOL     OW23242   4.896   5.503   6.948
 7448SOL    HW123243   4.979   5.503   6.892
 7448SOL    HW223244   4.874   5.596   6.975
 7449SOL     OW23245   6.610   4.588   5.853
 7449SOL    HW123246   6.682   4.654   5.828
 7449SOL    HW223247   6.583   4.602   5.948
 7450SOL     OW23248   5.264   2.367   6.247
 7450SOL    HW123249   5.321   2.382   6.328
 7450SOL    HW223250   5.323   2.363   6.166
 7451SOL     OW23251   4.619   4.451   3.033
 7451SOL    HW123252   4.654   4.362   3.005
 7451SOL    HW223253   4.530   4.467   2.991
 7452SOL     OW23254   6.436   5.734   5.764
 7452SOL    HW123255   6.431   5.654   5.704
 7452SOL    HW223256   6.346   5.777   5.768
 7453SOL     OW23257   3.733   5.823   5.967
 7453SOL    HW123258   3.678   5.833   6.049
 7453SOL    HW223259   3.828   5.849   5.987
 7454SOL     OW23260   3.893   2.607   1.281
 7454SOL    HW123261   3.804   2.645   1.256
 7454SOL    HW223262   3.882   2.512   1.309
 7455SOL     OW23263   6.554   1.301   3.325
 7455SOL    HW123264   6.630   1.365   3.309
 7455SOL    HW223265   6.589   1.207   3.327
 7456SOL     OW23266   3.102   1.974   6.012
 7456SOL    HW123267   3.009   1.980   6.048
 7456SOL    HW223268   3.108   2.027   5.927
 7457SOL     OW23269   1.153   1.559   2.451
 7457SOL    HW123270   1.171   1.462   2.465
 7457SOL    HW223271   1.220   1.613   2.501
 7458SOL     OW23272   1.721   5.586   5.464
 7458SOL    HW123273   1.746   5.681   5.486
 7458SOL    HW223274   1.719   5.532   5.548
 7459SOL     OW23275   5.909   0.198   3.312
 7459SOL    HW123276   5.826   0.179   3.259
 7459SOL    HW223277   5.960   0.272   3.270
 7460SOL     OW23278   1.368   0.106   1.355
 7460SOL    HW123279   1.367   0.149   1.264
 7460SOL    HW223280   1.326   0.167   1.421
 7461SOL     OW23281   2.448   4.766   5.293
 7461SOL    HW123282   2.438   4.679   5.244
 7461SOL    HW223283   2.362   4.788   5.339
 7462SOL     OW23284   1.392   3.810   1.125
 7462SOL    HW123285   1.470   3.844   1.073
 7462SOL    HW223286   1.404   3.832   1.222
 7463SOL     OW23287   4.108   5.080   0.694
 7463SOL    HW123288   4.031   5.126   0.739
 7463SOL    HW223289   4.150   5.015   0.757
 7464SOL     OW23290   6.352   6.166   5.231
 7464SOL    HW123291   6.306   6.120   5.155
 7464SOL    HW223292   6.451   6.154   5.223
 7465SOL     OW23293   1.524   4.620   0.079
 7465SOL    HW123294   1.573   4.590   0.161
 7465SOL    HW223295   1.521   4.720   0.077
 7466SOL     OW23296   0.530   0.235   5.200
 7466SOL    HW123297   0.445   0.212   5.153
 7466SOL    HW223298   0.539   0.334   5.205
 7467SOL     OW23299   1.010   3.800   4.602
 7467SOL    HW123300   1.096   3.756   4.576
 7467SOL    HW223301   1.025   3.858   4.682
 7468SOL     OW23302   5.046   3.025   6.185
 7468SOL    HW123303   5.093   2.937   6.197
 7468SOL    HW223304   5.108   3.099   6.212
 7469SOL     OW23305   0.422   2.125   0.331
 7469SOL    HW123306   0.347   2.115   0.266
 7469SOL    HW223307   0.480   2.202   0.303
 7470SOL     OW23308   5.651   2.382   3.435
 7470SOL    HW123309   5.678   2.321   3.510
 7470SOL    HW223310   5.704   2.467   3.441
 7471SOL     OW23311   3.712   0.094   6.435
 7471SOL    HW123312   3.634   0.032   6.444
 7471SOL    HW223313   3.795   0.041   6.418
 7472SOL     OW23314   6.751   0.177   5.971
 7472SOL    HW123315   6.658   0.215   5.973
 7472SOL    HW223316   6.758   0.112   5.895
 7473SOL     OW23317   3.759   6.012   3.713
 7473SOL    HW123318   3.689   5.953   3.672
 7473SOL    HW223319   3.848   5.965   3.710
 7474SOL     OW23320   6.124   1.911   0.599
 7474SOL    HW123321   6.093   1.933   0.506
 7474SOL    HW223322   6.189   1.980   0.630
 7475SOL     OW23323   4.998   2.447   0.687
 7475SOL    HW123324   4.951   2.400   0.761
 7475SOL    HW223325   5.049   2.381   0.632
 7476SOL     OW23326   2.335   1.007   3.202
 7476SOL    HW123327   2.358   0.994   3.299
 7476SOL    HW223328   2.239   1.031   3.193
 7477SOL     OW23329   1.983   2.911   5.415
 7477SOL    HW123330   1.973   2.946   5.508
 7477SOL    HW223331   2.060   2.847   5.412
 7478SOL     OW23332   0.242   1.295   5.863
 7478SOL    HW123333   0.147   1.324   5.862
 7478SOL    HW223334   0.281   1.308   5.772
 7479SOL     OW23335   4.916   2.674   1.660
 7479SOL    HW123336   4.911   2.744   1.589
 7479SOL    HW223337   4.832   2.674   1.714
 7480SOL     OW23338   3.802   5.435   2.287
 7480SOL    HW123339   3.814   5.338   2.305
 7480SOL    HW223340   3.754   5.478   2.363
 7481SOL     OW23341   7.018   4.061   6.570
 7481SOL    HW123342   0.089   4.041   6.537
 7481SOL    HW223343   7.019   4.142   6.628
 7482SOL     OW23344   5.450   2.216   3.742
 7482SOL    HW123345   5.538   2.171   3.762
 7482SOL    HW223346   5.466   2.313   3.723
 7483SOL     OW23347   4.571   1.785   6.182
 7483SOL    HW123348   4.610   1.873   6.154
 7483SOL    HW223349   4.635   1.739   6.243
 7484SOL     OW23350   3.213   0.345   3.519
 7484SOL    HW123351   3.255   0.311   3.436
 7484SOL    HW223352   3.274   0.329   3.597
 7485SOL     OW23353   3.502   6.936   6.468
 7485SOL    HW123354   3.449   6.934   6.552
 7485SOL    HW223355   3.478   6.856   6.412
 7486SOL     OW23356   3.571   6.979   0.578
 7486SOL    HW123357   3.501   0.025   0.554
 7486SOL    HW223358   3.574   6.968   0.677
 7487SOL     OW23359   3.347   6.426   4.461
 7487SOL    HW123360   3.441   6.429   4.496
 7487SOL    HW223361   3.311   6.333   4.471
 7488SOL     OW23362   1.050   5.716   3.890
 7488SOL    HW123363   1.126   5.774   3.919
 7488SOL    HW223364   0.987   5.703   3.967
 7489SOL     OW23365   5.392   2.907   0.000
 7489SOL    HW123366   5.379   2.938   0.095
 7489SOL    HW223367   5.303   2.899   6.975
 7490SOL     OW23368   1.446   2.922   2.129
 7490SOL    HW123369   1.511   2.964   2.066
 7490SOL    HW223370   1.464   2.824   2.134
 7491SOL     OW23371   4.177   4.163   6.779
 7491SOL    HW123372   4.222   4.090   6.830
 7491SOL    HW223373   4.246   4.219   6.733
 7492SOL     OW23374   1.607   0.514   4.002
 7492SOL    HW123375   1.580   0.498   4.097
 7492SOL    HW223376   1.534   0.563   3.954
 7493SOL     OW23377   6.166   4.552   5.142
 7493SOL    HW123378   6.067   4.545   5.131
 7493SOL    HW223379   6.192   4.522   5.234
 7494SOL     OW23380   6.516   1.187   2.623
 7494SOL    HW123381   6.567   1.101   2.620
 7494SOL    HW223382   6.421   1.168   2.649
 7495SOL     OW23383   1.248   3.296   4.932
 7495SOL    HW123384   1.322   3.314   4.997
 7495SOL    HW223385   1.218   3.201   4.942
 7496SOL     OW23386   6.164   3.966   2.751
 7496SOL    HW123387   6.068   3.952   2.730
 7496SOL    HW223388   6.220   3.924   2.679
 7497SOL     OW23389   6.481   6.281   1.288
 7497SOL    HW123390   6.523   6.332   1.214
 7497SOL    HW223391   6.409   6.222   1.252
 7498SOL     OW23392   3.059   6.274   3.244
 7498SOL    HW123393   3.043   6.341   3.172
 7498SOL    HW223394   3.096   6.319   3.325
 7499SOL     OW23395   3.085   1.444   3.550
 7499SOL    HW123396   3.043   1.466   3.638
 7499SOL    HW223397   3.073   1.521   3.487
 7500SOL     OW23398   4.260   0.854   3.437
 7500SOL    HW123399   4.174   0.829   3.393
 7500SOL    HW223400   4.312   0.772   3.459
 7501SOL     OW23401   6.643   2.089   5.005
 7501SOL    HW123402   6.698   2.018   5.049
 7501SOL    HW223403   6.703   2.156   4.962
 7502SOL     OW23404   4.479   0.741   3.920
 7502SOL    HW123405   4.508   0.661   3.974
 7502SOL    HW223406   4.380   0.742   3.912
 7503SOL     OW23407   2.179   5.883   2.047
 7503SOL    HW123408   2.219   5.939   1.974
 7503SOL    HW223409   2.088   5.918   2.070
 7504SOL     OW23410   6.062   6.486   4.467
 7504SOL    HW123411   6.044   6.442   4.555
 7504SOL    HW223412   5.977   6.491   4.415
 7505SOL     OW23413   0.242   6.284   4.957
 7505SOL    HW123414   0.304   6.205   4.955
 7505SOL    HW223415   0.151   6.255   4.986
 7506SOL     OW23416   2.900   2.044   3.546
 7506SOL    HW123417   2.929   2.116   3.609
 7506SOL    HW223418   2.835   2.083   3.480
 7507SOL     OW23419   6.243   4.285   6.484
 7507SOL    HW123420   6.219   4.308   6.390
 7507SOL    HW223421   6.179   4.216   6.519
 7508SOL     OW23422   3.050   6.056   0.788
 7508SOL    HW123423   2.959   6.042   0.828
 7508SOL    HW223424   3.060   6.000   0.706
 7509SOL     OW23425   5.954   4.621   2.119
 7509SOL    HW123426   6.028   4.687   2.104
 7509SOL    HW223427   5.993   4.531   2.138
 7510SOL     OW23428   3.692   4.093   2.465
 7510SOL    HW123429   3.719   4.131   2.554
 7510SOL    HW223430   3.740   4.007   2.450
 7511SOL     OW23431   4.424   6.008   4.101
 7511SOL    HW123432   4.370   6.073   4.154
 7511SOL    HW223433   4.454   5.933   4.159
 7512SOL     OW23434   3.733   1.173   1.224
 7512SOL    HW123435   3.664   1.104   1.245
 7512SOL    HW223436   3.816   1.129   1.190
 7513SOL     OW23437   1.398   1.682   2.258
 7513SOL    HW123438   1.356   1.762   2.215
 7513SOL    HW223439   1.338   1.647   2.329
 7514SOL     OW23440   0.415   6.420   1.662
 7514SOL    HW123441   0.457   6.409   1.572
 7514SOL    HW223442   0.370   6.509   1.667
 7515SOL     OW23443   0.268   4.045   5.527
 7515SOL    HW123444   0.261   4.123   5.465
 7515SOL    HW223445   0.176   4.009   5.547
 7516SOL     OW23446   1.716   6.465   5.595
 7516SOL    HW123447   1.683   6.489   5.686
 7516SOL    HW223448   1.729   6.366   5.589
 7517SOL     OW23449   0.615   1.394   5.856
 7517SOL    HW123450   0.616   1.303   5.813
 7517SOL    HW223451   0.708   1.429   5.861
 7518SOL     OW23452   4.799   1.815   4.154
 7518SOL    HW123453   4.795   1.718   4.133
 7518SOL    HW223454   4.783   1.868   4.071
 7519SOL     OW23455   4.202   0.016   4.262
 7519SOL    HW123456   4.106   0.044   4.254
 7519SOL    HW223457   4.254   0.054   4.185
 7520SOL     OW23458   1.605   1.575   0.609
 7520SOL    HW123459   1.661   1.523   0.546
 7520SOL    HW223460   1.612   1.673   0.588
 7521SOL     OW23461   4.091   1.531   4.388
 7521SOL    HW123462   4.014   1.510   4.449
 7521SOL    HW223463   4.169   1.562   4.442
 7522SOL     OW23464   2.238   6.924   3.729
 7522SOL    HW123465   2.278   6.858   3.666
 7522SOL    HW223466   2.244   7.016   3.690
 7523SOL     OW23467   6.126   0.666   0.733
 7523SOL    HW123468   6.027   0.654   0.731
 7523SOL    HW223469   6.151   0.718   0.815
 7524SOL     OW23470   0.650   4.029   4.169
 7524SOL    HW123471   0.741   3.990   4.155
 7524SOL    HW223472   0.626   4.087   4.091
 7525SOL     OW23473   3.602   4.667   6.212
 7525SOL    HW123474   3.593   4.697   6.307
 7525SOL    HW223475   3.522   4.611   6.188
 7526SOL     OW23476   2.637   3.966   1.067
 7526SOL    HW123477   2.543   4.001   1.066
 7526SOL    HW223478   2.645   3.891   1.001
 7527SOL     OW23479   3.766   5.227   3.278
 7527SOL    HW123480   3.710   5.168   3.220
 7527SOL    HW223481   3.783   5.182   3.366
 7528SOL     OW23482   6.574   2.376   6.186
 7528SOL    HW123483   6.494   2.387   6.244
 7528SOL    HW223484   6.546   2.366   6.091
 7529SOL     OW23485   6.591   3.529   3.766
 7529SOL    HW123486   6.691   3.526   3.770
 7529SOL    HW223487   6.553   3.475   3.841
 7530SOL     OW23488   1.111   2.815   2.794
 7530SOL    HW123489   1.160   2.865   2.866
 7530SOL    HW223490   1.163   2.733   2.770
 7531SOL     OW23491   3.601   1.930   4.296
 7531SOL    HW123492   3.508   1.904   4.322
 7531SOL    HW223493   3.598   1.979   4.208
 7532SOL     OW23494   4.433   5.464   6.372
 7532SOL    HW123495   4.456   5.393   6.438
 7532SOL    HW223496   4.389   5.540   6.419
 7533SOL     OW23497   4.277   4.338   1.659
 7533SOL    HW123498   4.212   4.414   1.658
 7533SOL    HW223499   4.321   4.332   1.748
 7534SOL     OW23500   4.701   6.213   5.373
 7534SOL    HW123501   4.632   6.264   5.321
 7534SOL    HW223502   4.773   6.182   5.311
 7535SOL     OW23503   0.758   6.608   3.726
 7535SOL    HW123504   0.797   6.584   3.637
 7535SOL    HW223505   0.689   6.679   3.714
 7536SOL     OW23506   6.262   6.247   3.929
 7536SOL    HW123507   6.241   6.212   3.837
 7536SOL    HW223508   6.314   6.178   3.980
 7537SOL     OW23509   2.154   6.444   2.646
 7537SOL    HW123510   2.191   6.400   2.727
 7537SOL    HW223511   2.188   6.398   2.564
 7538SOL     OW23512   1.008   3.878   0.463
 7538SOL    HW123513   1.074   3.804   0.458
 7538SOL    HW223514   1.053   3.961   0.496
 7539SOL     OW23515   6.877   0.030   4.664
 7539SOL    HW123516   6.899   0.108   4.605
 7539SOL    HW223517   6.890   6.966   4.613
 7540SOL     OW23518   5.721   4.744   3.249
 7540SOL    HW123519   5.703   4.758   3.346
 7540SOL    HW223520   5.775   4.661   3.236
 7541SOL     OW23521   2.736   3.854   5.518
 7541SOL    HW123522   2.672   3.929   5.504
 7541SOL    HW223523   2.686   3.768   5.527
 7542SOL     OW23524   6.391   5.813   4.554
 7542SOL    HW123525   6.447   5.887   4.518
 7542SOL    HW223526   6.449   5.747   4.602
 7543SOL     OW23527   2.840   1.216   0.410
 7543SOL    HW123528   2.773   1.218   0.484
 7543SOL    HW223529   2.824   1.292   0.348
 7544SOL     OW23530   6.537   1.574   4.577
 7544SOL    HW123531   6.532   1.497   4.640
 7544SOL    HW223532   6.510   1.658   4.624
 7545SOL     OW23533   2.015   5.305   5.597
 7545SOL    HW123534   1.933   5.260   5.562
 7545SOL    HW223535   2.016   5.401   5.568
 7546SOL     OW23536   2.222   2.555   2.181
 7546SOL    HW123537   2.303   2.566   2.124
 7546SOL    HW223538   2.247   2.558   2.277
 7547SOL     OW23539   3.791   0.378   2.071
 7547SOL    HW123540   3.772   0.425   1.985
 7547SOL    HW223541   3.725   0.303   2.083
 7548SOL     OW23542   3.244   2.533   6.257
 7548SOL    HW123543   3.234   2.516   6.159
 7548SOL    HW223544   3.292   2.620   6.272
 7549SOL     OW23545   5.470   0.581   4.958
 7549SOL    HW123546   5.489   0.574   5.056
 7549SOL    HW223547   5.550   0.550   4.906
 7550SOL     OW23548   2.293   5.768   4.420
 7550SOL    HW123549   2.282   5.673   4.392
 7550SOL    HW223550   2.254   5.781   4.511
 7551SOL     OW23551   6.316   1.998   6.373
 7551SOL    HW123552   6.361   1.990   6.284
 7551SOL    HW223553   6.269   2.086   6.379
 7552SOL     OW23554   2.684   6.795   4.792
 7552SOL    HW123555   2.620   6.859   4.750
 7552SOL    HW223556   2.693   6.714   4.733
 7553SOL     OW23557   6.177   6.690   6.072
 7553SOL    HW123558   6.240   6.736   6.010
 7553SOL    HW223559   6.185   6.591   6.059
 7554SOL     OW23560   4.297   1.489   0.660
 7554SOL    HW123561   4.304   1.389   0.653
 7554SOL    HW223562   4.364   1.522   0.727
 7555SOL     OW23563   4.813   4.802   4.343
 7555SOL    HW123564   4.869   4.739   4.397
 7555SOL    HW223565   4.726   4.758   4.320
 7556SOL     OW23566   1.192   6.515   1.511
 7556SOL    HW123567   1.176   6.613   1.504
 7556SOL    HW223568   1.231   6.481   1.426
 7557SOL     OW23569   4.232   6.744   1.408
 7557SOL    HW123570   4.183   6.765   1.324
 7557SOL    HW223571   4.253   6.828   1.457
 7558SOL     OW23572   0.423   1.665   3.388
 7558SOL    HW123573   0.402   1.568   3.370
 7558SOL    HW223574   0.437   1.712   3.300
 7559SOL     OW23575   2.705   1.528   4.972
 7559SOL    HW123576   2.765   1.503   5.047
 7559SOL    HW223577   2.717   1.625   4.950
 7560SOL     OW23578   1.387   1.314   5.705
 7560SOL    HW123579   1.314   1.294   5.770
 7560SOL    HW223580   1.382   1.410   5.677
 7561SOL     OW23581   5.761   1.484   5.672
 7561SOL    HW123582   5.671   1.503   5.633
 7561SOL    HW223583   5.766   1.522   5.764
 7562SOL     OW23584   2.251   5.499   2.961
 7562SOL    HW123585   2.287   5.513   3.053
 7562SOL    HW223586   2.180   5.567   2.942
 7563SOL     OW23587   3.628   5.972   2.642
 7563SOL    HW123588   3.606   5.904   2.573
 7563SOL    HW223589   3.617   5.933   2.733
 7564SOL     OW23590   3.641   1.686   5.228
 7564SOL    HW123591   3.560   1.701   5.171
 7564SOL    HW223592   3.612   1.666   5.322
 7565SOL     OW23593   6.325   3.425   5.761
 7565SOL    HW123594   6.232   3.411   5.795
 7565SOL    HW223595   6.355   3.518   5.784
 7566SOL     OW23596   4.731   4.869   1.482
 7566SOL    HW123597   4.753   4.891   1.577
 7566SOL    HW223598   4.632   4.876   1.469
 7567SOL     OW23599   1.286   6.641   4.294
 7567SOL    HW123600   1.240   6.603   4.375
 7567SOL    HW223601   1.331   6.727   4.319
 7568SOL     OW23602   5.816   4.962   1.469
 7568SOL    HW123603   5.900   5.016   1.473
 7568SOL    HW223604   5.798   4.921   1.559
 7569SOL     OW23605   4.620   3.511   0.557
 7569SOL    HW123606   4.701   3.453   0.544
 7569SOL    HW223607   4.649   3.600   0.593
 7570SOL     OW23608   0.962   3.283   2.264
 7570SOL    HW123609   1.040   3.240   2.218
 7570SOL    HW223610   0.941   3.371   2.220
 7571SOL     OW23611   4.134   1.895   3.151
 7571SOL    HW123612   4.174   1.985   3.173
 7571SOL    HW223613   4.136   1.881   3.053
 7572SOL     OW23614   4.685   6.982   3.831
 7572SOL    HW123615   4.730   0.040   3.790
 7572SOL    HW223616   4.751   6.908   3.844
 7573SOL     OW23617   4.186   6.747   6.145
 7573SOL    HW123618   4.239   6.662   6.143
 7573SOL    HW223619   4.204   6.796   6.230
 7574SOL     OW23620   0.366   2.530   4.053
 7574SOL    HW123621   0.290   2.467   4.033
 7574SOL    HW223622   0.384   2.586   3.972
 7575SOL     OW23623   0.194   6.296   2.381
 7575SOL    HW123624   0.195   6.230   2.457
 7575SOL    HW223625   0.263   6.367   2.398
 7576SOL     OW23626   4.839   2.614   6.925
 7576SOL    HW123627   4.772   2.540   6.926
 7576SOL    HW223628   4.923   2.583   6.881
 7577SOL     OW23629   0.644   0.670   0.027
 7577SOL    HW123630   0.621   0.698   6.955
 7577SOL    HW223631   0.579   0.599   0.057
 7578SOL     OW23632   6.179   6.219   3.642
 7578SOL    HW123633   6.178   6.136   3.588
 7578SOL    HW223634   6.243   6.285   3.602
 7579SOL     OW23635   1.124   1.952   6.676
 7579SOL    HW123636   1.090   1.883   6.741
 7579SOL    HW223637   1.173   2.023   6.726
 7580SOL     OW23638   2.377   5.249   3.369
 7580SOL    HW123639   2.345   5.273   3.461
 7580SOL    HW223640   2.448   5.179   3.376
 7581SOL     OW23641   7.014   0.457   1.959
 7581SOL    HW123642   6.927   0.417   1.989
 7581SOL    HW223643   0.064   0.439   2.029
 7582SOL     OW23644   2.513   1.731   6.407
 7582SOL    HW123645   2.491   1.822   6.441
 7582SOL    HW223646   2.431   1.690   6.366
 7583SOL     OW23647   5.581   3.291   2.467
 7583SOL    HW123648   5.513   3.331   2.529
 7583SOL    HW223649   5.585   3.345   2.383
 7584SOL     OW23650   0.751   1.106   3.412
 7584SOL    HW123651   0.793   1.130   3.324
 7584SOL    HW223652   0.656   1.080   3.397
 7585SOL     OW23653   0.916   1.488   5.858
 7585SOL    HW123654   0.929   1.405   5.803
 7585SOL    HW223655   0.983   1.557   5.830
 7586SOL     OW23656   2.133   6.768   3.299
 7586SOL    HW123657   2.111   6.676   3.329
 7586SOL    HW223658   2.087   6.835   3.357
 7587SOL     OW23659   4.150   0.165   1.538
 7587SOL    HW123660   4.062   0.117   1.537
 7587SOL    HW223661   4.135   0.262   1.557
 7588SOL     OW23662   2.350   2.625   4.717
 7588SOL    HW123663   2.339   2.605   4.814
 7588SOL    HW223664   2.408   2.555   4.675
 7589SOL     OW23665   6.801   0.322   2.804
 7589SOL    HW123666   6.833   0.229   2.820
 7589SOL    HW223667   6.849   0.361   2.725
 7590SOL     OW23668   6.413   1.278   0.135
 7590SOL    HW123669   6.411   1.339   0.055
 7590SOL    HW223670   6.437   1.331   0.216
 7591SOL     OW23671   3.258   3.189   4.814
 7591SOL    HW123672   3.214   3.127   4.750
 7591SOL    HW223673   3.329   3.242   4.767
 7592SOL     OW23674   0.234   6.551   3.768
 7592SOL    HW123675   0.212   6.640   3.808
 7592SOL    HW223676   0.251   6.563   3.670
 7593SOL     OW23677   0.259   0.913   5.343
 7593SOL    HW123678   0.254   1.003   5.386
 7593SOL    HW223679   0.349   0.903   5.299
 7594SOL     OW23680   0.033   3.795   6.274
 7594SOL    HW123681   0.130   3.818   6.280
 7594SOL    HW223682   0.020   3.698   6.293
 7595SOL     OW23683   1.192   3.296   0.032
 7595SOL    HW123684   1.173   3.204   0.067
 7595SOL    HW223685   1.272   3.293   6.992
 7596SOL     OW23686   3.199   1.311   6.874
 7596SOL    HW123687   3.113   1.325   6.825
 7596SOL    HW223688   3.269   1.279   6.810
 7597SOL     OW23689   1.911   4.886   1.220
 7597SOL    HW123690   1.985   4.954   1.217
 7597SOL    HW223691   1.827   4.930   1.250
 7598SOL     OW23692   6.224   0.518   2.208
 7598SOL    HW123693   6.164   0.447   2.246
 7598SOL    HW223694   6.170   0.599   2.186
 7599SOL     OW23695   3.364   4.057   1.008
 7599SOL    HW123696   3.306   4.119   0.956
 7599SOL    HW223697   3.310   4.012   1.080
 7600SOL     OW23698   1.409   6.924   3.862
 7600SOL    HW123699   1.501   6.923   3.823
 7600SOL    HW223700   1.404   6.859   3.938
 7601SOL     OW23701   2.887   0.164   1.907
 7601SOL    HW123702   2.834   0.230   1.959
 7601SOL    HW223703   2.866   0.174   1.810
 7602SOL     OW23704   0.509   1.217   1.226
 7602SOL    HW123705   0.544   1.233   1.318
 7602SOL    HW223706   0.546   1.285   1.163
 7603SOL     OW23707   4.017   1.071   6.137
 7603SOL    HW123708   4.100   1.022   6.111
 7603SOL    HW223709   3.974   1.110   6.056
 7604SOL     OW23710   1.353   2.751   4.998
 7604SOL    HW123711   1.274   2.782   5.051
 7604SOL    HW223712   1.365   2.810   4.918
 7605SOL     OW23713   2.195   6.055   0.144
 7605SOL    HW123714   2.154   6.047   0.053
 7605SOL    HW223715   2.132   6.103   0.205
 7606SOL     OW23716   6.765   0.670   3.319
 7606SOL    HW123717   6.724   0.619   3.394
 7606SOL    HW223718   6.810   0.752   3.356
 7607SOL     OW23719   1.708   6.126   5.544
 7607SOL    HW123720   1.751   6.057   5.485
 7607SOL    HW223721   1.760   6.133   5.629
 7608SOL     OW23722   6.786   2.142   6.461
 7608SOL    HW123723   6.713   2.193   6.506
 7608SOL    HW223724   6.775   2.045   6.480
 7609SOL     OW23725   3.208   1.458   4.597
 7609SOL    HW123726   3.207   1.494   4.690
 7609SOL    HW223727   3.301   1.434   4.571
 7610SOL     OW23728   3.893   5.177   4.468
 7610SOL    HW123729   3.900   5.089   4.422
 7610SOL    HW223730   3.891   5.163   4.567
 7611SOL     OW23731   4.712   2.616   0.835
 7611SOL    HW123732   4.690   2.528   0.793
 7611SOL    HW223733   4.797   2.651   0.796
 7612SOL     OW23734   3.974   2.181   3.262
 7612SOL    HW123735   3.949   2.193   3.359
 7612SOL    HW223736   4.073   2.180   3.253
 7613SOL     OW23737   0.813   0.518   0.362
 7613SOL    HW123738   0.855   0.484   0.446
 7613SOL    HW223739   0.721   0.480   0.353
 7614SOL     OW23740   5.085   3.943   0.304
 7614SOL    HW123741   5.181   3.928   0.280
 7614SOL    HW223742   5.040   3.993   0.230
 7615SOL     OW23743   6.178   3.195   5.150
 7615SOL    HW123744   6.245   3.253   5.197
 7615SOL    HW223745   6.090   3.202   5.197
 7616SOL     OW23746   0.013   6.688   2.907
 7616SOL    HW123747   0.024   6.596   2.869
 7616SOL    HW223748   6.953   6.689   2.966
 7617SOL     OW23749   6.239   3.932   3.022
 7617SOL    HW123750   6.331   3.925   3.060
 7617SOL    HW223751   6.243   3.913   2.924
 7618SOL     OW23752   2.527   2.266   0.193
 7618SOL    HW123753   2.529   2.346   0.132
 7618SOL    HW223754   2.509   2.184   0.139
 7619SOL     OW23755   1.822   1.535   4.693
 7619SOL    HW123756   1.871   1.617   4.663
 7619SOL    HW223757   1.868   1.454   4.657
 7620SOL     OW23758   3.472   4.548   1.203
 7620SOL    HW123759   3.478   4.647   1.215
 7620SOL    HW223760   3.377   4.522   1.187
 7621SOL     OW23761   5.971   4.187   0.272
 7621SOL    HW123762   5.891   4.164   0.329
 7621SOL    HW223763   5.975   4.124   0.195
 7622SOL     OW23764   3.251   3.844   1.754
 7622SOL    HW123765   3.155   3.824   1.735
 7622SOL    HW223766   3.288   3.901   1.681
 7623SOL     OW23767   5.556   4.287   1.831
 7623SOL    HW123768   5.527   4.197   1.863
 7623SOL    HW223769   5.585   4.343   1.908
 7624SOL     OW23770   1.298   3.493   2.437
 7624SOL    HW123771   1.325   3.426   2.505
 7624SOL    HW223772   1.337   3.582   2.460
 7625SOL     OW23773   5.369   0.563   2.311
 7625SOL    HW123774   5.330   0.655   2.303
 7625SOL    HW223775   5.296   0.497   2.324
 7626SOL     OW23776   4.310   0.068   6.822
 7626SOL    HW123777   4.336   0.162   6.844
 7626SOL    HW223778   4.238   0.069   6.752
 7627SOL     OW23779   4.096   3.094   6.665
 7627SOL    HW123780   4.055   3.126   6.579
 7627SOL    HW223781   4.170   3.156   6.691
 7628SOL     OW23782   3.182   2.539   0.343
 7628SOL    HW123783   3.201   2.603   0.269
 7628SOL    HW223784   3.211   2.447   0.315
 7629SOL     OW23785   5.856   2.297   2.933
 7629SOL    HW123786   5.927   2.355   2.892
 7629SOL    HW223787   5.881   2.273   3.026
 7630SOL     OW23788   1.214   6.444   4.054
 7630SOL    HW123789   1.186   6.495   4.135
 7630SOL    HW223790   1.142   6.448   3.984
 7631SOL     OW23791   0.856   0.881   5.334
 7631SOL    HW123792   0.884   0.800   5.281
 7631SOL    HW223793   0.792   0.853   5.406
 7632SOL     OW23794   4.584   5.806   1.387
 7632SOL    HW123795   4.560   5.887   1.441
 7632SOL    HW223796   4.552   5.724   1.434
 7633SOL     OW23797   6.148   1.051   1.472
 7633SOL    HW123798   6.111   0.959   1.464
 7633SOL    HW223799   6.128   1.088   1.563
 7634SOL     OW23800   0.093   1.953   6.311
 7634SOL    HW123801   0.014   1.901   6.280
 7634SOL    HW223802   0.072   2.051   6.307
 7635SOL     OW23803   2.231   2.790   5.430
 7635SOL    HW123804   2.225   2.707   5.485
 7635SOL    HW223805   2.327   2.811   5.412
 7636SOL     OW23806   6.730   4.016   3.936
 7636SOL    HW123807   6.758   4.019   4.033
 7636SOL    HW223808   6.659   3.947   3.924
 7637SOL     OW23809   0.799   4.571   4.918
 7637SOL    HW123810   0.784   4.619   5.005
 7637SOL    HW223811   0.712   4.537   4.883
 7638SOL     OW23812   0.246   6.108   1.050
 7638SOL    HW123813   0.162   6.064   1.083
 7638SOL    HW223814   0.309   6.122   1.126
 7639SOL     OW23815   1.175   0.386   0.516
 7639SOL    HW123816   1.168   0.472   0.466
 7639SOL    HW223817   1.183   0.310   0.452
 7640SOL     OW23818   3.299   1.361   1.149
 7640SOL    HW123819   3.205   1.385   1.173
 7640SOL    HW223820   3.320   1.395   1.057
 7641SOL     OW23821   0.183   4.398   4.646
 7641SOL    HW123822   0.162   4.475   4.587
 7641SOL    HW223823   0.100   4.344   4.660
 7642SOL     OW23824   5.183   1.015   3.017
 7642SOL    HW123825   5.244   1.082   2.974
 7642SOL    HW223826   5.208   0.923   2.987
 7643SOL     OW23827   5.154   3.737   4.796
 7643SOL    HW123828   5.083   3.673   4.765
 7643SOL    HW223829   5.242   3.691   4.797
 7644SOL     OW23830   4.737   3.708   1.230
 7644SOL    HW123831   4.772   3.784   1.284
 7644SOL    HW223832   4.703   3.741   1.142
 7645SOL     OW23833   4.052   4.759   0.061
 7645SOL    HW123834   4.104   4.750   0.147
 7645SOL    HW223835   4.109   4.728   7.006
 7646SOL     OW23836   6.815   1.816   0.106
 7646SOL    HW123837   6.745   1.879   0.073
 7646SOL    HW223838   6.786   1.776   0.193
 7647SOL     OW23839   6.731   2.251   4.096
 7647SOL    HW123840   6.641   2.208   4.088
 7647SOL    HW223841   6.745   2.314   4.020
 7648SOL     OW23842   2.019   2.048   1.801
 7648SOL    HW123843   1.999   2.118   1.733
 7648SOL    HW223844   2.083   1.982   1.762
 7649SOL     OW23845   3.854   1.103   6.992
 7649SOL    HW123846   3.896   1.048   0.043
 7649SOL    HW223847   3.906   1.092   6.907
 7650SOL     OW23848   3.903   2.295   0.091
 7650SOL    HW123849   3.982   2.235   0.103
 7650SOL    HW223850   3.879   2.336   0.179
 7651SOL     OW23851   3.260   5.371   6.309
 7651SOL    HW123852   3.192   5.338   6.244
 7651SOL    HW223853   3.262   5.471   6.307
 7652SOL     OW23854   1.067   1.063   4.182
 7652SOL    HW123855   1.087   1.061   4.280
 7652SOL    HW223856   1.143   1.106   4.133
 7653SOL     OW23857   2.330   0.622   0.340
 7653SOL    HW123858   2.347   0.534   0.295
 7653SOL    HW223859   2.386   0.693   0.296
 7654SOL     OW23860   6.367   1.904   5.838
 7654SOL    HW123861   6.351   1.870   5.746
 7654SOL    HW223862   6.279   1.912   5.886
 7655SOL     OW23863   3.602   1.906   4.642
 7655SOL    HW123864   3.507   1.874   4.638
 7655SOL    HW223865   3.605   2.005   4.628
 7656SOL     OW23866   5.695   4.081   0.066
 7656SOL    HW123867   5.766   4.032   0.118
 7656SOL    HW223868   5.609   4.031   0.073
 7657SOL     OW23869   0.824   4.181   4.856
 7657SOL    HW123870   0.877   4.261   4.884
 7657SOL    HW223871   0.757   4.159   4.926
 7658SOL     OW23872   2.908   0.410   0.830
 7658SOL    HW123873   2.924   0.315   0.804
 7658SOL    HW223874   2.994   0.451   0.860
 7659SOL     OW23875   5.118   4.305   5.641
 7659SOL    HW123876   5.047   4.246   5.601
 7659SOL    HW223877   5.107   4.398   5.607
 7660SOL     OW23878   6.868   6.128   6.009
 7660SOL    HW123879   6.819   6.127   6.096
 7660SOL    HW223880   6.804   6.140   5.934
 7661SOL     OW23881   3.942   1.034   5.423
 7661SOL    HW123882   3.913   1.002   5.513
 7661SOL    HW223883   3.937   1.134   5.420
 7662SOL     OW23884   0.055   5.875   1.103
 7662SOL    HW123885   0.038   5.846   1.197
 7662SOL    HW223886   0.109   5.805   1.056
 7663SOL     OW23887   1.028   5.456   5.105
 7663SOL    HW123888   1.010   5.359   5.119
 7663SOL    HW223889   0.994   5.483   5.015
 7664SOL     OW23890   4.064   2.023   2.609
 7664SOL    HW123891   3.972   1.989   2.589
 7664SOL    HW223892   4.111   2.045   2.524
 7665SOL     OW23893   3.594   0.830   5.602
 7665SOL    HW123894   3.677   0.779   5.581
 7665SOL    HW223895   3.535   0.776   5.661
 7666SOL     OW23896   5.552   4.741   4.144
 7666SOL    HW123897   5.632   4.790   4.181
 7666SOL    HW223898   5.472   4.760   4.200
 7667SOL     OW23899   4.324   6.409   2.669
 7667SOL    HW123900   4.232   6.373   2.653
 7667SOL    HW223901   4.373   6.417   2.582
 7668SOL     OW23902   1.226   5.772   0.607
 7668SOL    HW123903   1.165   5.741   0.534
 7668SOL    HW223904   1.316   5.730   0.595
 7669SOL     OW23905   2.657   1.559   6.780
 7669SOL    HW123906   2.709   1.639   6.808
 7669SOL    HW223907   2.573   1.588   6.733
 7670SOL     OW23908   0.636   0.834   0.533
 7670SOL    HW123909   0.688   0.802   0.454
 7670SOL    HW223910   0.688   0.813   0.616
 7671SOL     OW23911   3.187   6.994   1.410
 7671SOL    HW123912   3.171   0.067   1.378
 7671SOL    HW223913   3.123   6.973   1.484
 7672SOL     OW23914   5.199   3.861   2.021
 7672SOL    HW123915   5.249   3.943   2.048
 7672SOL    HW223916   5.229   3.832   1.930
 7673SOL     OW23917   1.495   6.851   4.682
 7673SOL    HW123918   1.468   6.755   4.671
 7673SOL    HW223919   1.449   6.890   4.762
 7674SOL     OW23920   4.149   5.715   4.485
 7674SOL    HW123921   4.165   5.654   4.408
 7674SOL    HW223922   4.133   5.808   4.451
 7675SOL     OW23923   4.631   5.937   3.205
 7675SOL    HW123924   4.667   6.030   3.221
 7675SOL    HW223925   4.531   5.940   3.206
 7676SOL     OW23926   3.893   3.096   5.326
 7676SOL    HW123927   3.864   3.176   5.274
 7676SOL    HW223928   3.816   3.063   5.381
 7677SOL     OW23929   6.521   4.717   6.754
 7677SOL    HW123930   6.577   4.636   6.772
 7677SOL    HW223931   6.522   4.776   6.835
 7678SOL     OW23932   3.438   1.962   5.294
 7678SOL    HW123933   3.474   1.869   5.305
 7678SOL    HW223934   3.339   1.959   5.283
 7679SOL     OW23935   3.796   5.864   4.597
 7679SOL    HW123936   3.839   5.795   4.539
 7679SOL    HW223937   3.747   5.930   4.540
 7680SOL     OW23938   2.130   6.580   3.940
 7680SOL    HW123939   2.118   6.650   4.010
 7680SOL    HW223940   2.202   6.517   3.969
 7681SOL     OW23941   1.990   2.621   5.459
 7681SOL    HW123942   1.916   2.555   5.472
 7681SOL    HW223943   2.015   2.662   5.546
 7682SOL     OW23944   3.083   0.742   2.472
 7682SOL    HW123945   3.134   0.802   2.534
 7682SOL    HW223946   3.098   0.647   2.499
 7683SOL     OW23947   0.691   4.574   4.467
 7683SOL    HW123948   0.718   4.481   4.444
 7683SOL    HW223949   0.676   4.627   4.383
 7684SOL     OW23950   5.323   3.161   1.660
 7684SOL    HW123951   5.251   3.108   1.615
 7684SOL    HW223952   5.375   3.101   1.721
 7685SOL     OW23953   2.716   0.004   0.740
 7685SOL    HW123954   2.629   0.041   0.774
 7685SOL    HW223955   2.703   6.988   0.648
 7686SOL     OW23956   6.692   6.655   4.828
 7686SOL    HW123957   6.698   6.666   4.729
 7686SOL    HW223958   6.598   6.667   4.857
 7687SOL     OW23959   5.023   3.066   6.513
 7687SOL    HW123960   5.053   3.046   6.420
 7687SOL    HW223961   4.944   3.127   6.510
 7688SOL     OW23962   5.859   2.888   6.699
 7688SOL    HW123963   5.816   2.921   6.783
 7688SOL    HW223964   5.825   2.796   6.678
 7689SOL     OW23965   5.346   6.945   1.894
 7689SOL    HW123966   5.405   0.003   1.878
 7689SOL    HW223967   5.264   6.973   1.944
 7690SOL     OW23968   5.794   5.074   2.430
 7690SOL    HW123969   5.701   5.088   2.396
 7690SOL    HW223970   5.800   4.986   2.477
 7691SOL     OW23971   4.839   3.002   3.939
 7691SOL    HW123972   4.744   2.989   3.966
 7691SOL    HW223973   4.868   2.927   3.881
 7692SOL     OW23974   2.703   6.548   2.325
 7692SOL    HW123975   2.626   6.557   2.388
 7692SOL    HW223976   2.787   6.577   2.369
 7693SOL     OW23977   3.569   1.378   1.866
 7693SOL    HW123978   3.577   1.285   1.830
 7693SOL    HW223979   3.546   1.375   1.963
 7694SOL     OW23980   4.411   1.778   6.838
 7694SOL    HW123981   4.494   1.803   6.888
 7694SOL    HW223982   4.350   1.857   6.833
 7695SOL     OW23983   5.172   0.255   3.686
 7695SOL    HW123984   5.143   0.188   3.618
 7695SOL    HW223985   5.205   0.337   3.639
 7696SOL     OW23986   2.348   2.206   5.845
 7696SOL    HW123987   2.401   2.127   5.875
 7696SOL    HW223988   2.323   2.194   5.749
 7697SOL     OW23989   6.149   6.930   3.415
 7697SOL    HW123990   6.136   6.835   3.387
 7697SOL    HW223991   6.246   6.948   3.430
 7698SOL     OW23992   6.393   3.143   1.191
 7698SOL    HW123993   6.476   3.155   1.136
 7698SOL    HW223994   6.316   3.185   1.143
 7699SOL     OW23995   4.360   6.219   5.889
 7699SOL    HW123996   4.261   6.213   5.879
 7699SOL    HW223997   4.386   6.312   5.916
 7700SOL     OW23998   5.922   5.531   1.229
 7700SOL    HW123999   5.857   5.510   1.302
 7700SOL    HW224000   5.890   5.612   1.179
 7701SOL     OW24001   2.094   2.134   6.615
 7701SOL    HW124002   2.050   2.206   6.561
 7701SOL    HW224003   2.095   2.049   6.562
 7702SOL     OW24004   5.313   6.646   4.919
 7702SOL    HW124005   5.228   6.621   4.967
 7702SOL    HW224006   5.290   6.704   4.840
 7703SOL     OW24007   0.250   6.529   5.459
 7703SOL    HW124008   0.182   6.600   5.473
 7703SOL    HW224009   0.206   6.439   5.466
 7704SOL     OW24010   1.399   1.859   5.046
 7704SOL    HW124011   1.486   1.867   5.096
 7704SOL    HW224012   1.418   1.851   4.948
 7705SOL     OW24013   1.208   4.633   6.859
 7705SOL    HW124014   1.300   4.628   6.822
 7705SOL    HW224015   1.166   4.542   6.856
 7706SOL     OW24016   3.459   3.140   2.419
 7706SOL    HW124017   3.378   3.082   2.414
 7706SOL    HW224018   3.457   3.207   2.345
 7707SOL     OW24019   6.367   4.530   6.441
 7707SOL    HW124020   6.301   4.605   6.442
 7707SOL    HW224021   6.320   4.443   6.455
 7708SOL     OW24022   1.709   0.269   3.929
 7708SOL    HW124023   1.663   0.256   3.841
 7708SOL    HW224024   1.673   0.351   3.973
 7709SOL     OW24025   6.865   4.672   1.342
 7709SOL    HW124026   6.845   4.585   1.298
 7709SOL    HW224027   6.778   4.716   1.368
 7710SOL     OW24028   6.271   2.862   1.431
 7710SOL    HW124029   6.175   2.849   1.456
 7710SOL    HW224030   6.280   2.858   1.332
 7711SOL     OW24031   0.608   4.468   4.162
 7711SOL    HW124032   0.667   4.421   4.227
 7711SOL    HW224033   0.555   4.401   4.110
 7712SOL     OW24034   0.531   4.858   4.753
 7712SOL    HW124035   0.442   4.901   4.740
 7712SOL    HW224036   0.567   4.883   4.843
 7713SOL     OW24037   0.962   4.504   0.790
 7713SOL    HW124038   1.020   4.449   0.850
 7713SOL    HW224039   0.910   4.569   0.845
 7714SOL     OW24040   6.083   1.779   5.382
 7714SOL    HW124041   6.012   1.781   5.312
 7714SOL    HW224042   6.147   1.704   5.362
 7715SOL     OW24043   3.291   3.202   6.046
 7715SOL    HW124044   3.380   3.171   6.082
 7715SOL    HW224045   3.272   3.294   6.080
 7716SOL     OW24046   1.395   6.884   5.995
 7716SOL    HW124047   1.484   6.876   6.041
 7716SOL    HW224048   1.345   6.963   6.031
 7717SOL     OW24049   0.324   2.304   6.306
 7717SOL    HW124050   0.288   2.240   6.239
 7717SOL    HW224051   0.283   2.286   6.395
 7718SOL     OW24052   0.189   2.926   2.933
 7718SOL    HW124053   0.196   2.827   2.923
 7718SOL    HW224054   0.103   2.958   2.894
 7719SOL     OW24055   2.124   5.566   5.180
 7719SOL    HW124056   2.168   5.635   5.237
 7719SOL    HW224057   2.178   5.483   5.180
 7720SOL     OW24058   4.309   0.992   6.857
 7720SOL    HW124059   4.397   1.021   6.819
 7720SOL    HW224060   4.292   0.896   6.832
 7721SOL     OW24061   6.381   6.039   2.455
 7721SOL    HW124062   6.347   5.994   2.372
 7721SOL    HW224063   6.421   5.971   2.516
 7722SOL     OW24064   0.804   5.967   3.770
 7722SOL    HW124065   0.756   6.024   3.703
 7722SOL    HW224066   0.903   5.982   3.761
 7723SOL     OW24067   4.581   4.419   6.991
 7723SOL    HW124068   4.493   4.449   6.954
 7723SOL    HW224069   4.569   4.392   0.066
 7724SOL     OW24070   1.949   3.962   0.559
 7724SOL    HW124071   1.854   3.946   0.586
 7724SOL    HW224072   1.953   3.974   0.460
 7725SOL     OW24073   5.689   2.908   4.643
 7725SOL    HW124074   5.775   2.918   4.693
 7725SOL    HW224075   5.691   2.822   4.591
 7726SOL     OW24076   2.172   3.760   6.886
 7726SOL    HW124077   2.207   3.672   6.855
 7726SOL    HW224078   2.163   3.822   6.807
 7727SOL     OW24079   4.846   0.458   2.184
 7727SOL    HW124080   4.771   0.523   2.194
 7727SOL    HW224081   4.912   0.472   2.258
 7728SOL     OW24082   1.899   3.638   4.678
 7728SOL    HW124083   1.988   3.685   4.674
 7728SOL    HW224084   1.914   3.539   4.673
 7729SOL     OW24085   6.996   0.878   2.534
 7729SOL    HW124086   6.947   0.795   2.557
 7729SOL    HW224087   0.074   0.864   2.546
 7730SOL     OW24088   6.497   4.786   5.462
 7730SOL    HW124089   6.399   4.805   5.455
 7730SOL    HW224090   6.510   4.696   5.505
 7731SOL     OW24091   6.482   0.160   5.496
 7731SOL    HW124092   6.474   0.191   5.402
 7731SOL    HW224093   6.493   0.060   5.498
 7732SOL     OW24094   4.610   0.677   6.799
 7732SOL    HW124095   4.516   0.667   6.767
 7732SOL    HW224096   4.618   0.762   6.852
 7733SOL     OW24097   6.715   5.224   1.365
 7733SOL    HW124098   6.697   5.322   1.366
 7733SOL    HW224099   6.678   5.182   1.447
 7734SOL     OW24100   3.987   3.853   3.402
 7734SOL    HW124101   3.940   3.936   3.433
 7734SOL    HW224102   4.066   3.835   3.461
 7735SOL     OW24103   0.582   5.887   0.861
 7735SOL    HW124104   0.673   5.860   0.829
 7735SOL    HW224105   0.525   5.911   0.782
 7736SOL     OW24106   1.755   2.141   6.735
 7736SOL    HW124107   1.824   2.142   6.807
 7736SOL    HW224108   1.751   2.231   6.691
 7737SOL     OW24109   4.254   4.596   6.913
 7737SOL    HW124110   4.302   4.620   6.997
 7737SOL    HW224111   4.186   4.526   6.932
 7738SOL     OW24112   1.687   0.354   4.996
 7738SOL    HW124113   1.616   0.286   4.977
 7738SOL    HW224114   1.777   0.311   4.990
 7739SOL     OW24115   1.885   2.321   0.219
 7739SOL    HW124116   1.970   2.342   0.267
 7739SOL    HW224117   1.822   2.398   0.227
 7740SOL     OW24118   2.514   0.922   4.473
 7740SOL    HW124119   2.598   0.924   4.527
 7740SOL    HW224120   2.537   0.902   4.377
 7741SOL     OW24121   0.212   4.278   6.116
 7741SOL    HW124122   0.209   4.236   6.026
 7741SOL    HW224123   0.296   4.332   6.126
 7742SOL     OW24124   4.869   2.429   4.259
 7742SOL    HW124125   4.915   2.475   4.182
 7742SOL    HW224126   4.849   2.335   4.233
 7743SOL     OW24127   3.973   1.421   6.016
 7743SOL    HW124128   4.024   1.443   6.099
 7743SOL    HW224129   3.965   1.502   5.959
 7744SOL     OW24130   0.686   6.887   4.388
 7744SOL    HW124131   0.646   6.810   4.339
 7744SOL    HW224132   0.678   6.970   4.333
 7745SOL     OW24133   2.714   6.759   1.305
 7745SOL    HW124134   2.763   6.776   1.219
 7745SOL    HW224135   2.700   6.660   1.316
 7746SOL     OW24136   0.148   6.007   1.653
 7746SOL    HW124137   0.159   6.048   1.562
 7746SOL    HW224138   0.227   5.950   1.674
 7747SOL     OW24139   0.062   5.604   0.596
 7747SOL    HW124140   0.068   5.516   0.550
 7747SOL    HW224141   0.020   5.671   0.534
 7748SOL     OW24142   4.399   1.226   6.260
 7748SOL    HW124143   4.389   1.320   6.292
 7748SOL    HW224144   4.495   1.205   6.245
 7749SOL     OW24145   3.512   3.127   3.213
 7749SOL    HW124146   3.482   3.038   3.249
 7749SOL    HW224147   3.444   3.196   3.235
 7750SOL     OW24148   5.310   5.163   5.910
 7750SOL    HW124149   5.273   5.196   5.997
 7750SOL    HW224150   5.315   5.063   5.912
 7751SOL     OW24151   6.543   1.331   4.726
 7751SOL    HW124152   6.498   1.304   4.812
 7751SOL    HW224153   6.634   1.289   4.722
 7752SOL     OW24154   6.570   4.747   5.139
 7752SOL    HW124155   6.480   4.739   5.096
 7752SOL    HW224156   6.570   4.826   5.200
 7753SOL     OW24157   2.778   0.836   4.912
 7753SOL    HW124158   2.844   0.781   4.964
 7753SOL    HW224159   2.763   0.922   4.960
 7754SOL     OW24160   6.396   1.063   1.351
 7754SOL    HW124161   6.454   1.021   1.420
 7754SOL    HW224162   6.303   1.071   1.387
 7755SOL     OW24163   1.763   6.011   4.892
 7755SOL    HW124164   1.733   6.089   4.948
 7755SOL    HW224165   1.801   5.940   4.951
 7756SOL     OW24166   3.632   5.718   2.857
 7756SOL    HW124167   3.722   5.759   2.871
 7756SOL    HW224168   3.564   5.790   2.850
 7757SOL     OW24169   3.506   6.903   5.947
 7757SOL    HW124170   3.550   6.897   5.858
 7757SOL    HW224171   3.571   6.876   6.018
 7758SOL     OW24172   3.570   2.517   6.449
 7758SOL    HW124173   3.535   2.430   6.414
 7758SOL    HW224174   3.644   2.499   6.514
 7759SOL     OW24175   1.802   0.544   4.495
 7759SOL    HW124176   1.702   0.552   4.494
 7759SOL    HW224177   1.840   0.587   4.414
 7760SOL     OW24178   5.286   1.968   3.782
 7760SOL    HW124179   5.322   2.060   3.770
 7760SOL    HW224180   5.330   1.924   3.861
 7761SOL     OW24181   4.228   0.526   6.911
 7761SOL    HW124182   4.135   0.563   6.916
 7761SOL    HW224183   4.284   0.566   6.984
 7762SOL     OW24184   1.816   2.029   0.305
 7762SOL    HW124185   1.818   2.123   0.273
 7762SOL    HW224186   1.771   1.971   0.237
 7763SOL     OW24187   2.475   2.185   1.545
 7763SOL    HW124188   2.435   2.228   1.626
 7763SOL    HW224189   2.560   2.232   1.521
 7764SOL     OW24190   4.132   3.312   2.307
 7764SOL    HW124191   4.129   3.290   2.405
 7764SOL    HW224192   4.179   3.399   2.294
 7765SOL     OW24193   0.113   2.063   2.496
 7765SOL    HW124194   0.055   1.992   2.456
 7765SOL    HW224195   0.170   2.103   2.425
 7766SOL     OW24196   0.181   3.668   0.241
 7766SOL    HW124197   0.090   3.707   0.256
 7766SOL    HW224198   0.250   3.730   0.278
 7767SOL     OW24199   5.849   3.924   5.407
 7767SOL    HW124200   5.857   3.884   5.316
 7767SOL    HW224201   5.798   4.010   5.401
 7768SOL     OW24202   4.355   5.404   1.706
 7768SOL    HW124203   4.397   5.471   1.645
 7768SOL    HW224204   4.334   5.446   1.794
 7769SOL     OW24205   6.397   1.795   2.419
 7769SOL    HW124206   6.359   1.708   2.451
 7769SOL    HW224207   6.324   1.863   2.412
 7770SOL     OW24208   3.472   6.048   1.102
 7770SOL    HW124209   3.498   5.955   1.075
 7770SOL    HW224210   3.375   6.062   1.085
 7771SOL     OW24211   2.154   0.990   4.702
 7771SOL    HW124212   2.055   1.006   4.696
 7771SOL    HW224213   2.193   0.986   4.609
 7772SOL     OW24214   5.539   0.853   4.885
 7772SOL    HW124215   5.529   0.758   4.914
 7772SOL    HW224216   5.448   0.891   4.865
 7773SOL     OW24217   3.680   4.488   5.545
 7773SOL    HW124218   3.758   4.475   5.484
 7773SOL    HW224219   3.603   4.524   5.493
 7774SOL     OW24220   4.922   1.830   6.716
 7774SOL    HW124221   4.962   1.829   6.624
 7774SOL    HW224222   4.828   1.795   6.711
 7775SOL     OW24223   1.796   0.246   1.828
 7775SOL    HW124224   1.858   0.317   1.795
 7775SOL    HW224225   1.847   0.179   1.882
 7776SOL     OW24226   3.765   3.903   0.949
 7776SOL    HW124227   3.739   3.981   1.006
 7776SOL    HW224228   3.703   3.826   0.965
 7777SOL     OW24229   0.945   6.961   6.387
 7777SOL    HW124230   1.011   6.891   6.415
 7777SOL    HW224231   0.991   0.030   6.384
 7778SOL     OW24232   4.897   1.150   1.757
 7778SOL    HW124233   4.841   1.118   1.681
 7778SOL    HW224234   4.925   1.245   1.741
 7779SOL     OW24235   4.344   3.001   0.506
 7779SOL    HW124236   4.327   2.948   0.589
 7779SOL    HW224237   4.420   2.960   0.455
 7780SOL     OW24238   0.938   0.442   4.955
 7780SOL    HW124239   0.890   0.469   4.871
 7780SOL    HW224240   0.970   0.524   5.003
 7781SOL     OW24241   1.784   4.342   5.093
 7781SOL    HW124242   1.723   4.412   5.130
 7781SOL    HW224243   1.879   4.373   5.102
 7782SOL     OW24244   4.532   5.013   0.112
 7782SOL    HW124245   4.630   5.007   0.097
 7782SOL    HW224246   4.490   5.065   0.037
 7783SOL     OW24247   2.278   5.434   6.978
 7783SOL    HW124248   2.337   5.355   6.995
 7783SOL    HW224249   2.331   5.519   6.990
 7784SOL     OW24250   0.185   3.032   0.210
 7784SOL    HW124251   0.218   2.938   0.217
 7784SOL    HW224252   0.260   3.096   0.227
 7785SOL     OW24253   2.084   5.573   5.526
 7785SOL    HW124254   2.049   5.618   5.443
 7785SOL    HW224255   2.160   5.626   5.563
 7786SOL     OW24256   3.308   4.107   4.310
 7786SOL    HW124257   3.396   4.108   4.357
 7786SOL    HW224258   3.278   4.200   4.293
 7787SOL     OW24259   2.927   2.277   5.222
 7787SOL    HW124260   2.894   2.284   5.128
 7787SOL    HW224261   3.025   2.298   5.224
 7788SOL     OW24262   0.802   1.536   0.801
 7788SOL    HW124263   0.835   1.472   0.870
 7788SOL    HW224264   0.794   1.627   0.842
 7789SOL     OW24265   2.506   0.506   1.290
 7789SOL    HW124266   2.580   0.557   1.247
 7789SOL    HW224267   2.530   0.487   1.385
 7790SOL     OW24268   5.917   3.650   3.045
 7790SOL    HW124269   5.853   3.661   2.969
 7790SOL    HW224270   5.958   3.739   3.066
 7791SOL     OW24271   0.678   4.424   5.165
 7791SOL    HW124272   0.700   4.423   5.262
 7791SOL    HW224273   0.620   4.503   5.145
 7792SOL     OW24274   1.968   5.685   6.512
 7792SOL    HW124275   1.973   5.598   6.562
 7792SOL    HW224276   2.060   5.720   6.497
 7793SOL     OW24277   1.876   1.032   6.244
 7793SOL    HW124278   1.846   1.126   6.233
 7793SOL    HW224279   1.913   0.998   6.158
 7794SOL     OW24280   5.253   5.489   2.675
 7794SOL    HW124281   5.287   5.502   2.768
 7794SOL    HW224282   5.171   5.544   2.661
 7795SOL     OW24283   1.564   4.645   5.968
 7795SOL    HW124284   1.510   4.667   6.050
 7795SOL    HW224285   1.530   4.561   5.927
 7796SOL     OW24286   4.145   3.600   4.582
 7796SOL    HW124287   4.191   3.529   4.529
 7796SOL    HW224288   4.141   3.685   4.529
 7797SOL     OW24289   0.931   7.012   2.836
 7797SOL    HW124290   0.968   6.920   2.845
 7797SOL    HW224291   1.004   0.053   2.805
 7798SOL     OW24292   4.016   6.078   6.270
 7798SOL    HW124293   3.967   6.162   6.294
 7798SOL    HW224294   4.115   6.093   6.278
 7799SOL     OW24295   6.446   4.715   1.375
 7799SOL    HW124296   6.410   4.706   1.282
 7799SOL    HW224297   6.443   4.625   1.420
 7800SOL     OW24298   0.695   6.462   2.304
 7800SOL    HW124299   0.702   6.409   2.220
 7800SOL    HW224300   0.785   6.467   2.348
 7801SOL     OW24301   3.714   2.413   5.446
 7801SOL    HW124302   3.726   2.420   5.545
 7801SOL    HW224303   3.652   2.338   5.425
 7802SOL     OW24304   5.601   1.919   0.398
 7802SOL    HW124305   5.644   2.002   0.432
 7802SOL    HW224306   5.647   1.839   0.436
 7803SOL     OW24307   2.590   4.283   5.306
 7803SOL    HW124308   2.639   4.369   5.316
 7803SOL    HW224309   2.492   4.302   5.298
 7804SOL     OW24310   4.838   1.277   6.400
 7804SOL    HW124311   4.766   1.218   6.362
 7804SOL    HW224312   4.914   1.283   6.335
 7805SOL     OW24313   5.239   3.528   1.834
 7805SOL    HW124314   5.244   3.474   1.749
 7805SOL    HW224315   5.262   3.470   1.912
 7806SOL     OW24316   4.804   3.587   6.649
 7806SOL    HW124317   4.805   3.569   6.747
 7806SOL    HW224318   4.872   3.657   6.627
 7807SOL     OW24319   0.192   3.429   6.651
 7807SOL    HW124320   0.218   3.434   6.748
 7807SOL    HW224321   0.161   3.337   6.629
 7808SOL     OW24322   1.021   1.567   5.327
 7808SOL    HW124323   1.119   1.583   5.335
 7808SOL    HW224324   0.980   1.638   5.269
 7809SOL     OW24325   1.713   5.441   5.726
 7809SOL    HW124326   1.668   5.490   5.801
 7809SOL    HW224327   1.754   5.357   5.761
 7810SOL     OW24328   1.965   0.996   6.814
 7810SOL    HW124329   1.922   0.919   6.863
 7810SOL    HW224330   1.906   1.076   6.821
 7811SOL     OW24331   0.578   4.581   4.695
 7811SOL    HW124332   0.627   4.573   4.608
 7811SOL    HW224333   0.572   4.677   4.721
 7812SOL     OW24334   0.318   2.234   3.862
 7812SOL    HW124335   0.304   2.135   3.865
 7812SOL    HW224336   0.265   2.277   3.935
 7813SOL     OW24337   6.672   2.337   1.038
 7813SOL    HW124338   6.659   2.389   1.122
 7813SOL    HW224339   6.761   2.358   0.999
 7814SOL     OW24340   1.907   4.057   3.906
 7814SOL    HW124341   2.005   4.073   3.906
 7814SOL    HW224342   1.859   4.145   3.910
 7815SOL     OW24343   6.940   1.692   6.036
 7815SOL    HW124344   0.018   1.704   6.023
 7815SOL    HW224345   6.910   1.608   5.990
 7816SOL     OW24346   1.306   4.297   4.986
 7816SOL    HW124347   1.392   4.273   4.941
 7816SOL    HW224348   1.325   4.350   5.069
 7817SOL     OW24349   5.240   3.318   5.080
 7817SOL    HW124350   5.195   3.234   5.050
 7817SOL    HW224351   5.173   3.381   5.118
 7818SOL     OW24352   5.127   4.509   2.496
 7818SOL    HW124353   5.128   4.511   2.596
 7818SOL    HW224354   5.068   4.434   2.465
 7819SOL     OW24355   0.288   1.775   1.354
 7819SOL    HW124356   0.240   1.687   1.358
 7819SOL    HW224357   0.362   1.776   1.422
 7820SOL     OW24358   2.182   6.897   6.361
 7820SOL    HW124359   2.186   6.929   6.456
 7820SOL    HW224360   2.181   6.797   6.360
 7821SOL     OW24361   3.044   5.265   1.175
 7821SOL    HW124362   3.135   5.308   1.172
 7821SOL    HW224363   2.975   5.336   1.188
 7822SOL     OW24364   1.927   6.604   5.527
 7822SOL    HW124365   1.929   6.704   5.529
 7822SOL    HW224366   1.834   6.572   5.545
 7823SOL     OW24367   1.818   4.075   5.083
 7823SOL    HW124368   1.911   4.059   5.116
 7823SOL    HW224369   1.793   4.170   5.096
 7824SOL     OW24370   0.453   3.260   5.321
 7824SOL    HW124371   0.372   3.291   5.271
 7824SOL    HW224372   0.463   3.314   5.405
 7825SOL     OW24373   3.201   0.755   6.995
 7825SOL    HW124374   3.240   0.709   0.054
 7825SOL    HW224375   3.198   0.853   7.012
 7826SOL     OW24376   0.367   3.312   5.592
 7826SOL    HW124377   0.329   3.221   5.574
 7826SOL    HW224378   0.377   3.326   5.690
 7827SOL     OW24379   6.284   5.183   4.680
 7827SOL    HW124380   6.210   5.185   4.748
 7827SOL    HW224381   6.372   5.178   4.726
 7828SOL     OW24382   0.560   5.066   6.640
 7828SOL    HW124383   0.566   4.968   6.656
 7828SOL    HW224384   0.464   5.095   6.648
 7829SOL     OW24385   4.156   4.182   0.780
 7829SOL    HW124386   4.152   4.198   0.681
 7829SOL    HW224387   4.088   4.238   0.826
 7830SOL     OW24388   2.820   5.592   3.884
 7830SOL    HW124389   2.855   5.571   3.792
 7830SOL    HW224390   2.873   5.667   3.923
 7831SOL     OW24391   1.741   6.903   6.405
 7831SOL    HW124392   1.823   6.946   6.368
 7831SOL    HW224393   1.756   6.880   6.501
 7832SOL     OW24394   6.570   1.036   4.928
 7832SOL    HW124395   6.492   1.037   4.866
 7832SOL    HW224396   6.585   0.943   4.961
 7833SOL     OW24397   1.063   0.770   2.658
 7833SOL    HW124398   1.068   0.674   2.685
 7833SOL    HW224399   1.155   0.804   2.638
 7834SOL     OW24400   6.513   2.912   5.478
 7834SOL    HW124401   6.545   3.006   5.492
 7834SOL    HW224402   6.591   2.849   5.483
 7835SOL     OW24403   4.037   2.334   5.649
 7835SOL    HW124404   4.086   2.299   5.569
 7835SOL    HW224405   4.018   2.431   5.636
 7836SOL     OW24406   2.941   3.814   4.359
 7836SOL    HW124407   2.976   3.805   4.266
 7836SOL    HW224408   2.982   3.894   4.403
 7837SOL     OW24409   0.543   5.851   6.634
 7837SOL    HW124410   0.587   5.843   6.545
 7837SOL    HW224411   0.533   5.947   6.659
 7838SOL     OW24412   4.499   5.561   2.156
 7838SOL    HW124413   4.489   5.641   2.097
 7838SOL    HW224414   4.590   5.521   2.143
 7839SOL     OW24415   6.158   3.663   4.601
 7839SOL    HW124416   6.154   3.594   4.674
 7839SOL    HW224417   6.135   3.620   4.514
 7840SOL     OW24418   2.153   3.088   3.807
 7840SOL    HW124419   2.225   3.035   3.762
 7840SOL    HW224420   2.064   3.061   3.771
 7841SOL     OW24421   3.861   2.129   6.407
 7841SOL    HW124422   3.777   2.148   6.358
 7841SOL    HW224423   3.861   2.178   6.494
 7842SOL     OW24424   0.870   0.929   1.629
 7842SOL    HW124425   0.932   0.964   1.559
 7842SOL    HW224426   0.855   0.832   1.614
 7843SOL     OW24427   0.230   6.082   2.523
 7843SOL    HW124428   0.324   6.048   2.527
 7843SOL    HW224429   0.180   6.051   2.604
 7844SOL     OW24430   3.903   6.879   2.886
 7844SOL    HW124431   3.894   6.858   2.789
 7844SOL    HW224432   3.981   6.940   2.900
 7845SOL     OW24433   6.468   2.657   1.213
 7845SOL    HW124434   6.448   2.633   1.118
 7845SOL    HW224435   6.413   2.735   1.241
 7846SOL     OW24436   1.142   0.941   0.929
 7846SOL    HW124437   1.175   0.851   0.903
 7846SOL    HW224438   1.218   1.006   0.930
 7847SOL     OW24439   5.435   4.529   6.157
 7847SOL    HW124440   5.411   4.438   6.192
 7847SOL    HW224441   5.445   4.592   6.234
 7848SOL     OW24442   3.721   4.408   0.670
 7848SOL    HW124443   3.786   4.480   0.693
 7848SOL    HW224444   3.751   4.361   0.587
 7849SOL     OW24445   4.097   5.120   6.824
 7849SOL    HW124446   4.018   5.154   6.775
 7849SOL    HW224447   4.067   5.063   6.901
 7850SOL     OW24448   0.072   0.495   4.308
 7850SOL    HW124449   0.059   0.411   4.256
 7850SOL    HW224450   7.013   0.510   4.367
 7851SOL     OW24451   6.953   4.885   0.915
 7851SOL    HW124452   6.968   4.881   1.014
 7851SOL    HW224453   6.868   4.935   0.897
 7852SOL     OW24454   1.312   3.121   6.577
 7852SOL    HW124455   1.385   3.056   6.555
 7852SOL    HW224456   1.325   3.206   6.525
 7853SOL     OW24457   4.355   2.971   1.616
 7853SOL    HW124458   4.432   3.007   1.668
 7853SOL    HW224459   4.272   3.021   1.641
 7854SOL     OW24460   4.751   1.139   0.359
 7854SOL    HW124461   4.744   1.217   0.421
 7854SOL    HW224462   4.804   1.164   0.279
 7855SOL     OW24463   5.496   6.404   3.834
 7855SOL    HW124464   5.441   6.464   3.776
 7855SOL    HW224465   5.460   6.406   3.928
 7856SOL     OW24466   2.092   6.230   5.328
 7856SOL    HW124467   2.143   6.305   5.286
 7856SOL    HW224468   2.107   6.232   5.427
 7857SOL     OW24469   6.350   4.330   0.847
 7857SOL    HW124470   6.318   4.326   0.941
 7857SOL    HW224471   6.396   4.417   0.830
 7858SOL     OW24472   6.619   3.823   6.365
 7858SOL    HW124473   6.686   3.750   6.353
 7858SOL    HW224474   6.535   3.800   6.316
 7859SOL     OW24475   4.915   1.734   0.525
 7859SOL    HW124476   4.899   1.643   0.487
 7859SOL    HW224477   4.938   1.797   0.451
 7860SOL     OW24478   2.828   1.588   4.298
 7860SOL    HW124479   2.753   1.526   4.323
 7860SOL    HW224480   2.891   1.597   4.375
 7861SOL     OW24481   2.066   6.245   0.686
 7861SOL    HW124482   2.112   6.180   0.625
 7861SOL    HW224483   1.988   6.286   0.638
 7862SOL     OW24484   1.378   6.816   0.032
 7862SOL    HW124485   1.337   6.763   0.106
 7862SOL    HW224486   1.324   6.803   6.969
 7863SOL     OW24487   1.178   4.536   4.099
 7863SOL    HW124488   1.137   4.531   4.190
 7863SOL    HW224489   1.207   4.444   4.070
 7864SOL     OW24490   2.852   5.865   5.003
 7864SOL    HW124491   2.766   5.835   4.962
 7864SOL    HW224492   2.861   5.823   5.094
 7865SOL     OW24493   5.675   4.002   3.415
 7865SOL    HW124494   5.613   4.076   3.442
 7865SOL    HW224495   5.763   4.041   3.387
 7866SOL     OW24496   0.683   0.852   5.555
 7866SOL    HW124497   0.730   0.801   5.626
 7866SOL    HW224498   0.595   0.886   5.590
 7867SOL     OW24499   4.276   5.016   3.954
 7867SOL    HW124500   4.368   5.000   3.990
 7867SOL    HW224501   4.209   4.974   4.015
 7868SOL     OW24502   3.052   6.181   1.521
 7868SOL    HW124503   3.006   6.103   1.478
 7868SOL    HW224504   3.106   6.230   1.453
 7869SOL     OW24505   6.237   5.064   0.222
 7869SOL    HW124506   6.230   5.031   0.316
 7869SOL    HW224507   6.148   5.099   0.192
 7870SOL     OW24508   6.189   6.569   3.539
 7870SOL    HW124509   6.122   6.574   3.613
 7870SOL    HW224510   6.272   6.524   3.573
 7871SOL     OW24511   4.514   1.074   0.655
 7871SOL    HW124512   4.546   1.013   0.582
 7871SOL    HW224513   4.425   1.112   0.629
 7872SOL     OW24514   0.447   5.416   2.955
 7872SOL    HW124515   0.434   5.335   2.899
 7872SOL    HW224516   0.526   5.468   2.921
 7873SOL     OW24517   4.778   2.082   6.969
 7873SOL    HW124518   4.852   2.108   6.908
 7873SOL    HW224519   4.693   2.124   6.938
 7874SOL     OW24520   5.744   2.677   0.523
 7874SOL    HW124521   5.693   2.760   0.500
 7874SOL    HW224522   5.695   2.597   0.488
 7875SOL     OW24523   6.243   4.761   6.674
 7875SOL    HW124524   6.337   4.745   6.706
 7875SOL    HW224525   6.184   4.688   6.707
 7876SOL     OW24526   1.487   0.016   3.571
 7876SOL    HW124527   1.485   0.008   3.471
 7876SOL    HW224528   1.402   6.999   3.609
 7877SOL     OW24529   0.244   3.114   2.567
 7877SOL    HW124530   0.231   3.186   2.636
 7877SOL    HW224531   0.332   3.070   2.582
 7878SOL     OW24532   3.921   6.525   2.799
 7878SOL    HW124533   3.972   6.444   2.769
 7878SOL    HW224534   3.905   6.585   2.721
 7879SOL     OW24535   3.281   5.826   3.119
 7879SOL    HW124536   3.318   5.735   3.100
 7879SOL    HW224537   3.356   5.888   3.145
 7880SOL     OW24538   0.866   4.901   2.443
 7880SOL    HW124539   0.962   4.876   2.427
 7880SOL    HW224540   0.808   4.854   2.377
 7881SOL     OW24541   4.807   4.043   3.551
 7881SOL    HW124542   4.840   3.955   3.515
 7881SOL    HW224543   4.879   4.111   3.545
 7882SOL     OW24544   0.821   3.233   6.997
 7882SOL    HW124545   0.849   3.204   6.906
 7882SOL    HW224546   0.777   3.157   0.025
 7883SOL     OW24547   1.100   0.270   5.237
 7883SOL    HW124548   1.025   0.251   5.173
 7883SOL    HW224549   1.064   0.275   5.330
 7884SOL     OW24550   1.119   3.210   4.121
 7884SOL    HW124551   1.033   3.176   4.160
 7884SOL    HW224552   1.123   3.309   4.133
 7885SOL     OW24553   0.346   6.112   6.689
 7885SOL    HW124554   0.312   6.201   6.658
 7885SOL    HW224555   0.324   6.043   6.619
 7886SOL     OW24556   5.337   4.148   0.999
 7886SOL    HW124557   5.430   4.131   1.030
 7886SOL    HW224558   5.273   4.127   1.073
 7887SOL     OW24559   4.844   3.291   6.543
 7887SOL    HW124560   4.823   3.382   6.580
 7887SOL    HW224561   4.895   3.301   6.457
 7888SOL     OW24562   4.851   6.120   4.820
 7888SOL    HW124563   4.809   6.070   4.745
 7888SOL    HW224564   4.946   6.091   4.831
 7889SOL     OW24565   6.584   5.508   3.187
 7889SOL    HW124566   6.615   5.426   3.140
 7889SOL    HW224567   6.659   5.545   3.243
 7890SOL     OW24568   2.191   3.213   2.410
 7890SOL    HW124569   2.142   3.292   2.372
 7890SOL    HW224570   2.175   3.210   2.509
 7891SOL     OW24571   1.035   4.968   2.943
 7891SOL    HW124572   1.034   4.933   2.849
 7891SOL    HW224573   1.110   5.034   2.953
 7892SOL     OW24574   2.345   2.129   5.085
 7892SOL    HW124575   2.259   2.167   5.051
 7892SOL    HW224576   2.404   2.204   5.117
 7893SOL     OW24577   6.102   6.697   1.365
 7893SOL    HW124578   6.195   6.660   1.354
 7893SOL    HW224579   6.098   6.752   1.448
 7894SOL     OW24580   3.011   0.512   1.801
 7894SOL    HW124581   2.987   0.583   1.735
 7894SOL    HW224582   3.030   0.554   1.890
 7895SOL     OW24583   6.872   1.102   3.654
 7895SOL    HW124584   6.901   1.185   3.607
 7895SOL    HW224585   6.778   1.081   3.630
 7896SOL     OW24586   4.073   1.833   6.580
 7896SOL    HW124587   4.157   1.881   6.553
 7896SOL    HW224588   3.995   1.872   6.531
 7897SOL     OW24589   3.224   2.754   6.619
 7897SOL    HW124590   3.191   2.686   6.552
 7897SOL    HW224591   3.320   2.774   6.601
 7898SOL     OW24592   4.977   1.231   3.981
 7898SOL    HW124593   5.053   1.295   3.973
 7898SOL    HW224594   4.900   1.264   3.926
 7899SOL     OW24595   4.094   1.428   2.261
 7899SOL    HW124596   4.057   1.517   2.236
 7899SOL    HW224597   4.193   1.428   2.248
 7900SOL     OW24598   1.342   5.707   1.066
 7900SOL    HW124599   1.358   5.806   1.056
 7900SOL    HW224600   1.292   5.690   1.150
 7901SOL     OW24601   6.135   5.424   0.746
 7901SOL    HW124602   6.187   5.447   0.828
 7901SOL    HW224603   6.037   5.422   0.768
 7902SOL     OW24604   5.315   4.577   5.698
 7902SOL    HW124605   5.319   4.634   5.616
 7902SOL    HW224606   5.408   4.557   5.730
 7903SOL     OW24607   0.209   2.660   0.098
 7903SOL    HW124608   0.260   2.689   0.178
 7903SOL    HW224609   0.111   2.665   0.117
 7904SOL     OW24610   6.177   1.960   2.476
 7904SOL    HW124611   6.165   2.014   2.393
 7904SOL    HW224612   6.091   1.915   2.499
 7905SOL     OW24613   1.863   2.374   1.691
 7905SOL    HW124614   1.809   2.386   1.774
 7905SOL    HW224615   1.957   2.350   1.716
 7906SOL     OW24616   0.358   4.276   6.952
 7906SOL    HW124617   0.418   4.304   6.877
 7906SOL    HW224618   0.387   4.187   6.987
 7907SOL     OW24619   6.381   2.779   2.013
 7907SOL    HW124620   6.448   2.764   1.940
 7907SOL    HW224621   6.344   2.871   2.006
 7908SOL     OW24622   6.907   0.984   3.045
 7908SOL    HW124623   6.922   1.031   2.958
 7908SOL    HW224624   6.977   1.013   3.111
 7909SOL     OW24625   4.131   6.184   4.971
 7909SOL    HW124626   4.211   6.146   5.018
 7909SOL    HW224627   4.071   6.110   4.941
 7910SOL     OW24628   5.911   2.803   6.254
 7910SOL    HW124629   5.966   2.833   6.333
 7910SOL    HW224630   5.910   2.703   6.251
 7911SOL     OW24631   6.682   5.390   6.657
 7911SOL    HW124632   6.703   5.484   6.682
 7911SOL    HW224633   6.632   5.389   6.570
 7912SOL     OW24634   0.144   4.909   5.586
 7912SOL    HW124635   0.121   4.846   5.660
 7912SOL    HW224636   0.244   4.918   5.580
 7913SOL     OW24637   1.141   6.352   6.469
 7913SOL    HW124638   1.132   6.255   6.490
 7913SOL    HW224639   1.209   6.365   6.397
 7914SOL     OW24640   6.617   3.990   1.162
 7914SOL    HW124641   6.594   4.010   1.257
 7914SOL    HW224642   6.539   3.947   1.117
 7915SOL     OW24643   3.616   1.187   2.731
 7915SOL    HW124644   3.591   1.244   2.809
 7915SOL    HW224645   3.611   1.090   2.756
 7916SOL     OW24646   4.570   3.927   5.668
 7916SOL    HW124647   4.566   4.018   5.709
 7916SOL    HW224648   4.601   3.861   5.736
 7917SOL     OW24649   4.119   3.448   3.632
 7917SOL    HW124650   4.109   3.421   3.536
 7917SOL    HW224651   4.125   3.547   3.638
 7918SOL     OW24652   6.591   2.344   2.766
 7918SOL    HW124653   6.680   2.309   2.796
 7918SOL    HW224654   6.601   2.440   2.739
 7919SOL     OW24655   5.588   4.716   1.887
 7919SOL    HW124656   5.569   4.667   1.802
 7919SOL    HW224657   5.629   4.654   1.954
 7920SOL     OW24658   6.999   6.854   1.658
 7920SOL    HW124659   0.046   6.827   1.727
 7920SOL    HW224660   0.001   6.810   1.571
 7921SOL     OW24661   2.118   6.088   1.885
 7921SOL    HW124662   2.023   6.119   1.881
 7921SOL    HW224663   2.177   6.164   1.913
 7922SOL     OW24664   0.664   4.816   5.710
 7922SOL    HW124665   0.680   4.793   5.806
 7922SOL    HW224666   0.749   4.850   5.670
 7923SOL     OW24667   0.348   1.953   3.162
 7923SOL    HW124668   0.417   1.913   3.102
 7923SOL    HW224669   0.392   2.018   3.224
 7924SOL     OW24670   1.912   1.345   3.849
 7924SOL    HW124671   1.937   1.271   3.787
 7924SOL    HW224672   1.814   1.365   3.840
 7925SOL     OW24673   0.289   1.444   6.476
 7925SOL    HW124674   0.366   1.486   6.427
 7925SOL    HW224675   0.263   1.503   6.552
 7926SOL     OW24676   3.090   0.075   2.081
 7926SOL    HW124677   3.027   0.134   2.030
 7926SOL    HW224678   3.093   0.104   2.176
 7927SOL     OW24679   4.690   4.182   4.463
 7927SOL    HW124680   4.719   4.130   4.544
 7927SOL    HW224681   4.642   4.265   4.493
 7928SOL     OW24682   0.896   4.491   6.829
 7928SOL    HW124683   0.991   4.462   6.830
 7928SOL    HW224684   0.884   4.566   6.763
 7929SOL     OW24685   4.099   3.831   4.434
 7929SOL    HW124686   4.171   3.888   4.395
 7929SOL    HW224687   4.021   3.887   4.458
 7930SOL     OW24688   5.287   6.163   3.218
 7930SOL    HW124689   5.194   6.155   3.254
 7930SOL    HW224690   5.349   6.191   3.292
 7931SOL     OW24691   2.941   3.585   6.448
 7931SOL    HW124692   2.929   3.491   6.480
 7931SOL    HW224693   3.039   3.604   6.440
 7932SOL     OW24694   2.947   0.166   0.709
 7932SOL    HW124695   2.853   0.131   0.712
 7932SOL    HW224696   2.996   0.124   0.633
 7933SOL     OW24697   1.660   0.930   5.978
 7933SOL    HW124698   1.655   0.928   5.879
 7933SOL    HW224699   1.755   0.918   6.008
 7934SOL     OW24700   4.001   2.608   5.618
 7934SOL    HW124701   3.971   2.625   5.711
 7934SOL    HW224702   4.088   2.654   5.602
 7935SOL     OW24703   4.733   5.517   1.968
 7935SOL    HW124704   4.802   5.573   2.015
 7935SOL    HW224705   4.728   5.544   1.872
 7936SOL     OW24706   4.190   5.889   2.903
 7936SOL    HW124707   4.251   5.824   2.948
 7936SOL    HW224708   4.223   5.982   2.919
 7937SOL     OW24709   5.969   0.606   5.651
 7937SOL    HW124710   6.067   0.606   5.632
 7937SOL    HW224711   5.953   0.567   5.742
 7938SOL     OW24712   6.165   4.677   4.431
 7938SOL    HW124713   6.241   4.656   4.369
 7938SOL    HW224714   6.199   4.729   4.509
 7939SOL     OW24715   0.420   6.969   4.140
 7939SOL    HW124716   0.429   7.007   4.232
 7939SOL    HW224717   0.507   6.980   4.091
 7940SOL     OW24718   1.521   5.665   0.613
 7940SOL    HW124719   1.567   5.722   0.682
 7940SOL    HW224720   1.524   5.570   0.643
 7941SOL     OW24721   0.117   0.385   0.822
 7941SOL    HW124722   0.202   0.391   0.873
 7941SOL    HW224723   0.046   0.437   0.870
 7942SOL     OW24724   1.408   0.843   1.104
 7942SOL    HW124725   1.414   0.927   1.050
 7942SOL    HW224726   1.370   0.864   1.195
 7943SOL     OW24727   6.288   2.409   0.329
 7943SOL    HW124728   6.200   2.445   0.299
 7943SOL    HW224729   6.361   2.443   0.270
 7944SOL     OW24730   6.978   3.490   1.896
 7944SOL    HW124731   0.025   3.559   1.922
 7944SOL    HW224732   6.958   3.432   1.975
 7945SOL     OW24733   4.981   0.163   1.150
 7945SOL    HW124734   5.063   0.218   1.137
 7945SOL    HW224735   4.900   0.221   1.144
 7946SOL     OW24736   1.382   1.554   5.944
 7946SOL    HW124737   1.334   1.599   6.019
 7946SOL    HW224738   1.328   1.475   5.913
 7947SOL     OW24739   4.397   5.412   6.119
 7947SOL    HW124740   4.422   5.439   6.212
 7947SOL    HW224741   4.352   5.322   6.121
 7948SOL     OW24742   0.767   5.041   6.042
 7948SOL    HW124743   0.790   4.950   6.008
 7948SOL    HW224744   0.756   5.037   6.142
 7949SOL     OW24745   6.412   4.012   3.764
 7949SOL    HW124746   6.470   4.067   3.705
 7949SOL    HW224747   6.462   3.931   3.795
 7950SOL     OW24748   3.646   5.035   4.098
 7950SOL    HW124749   3.700   5.116   4.123
 7950SOL    HW224750   3.570   5.064   4.040
 7951SOL     OW24751   2.999   3.407   0.529
 7951SOL    HW124752   2.987   3.308   0.532
 7951SOL    HW224753   3.043   3.438   0.613
 7952SOL     OW24754   5.418   4.440   0.576
 7952SOL    HW124755   5.417   4.532   0.614
 7952SOL    HW224756   5.399   4.374   0.649
 7953SOL     OW24757   2.057   3.511   3.041
 7953SOL    HW124758   2.098   3.469   3.121
 7953SOL    HW224759   2.120   3.578   3.002
 7954SOL     OW24760   5.458   5.529   4.493
 7954SOL    HW124761   5.505   5.611   4.461
 7954SOL    HW224762   5.525   5.464   4.529
 7955SOL     OW24763   2.042   6.127   6.052
 7955SOL    HW124764   2.037   6.031   6.079
 7955SOL    HW224765   2.123   6.169   6.094
 7956SOL     OW24766   6.556   6.468   3.006
 7956SOL    HW124767   6.503   6.550   2.983
 7956SOL    HW224768   6.581   6.420   2.922
 7957SOL     OW24769   0.853   2.050   0.906
 7957SOL    HW124770   0.776   2.012   0.958
 7957SOL    HW224771   0.822   2.129   0.854
 7958SOL     OW24772   2.851   6.029   3.804
 7958SOL    HW124773   2.754   6.008   3.798
 7958SOL    HW224774   2.896   6.006   3.718
 7959SOL     OW24775   4.984   5.531   0.874
 7959SOL    HW124776   5.029   5.442   0.888
 7959SOL    HW224777   5.050   5.596   0.836
 7960SOL     OW24778   2.272   2.349   0.997
 7960SOL    HW124779   2.370   2.332   1.011
 7960SOL    HW224780   2.236   2.399   1.076
 7961SOL     OW24781   1.410   5.932   0.144
 7961SOL    HW124782   1.360   5.966   0.224
 7961SOL    HW224783   1.420   6.006   0.078
 7962SOL     OW24784   1.415   6.732   2.213
 7962SOL    HW124785   1.463   6.763   2.130
 7962SOL    HW224786   1.355   6.656   2.190
 7963SOL     OW24787   0.855   6.522   4.883
 7963SOL    HW124788   0.826   6.578   4.806
 7963SOL    HW224789   0.841   6.425   4.861
 7964SOL     OW24790   6.362   5.785   3.540
 7964SOL    HW124791   6.269   5.816   3.520
 7964SOL    HW224792   6.360   5.718   3.613
 7965SOL     OW24793   5.189   1.663   0.649
 7965SOL    HW124794   5.233   1.722   0.581
 7965SOL    HW224795   5.109   1.710   0.687
 7966SOL     OW24796   0.154   0.053   3.632
 7966SOL    HW124797   0.094   0.053   3.712
 7966SOL    HW224798   0.110   0.104   3.558
 7967SOL     OW24799   3.323   0.205   3.314
 7967SOL    HW124800   3.379   0.144   3.258
 7967SOL    HW224801   3.231   0.209   3.277
 7968SOL     OW24802   2.541   0.890   1.456
 7968SOL    HW124803   2.605   0.841   1.516
 7968SOL    HW224804   2.449   0.852   1.467
 7969SOL     OW24805   3.396   1.508   3.357
 7969SOL    HW124806   3.434   1.490   3.448
 7969SOL    HW224807   3.407   1.605   3.335
 7970SOL     OW24808   0.093   4.977   3.128
 7970SOL    HW124809   0.040   4.973   3.044
 7970SOL    HW224810   0.159   4.902   3.129
 7971SOL     OW24811   3.103   1.588   2.374
 7971SOL    HW124812   3.129   1.496   2.345
 7971SOL    HW224813   3.025   1.582   2.436
 7972SOL     OW24814   6.598   5.117   1.583
 7972SOL    HW124815   6.522   5.057   1.558
 7972SOL    HW224816   6.641   5.082   1.667
 7973SOL     OW24817   4.913   2.086   2.937
 7973SOL    HW124818   4.814   2.087   2.943
 7973SOL    HW224819   4.941   2.097   2.842
 7974SOL     OW24820   5.572   6.192   3.669
 7974SOL    HW124821   5.532   6.268   3.720
 7974SOL    HW224822   5.669   6.212   3.651
 7975SOL     OW24823   1.631   1.642   2.743
 7975SOL    HW124824   1.713   1.680   2.702
 7975SOL    HW224825   1.616   1.685   2.833
 7976SOL     OW24826   0.879   6.485   5.830
 7976SOL    HW124827   0.858   6.454   5.922
 7976SOL    HW224828   0.859   6.583   5.822
 7977SOL     OW24829   4.685   6.516   1.439
 7977SOL    HW124830   4.725   6.522   1.348
 7977SOL    HW224831   4.757   6.521   1.508
 7978SOL     OW24832   3.333   2.587   5.472
 7978SOL    HW124833   3.367   2.663   5.416
 7978SOL    HW224834   3.328   2.504   5.416
 7979SOL     OW24835   5.306   6.695   3.946
 7979SOL    HW124836   5.317   6.636   3.866
 7979SOL    HW224837   5.271   6.784   3.918
 7980SOL     OW24838   2.809   0.530   2.668
 7980SOL    HW124839   2.748   0.596   2.626
 7980SOL    HW224840   2.760   0.444   2.682
 7981SOL     OW24841   0.953   5.940   2.774
 7981SOL    HW124842   1.026   5.934   2.706
 7981SOL    HW224843   0.940   5.850   2.817
 7982SOL     OW24844   6.970   2.661   0.225
 7982SOL    HW124845   6.951   2.755   0.253
 7982SOL    HW224846   7.017   2.613   0.299
 7983SOL     OW24847   4.670   2.687   1.993
 7983SOL    HW124848   4.721   2.647   1.917
 7983SOL    HW224849   4.679   2.787   1.990
 7984SOL     OW24850   6.620   0.194   0.060
 7984SOL    HW124851   6.522   0.210   0.071
 7984SOL    HW224852   6.636   0.132   7.004
 7985SOL     OW24853   0.699   1.028   1.147
 7985SOL    HW124854   0.739   1.041   1.056
 7985SOL    HW224855   0.625   1.094   1.160
 7986SOL     OW24856   4.878   3.326   7.007
 7986SOL    HW124857   4.929   3.412   7.007
 7986SOL    HW224858   4.842   3.309   0.079
 7987SOL     OW24859   1.165   3.049   4.880
 7987SOL    HW124860   1.084   3.066   4.823
 7987SOL    HW224861   1.139   2.993   4.959
 7988SOL     OW24862   2.824   1.540   5.509
 7988SOL    HW124863   2.802   1.584   5.596
 7988SOL    HW224864   2.804   1.603   5.434
 7989SOL     OW24865   3.599   3.355   6.289
 7989SOL    HW124866   3.551   3.287   6.234
 7989SOL    HW224867   3.686   3.378   6.244
 7990SOL     OW24868   2.298   2.868   4.843
 7990SOL    HW124869   2.345   2.893   4.927
 7990SOL    HW224870   2.337   2.783   4.806
 7991SOL     OW24871   1.699   3.131   5.824
 7991SOL    HW124872   1.623   3.179   5.780
 7991SOL    HW224873   1.669   3.094   5.912
 7992SOL     OW24874   2.729   1.391   0.807
 7992SOL    HW124875   2.675   1.473   0.829
 7992SOL    HW224876   2.826   1.415   0.805
 7993SOL     OW24877   2.415   6.337   6.504
 7993SOL    HW124878   2.461   6.270   6.447
 7993SOL    HW224879   2.447   6.328   6.599
 7994SOL     OW24880   5.678   0.902   4.330
 7994SOL    HW124881   5.672   0.919   4.232
 7994SOL    HW224882   5.693   0.804   4.346
 7995SOL     OW24883   4.269   5.347   3.388
 7995SOL    HW124884   4.329   5.371   3.464
 7995SOL    HW224885   4.324   5.316   3.310
 7996SOL     OW24886   4.418   1.149   5.230
 7996SOL    HW124887   4.454   1.190   5.146
 7996SOL    HW224888   4.494   1.112   5.284
 7997SOL     OW24889   5.303   2.706   2.402
 7997SOL    HW124890   5.300   2.705   2.501
 7997SOL    HW224891   5.389   2.748   2.372
 7998SOL     OW24892   6.178   4.729   6.416
 7998SOL    HW124893   6.176   4.738   6.516
 7998SOL    HW224894   6.085   4.727   6.381
 7999SOL     OW24895   1.940   0.740   5.675
 7999SOL    HW124896   1.865   0.682   5.707
 7999SOL    HW224897   1.918   0.775   5.584
 8000SOL     OW24898   5.290   0.392   5.759
 8000SOL    HW124899   5.290   0.302   5.715
 8000SOL    HW224900   5.199   0.413   5.792
 8001SOL     OW24901   2.358   5.532   1.002
 8001SOL    HW124902   2.303   5.458   1.042
 8001SOL    HW224903   2.303   5.584   0.938
 8002SOL     OW24904   4.972   2.361   5.478
 8002SOL    HW124905   5.000   2.433   5.415
 8002SOL    HW224906   4.937   2.402   5.562
 8003SOL     OW24907   4.103   6.170   3.622
 8003SOL    HW124908   4.148   6.161   3.533
 8003SOL    HW224909   4.063   6.083   3.648
 8004SOL     OW24910   1.186   4.252   2.823
 8004SOL    HW124911   1.093   4.278   2.850
 8004SOL    HW224912   1.191   4.243   2.724
 8005SOL     OW24913   2.001   0.725   2.200
 8005SOL    HW124914   2.002   0.784   2.119
 8005SOL    HW224915   1.984   0.630   2.171
 8006SOL     OW24916   3.458   6.512   2.011
 8006SOL    HW124917   3.393   6.444   2.044
 8006SOL    HW224918   3.442   6.531   1.915
 8007SOL     OW24919   0.635   1.188   3.951
 8007SOL    HW124920   0.548   1.185   3.903
 8007SOL    HW224921   0.621   1.170   4.048
 8008SOL     OW24922   5.846   5.431   0.771
 8008SOL    HW124923   5.836   5.434   0.671
 8008SOL    HW224924   5.786   5.500   0.812
 8009SOL     OW24925   6.965   0.019   4.275
 8009SOL    HW124926   6.992   6.945   4.257
 8009SOL    HW224927   6.867   0.023   4.291
 8010SOL     OW24928   1.899   2.847   6.741
 8010SOL    HW124929   1.833   2.784   6.781
 8010SOL    HW224930   1.852   2.929   6.710
 8011SOL     OW24931   2.179   2.467   0.404
 8011SOL    HW124932   2.106   2.527   0.434
 8011SOL    HW224933   2.234   2.439   0.483
 8012SOL     OW24934   2.926   0.275   3.395
 8012SOL    HW124935   2.972   0.214   3.459
 8012SOL    HW224936   2.900   0.360   3.441
 8013SOL     OW24937   5.736   5.639   4.769
 8013SOL    HW124938   5.784   5.695   4.702
 8013SOL    HW224939   5.653   5.686   4.799
 8014SOL     OW24940   2.156   6.974   0.161
 8014SOL    HW124941   2.160   6.884   0.117
 8014SOL    HW224942   2.084   0.008   0.118
 8015SOL     OW24943   1.700   2.023   5.738
 8015SOL    HW124944   1.751   2.078   5.672
 8015SOL    HW224945   1.763   1.988   5.808
 8016SOL     OW24946   4.114   5.959   1.999
 8016SOL    HW124947   4.030   6.012   2.004
 8016SOL    HW224948   4.186   6.006   2.050
 8017SOL     OW24949   6.171   3.175   5.604
 8017SOL    HW124950   6.233   3.253   5.599
 8017SOL    HW224951   6.223   3.090   5.598
 8018SOL     OW24952   5.832   2.671   4.894
 8018SOL    HW124953   5.748   2.688   4.945
 8018SOL    HW224954   5.845   2.743   4.827
 8019SOL     OW24955   2.057   5.109   1.266
 8019SOL    HW124956   1.984   5.137   1.328
 8019SOL    HW224957   2.092   5.188   1.217
 8020SOL     OW24958   5.965   6.362   6.553
 8020SOL    HW124959   5.946   6.442   6.495
 8020SOL    HW224960   5.878   6.321   6.582
 8021SOL     OW24961   6.967   0.874   0.628
 8021SOL    HW124962   6.915   0.949   0.586
 8021SOL    HW224963   0.037   0.907   0.654
 8022SOL     OW24964   4.612   5.204   3.446
 8022SOL    HW124965   4.565   5.201   3.358
 8022SOL    HW224966   4.711   5.205   3.432
 8023SOL     OW24967   6.874   6.236   3.184
 8023SOL    HW124968   6.782   6.226   3.146
 8023SOL    HW224969   6.896   6.157   3.241
 8024SOL     OW24970   5.059   5.817   5.009
 8024SOL    HW124971   5.119   5.738   5.012
 8024SOL    HW224972   4.971   5.792   4.968
 8025SOL     OW24973   2.871   5.784   0.683
 8025SOL    HW124974   2.828   5.847   0.747
 8025SOL    HW224975   2.846   5.809   0.590
 8026SOL     OW24976   2.575   3.151   0.217
 8026SOL    HW124977   2.671   3.135   0.242
 8026SOL    HW224978   2.571   3.200   0.130
 8027SOL     OW24979   4.682   3.681   5.803
 8027SOL    HW124980   4.608   3.636   5.754
 8027SOL    HW224981   4.757   3.702   5.740
 8028SOL     OW24982   5.268   5.609   0.775
 8028SOL    HW124983   5.323   5.690   0.758
 8028SOL    HW224984   5.282   5.578   0.869
 8029SOL     OW24985   2.918   4.099   0.043
 8029SOL    HW124986   2.984   4.033   0.080
 8029SOL    HW224987   2.853   4.052   7.005
 8030SOL     OW24988   6.182   3.462   0.680
 8030SOL    HW124989   6.175   3.367   0.647
 8030SOL    HW224990   6.236   3.516   0.616
 8031SOL     OW24991   3.610   6.558   1.279
 8031SOL    HW124992   3.562   6.606   1.206
 8031SOL    HW224993   3.707   6.583   1.278
 8032SOL     OW24994   5.007   4.850   5.703
 8032SOL    HW124995   4.968   4.810   5.786
 8032SOL    HW224996   5.032   4.945   5.720
 8033SOL     OW24997   6.299   2.113   0.651
 8033SOL    HW124998   6.278   2.148   0.742
 8033SOL    HW224999   6.244   2.161   0.583
 8034SOL     OW25000   6.751   1.664   5.039
 8034SOL    HW125001   6.691   1.628   5.111
 8034SOL    HW225002   6.835   1.610   5.035
 8035SOL     OW25003   5.505   5.594   6.821
 8035SOL    HW125004   5.490   5.691   6.804
 8035SOL    HW225005   5.575   5.582   6.891
 8036SOL     OW25006   1.155   4.549   1.301
 8036SOL    HW125007   1.096   4.480   1.345
 8036SOL    HW225008   1.193   4.610   1.370
 8037SOL     OW25009   1.983   3.178   1.414
 8037SOL    HW125010   1.885   3.186   1.393
 8037SOL    HW225011   1.994   3.156   1.511
 8038SOL     OW25012   6.404   1.134   4.054
 8038SOL    HW125013   6.340   1.058   4.046
 8038SOL    HW225014   6.354   1.219   4.069
 8039SOL     OW25015   2.973   6.428   4.707
 8039SOL    HW125016   2.893   6.487   4.696
 8039SOL    HW225017   3.018   6.416   4.619
 8040SOL     OW25018   5.881   5.998   0.316
 8040SOL    HW125019   5.812   5.961   0.380
 8040SOL    HW225020   5.937   6.066   0.363
 8041SOL     OW25021   3.888   2.069   0.928
 8041SOL    HW125022   3.817   2.110   0.871
 8041SOL    HW225023   3.884   2.108   1.020
 8042SOL     OW25024   2.691   4.326   0.452
 8042SOL    HW125025   2.778   4.359   0.489
 8042SOL    HW225026   2.616   4.383   0.485
 8043SOL     OW25027   2.707   0.398   1.028
 8043SOL    HW125028   2.628   0.453   1.001
 8043SOL    HW225029   2.785   0.420   0.970
 8044SOL     OW25030   3.287   3.592   1.667
 8044SOL    HW125031   3.326   3.540   1.742
 8044SOL    HW225032   3.303   3.690   1.683
 8045SOL     OW25033   6.157   2.961   3.581
 8045SOL    HW125034   6.213   3.003   3.653
 8045SOL    HW225035   6.187   2.866   3.567
 8046SOL     OW25036   0.428   5.287   5.268
 8046SOL    HW125037   0.499   5.319   5.330
 8046SOL    HW225038   0.358   5.358   5.256
 8047SOL     OW25039   3.013   0.004   4.196
 8047SOL    HW125040   2.916   7.015   4.176
 8047SOL    HW225041   3.025   0.025   4.294
 8048SOL     OW25042   6.253   1.098   5.760
 8048SOL    HW125043   6.215   1.159   5.689
 8048SOL    HW225044   6.179   1.049   5.805
 8049SOL     OW25045   0.982   6.971   0.462
 8049SOL    HW125046   0.963   6.878   0.495
 8049SOL    HW225047   1.078   6.977   0.435
 8050SOL     OW25048   0.246   3.212   0.998
 8050SOL    HW125049   0.293   3.134   1.039
 8050SOL    HW225050   0.313   3.270   0.950
 8051SOL     OW25051   3.302   1.744   3.644
 8051SOL    HW125052   3.255   1.703   3.722
 8051SOL    HW225053   3.343   1.831   3.671
 8052SOL     OW25054   3.745   2.066   3.171
 8052SOL    HW125055   3.764   2.015   3.087
 8052SOL    HW225056   3.830   2.081   3.220
 8053SOL     OW25057   4.283   3.502   1.792
 8053SOL    HW125058   4.192   3.521   1.829
 8053SOL    HW225059   4.293   3.404   1.777
 8054SOL     OW25060   4.601   5.907   3.918
 8054SOL    HW125061   4.544   5.963   3.978
 8054SOL    HW225062   4.660   5.848   3.974
 8055SOL     OW25063   0.803   6.960   5.028
 8055SOL    HW125064   0.865   6.881   5.029
 8055SOL    HW225065   0.758   6.967   5.117
 8056SOL     OW25066   4.381   1.403   2.252
 8056SOL    HW125067   4.399   1.308   2.278
 8056SOL    HW225068   4.412   1.464   2.324
 8057SOL     OW25069   3.057   0.057   3.591
 8057SOL    HW125070   3.038   0.001   3.672
 8057SOL    HW225071   3.104   0.141   3.619
 8058SOL     OW25072   2.485   0.516   3.753
 8058SOL    HW125073   2.388   0.511   3.779
 8058SOL    HW225074   2.499   0.465   3.668
 8059SOL     OW25075   2.507   1.064   3.716
 8059SOL    HW125076   2.426   1.053   3.775
 8059SOL    HW225077   2.536   1.160   3.716
 8060SOL     OW25078   1.117   2.868   5.078
 8060SOL    HW125079   1.085   2.815   4.999
 8060SOL    HW225080   1.040   2.884   5.140
 8061SOL     OW25081   6.626   5.883   2.206
 8061SOL    HW125082   6.652   5.965   2.155
 8061SOL    HW225083   6.685   5.873   2.287
 8062SOL     OW25084   1.777   3.558   1.957
 8062SOL    HW125085   1.773   3.516   2.048
 8062SOL    HW225086   1.853   3.518   1.905
 8063SOL     OW25087   2.418   3.087   6.415
 8063SOL    HW125088   2.481   3.017   6.448
 8063SOL    HW225089   2.324   3.059   6.435
 8064SOL     OW25090   6.688   2.512   6.834
 8064SOL    HW125091   6.623   2.587   6.846
 8064SOL    HW225092   6.651   2.429   6.876
 8065SOL     OW25093   4.517   0.008   6.464
 8065SOL    HW125094   4.609   7.017   6.425
 8065SOL    HW225095   4.516   6.992   6.557
 8066SOL     OW25096   2.485   6.960   1.813
 8066SOL    HW125097   2.410   6.901   1.784
 8066SOL    HW225098   2.499   0.011   1.745
 8067SOL     OW25099   4.680   2.267   2.192
 8067SOL    HW125100   4.679   2.240   2.096
 8067SOL    HW225101   4.712   2.362   2.200
 8068SOL     OW25102   6.391   4.615   4.267
 8068SOL    HW125103   6.469   4.677   4.261
 8068SOL    HW225104   6.424   4.521   4.282
 8069SOL     OW25105   1.363   6.805   2.537
 8069SOL    HW125106   1.398   6.767   2.623
 8069SOL    HW225107   1.439   6.836   2.480
 8070SOL     OW25108   4.011   0.219   2.662
 8070SOL    HW125109   4.030   0.316   2.676
 8070SOL    HW225110   3.913   0.205   2.648
 8071SOL     OW25111   4.084   6.425   0.026
 8071SOL    HW125112   4.080   6.414   6.947
 8071SOL    HW225113   3.994   6.451   0.060
 8072SOL     OW25114   5.037   0.406   2.660
 8072SOL    HW125115   5.106   0.334   2.653
 8072SOL    HW225116   4.958   0.383   2.602
 8073SOL     OW25117   4.900   0.024   5.983
 8073SOL    HW125118   4.888   0.053   6.078
 8073SOL    HW225119   4.897   6.945   5.977
 8074SOL     OW25120   3.399   4.141   6.894
 8074SOL    HW125121   3.357   4.231   6.880
 8074SOL    HW225122   3.427   4.132   6.990
 8075SOL     OW25123   5.568   2.359   3.160
 8075SOL    HW125124   5.615   2.391   3.242
 8075SOL    HW225125   5.471   2.346   3.179
 8076SOL     OW25126   4.442   2.873   6.238
 8076SOL    HW125127   4.345   2.880   6.260
 8076SOL    HW225128   4.460   2.924   6.153
 8077SOL     OW25129   1.128   7.005   6.962
 8077SOL    HW125130   1.176   6.918   6.958
 8077SOL    HW225131   1.175   0.051   6.905
 8078SOL     OW25132   6.121   2.795   0.839
 8078SOL    HW125133   6.126   2.705   0.794
 8078SOL    HW225134   6.067   2.857   0.782
 8079SOL     OW25135   0.989   2.088   1.622
 8079SOL    HW125136   1.022   2.015   1.562
 8079SOL    HW225137   0.890   2.080   1.633
 8080SOL     OW25138   3.776   5.053   0.337
 8080SOL    HW125139   3.830   4.984   0.290
 8080SOL    HW225140   3.717   5.009   0.405
 8081SOL     OW25141   5.836   1.897   5.241
 8081SOL    HW125142   5.871   1.969   5.300
 8081SOL    HW225143   5.851   1.921   5.146
 8082SOL     OW25144   6.567   3.557   4.546
 8082SOL    HW125145   6.502   3.546   4.621
 8082SOL    HW225146   6.551   3.645   4.500
 8083SOL     OW25147   6.223   2.273   4.912
 8083SOL    HW125148   6.144   2.319   4.953
 8083SOL    HW225149   6.266   2.333   4.845
 8084SOL     OW25150   6.656   0.241   0.726
 8084SOL    HW125151   6.572   0.295   0.721
 8084SOL    HW225152   6.735   0.302   0.720
 8085SOL     OW25153   5.800   2.206   0.779
 8085SOL    HW125154   5.738   2.279   0.810
 8085SOL    HW225155   5.883   2.207   0.835
 8086SOL     OW25156   2.394   6.173   5.872
 8086SOL    HW125157   2.491   6.188   5.891
 8086SOL    HW225158   2.371   6.211   5.782
 8087SOL     OW25159   2.964   4.244   0.572
 8087SOL    HW125160   3.059   4.260   0.543
 8087SOL    HW225161   2.914   4.202   0.497
 8088SOL     OW25162   4.428   0.593   2.738
 8088SOL    HW125163   4.518   0.550   2.747
 8088SOL    HW225164   4.385   0.563   2.653
 8089SOL     OW25165   6.298   2.687   0.568
 8089SOL    HW125166   6.211   2.669   0.523
 8089SOL    HW225167   6.356   2.742   0.507
 8090SOL     OW25168   4.084   2.183   5.140
 8090SOL    HW125169   4.115   2.274   5.114
 8090SOL    HW225170   4.160   2.118   5.136
 8091SOL     OW25171   2.521   4.888   5.515
 8091SOL    HW125172   2.501   4.847   5.426
 8091SOL    HW225173   2.601   4.947   5.506
 8092SOL     OW25174   6.428   2.168   4.332
 8092SOL    HW125175   6.436   2.135   4.238
 8092SOL    HW225176   6.501   2.129   4.388
 8093SOL     OW25177   5.569   5.618   0.649
 8093SOL    HW125178   5.601   5.674   0.726
 8093SOL    HW225179   5.636   5.546   0.631
 8094SOL     OW25180   0.625   3.671   4.445
 8094SOL    HW125181   0.578   3.649   4.360
 8094SOL    HW225182   0.588   3.614   4.519
 8095SOL     OW25183   5.960   3.242   5.336
 8095SOL    HW125184   5.929   3.238   5.432
 8095SOL    HW225185   5.967   3.338   5.308
 8096SOL     OW25186   3.824   0.944   0.639
 8096SOL    HW125187   3.801   0.983   0.550
 8096SOL    HW225188   3.816   1.015   0.709
 8097SOL     OW25189   4.712   1.461   4.245
 8097SOL    HW125190   4.764   1.391   4.294
 8097SOL    HW225191   4.764   1.491   4.165
 8098SOL     OW25192   2.346   1.191   4.178
 8098SOL    HW125193   2.382   1.230   4.263
 8098SOL    HW225194   2.388   1.237   4.100
 8099SOL     OW25195   4.356   6.092   5.117
 8099SOL    HW125196   4.381   6.147   5.197
 8099SOL    HW225197   4.332   6.000   5.147
 8100SOL     OW25198   6.880   6.317   0.801
 8100SOL    HW125199   6.888   6.255   0.879
 8100SOL    HW225200   6.839   6.267   0.724
 8101SOL     OW25201   0.545   4.894   2.421
 8101SOL    HW125202   0.460   4.906   2.471
 8101SOL    HW225203   0.620   4.877   2.486
 8102SOL     OW25204   6.441   0.577   5.792
 8102SOL    HW125205   6.430   0.569   5.891
 8102SOL    HW225206   6.499   0.502   5.759
 8103SOL     OW25207   2.045   2.153   2.046
 8103SOL    HW125208   2.017   2.080   2.109
 8103SOL    HW225209   2.031   2.123   1.952
 8104SOL     OW25210   3.130   6.637   5.881
 8104SOL    HW125211   3.058   6.657   5.947
 8104SOL    HW225212   3.147   6.538   5.879
 8105SOL     OW25213   2.214   2.970   2.840
 8105SOL    HW125214   2.294   2.993   2.895
 8105SOL    HW225215   2.186   2.876   2.861
 8106SOL     OW25216   0.015   3.894   5.575
 8106SOL    HW125217   6.996   3.912   5.665
 8106SOL    HW225218   6.997   3.810   5.537
 8107SOL     OW25219   1.031   5.290   6.735
 8107SOL    HW125220   1.064   5.277   6.642
 8107SOL    HW225221   0.934   5.266   6.740
 8108SOL     OW25222   2.187   3.633   5.106
 8108SOL    HW125223   2.213   3.553   5.052
 8108SOL    HW225224   2.122   3.606   5.176
 8109SOL     OW25225   1.301   5.559   5.101
 8109SOL    HW125226   1.210   5.526   5.125
 8109SOL    HW225227   1.316   5.545   5.003
 8110SOL     OW25228   1.390   4.417   0.877
 8110SOL    HW125229   1.449   4.487   0.839
 8110SOL    HW225230   1.443   4.332   0.888
 8111SOL     OW25231   3.254   5.764   4.327
 8111SOL    HW125232   3.295   5.805   4.246
 8111SOL    HW225233   3.168   5.719   4.302
 8112SOL     OW25234   4.636   1.056   4.471
 8112SOL    HW125235   4.614   1.015   4.383
 8112SOL    HW225236   4.554   1.055   4.529
 8113SOL     OW25237   3.299   2.964   5.708
 8113SOL    HW125238   3.355   2.924   5.636
 8113SOL    HW225239   3.329   3.058   5.726
 8114SOL     OW25240   3.169   3.343   2.101
 8114SOL    HW125241   3.148   3.441   2.106
 8114SOL    HW225242   3.093   3.291   2.140
 8115SOL     OW25243   3.542   2.521   1.434
 8115SOL    HW125244   3.493   2.571   1.505
 8115SOL    HW225245   3.577   2.585   1.366
 8116SOL     OW25246   4.885   1.332   5.123
 8116SOL    HW125247   4.981   1.358   5.132
 8116SOL    HW225248   4.856   1.286   5.207
 8117SOL     OW25249   2.706   1.664   5.745
 8117SOL    HW125250   2.608   1.674   5.726
 8117SOL    HW225251   2.751   1.753   5.739
 8118SOL     OW25252   1.469   2.524   4.240
 8118SOL    HW125253   1.389   2.465   4.230
 8118SOL    HW225254   1.513   2.536   4.151
 8119SOL     OW25255   0.952   6.379   1.636
 8119SOL    HW125256   1.006   6.456   1.602
 8119SOL    HW225257   1.012   6.301   1.653
 8120SOL     OW25258   4.786   4.184   2.133
 8120SOL    HW125259   4.778   4.088   2.158
 8120SOL    HW225260   4.698   4.217   2.099
 8121SOL     OW25261   6.633   6.173   3.110
 8121SOL    HW125262   6.621   6.074   3.115
 8121SOL    HW225263   6.574   6.209   3.038
 8122SOL     OW25264   0.255   5.440   1.267
 8122SOL    HW125265   0.187   5.401   1.329
 8122SOL    HW225266   0.345   5.436   1.310
 8123SOL     OW25267   1.066   5.084   0.223
 8123SOL    HW125268   1.157   5.105   0.258
 8123SOL    HW225269   1.060   5.113   0.127
 8124SOL     OW25270   1.447   6.233   3.376
 8124SOL    HW125271   1.370   6.248   3.315
 8124SOL    HW225272   1.440   6.295   3.454
 8125SOL     OW25273   5.863   5.117   3.279
 8125SOL    HW125274   5.877   5.060   3.360
 8125SOL    HW225275   5.767   5.144   3.274
 8126SOL     OW25276   6.818   4.154   2.683
 8126SOL    HW125277   6.813   4.157   2.583
 8126SOL    HW225278   6.771   4.073   2.716
 8127SOL     OW25279   4.108   5.376   1.646
 8127SOL    HW125280   4.203   5.386   1.674
 8127SOL    HW225281   4.057   5.331   1.719
 8128SOL     OW25282   3.614   2.104   5.693
 8128SOL    HW125283   3.518   2.081   5.707
 8128SOL    HW225284   3.668   2.067   5.769
 8129SOL     OW25285   5.164   6.021   6.386
 8129SOL    HW125286   5.176   5.926   6.415
 8129SOL    HW225287   5.136   6.023   6.290
 8130SOL     OW25288   0.419   0.087   6.720
 8130SOL    HW125289   0.473   0.025   6.777
 8130SOL    HW225290   0.414   0.051   6.627
 8131SOL     OW25291   2.085   1.187   0.652
 8131SOL    HW125292   2.121   1.169   0.743
 8131SOL    HW225293   2.080   1.101   0.600
 8132SOL     OW25294   5.826   4.528   3.111
 8132SOL    HW125295   5.894   4.459   3.136
 8132SOL    HW225296   5.792   4.511   3.019
 8133SOL     OW25297   0.583   6.047   1.985
 8133SOL    HW125298   0.661   6.014   1.932
 8133SOL    HW225299   0.508   6.072   1.924
 8134SOL     OW25300   1.775   2.711   2.138
 8134SOL    HW125301   1.784   2.807   2.113
 8134SOL    HW225302   1.847   2.657   2.093
 8135SOL     OW25303   4.015   6.305   2.666
 8135SOL    HW125304   4.052   6.229   2.720
 8135SOL    HW225305   3.939   6.273   2.611
 8136SOL     OW25306   2.129   6.001   1.486
 8136SOL    HW125307   2.188   6.069   1.529
 8136SOL    HW225308   2.162   5.909   1.508
 8137SOL     OW25309   3.257   3.547   5.081
 8137SOL    HW125310   3.168   3.533   5.037
 8137SOL    HW225311   3.307   3.620   5.034
 8138SOL     OW25312   4.666   1.190   3.090
 8138SOL    HW125313   4.677   1.222   3.185
 8138SOL    HW225314   4.751   1.146   3.060
 8139SOL     OW25315   1.189   3.313   5.273
 8139SOL    HW125316   1.152   3.369   5.199
 8139SOL    HW225317   1.183   3.216   5.247
 8140SOL     OW25318   4.349   0.708   0.858
 8140SOL    HW125319   4.318   0.655   0.937
 8140SOL    HW225320   4.361   0.647   0.780
 8141SOL     OW25321   5.790   0.443   5.839
 8141SOL    HW125322   5.820   0.530   5.879
 8141SOL    HW225323   5.690   0.438   5.843
 8142SOL     OW25324   2.498   5.728   0.750
 8142SOL    HW125325   2.494   5.826   0.770
 8142SOL    HW225326   2.579   5.688   0.793
 8143SOL     OW25327   6.186   4.519   0.397
 8143SOL    HW125328   6.231   4.606   0.416
 8143SOL    HW225329   6.111   4.505   0.463
 8144SOL     OW25330   1.088   5.820   6.893
 8144SOL    HW125331   1.038   5.749   6.844
 8144SOL    HW225332   1.115   5.785   6.983
 8145SOL     OW25333   5.204   5.590   6.584
 8145SOL    HW125334   5.215   5.496   6.552
 8145SOL    HW225335   5.186   5.589   6.682
 8146SOL     OW25336   6.794   6.053   4.779
 8146SOL    HW125337   6.756   5.960   4.776
 8146SOL    HW225338   6.724   6.117   4.809
 8147SOL     OW25339   2.233   0.727   5.307
 8147SOL    HW125340   2.282   0.759   5.226
 8147SOL    HW225341   2.263   0.781   5.386
 8148SOL     OW25342   4.979   4.309   0.629
 8148SOL    HW125343   4.944   4.225   0.670
 8148SOL    HW225344   5.079   4.304   0.622
 8149SOL     OW25345   1.627   0.082   5.153
 8149SOL    HW125346   1.664   0.015   5.088
 8149SOL    HW225347   1.537   0.113   5.122
 8150SOL     OW25348   0.600   3.886   0.226
 8150SOL    HW125349   0.641   3.797   0.207
 8150SOL    HW225350   0.654   3.933   0.296
 8151SOL     OW25351   6.612   5.248   3.070
 8151SOL    HW125352   6.515   5.236   3.090
 8151SOL    HW225353   6.641   5.181   3.002
 8152SOL     OW25354   5.557   1.595   2.886
 8152SOL    HW125355   5.598   1.598   2.795
 8152SOL    HW225356   5.552   1.687   2.924
 8153SOL     OW25357   0.106   1.916   1.647
 8153SOL    HW125358   0.160   1.833   1.665
 8153SOL    HW225359   0.063   1.908   1.556
 8154SOL     OW25360   1.269   0.719   2.916
 8154SOL    HW125361   1.241   0.809   2.883
 8154SOL    HW225362   1.187   0.667   2.944
 8155SOL     OW25363   1.547   5.277   4.156
 8155SOL    HW125364   1.502   5.215   4.220
 8155SOL    HW225365   1.610   5.336   4.206
 8156SOL     OW25366   1.285   3.976   0.669
 8156SOL    HW125367   1.282   3.883   0.708
 8156SOL    HW225368   1.353   3.980   0.597
 8157SOL     OW25369   6.331   4.716   5.020
 8157SOL    HW125370   6.273   4.646   5.062
 8157SOL    HW225371   6.388   4.674   4.950
 8158SOL     OW25372   5.988   5.001   6.177
 8158SOL    HW125373   6.076   5.043   6.155
 8158SOL    HW225374   6.003   4.909   6.212
 8159SOL     OW25375   2.603   0.216   4.877
 8159SOL    HW125376   2.549   0.260   4.949
 8159SOL    HW225377   2.595   0.269   4.792
 8160SOL     OW25378   5.683   1.616   2.621
 8160SOL    HW125379   5.696   1.548   2.550
 8160SOL    HW225380   5.770   1.662   2.640
 8161SOL     OW25381   6.162   2.593   2.100
 8161SOL    HW125382   6.234   2.653   2.066
 8161SOL    HW225383   6.134   2.529   2.027
 8162SOL     OW25384   1.059   5.905   5.165
 8162SOL    HW125385   1.086   5.859   5.250
 8162SOL    HW225386   1.116   5.872   5.090
 8163SOL     OW25387   3.802   4.678   5.315
 8163SOL    HW125388   3.727   4.722   5.365
 8163SOL    HW225389   3.844   4.744   5.252
 8164SOL     OW25390   5.181   1.935   0.754
 8164SOL    HW125391   5.280   1.945   0.754
 8164SOL    HW225392   5.150   1.918   0.848
 8165SOL     OW25393   0.453   1.613   5.755
 8165SOL    HW125394   0.512   1.690   5.774
 8165SOL    HW225395   0.487   1.531   5.802
 8166SOL     OW25396   2.227   1.898   4.903
 8166SOL    HW125397   2.150   1.959   4.923
 8166SOL    HW225398   2.227   1.822   4.968
 8167SOL     OW25399   2.016   2.725   3.527
 8167SOL    HW125400   2.048   2.640   3.568
 8167SOL    HW225401   2.093   2.787   3.514
 8168SOL     OW25402   1.787   6.779   2.522
 8168SOL    HW125403   1.750   6.693   2.490
 8168SOL    HW225404   1.873   6.762   2.571
 8169SOL     OW25405   4.576   3.358   1.220
 8169SOL    HW125406   4.570   3.445   1.267
 8169SOL    HW225407   4.562   3.283   1.285
 8170SOL     OW25408   6.991   4.386   2.736
 8170SOL    HW125409   6.910   4.334   2.762
 8170SOL    HW225410   6.992   4.398   2.636
 8171SOL     OW25411   2.461   1.842   1.284
 8171SOL    HW125412   2.495   1.928   1.247
 8171SOL    HW225413   2.399   1.860   1.361
 8172SOL     OW25414   1.262   3.386   1.338
 8172SOL    HW125415   1.343   3.327   1.347
 8172SOL    HW225416   1.271   3.464   1.399
 8173SOL     OW25417   6.031   0.607   1.785
 8173SOL    HW125418   5.980   0.574   1.706
 8173SOL    HW225419   6.066   0.699   1.767
 8174SOL     OW25420   2.271   6.635   3.701
 8174SOL    HW125421   2.229   6.606   3.787
 8174SOL    HW225422   2.368   6.655   3.716
 8175SOL     OW25423   0.453   2.476   5.533
 8175SOL    HW125424   0.462   2.442   5.439
 8175SOL    HW225425   0.359   2.462   5.565
 8176SOL     OW25426   2.738   4.763   0.592
 8176SOL    HW125427   2.655   4.706   0.598
 8176SOL    HW225428   2.811   4.719   0.644
 8177SOL     OW25429   2.629   1.204   2.964
 8177SOL    HW125430   2.544   1.238   3.003
 8177SOL    HW225431   2.704   1.220   3.027
 8178SOL     OW25432   2.055   6.598   0.962
 8178SOL    HW125433   2.018   6.587   1.054
 8178SOL    HW225434   1.983   6.584   0.895
 8179SOL     OW25435   5.606   0.178   3.458
 8179SOL    HW125436   5.647   0.263   3.489
 8179SOL    HW225437   5.599   0.114   3.535
 8180SOL     OW25438   4.827   5.651   0.504
 8180SOL    HW125439   4.742   5.608   0.474
 8180SOL    HW225440   4.899   5.581   0.510
 8181SOL     OW25441   6.469   0.485   6.485
 8181SOL    HW125442   6.442   0.564   6.539
 8181SOL    HW225443   6.504   0.515   6.397
 8182SOL     OW25444   3.480   3.706   3.152
 8182SOL    HW125445   3.539   3.645   3.101
 8182SOL    HW225446   3.462   3.789   3.098
 8183SOL     OW25447   6.592   0.392   5.650
 8183SOL    HW125448   6.683   0.374   5.687
 8183SOL    HW225449   6.549   0.306   5.623
 8184SOL     OW25450   6.926   5.635   5.613
 8184SOL    HW125451   6.839   5.640   5.564
 8184SOL    HW225452   6.993   5.586   5.558
 8185SOL     OW25453   0.275   5.722   5.308
 8185SOL    HW125454   0.373   5.737   5.307
 8185SOL    HW225455   0.247   5.694   5.400
 8186SOL     OW25456   1.468   5.298   0.564
 8186SOL    HW125457   1.559   5.260   0.578
 8186SOL    HW225458   1.399   5.229   0.586
 8187SOL     OW25459   1.754   6.912   4.762
 8187SOL    HW125460   1.663   6.879   4.737
 8187SOL    HW225461   1.804   6.939   4.680
 8188SOL     OW25462   2.044   3.477   2.686
 8188SOL    HW125463   2.062   3.380   2.704
 8188SOL    HW225464   2.091   3.533   2.754
 8189SOL     OW25465   5.972   5.022   4.053
 8189SOL    HW125466   5.877   4.999   4.033
 8189SOL    HW225467   5.989   5.013   4.151
 8190SOL     OW25468   6.525   3.742   2.936
 8190SOL    HW125469   6.432   3.706   2.941
 8190SOL    HW225470   6.567   3.739   3.026
 8191SOL     OW25471   3.908   4.597   0.754
 8191SOL    HW125472   4.000   4.592   0.715
 8191SOL    HW225473   3.911   4.562   0.848
 8192SOL     OW25474   0.693   6.152   3.618
 8192SOL    HW125475   0.739   6.172   3.532
 8192SOL    HW225476   0.659   6.237   3.658
 8193SOL     OW25477   0.677   4.827   3.666
 8193SOL    HW125478   0.658   4.841   3.763
 8193SOL    HW225479   0.662   4.731   3.643
 8194SOL     OW25480   4.689   0.550   1.281
 8194SOL    HW125481   4.726   0.499   1.358
 8194SOL    HW225482   4.755   0.619   1.252
 8195SOL     OW25483   6.252   0.185   4.090
 8195SOL    HW125484   6.274   0.194   3.993
 8195SOL    HW225485   6.163   0.140   4.099
 8196SOL     OW25486   5.024   1.342   2.181
 8196SOL    HW125487   5.001   1.290   2.263
 8196SOL    HW225488   5.054   1.279   2.109
 8197SOL     OW25489   4.132   1.932   3.476
 8197SOL    HW125490   4.221   1.892   3.455
 8197SOL    HW225491   4.100   1.986   3.398
 8198SOL     OW25492   1.429   5.824   1.492
 8198SOL    HW125493   1.495   5.763   1.447
 8198SOL    HW225494   1.444   5.822   1.591
 8199SOL     OW25495   5.872   2.229   0.303
 8199SOL    HW125496   5.813   2.250   0.381
 8199SOL    HW225497   5.817   2.227   0.219
 8200SOL     OW25498   4.965   3.731   0.875
 8200SOL    HW125499   4.910   3.797   0.925
 8200SOL    HW225500   5.005   3.665   0.938
 8201SOL     OW25501   5.664   6.742   5.179
 8201SOL    HW125502   5.720   6.735   5.261
 8201SOL    HW225503   5.624   6.833   5.173
 8202SOL     OW25504   1.215   6.277   1.692
 8202SOL    HW125505   1.196   6.207   1.624
 8202SOL    HW225506   1.217   6.367   1.648
 8203SOL     OW25507   2.072   3.596   1.311
 8203SOL    HW125508   2.145   3.646   1.357
 8203SOL    HW225509   2.000   3.574   1.377
 8204SOL     OW25510   1.999   3.247   0.616
 8204SOL    HW125511   2.032   3.153   0.627
 8204SOL    HW225512   2.034   3.303   0.690
 8205SOL     OW25513   0.767   4.257   6.681
 8205SOL    HW125514   0.802   4.350   6.689
 8205SOL    HW225515   0.842   4.194   6.662
 8206SOL     OW25516   3.050   1.611   1.400
 8206SOL    HW125517   3.109   1.658   1.466
 8206SOL    HW225518   2.967   1.579   1.445
 8207SOL     OW25519   3.992   3.886   3.847
 8207SOL    HW125520   3.994   3.959   3.915
 8207SOL    HW225521   4.034   3.804   3.885
 8208SOL     OW25522   2.066   0.458   0.062
 8208SOL    HW125523   2.119   0.529   0.108
 8208SOL    HW225524   2.035   0.391   0.129
 8209SOL     OW25525   5.989   1.450   4.969
 8209SOL    HW125526   5.894   1.480   4.964
 8209SOL    HW225527   6.041   1.492   4.894
 8210SOL     OW25528   2.211   2.676   6.212
 8210SOL    HW125529   2.201   2.601   6.146
 8210SOL    HW225530   2.159   2.755   6.182
 8211SOL     OW25531   4.494   4.677   1.224
 8211SOL    HW125532   4.522   4.650   1.132
 8211SOL    HW225533   4.484   4.596   1.281
 8212SOL     OW25534   2.120   2.496   3.227
 8212SOL    HW125535   2.177   2.578   3.223
 8212SOL    HW225536   2.134   2.450   3.314
 8213SOL     OW25537   6.117   4.389   1.387
 8213SOL    HW125538   6.078   4.480   1.387
 8213SOL    HW225539   6.170   4.375   1.471
 8214SOL     OW25540   5.367   3.421   2.646
 8214SOL    HW125541   5.277   3.410   2.604
 8214SOL    HW225542   5.356   3.456   2.739
 8215SOL     OW25543   3.162   5.320   2.834
 8215SOL    HW125544   3.246   5.374   2.835
 8215SOL    HW225545   3.160   5.262   2.753
 8216SOL     OW25546   5.486   3.309   3.669
 8216SOL    HW125547   5.445   3.400   3.665
 8216SOL    HW225548   5.563   3.310   3.732
 8217SOL     OW25549   1.999   6.295   1.002
 8217SOL    HW125550   1.993   6.392   1.024
 8217SOL    HW225551   2.037   6.284   0.910
 8218SOL     OW25552   6.028   2.449   0.206
 8218SOL    HW125553   5.982   2.363   0.228
 8218SOL    HW225554   6.029   2.462   0.107
 8219SOL     OW25555   5.391   1.646   6.752
 8219SOL    HW125556   5.444   1.562   6.743
 8219SOL    HW225557   5.427   1.702   6.826
 8220SOL     OW25558   4.063   3.757   1.721
 8220SOL    HW125559   4.020   3.705   1.794
 8220SOL    HW225560   4.067   3.854   1.747
 8221SOL     OW25561   5.006   4.413   2.868
 8221SOL    HW125562   4.963   4.481   2.928
 8221SOL    HW225563   4.935   4.367   2.814
 8222SOL     OW25564   6.375   1.529   2.578
 8222SOL    HW125565   6.343   1.499   2.668
 8222SOL    HW225566   6.452   1.592   2.589
 8223SOL     OW25567   6.755   5.095   5.931
 8223SOL    HW125568   6.673   5.113   5.985
 8223SOL    HW225569   6.795   5.008   5.960
 8224SOL     OW25570   1.037   3.686   2.887
 8224SOL    HW125571   1.027   3.757   2.818
 8224SOL    HW225572   0.947   3.663   2.925
 8225SOL     OW25573   4.593   0.929   0.429
 8225SOL    HW125574   4.636   0.839   0.419
 8225SOL    HW225575   4.647   0.997   0.380
 8226SOL     OW25576   3.967   0.424   0.579
 8226SOL    HW125577   3.876   0.385   0.591
 8226SOL    HW225578   3.968   0.519   0.611
 8227SOL     OW25579   5.759   3.701   2.838
 8227SOL    HW125580   5.700   3.780   2.819
 8227SOL    HW225581   5.728   3.622   2.786
 8228SOL     OW25582   0.148   1.863   4.618
 8228SOL    HW125583   0.078   1.840   4.685
 8228SOL    HW225584   0.126   1.950   4.575
 8229SOL     OW25585   3.893   5.476   0.921
 8229SOL    HW125586   3.909   5.556   0.864
 8229SOL    HW225587   3.933   5.490   1.011
 8230SOL     OW25588   4.904   0.118   4.132
 8230SOL    HW125589   4.851   0.166   4.062
 8230SOL    HW225590   4.867   0.141   4.222
 8231SOL     OW25591   4.037   5.909   1.652
 8231SOL    HW125592   4.129   5.889   1.618
 8231SOL    HW225593   3.996   5.982   1.597
 8232SOL     OW25594   2.279   1.614   6.588
 8232SOL    HW125595   2.301   1.582   6.496
 8232SOL    HW225596   2.257   1.535   6.646
 8233SOL     OW25597   0.209   4.881   6.127
 8233SOL    HW125598   0.309   4.883   6.126
 8233SOL    HW225599   0.174   4.971   6.152
 8234SOL     OW25600   3.096   3.590   0.324
 8234SOL    HW125601   3.063   3.511   0.376
 8234SOL    HW225602   3.145   3.559   0.243
 8235SOL     OW25603   4.550   2.671   0.044
 8235SOL    HW125604   4.624   2.724   0.084
 8235SOL    HW225605   4.584   2.580   0.018
 8236SOL     OW25606   5.657   2.402   0.883
 8236SOL    HW125607   5.560   2.420   0.897
 8236SOL    HW225608   5.701   2.483   0.843
 8237SOL     OW25609   4.073   6.323   5.613
 8237SOL    HW125610   4.059   6.270   5.696
 8237SOL    HW225611   3.987   6.327   5.561
 8238SOL     OW25612   1.964   0.744   0.229
 8238SOL    HW125613   2.063   0.740   0.220
 8238SOL    HW225614   1.937   0.835   0.262
 8239SOL     OW25615   6.812   1.232   6.605
 8239SOL    HW125616   6.781   1.258   6.696
 8239SOL    HW225617   6.877   1.300   6.572
 8240SOL     OW25618   4.077   3.260   3.439
 8240SOL    HW125619   4.131   3.176   3.447
 8240SOL    HW225620   3.982   3.237   3.422
 8241SOL     OW25621   4.473   6.445   1.641
 8241SOL    HW125622   4.521   6.363   1.673
 8241SOL    HW225623   4.527   6.489   1.569
 8242SOL     OW25624   1.024   3.739   5.521
 8242SOL    HW125625   1.056   3.645   5.535
 8242SOL    HW225626   0.947   3.739   5.457
 8243SOL     OW25627   0.960   3.576   4.906
 8243SOL    HW125628   0.993   3.566   5.000
 8243SOL    HW225629   1.036   3.597   4.845
 8244SOL     OW25630   1.674   5.478   4.602
 8244SOL    HW125631   1.577   5.478   4.576
 8244SOL    HW225632   1.699   5.569   4.635
 8245SOL     OW25633   3.770   3.617   0.615
 8245SOL    HW125634   3.713   3.596   0.694
 8245SOL    HW225635   3.753   3.550   0.542
 8246SOL     OW25636   4.890   3.888   5.355
 8246SOL    HW125637   4.906   3.844   5.267
 8246SOL    HW225638   4.812   3.845   5.401
 8247SOL     OW25639   1.124   6.835   1.614
 8247SOL    HW125640   1.184   6.837   1.693
 8247SOL    HW225641   1.049   6.900   1.627
 8248SOL     OW25642   0.274   4.643   3.463
 8248SOL    HW125643   0.284   4.622   3.561
 8248SOL    HW225644   0.194   4.700   3.450
 8249SOL     OW25645   1.654   5.661   3.213
 8249SOL    HW125646   1.600   5.735   3.254
 8249SOL    HW225647   1.675   5.685   3.118
 8250SOL     OW25648   3.993   3.741   2.013
 8250SOL    HW125649   3.999   3.834   1.978
 8250SOL    HW225650   3.965   3.743   2.109
 8251SOL     OW25651   6.105   1.457   5.238
 8251SOL    HW125652   6.183   1.404   5.272
 8251SOL    HW225653   6.098   1.447   5.139
 8252SOL     OW25654   1.307   3.830   4.017
 8252SOL    HW125655   1.320   3.845   4.115
 8252SOL    HW225656   1.382   3.774   3.981
 8253SOL     OW25657   2.648   2.786   5.313
 8253SOL    HW125658   2.744   2.810   5.325
 8253SOL    HW225659   2.599   2.863   5.272
 8254SOL     OW25660   4.299   5.695   3.391
 8254SOL    HW125661   4.220   5.671   3.448
 8254SOL    HW225662   4.372   5.628   3.405
 8255SOL     OW25663   3.934   4.826   3.792
 8255SOL    HW125664   3.984   4.813   3.706
 8255SOL    HW225665   3.972   4.766   3.862
 8256SOL     OW25666   6.233   2.484   4.217
 8256SOL    HW125667   6.267   2.487   4.311
 8256SOL    HW225668   6.256   2.569   4.171
 8257SOL     OW25669   6.266   4.320   5.071
 8257SOL    HW125670   6.221   4.402   5.105
 8257SOL    HW225671   6.336   4.346   5.004
 8258SOL     OW25672   4.927   1.296   0.190
 8258SOL    HW125673   5.002   1.278   0.253
 8258SOL    HW225674   4.900   1.393   0.197
 8259SOL     OW25675   3.983   1.122   1.481
 8259SOL    HW125676   3.949   1.037   1.522
 8259SOL    HW225677   4.078   1.137   1.507
 8260SOL     OW25678   2.661   5.962   0.510
 8260SOL    HW125679   2.680   6.049   0.557
 8260SOL    HW225680   2.717   5.956   0.428
 8261SOL     OW25681   5.242   0.959   1.800
 8261SOL    HW125682   5.144   0.940   1.813
 8261SOL    HW225683   5.256   1.057   1.790
 8262SOL     OW25684   0.954   2.098   0.440
 8262SOL    HW125685   1.010   2.173   0.404
 8262SOL    HW225686   0.999   2.059   0.520
 8263SOL     OW25687   6.074   1.458   0.518
 8263SOL    HW125688   6.050   1.551   0.491
 8263SOL    HW225689   6.035   1.439   0.608
 8264SOL     OW25690   1.736   4.452   2.546
 8264SOL    HW125691   1.637   4.439   2.536
 8264SOL    HW225692   1.769   4.400   2.624
 8265SOL     OW25693   1.706   1.011   2.356
 8265SOL    HW125694   1.790   0.961   2.377
 8265SOL    HW225695   1.643   0.952   2.305
 8266SOL     OW25696   2.735   0.545   3.113
 8266SOL    HW125697   2.814   0.559   3.054
 8266SOL    HW225698   2.653   0.533   3.056
 8267SOL     OW25699   0.484   3.621   0.645
 8267SOL    HW125700   0.573   3.663   0.628
 8267SOL    HW225701   0.480   3.533   0.598
 8268SOL     OW25702   3.439   6.001   6.572
 8268SOL    HW125703   3.376   5.953   6.632
 8268SOL    HW225704   3.527   6.013   6.618
 8269SOL     OW25705   6.287   2.056   0.978
 8269SOL    HW125706   6.331   2.011   1.055
 8269SOL    HW225707   6.335   2.142   0.958
 8270SOL     OW25708   3.676   6.505   4.287
 8270SOL    HW125709   3.683   6.474   4.382
 8270SOL    HW225710   3.642   6.430   4.230
 8271SOL     OW25711   6.412   2.230   2.156
 8271SOL    HW125712   6.447   2.154   2.211
 8271SOL    HW225713   6.470   2.310   2.169
 8272SOL     OW25714   4.022   1.371   4.201
 8272SOL    HW125715   4.041   1.442   4.270
 8272SOL    HW225716   4.096   1.304   4.200
 8273SOL     OW25717   2.029   6.800   1.327
 8273SOL    HW125718   1.937   6.774   1.298
 8273SOL    HW225719   2.028   6.823   1.424
 8274SOL     OW25720   5.306   4.239   3.791
 8274SOL    HW125721   5.246   4.164   3.763
 8274SOL    HW225722   5.330   4.294   3.711
 8275SOL     OW25723   4.619   2.250   6.728
 8275SOL    HW125724   4.682   2.200   6.669
 8275SOL    HW225725   4.548   2.187   6.761
 8276SOL     OW25726   0.077   1.873   3.111
 8276SOL    HW125727   0.096   1.778   3.086
 8276SOL    HW225728   0.163   1.920   3.131
 8277SOL     OW25729   6.221   0.787   6.834
 8277SOL    HW125730   6.305   0.778   6.888
 8277SOL    HW225731   6.156   0.716   6.860
 8278SOL     OW25732   1.819   2.601   6.427
 8278SOL    HW125733   1.787   2.611   6.333
 8278SOL    HW225734   1.741   2.612   6.489
 8279SOL     OW25735   0.136   6.124   3.857
 8279SOL    HW125736   0.185   6.090   3.777
 8279SOL    HW225737   0.098   6.215   3.836
 8280SOL     OW25738   3.321   1.775   5.991
 8280SOL    HW125739   3.254   1.840   6.025
 8280SOL    HW225740   3.306   1.686   6.034
 8281SOL     OW25741   5.623   5.901   2.428
 8281SOL    HW125742   5.607   5.856   2.516
 8281SOL    HW225743   5.720   5.892   2.404
 8282SOL     OW25744   5.608   2.855   6.449
 8282SOL    HW125745   5.539   2.916   6.489
 8282SOL    HW225746   5.679   2.909   6.404
 8283SOL     OW25747   2.092   2.715   5.728
 8283SOL    HW125748   2.155   2.642   5.758
 8283SOL    HW225749   2.102   2.794   5.788
 8284SOL     OW25750   6.440   4.034   1.823
 8284SOL    HW125751   6.475   3.944   1.798
 8284SOL    HW225752   6.428   4.038   1.923
 8285SOL     OW25753   4.010   3.716   4.205
 8285SOL    HW125754   3.985   3.802   4.159
 8285SOL    HW225755   4.022   3.732   4.303
 8286SOL     OW25756   0.051   1.626   6.332
 8286SOL    HW125757   0.084   1.682   6.408
 8286SOL    HW225758   6.972   1.634   6.326
 8287SOL     OW25759   1.388   5.829   4.159
 8287SOL    HW125760   1.330   5.847   4.079
 8287SOL    HW225761   1.400   5.914   4.210
 8288SOL     OW25762   2.805   2.332   2.880
 8288SOL    HW125763   2.905   2.329   2.877
 8288SOL    HW225764   2.770   2.241   2.904
 8289SOL     OW25765   7.014   5.843   6.612
 8289SOL    HW125766   0.075   5.802   6.572
 8289SOL    HW225767   6.935   5.786   6.591
 8290SOL     OW25768   6.674   2.554   0.710
 8290SOL    HW125769   6.677   2.651   0.734
 8290SOL    HW225770   6.744   2.505   0.762
 8291SOL     OW25771   4.005   0.182   1.225
 8291SOL    HW125772   4.096   0.168   1.187
 8291SOL    HW225773   3.936   0.156   1.158
 8292SOL     OW25774   2.628   6.965   6.206
 8292SOL    HW125775   2.682   0.028   6.197
 8292SOL    HW225776   2.579   6.947   6.121
 8293SOL     OW25777   5.398   5.765   5.089
 8293SOL    HW125778   5.415   5.837   5.157
 8293SOL    HW225779   5.314   5.717   5.111
 8294SOL     OW25780   5.001   2.365   0.012
 8294SOL    HW125781   5.060   2.442   7.011
 8294SOL    HW225782   5.041   2.312   0.086
 8295SOL     OW25783   4.524   3.652   0.165
 8295SOL    HW125784   4.479   3.604   0.240
 8295SOL    HW225785   4.585   3.722   0.202
 8296SOL     OW25786   1.232   5.076   6.514
 8296SOL    HW125787   1.283   5.160   6.533
 8296SOL    HW225788   1.192   5.080   6.423
 8297SOL     OW25789   0.994   2.626   3.741
 8297SOL    HW125790   1.048   2.546   3.716
 8297SOL    HW225791   1.011   2.650   3.836
 8298SOL     OW25792   4.677   1.418   1.788
 8298SOL    HW125793   4.674   1.410   1.888
 8298SOL    HW225794   4.685   1.326   1.748
 8299SOL     OW25795   6.541   2.255   1.409
 8299SOL    HW125796   6.491   2.183   1.361
 8299SOL    HW225797   6.636   2.227   1.422
 8300SOL     OW25798   0.791   4.739   3.390
 8300SOL    HW125799   0.856   4.670   3.360
 8300SOL    HW225800   0.802   4.822   3.335
 8301SOL     OW25801   3.360   2.934   6.802
 8301SOL    HW125802   3.417   2.860   6.837
 8301SOL    HW225803   3.285   2.896   6.748
 8302SOL     OW25804   5.572   5.682   5.996
 8302SOL    HW125805   5.574   5.778   6.024
 8302SOL    HW225806   5.664   5.654   5.968
 8303SOL     OW25807   0.150   0.575   6.022
 8303SOL    HW125808   0.086   0.557   5.948
 8303SOL    HW225809   0.224   0.634   5.989
 8304SOL     OW25810   0.083   3.182   0.012
 8304SOL    HW125811   0.097   3.273   0.050
 8304SOL    HW225812   0.104   3.113   0.081
 8305SOL     OW25813   3.254   5.827   3.583
 8305SOL    HW125814   3.257   5.815   3.484
 8305SOL    HW225815   3.223   5.742   3.626
 8306SOL     OW25816   0.909   3.520   3.952
 8306SOL    HW125817   0.952   3.604   3.919
 8306SOL    HW225818   0.913   3.516   4.051
 8307SOL     OW25819   2.789   5.687   1.093
 8307SOL    HW125820   2.754   5.668   1.002
 8307SOL    HW225821   2.834   5.776   1.094
 8308SOL     OW25822   3.465   0.371   3.152
 8308SOL    HW125823   3.389   0.370   3.216
 8308SOL    HW225824   3.506   0.462   3.149
 8309SOL     OW25825   5.739   5.850   1.860
 8309SOL    HW125826   5.755   5.921   1.791
 8309SOL    HW225827   5.674   5.884   1.928
 8310SOL     OW25828   6.667   4.481   0.141
 8310SOL    HW125829   6.624   4.442   0.060
 8310SOL    HW225830   6.763   4.454   0.145
 8311SOL     OW25831   6.065   0.549   6.920
 8311SOL    HW125832   6.051   0.570   7.017
 8311SOL    HW225833   5.979   0.518   6.879
 8312SOL     OW25834   5.190   6.543   1.255
 8312SOL    HW125835   5.114   6.592   1.298
 8312SOL    HW225836   5.165   6.519   1.161
 8313SOL     OW25837   3.304   1.602   2.846
 8313SOL    HW125838   3.402   1.598   2.832
 8313SOL    HW225839   3.278   1.541   2.921
 8314SOL     OW25840   6.891   6.689   3.694
 8314SOL    HW125841   6.928   6.596   3.690
 8314SOL    HW225842   6.916   6.731   3.780
 8315SOL     OW25843   4.893   4.826   6.445
 8315SOL    HW125844   4.984   4.822   6.403
 8315SOL    HW225845   4.886   4.755   6.515
 8316SOL     OW25846   2.610   5.772   6.719
 8316SOL    HW125847   2.661   5.768   6.805
 8316SOL    HW225848   2.512   5.765   6.738
 8317SOL     OW25849   2.110   4.650   2.293
 8317SOL    HW125850   2.209   4.642   2.287
 8317SOL    HW225851   2.083   4.744   2.275
 8318SOL     OW25852   3.738   1.040   5.709
 8318SOL    HW125853   3.661   0.980   5.690
 8318SOL    HW225854   3.725   1.128   5.663
 8319SOL     OW25855   3.722   0.636   4.806
 8319SOL    HW125856   3.691   0.731   4.799
 8319SOL    HW225857   3.782   0.615   4.729
 8320SOL     OW25858   4.012   4.652   1.777
 8320SOL    HW125859   3.989   4.562   1.741
 8320SOL    HW225860   3.929   4.708   1.782
 8321SOL     OW25861   0.566   0.866   1.310
 8321SOL    HW125862   0.499   0.912   1.368
 8321SOL    HW225863   0.611   0.933   1.252
 8322SOL     OW25864   5.904   6.743   0.242
 8322SOL    HW125865   5.899   6.805   0.320
 8322SOL    HW225866   5.825   6.759   0.182
 8323SOL     OW25867   1.649   2.077   1.897
 8323SOL    HW125868   1.717   2.149   1.886
 8323SOL    HW225869   1.692   1.996   1.937
 8324SOL     OW25870   6.981   1.468   2.029
 8324SOL    HW125871   6.971   1.430   2.121
 8324SOL    HW225872   7.001   1.566   2.036
 8325SOL     OW25873   3.075   3.762   3.610
 8325SOL    HW125874   3.153   3.727   3.559
 8325SOL    HW225875   3.108   3.808   3.693
 8326SOL     OW25876   3.139   3.457   6.143
 8326SOL    HW125877   3.076   3.500   6.078
 8326SOL    HW225878   3.223   3.511   6.149
 8327SOL     OW25879   4.588   1.932   5.588
 8327SOL    HW125880   4.622   2.023   5.615
 8327SOL    HW225881   4.610   1.866   5.660
 8328SOL     OW25882   2.531   2.356   4.893
 8328SOL    HW125883   2.534   2.352   4.793
 8328SOL    HW225884   2.466   2.427   4.921
 8329SOL     OW25885   6.886   2.335   5.161
 8329SOL    HW125886   6.943   2.355   5.082
 8329SOL    HW225887   6.937   2.355   5.245
 8330SOL     OW25888   3.093   6.792   0.475
 8330SOL    HW125889   3.178   6.754   0.511
 8330SOL    HW225890   3.061   6.737   0.398
 8331SOL     OW25891   2.456   0.039   0.830
 8331SOL    HW125892   2.432   6.964   0.814
 8331SOL    HW225893   2.375   0.096   0.819
 8332SOL     OW25894   5.052   5.677   2.710
 8332SOL    HW125895   5.089   5.724   2.789
 8332SOL    HW225896   5.022   5.585   2.736
 8333SOL     OW25897   1.261   5.860   6.170
 8333SOL    HW125898   1.281   5.836   6.075
 8333SOL    HW225899   1.163   5.870   6.183
 8334SOL     OW25900   5.857   0.576   3.688
 8334SOL    HW125901   5.867   0.676   3.681
 8334SOL    HW225902   5.899   0.544   3.773
 8335SOL     OW25903   5.746   6.769   5.462
 8335SOL    HW125904   5.843   6.786   5.445
 8335SOL    HW225905   5.728   6.775   5.560
 8336SOL     OW25906   0.465   2.293   2.136
 8336SOL    HW125907   0.415   2.304   2.050
 8336SOL    HW225908   0.406   2.319   2.212
 8337SOL     OW25909   0.676   6.302   2.046
 8337SOL    HW125910   0.760   6.260   2.081
 8337SOL    HW225911   0.606   6.232   2.033
 8338SOL     OW25912   1.764   5.022   0.685
 8338SOL    HW125913   1.819   5.090   0.733
 8338SOL    HW225914   1.783   5.027   0.587
 8339SOL     OW25915   5.565   1.013   2.840
 8339SOL    HW125916   5.597   0.919   2.848
 8339SOL    HW225917   5.481   1.025   2.894
 8340SOL     OW25918   4.656   3.345   0.968
 8340SOL    HW125919   4.747   3.305   0.971
 8340SOL    HW225920   4.627   3.369   1.061
 8341SOL     OW25921   2.160   0.131   1.289
 8341SOL    HW125922   2.236   0.196   1.294
 8341SOL    HW225923   2.182   0.059   1.223
 8342SOL     OW25924   4.222   0.587   1.424
 8342SOL    HW125925   4.198   0.675   1.464
 8342SOL    HW225926   4.294   0.599   1.356
 8343SOL     OW25927   1.464   4.978   5.886
 8343SOL    HW125928   1.453   4.888   5.929
 8343SOL    HW225929   1.515   5.038   5.947
 8344SOL     OW25930   3.938   0.483   5.450
 8344SOL    HW125931   3.874   0.453   5.379
 8344SOL    HW225932   4.029   0.495   5.410
 8345SOL     OW25933   6.642   1.421   2.507
 8345SOL    HW125934   6.586   1.366   2.569
 8345SOL    HW225935   6.611   1.516   2.511
 8346SOL     OW25936   3.046   5.400   1.677
 8346SOL    HW125937   3.037   5.321   1.737
 8346SOL    HW225938   3.068   5.370   1.584
 8347SOL     OW25939   3.303   5.317   3.806
 8347SOL    HW125940   3.365   5.377   3.856
 8347SOL    HW225941   3.319   5.327   3.708
 8348SOL     OW25942   1.149   0.237   0.219
 8348SOL    HW125943   1.155   0.325   0.172
 8348SOL    HW225944   1.059   0.197   0.203
 8349SOL     OW25945   5.946   5.371   1.472
 8349SOL    HW125946   5.996   5.287   1.451
 8349SOL    HW225947   6.010   5.442   1.502
 8350SOL     OW25948   6.498   0.775   4.978
 8350SOL    HW125949   6.515   0.724   4.893
 8350SOL    HW225950   6.400   0.773   4.999
 8351SOL     OW25951   3.076   6.192   2.050
 8351SOL    HW125952   3.003   6.152   1.996
 8351SOL    HW225953   3.081   6.146   2.139
 8352SOL     OW25954   6.813   6.233   1.274
 8352SOL    HW125955   6.876   6.310   1.263
 8352SOL    HW225956   6.734   6.262   1.328
 8353SOL     OW25957   0.554   3.625   2.114
 8353SOL    HW125958   0.525   3.657   2.203
 8353SOL    HW225959   0.575   3.527   2.119
 8354SOL     OW25960   2.278   0.723   0.589
 8354SOL    HW125961   2.226   0.679   0.515
 8354SOL    HW225962   2.352   0.777   0.549
 8355SOL     OW25963   3.063   1.072   0.529
 8355SOL    HW125964   2.981   1.118   0.494
 8355SOL    HW225965   3.132   1.140   0.553
 8356SOL     OW25966   2.031   5.545   0.448
 8356SOL    HW125967   1.997   5.452   0.459
 8356SOL    HW225968   2.048   5.585   0.538
 8357SOL     OW25969   4.914   5.406   4.129
 8357SOL    HW125970   4.923   5.499   4.163
 8357SOL    HW225971   4.996   5.380   4.078
 8358SOL     OW25972   2.535   1.954   5.139
 8358SOL    HW125973   2.624   1.999   5.131
 8358SOL    HW225974   2.462   2.018   5.114
 8359SOL     OW25975   4.705   5.100   3.936
 8359SOL    HW125976   4.790   5.048   3.942
 8359SOL    HW225977   4.703   5.151   3.850
 8360SOL     OW25978   4.855   0.217   3.323
 8360SOL    HW125979   4.766   0.203   3.280
 8360SOL    HW225980   4.859   0.164   3.408
 8361SOL     OW25981   1.717   0.854   2.830
 8361SOL    HW125982   1.797   0.894   2.784
 8361SOL    HW225983   1.731   0.857   2.929
 8362SOL     OW25984   2.509   3.100   0.476
 8362SOL    HW125985   2.526   3.133   0.383
 8362SOL    HW225986   2.540   3.167   0.542
 8363SOL     OW25987   0.321   3.531   0.837
 8363SOL    HW125988   0.368   3.462   0.891
 8363SOL    HW225989   0.383   3.566   0.767
 8364SOL     OW25990   6.646   4.964   4.277
 8364SOL    HW125991   6.701   5.026   4.221
 8364SOL    HW225992   6.641   4.875   4.233
 8365SOL     OW25993   1.576   3.719   5.932
 8365SOL    HW125994   1.626   3.740   6.016
 8365SOL    HW225995   1.572   3.801   5.875
 8366SOL     OW25996   3.000   6.944   3.369
 8366SOL    HW125997   3.031   6.850   3.382
 8366SOL    HW225998   3.021   6.998   3.451
 8367SOL     OW25999   5.357   5.664   3.879
 8367SOL    HW126000   5.344   5.607   3.960
 8367SOL    HW226001   5.319   5.755   3.897
 8368SOL     OW26002   3.178   5.347   6.600
 8368SOL    HW126003   3.158   5.438   6.635
 8368SOL    HW226004   3.197   5.352   6.503
 8369SOL     OW26005   2.470   1.379   1.306
 8369SOL    HW126006   2.509   1.467   1.282
 8369SOL    HW226007   2.375   1.375   1.275
 8370SOL     OW26008   1.460   1.613   6.957
 8370SOL    HW126009   1.373   1.615   7.007
 8370SOL    HW226010   1.448   1.654   6.867
 8371SOL     OW26011   2.253   2.979   0.432
 8371SOL    HW126012   2.266   2.953   0.336
 8371SOL    HW226013   2.324   3.044   0.459
 8372SOL     OW26014   0.250   0.622   1.512
 8372SOL    HW126015   0.205   0.707   1.540
 8372SOL    HW226016   0.250   0.616   1.412
 8373SOL     OW26017   1.816   6.940   5.022
 8373SOL    HW126018   1.783   6.945   4.928
 8373SOL    HW226019   1.807   6.846   5.055
 8374SOL     OW26020   6.394   0.297   6.308
 8374SOL    HW126021   6.307   0.322   6.266
 8374SOL    HW226022   6.420   0.368   6.375
 8375SOL     OW26023   3.977   0.992   6.488
 8375SOL    HW126024   3.977   1.085   6.451
 8375SOL    HW226025   4.044   0.936   6.439
 8376SOL     OW26026   4.205   0.509   4.711
 8376SOL    HW126027   4.139   0.434   4.699
 8376SOL    HW226028   4.253   0.525   4.625
 8377SOL     OW26029   5.773   4.535   0.700
 8377SOL    HW126030   5.816   4.536   0.791
 8377SOL    HW226031   5.687   4.585   0.704
 8378SOL     OW26032   4.912   2.850   3.728
 8378SOL    HW126033   4.836   2.801   3.686
 8378SOL    HW226034   4.998   2.817   3.689
 8379SOL     OW26035   5.196   2.240   2.091
 8379SOL    HW126036   5.122   2.177   2.115
 8379SOL    HW226037   5.252   2.199   2.019
 8380SOL     OW26038   5.312   1.713   3.514
 8380SOL    HW126039   5.303   1.806   3.548
 8380SOL    HW226040   5.341   1.714   3.419
 8381SOL     OW26041   2.237   5.528   4.296
 8381SOL    HW126042   2.162   5.511   4.232
 8381SOL    HW226043   2.238   5.458   4.367
 8382SOL     OW26044   1.080   3.678   2.466
 8382SOL    HW126045   1.142   3.601   2.482
 8382SOL    HW226046   1.097   3.716   2.375
 8383SOL     OW26047   3.586   1.975   6.385
 8383SOL    HW126048   3.501   1.934   6.417
 8383SOL    HW226049   3.662   1.911   6.401
 8384SOL     OW26050   0.479   6.470   1.394
 8384SOL    HW126051   0.527   6.550   1.431
 8384SOL    HW226052   0.527   6.438   1.313
 8385SOL     OW26053   4.853   2.333   0.883
 8385SOL    HW126054   4.844   2.234   0.871
 8385SOL    HW226055   4.820   2.358   0.974
 8386SOL     OW26056   1.168   4.267   2.521
 8386SOL    HW126057   1.138   4.358   2.550
 8386SOL    HW226058   1.144   4.252   2.425
 8387SOL     OW26059   0.832   1.745   0.994
 8387SOL    HW126060   0.776   1.823   0.965
 8387SOL    HW226061   0.773   1.676   1.036
 8388SOL     OW26062   1.055   6.770   2.874
 8388SOL    HW126063   1.045   6.749   2.777
 8388SOL    HW226064   1.143   6.814   2.889
 8389SOL     OW26065   5.519   2.200   2.879
 8389SOL    HW126066   5.609   2.159   2.868
 8389SOL    HW226067   5.526   2.281   2.938
 8390SOL     OW26068   5.536   1.732   5.810
 8390SOL    HW126069   5.485   1.789   5.873
 8390SOL    HW226070   5.589   1.664   5.861
 8391SOL     OW26071   6.361   6.810   1.171
 8391SOL    HW126072   6.395   6.723   1.205
 8391SOL    HW226073   6.321   6.863   1.246
 8392SOL     OW26074   4.742   3.235   5.917
 8392SOL    HW126075   4.710   3.276   5.831
 8392SOL    HW226076   4.673   3.171   5.951
 8393SOL     OW26077   5.382   6.909   1.619
 8393SOL    HW126078   5.354   6.821   1.581
 8393SOL    HW226079   5.379   6.904   1.719
 8394SOL     OW26080   5.707   2.586   2.494
 8394SOL    HW126081   5.633   2.525   2.524
 8394SOL    HW226082   5.713   2.664   2.556
 8395SOL     OW26083   2.380   1.225   5.176
 8395SOL    HW126084   2.337   1.223   5.086
 8395SOL    HW226085   2.472   1.187   5.170
 8396SOL     OW26086   4.837   5.615   4.798
 8396SOL    HW126087   4.815   5.704   4.837
 8396SOL    HW226088   4.853   5.624   4.699
 8397SOL     OW26089   6.122   0.382   3.268
 8397SOL    HW126090   6.198   0.317   3.263
 8397SOL    HW226091   6.113   0.415   3.362
 8398SOL     OW26092   5.090   2.185   6.141
 8398SOL    HW126093   5.160   2.242   6.186
 8398SOL    HW226094   5.008   2.239   6.126
 8399SOL     OW26095   0.312   4.483   1.170
 8399SOL    HW126096   0.225   4.530   1.154
 8399SOL    HW226097   0.349   4.449   1.083
 8400SOL     OW26098   1.576   1.542   4.819
 8400SOL    HW126099   1.510   1.563   4.746
 8400SOL    HW226100   1.668   1.535   4.779
 8401SOL     OW26101   2.399   0.088   5.480
 8401SOL    HW126102   2.495   0.075   5.456
 8401SOL    HW226103   2.391   0.155   5.553
 8402SOL     OW26104   3.385   0.697   6.439
 8402SOL    HW126105   3.286   0.690   6.443
 8402SOL    HW226106   3.426   0.630   6.501
 8403SOL     OW26107   5.551   4.635   4.954
 8403SOL    HW126108   5.568   4.606   5.049
 8403SOL    HW226109   5.493   4.566   4.909
 8404SOL     OW26110   0.920   1.732   6.286
 8404SOL    HW126111   0.930   1.665   6.212
 8404SOL    HW226112   0.980   1.706   6.362
 8405SOL     OW26113   4.428   0.498   5.624
 8405SOL    HW126114   4.486   0.510   5.543
 8405SOL    HW226115   4.371   0.416   5.612
 8406SOL     OW26116   5.268   7.000   6.477
 8406SOL    HW126117   5.351   0.005   6.427
 8406SOL    HW226118   5.293   6.970   6.569
 8407SOL     OW26119   3.951   0.110   4.335
 8407SOL    HW126120   3.880   0.049   4.370
 8407SOL    HW226121   3.914   0.203   4.329
 8408SOL     OW26122   3.783   1.247   1.592
 8408SOL    HW126123   3.859   1.195   1.554
 8408SOL    HW226124   3.817   1.335   1.625
 8409SOL     OW26125   4.308   2.299   2.215
 8409SOL    HW126126   4.354   2.301   2.304
 8409SOL    HW226127   4.212   2.324   2.226
 8410SOL     OW26128   6.835   1.689   1.763
 8410SOL    HW126129   6.934   1.678   1.773
 8410SOL    HW226130   6.788   1.623   1.822
 8411SOL     OW26131   1.047   6.402   1.081
 8411SOL    HW126132   1.077   6.322   1.135
 8411SOL    HW226133   1.090   6.398   0.991
 8412SOL     OW26134   2.525   1.828   6.961
 8412SOL    HW126135   2.502   1.858   0.033
 8412SOL    HW226136   2.454   1.767   6.926
 8413SOL     OW26137   3.939   5.437   4.391
 8413SOL    HW126138   3.877   5.513   4.409
 8413SOL    HW226139   3.896   5.352   4.421
 8414SOL     OW26140   1.172   0.301   0.981
 8414SOL    HW126141   1.135   0.256   0.900
 8414SOL    HW226142   1.110   0.374   1.009
 8415SOL     OW26143   2.742   1.481   5.953
 8415SOL    HW126144   2.648   1.473   5.985
 8415SOL    HW226145   2.750   1.557   5.888
 8416SOL     OW26146   6.613   2.257   5.596
 8416SOL    HW126147   6.582   2.184   5.656
 8416SOL    HW226148   6.629   2.221   5.504
 8417SOL     OW26149   2.075   3.254   5.907
 8417SOL    HW126150   2.069   3.192   5.984
 8417SOL    HW226151   2.151   3.317   5.920
 8418SOL     OW26152   0.565   6.022   2.254
 8418SOL    HW126153   0.649   6.004   2.306
 8418SOL    HW226154   0.588   6.053   2.162
 8419SOL     OW26155   4.523   1.890   4.018
 8419SOL    HW126156   4.453   1.829   3.980
 8419SOL    HW226157   4.543   1.864   4.112
 8420SOL     OW26158   3.375   0.927   1.798
 8420SOL    HW126159   3.382   0.840   1.845
 8420SOL    HW226160   3.421   0.998   1.852
 8421SOL     OW26161   4.778   6.966   6.351
 8421SOL    HW126162   4.875   6.941   6.348
 8421SOL    HW226163   4.723   6.893   6.312
 8422SOL     OW26164   5.199   2.567   3.676
 8422SOL    HW126165   5.215   2.661   3.706
 8422SOL    HW226166   5.143   2.519   3.743
 8423SOL     OW26167   6.788   5.293   0.143
 8423SOL    HW126168   6.783   5.314   0.045
 8423SOL    HW226169   6.818   5.374   0.193
 8424SOL     OW26170   3.505   0.256   4.990
 8424SOL    HW126171   3.516   0.308   4.905
 8424SOL    HW226172   3.573   0.286   5.057
 8425SOL     OW26173   3.576   4.068   2.034
 8425SOL    HW126174   3.507   3.997   2.016
 8425SOL    HW226175   3.531   4.149   2.070
 8426SOL     OW26176   4.039   2.796   1.656
 8426SOL    HW126177   4.044   2.829   1.750
 8426SOL    HW226178   3.977   2.854   1.603
 8427SOL     OW26179   3.830   3.599   3.743
 8427SOL    HW126180   3.739   3.640   3.743
 8427SOL    HW226181   3.868   3.602   3.836
 8428SOL     OW26182   5.950   7.003   1.787
 8428SOL    HW126183   5.902   0.023   1.709
 8428SOL    HW226184   6.006   0.053   1.832
 8429SOL     OW26185   2.989   5.693   5.188
 8429SOL    HW126186   3.026   5.605   5.158
 8429SOL    HW226187   3.055   5.739   5.247
 8430SOL     OW26188   4.781   0.174   5.050
 8430SOL    HW126189   4.800   0.244   4.981
 8430SOL    HW226190   4.687   0.142   5.039
 8431SOL     OW26191   1.904   3.966   5.883
 8431SOL    HW126192   1.841   3.977   5.806
 8431SOL    HW226193   1.989   3.926   5.851
 8432SOL     OW26194   6.101   5.406   6.161
 8432SOL    HW126195   6.005   5.436   6.160
 8432SOL    HW226196   6.138   5.409   6.068
 8433SOL     OW26197   5.634   2.005   0.958
 8433SOL    HW126198   5.610   2.062   0.879
 8433SOL    HW226199   5.624   2.059   1.042
 8434SOL     OW26200   2.570   5.409   4.653
 8434SOL    HW126201   2.623   5.444   4.731
 8434SOL    HW226202   2.514   5.332   4.683
 8435SOL     OW26203   5.456   1.695   3.268
 8435SOL    HW126204   5.546   1.651   3.264
 8435SOL    HW226205   5.435   1.735   3.178
 8436SOL     OW26206   2.340   5.681   2.320
 8436SOL    HW126207   2.377   5.773   2.308
 8436SOL    HW226208   2.382   5.619   2.253
 8437SOL     OW26209   0.593   5.526   1.763
 8437SOL    HW126210   0.644   5.446   1.733
 8437SOL    HW226211   0.507   5.533   1.713
 8438SOL     OW26212   0.465   3.660   2.375
 8438SOL    HW126213   0.530   3.623   2.441
 8438SOL    HW226214   0.446   3.755   2.397
 8439SOL     OW26215   6.552   4.437   2.564
 8439SOL    HW126216   6.452   4.429   2.572
 8439SOL    HW226217   6.590   4.350   2.533
 8440SOL     OW26218   1.723   2.362   2.661
 8440SOL    HW126219   1.664   2.310   2.600
 8440SOL    HW226220   1.815   2.322   2.661
 8441SOL     OW26221   6.850   1.831   6.245
 8441SOL    HW126222   6.764   1.873   6.217
 8441SOL    HW226223   6.885   1.774   6.170
 8442SOL     OW26224   3.875   2.196   6.700
 8442SOL    HW126225   3.786   2.166   6.735
 8442SOL    HW226226   3.948   2.152   6.753
 8443SOL     OW26227   1.738   4.271   2.786
 8443SOL    HW126228   1.790   4.189   2.761
 8443SOL    HW226229   1.648   4.243   2.820
 8444SOL     OW26230   5.423   5.212   5.475
 8444SOL    HW126231   5.512   5.252   5.497
 8444SOL    HW226232   5.423   5.115   5.499
 8445SOL     OW26233   4.470   6.508   6.606
 8445SOL    HW126234   4.399   6.531   6.673
 8445SOL    HW226235   4.430   6.452   6.533
 8446SOL     OW26236   6.464   5.105   4.860
 8446SOL    HW126237   6.559   5.123   4.834
 8446SOL    HW226238   6.459   5.089   4.959
 8447SOL     OW26239   4.165   1.237   3.573
 8447SOL    HW126240   4.247   1.273   3.528
 8447SOL    HW226241   4.174   1.138   3.584
 8448SOL     OW26242   3.354   6.065   3.371
 8448SOL    HW126243   3.435   6.077   3.429
 8448SOL    HW226244   3.381   6.031   3.281
 8449SOL     OW26245   2.042   2.241   3.542
 8449SOL    HW126246   1.952   2.260   3.502
 8449SOL    HW226247   2.104   2.316   3.521
 8450SOL     OW26248   0.049   1.137   6.828
 8450SOL    HW126249   0.120   1.170   6.766
 8450SOL    HW226250   0.041   1.038   6.819
 8451SOL     OW26251   3.740   2.376   1.010
 8451SOL    HW126252   3.705   2.456   0.962
 8451SOL    HW226253   3.689   2.362   1.094
 8452SOL     OW26254   4.898   1.375   6.002
 8452SOL    HW126255   4.889   1.281   5.970
 8452SOL    HW226256   4.827   1.432   5.962
 8453SOL     OW26257   6.856   6.345   0.238
 8453SOL    HW126258   6.844   6.408   0.315
 8453SOL    HW226259   6.781   6.358   0.173
 8454SOL     OW26260   5.939   4.352   6.689
 8454SOL    HW126261   5.979   4.279   6.633
 8454SOL    HW226262   5.843   4.366   6.662
 8455SOL     OW26263   6.886   1.102   2.796
 8455SOL    HW126264   6.851   1.042   2.724
 8455SOL    HW226265   6.824   1.179   2.808
 8456SOL     OW26266   6.678   6.948   2.720
 8456SOL    HW126267   6.702   7.016   2.789
 8456SOL    HW226268   6.748   6.876   2.718
 8457SOL     OW26269   0.023   6.588   5.199
 8457SOL    HW126270   0.031   6.511   5.263
 8457SOL    HW226271   7.013   6.669   5.248
 8458SOL     OW26272   0.538   6.593   6.359
 8458SOL    HW126273   0.487   6.522   6.311
 8458SOL    HW226274   0.615   6.624   6.303
 8459SOL     OW26275   1.360   6.008   3.578
 8459SOL    HW126276   1.410   5.970   3.657
 8459SOL    HW226277   1.363   6.107   3.581
 8460SOL     OW26278   3.767   3.688   3.458
 8460SOL    HW126279   3.796   3.643   3.543
 8460SOL    HW226280   3.836   3.755   3.430
 8461SOL     OW26281   6.552   3.103   3.541
 8461SOL    HW126282   6.538   3.156   3.624
 8461SOL    HW226283   6.644   3.120   3.506
 8462SOL     OW26284   2.349   2.755   1.630
 8462SOL    HW126285   2.385   2.846   1.608
 8462SOL    HW226286   2.262   2.742   1.583
 8463SOL     OW26287   5.461   0.547   1.860
 8463SOL    HW126288   5.486   0.618   1.794
 8463SOL    HW226289   5.446   0.587   1.950
 8464SOL     OW26290   0.005   2.090   4.891
 8464SOL    HW126291   0.096   2.121   4.864
 8464SOL    HW226292   0.007   2.063   4.987
 8465SOL     OW26293   1.398   1.928   0.044
 8465SOL    HW126294   1.390   1.846   7.007
 8465SOL    HW226295   1.371   2.008   7.012
 8466SOL     OW26296   0.405   0.424   3.993
 8466SOL    HW126297   0.356   0.508   3.969
 8466SOL    HW226298   0.445   0.384   3.911
 8467SOL     OW26299   3.603   5.011   1.453
 8467SOL    HW126300   3.646   5.045   1.369
 8467SOL    HW226301   3.507   5.041   1.455
 8468SOL     OW26302   4.430   2.541   0.658
 8468SOL    HW126303   4.498   2.492   0.712
 8468SOL    HW226304   4.415   2.632   0.698
 8469SOL     OW26305   4.246   2.668   6.487
 8469SOL    HW126306   4.233   2.654   6.585
 8469SOL    HW226307   4.274   2.582   6.444
 8470SOL     OW26308   1.741   3.218   7.003
 8470SOL    HW126309   1.648   3.182   7.004
 8470SOL    HW226310   1.738   3.317   7.016
 8471SOL     OW26311   4.797   1.378   3.823
 8471SOL    HW126312   4.702   1.347   3.828
 8471SOL    HW226313   4.821   1.396   3.727
 8472SOL     OW26314   1.304   6.947   2.877
 8472SOL    HW126315   1.320   0.022   2.851
 8472SOL    HW226316   1.363   6.887   2.822
 8473SOL     OW26317   6.951   5.809   6.261
 8473SOL    HW126318   7.014   5.853   6.325
 8473SOL    HW226319   6.895   5.878   6.216
 8474SOL     OW26320   3.708   5.381   0.352
 8474SOL    HW126321   3.639   5.374   0.280
 8474SOL    HW226322   3.720   5.292   0.395
 8475SOL     OW26323   4.645   1.327   2.563
 8475SOL    HW126324   4.569   1.381   2.528
 8475SOL    HW226325   4.660   1.248   2.504
 8476SOL     OW26326   4.301   0.516   2.503
 8476SOL    HW126327   4.269   0.580   2.433
 8476SOL    HW226328   4.324   0.429   2.460
 8477SOL     OW26329   2.455   0.733   2.220
 8477SOL    HW126330   2.394   0.726   2.142
 8477SOL    HW226331   2.471   0.642   2.259
 8478SOL     OW26332   1.472   0.119   5.511
 8478SOL    HW126333   1.425   0.083   5.430
 8478SOL    HW226334   1.550   0.174   5.483
 8479SOL     OW26335   4.946   1.611   2.115
 8479SOL    HW126336   4.856   1.622   2.157
 8479SOL    HW226337   4.981   1.519   2.136
 8480SOL     OW26338   1.659   1.229   1.342
 8480SOL    HW126339   1.748   1.245   1.383
 8480SOL    HW226340   1.619   1.316   1.313
 8481SOL     OW26341   4.543   0.073   5.065
 8481SOL    HW126342   4.481   0.117   5.129
 8481SOL    HW226343   4.525   6.995   5.065
 8482SOL     OW26344   0.637   0.533   2.223
 8482SOL    HW126345   0.692   0.509   2.303
 8482SOL    HW226346   0.619   0.631   2.223
 8483SOL     OW26347   5.605   6.267   1.715
 8483SOL    HW126348   5.679   6.294   1.776
 8483SOL    HW226349   5.517   6.281   1.761
 8484SOL     OW26350   0.387   4.591   4.316
 8484SOL    HW126351   0.464   4.568   4.256
 8484SOL    HW226352   0.421   4.641   4.396
 8485SOL     OW26353   2.525   3.229   5.653
 8485SOL    HW126354   2.605   3.190   5.698
 8485SOL    HW226355   2.488   3.164   5.587
 8486SOL     OW26356   4.344   0.258   2.984
 8486SOL    HW126357   4.253   0.238   2.946
 8486SOL    HW226358   4.414   0.215   2.928
 8487SOL     OW26359   4.631   0.778   0.915
 8487SOL    HW126360   4.648   0.855   0.975
 8487SOL    HW226361   4.551   0.797   0.857
 8488SOL     OW26362   5.464   3.022   4.733
 8488SOL    HW126363   5.557   2.992   4.710
 8488SOL    HW226364   5.411   3.032   4.648
 8489SOL     OW26365   3.708   5.615   2.487
 8489SOL    HW126366   3.790   5.671   2.478
 8489SOL    HW226367   3.629   5.665   2.452
 8490SOL     OW26368   4.261   5.323   2.660
 8490SOL    HW126369   4.355   5.303   2.686
 8490SOL    HW226370   4.261   5.376   2.574
 8491SOL     OW26371   1.049   1.231   2.062
 8491SOL    HW126372   1.020   1.262   1.972
 8491SOL    HW226373   1.123   1.289   2.095
 8492SOL     OW26374   5.567   3.866   4.588
 8492SOL    HW126375   5.651   3.841   4.539
 8492SOL    HW226376   5.565   3.818   4.676
 8493SOL     OW26377   3.608   2.718   1.205
 8493SOL    HW126378   3.600   2.751   1.111
 8493SOL    HW226379   3.609   2.797   1.267
 8494SOL     OW26380   3.632   6.095   6.718
 8494SOL    HW126381   3.615   6.138   6.807
 8494SOL    HW226382   3.723   6.053   6.718
 8495SOL     OW26383   0.345   2.759   0.297
 8495SOL    HW126384   0.418   2.822   0.325
 8495SOL    HW226385   0.367   2.668   0.330
 8496SOL     OW26386   6.868   2.282   3.187
 8496SOL    HW126387   6.873   2.329   3.275
 8496SOL    HW226388   6.943   2.312   3.129
 8497SOL     OW26389   5.913   4.557   3.473
 8497SOL    HW126390   5.946   4.471   3.512
 8497SOL    HW226391   5.982   4.597   3.414
 8498SOL     OW26392   6.345   1.247   1.091
 8498SOL    HW126393   6.433   1.271   1.131
 8498SOL    HW226394   6.347   1.152   1.061
 8499SOL     OW26395   1.941   4.335   6.440
 8499SOL    HW126396   2.009   4.358   6.371
 8499SOL    HW226397   1.922   4.237   6.437
 8500SOL     OW26398   3.368   0.826   6.200
 8500SOL    HW126399   3.414   0.763   6.137
 8500SOL    HW226400   3.376   0.792   6.294
 8501SOL     OW26401   2.728   4.231   6.171
 8501SOL    HW126402   2.769   4.282   6.096
 8501SOL    HW226403   2.798   4.213   6.241
 8502SOL     OW26404   0.582   6.826   1.937
 8502SOL    HW126405   0.640   6.823   1.855
 8502SOL    HW226406   0.548   6.734   1.957
 8503SOL     OW26407   2.975   6.043   3.531
 8503SOL    HW126408   3.009   6.029   3.438
 8503SOL    HW226409   3.043   6.094   3.585
 8504SOL     OW26410   1.565   5.471   3.491
 8504SOL    HW126411   1.491   5.527   3.454
 8504SOL    HW226412   1.602   5.411   3.420
 8505SOL     OW26413   4.686   2.755   3.982
 8505SOL    HW126414   4.768   2.699   3.980
 8505SOL    HW226415   4.612   2.705   4.027
 8506SOL     OW26416   0.833   6.105   0.483
 8506SOL    HW126417   0.783   6.019   0.468
 8506SOL    HW226418   0.789   6.155   0.558
 8507SOL     OW26419   1.590   0.234   4.662
 8507SOL    HW126420   1.558   0.219   4.755
 8507SOL    HW226421   1.685   0.267   4.664
 8508SOL     OW26422   1.072   3.120   6.232
 8508SOL    HW126423   1.053   3.026   6.204
 8508SOL    HW226424   1.170   3.139   6.220
 8509SOL     OW26425   6.096   2.299   4.598
 8509SOL    HW126426   6.164   2.308   4.670
 8509SOL    HW226427   6.021   2.363   4.616
 8510SOL     OW26428   5.049   0.135   2.261
 8510SOL    HW126429   4.993   0.194   2.320
 8510SOL    HW226430   4.989   0.084   2.199
 8511SOL     OW26431   6.360   4.937   1.562
 8511SOL    HW126432   6.360   4.907   1.467
 8511SOL    HW226433   6.282   4.996   1.579
 8512SOL     OW26434   3.586   2.567   0.871
 8512SOL    HW126435   3.636   2.649   0.842
 8512SOL    HW226436   3.491   2.591   0.890
 8513SOL     OW26437   0.680   4.235   1.662
 8513SOL    HW126438   0.633   4.191   1.739
 8513SOL    HW226439   0.769   4.269   1.692
 8514SOL     OW26440   2.572   2.283   5.481
 8514SOL    HW126441   2.639   2.219   5.445
 8514SOL    HW226442   2.618   2.367   5.510
 8515SOL     OW26443   2.187   0.392   0.544
 8515SOL    HW126444   2.282   0.363   0.536
 8515SOL    HW226445   2.126   0.314   0.532
 8516SOL     OW26446   5.447   2.984   4.202
 8516SOL    HW126447   5.537   2.981   4.160
 8516SOL    HW226448   5.426   2.895   4.242
 8517SOL     OW26449   1.962   1.683   6.374
 8517SOL    HW126450   2.000   1.600   6.332
 8517SOL    HW226451   2.036   1.741   6.407
 8518SOL     OW26452   5.396   4.867   6.974
 8518SOL    HW126453   5.484   4.849   7.017
 8518SOL    HW226454   5.367   4.960   6.994
 8519SOL     OW26455   0.827   2.954   0.691
 8519SOL    HW126456   0.852   2.917   0.781
 8519SOL    HW226457   0.796   3.049   0.702
 8520SOL     OW26458   3.474   4.161   5.596
 8520SOL    HW126459   3.392   4.212   5.568
 8520SOL    HW226460   3.502   4.192   5.687
 8521SOL     OW26461   1.980   6.535   5.086
 8521SOL    HW126462   2.055   6.535   5.152
 8521SOL    HW226463   2.003   6.477   5.008
 8522SOL     OW26464   0.526   6.918   0.084
 8522SOL    HW126465   0.548   6.867   0.001
 8522SOL    HW226466   0.429   6.942   0.084
 8523SOL     OW26467   3.798   2.063   0.489
 8523SOL    HW126468   3.716   2.121   0.488
 8523SOL    HW226469   3.878   2.117   0.513
 8524SOL     OW26470   2.270   5.316   5.190
 8524SOL    HW126471   2.257   5.248   5.262
 8524SOL    HW226472   2.329   5.279   5.118
 8525SOL     OW26473   6.268   3.630   1.975
 8525SOL    HW126474   6.286   3.660   1.881
 8525SOL    HW226475   6.169   3.624   1.990
 8526SOL     OW26476   0.268   4.288   0.359
 8526SOL    HW126477   0.359   4.329   0.344
 8526SOL    HW226478   0.278   4.204   0.413
 8527SOL     OW26479   2.847   1.044   5.662
 8527SOL    HW126480   2.748   1.052   5.652
 8527SOL    HW226481   2.871   1.039   5.759
 8528SOL     OW26482   5.241   0.637   1.337
 8528SOL    HW126483   5.252   0.714   1.400
 8528SOL    HW226484   5.160   0.584   1.363
 8529SOL     OW26485   1.175   6.073   0.186
 8529SOL    HW126486   1.172   6.113   0.094
 8529SOL    HW226487   1.095   6.104   0.238
 8530SOL     OW26488   3.973   3.831   3.139
 8530SOL    HW126489   4.000   3.844   3.234
 8530SOL    HW226490   3.970   3.734   3.118
 8531SOL     OW26491   6.575   5.108   4.544
 8531SOL    HW126492   6.516   5.053   4.604
 8531SOL    HW226493   6.566   5.077   4.450
 8532SOL     OW26494   2.981   5.181   6.661
 8532SOL    HW126495   3.055   5.248   6.649
 8532SOL    HW226496   2.900   5.227   6.698
 8533SOL     OW26497   2.870   6.654   5.123
 8533SOL    HW126498   2.892   6.636   5.219
 8533SOL    HW226499   2.771   6.648   5.110
 8534SOL     OW26500   2.252   2.390   3.469
 8534SOL    HW126501   2.317   2.456   3.506
 8534SOL    HW226502   2.295   2.337   3.396
 8535SOL     OW26503   6.410   0.681   2.382
 8535SOL    HW126504   6.394   0.631   2.467
 8535SOL    HW226505   6.391   0.622   2.304
 8536SOL     OW26506   0.459   1.308   4.395
 8536SOL    HW126507   0.463   1.297   4.494
 8536SOL    HW226508   0.500   1.396   4.370
 8537SOL     OW26509   6.320   1.493   2.858
 8537SOL    HW126510   6.337   1.591   2.867
 8537SOL    HW226511   6.260   1.463   2.932
 8538SOL     OW26512   0.857   2.398   0.368
 8538SOL    HW126513   0.953   2.370   0.363
 8538SOL    HW226514   0.851   2.498   0.364
 8539SOL     OW26515   5.402   2.657   2.679
 8539SOL    HW126516   5.327   2.720   2.660
 8539SOL    HW226517   5.466   2.699   2.743
 8540SOL     OW26518   3.635   0.540   1.148
 8540SOL    HW126519   3.608   0.476   1.076
 8540SOL    HW226520   3.554   0.586   1.184
 8541SOL     OW26521   2.050   2.666   4.321
 8541SOL    HW126522   2.055   2.694   4.225
 8541SOL    HW226523   2.143   2.652   4.357
 8542SOL     OW26524   3.332   4.780   0.423
 8542SOL    HW126525   3.290   4.857   0.472
 8542SOL    HW226526   3.263   4.737   0.365
 8543SOL     OW26527   2.845   2.068   6.476
 8543SOL    HW126528   2.902   2.083   6.557
 8543SOL    HW226529   2.806   1.976   6.480
 8544SOL     OW26530   5.948   2.578   3.664
 8544SOL    HW126531   5.885   2.643   3.706
 8544SOL    HW226532   5.917   2.485   3.681
 8545SOL     OW26533   4.633   6.368   5.088
 8545SOL    HW126534   4.618   6.445   5.149
 8545SOL    HW226535   4.732   6.356   5.072
 8546SOL     OW26536   4.623   2.409   6.968
 8546SOL    HW126537   4.607   2.358   6.884
 8546SOL    HW226538   4.674   2.352   0.012
 8547SOL     OW26539   0.950   4.744   2.184
 8547SOL    HW126540   0.965   4.652   2.147
 8547SOL    HW226541   0.856   4.751   2.218
 8548SOL     OW26542   6.184   1.475   5.616
 8548SOL    HW126543   6.166   1.384   5.579
 8548SOL    HW226544   6.240   1.467   5.699
 8549SOL     OW26545   5.357   3.316   5.393
 8549SOL    HW126546   5.382   3.404   5.434
 8549SOL    HW226547   5.277   3.329   5.333
 8550SOL     OW26548   1.030   4.419   6.140
 8550SOL    HW126549   1.105   4.484   6.126
 8550SOL    HW226550   1.055   4.331   6.100
 8551SOL     OW26551   2.595   4.263   1.446
 8551SOL    HW126552   2.553   4.305   1.365
 8551SOL    HW226553   2.695   4.265   1.436
 8552SOL     OW26554   3.189   6.799   4.557
 8552SOL    HW126555   3.097   6.811   4.520
 8552SOL    HW226556   3.196   6.710   4.601
 8553SOL     OW26557   5.996   5.120   0.082
 8553SOL    HW126558   6.010   5.215   0.111
 8553SOL    HW226559   5.969   5.118   7.007
 8554SOL     OW26560   5.611   3.830   6.705
 8554SOL    HW126561   5.603   3.929   6.693
 8554SOL    HW226562   5.533   3.796   6.756
 8555SOL     OW26563   1.873   6.661   4.241
 8555SOL    HW126564   1.951   6.604   4.266
 8555SOL    HW226565   1.799   6.646   4.307
 8556SOL     OW26566   6.065   6.952   4.249
 8556SOL    HW126567   6.034   0.006   4.190
 8556SOL    HW226568   6.031   6.865   4.212
 8557SOL     OW26569   6.833   1.128   0.205
 8557SOL    HW126570   6.908   1.062   0.211
 8557SOL    HW226571   6.755   1.095   0.259
 8558SOL     OW26572   0.713   5.603   2.085
 8558SOL    HW126573   0.620   5.600   2.123
 8558SOL    HW226574   0.738   5.512   2.052
 8559SOL     OW26575   0.387   1.289   5.638
 8559SOL    HW126576   0.376   1.373   5.585
 8559SOL    HW226577   0.476   1.248   5.617
 8560SOL     OW26578   6.518   2.151   6.568
 8560SOL    HW126579   6.455   2.138   6.491
 8560SOL    HW226580   6.557   2.243   6.564
 8561SOL     OW26581   5.249   5.793   5.738
 8561SOL    HW126582   5.299   5.880   5.737
 8561SOL    HW226583   5.157   5.809   5.773
 8562SOL     OW26584   3.802   0.140   4.645
 8562SOL    HW126585   3.806   0.056   4.699
 8562SOL    HW226586   3.763   0.120   4.555
 8563SOL     OW26587   3.065   2.992   6.593
 8563SOL    HW126588   3.034   2.996   6.498
 8563SOL    HW226589   3.103   2.901   6.611
 8564SOL     OW26590   0.488   6.689   3.058
 8564SOL    HW126591   0.491   6.611   2.995
 8564SOL    HW226592   0.394   6.724   3.062
 8565SOL     OW26593   3.592   0.660   1.702
 8565SOL    HW126594   3.528   0.675   1.777
 8565SOL    HW226595   3.547   0.606   1.630
 8566SOL     OW26596   1.762   3.741   3.528
 8566SOL    HW126597   1.767   3.800   3.608
 8566SOL    HW226598   1.850   3.743   3.480
 8567SOL     OW26599   4.951   5.903   0.164
 8567SOL    HW126600   4.975   5.853   0.247
 8567SOL    HW226601   5.030   5.958   0.135
 8568SOL     OW26602   5.763   0.865   0.369
 8568SOL    HW126603   5.797   0.937   0.429
 8568SOL    HW226604   5.840   0.813   0.331
 8569SOL     OW26605   4.151   1.255   5.595
 8569SOL    HW126606   4.179   1.349   5.613
 8569SOL    HW226607   4.122   1.246   5.500
 8570SOL     OW26608   0.456   3.574   6.203
 8570SOL    HW126609   0.383   3.512   6.175
 8570SOL    HW226610   0.544   3.542   6.166
 8571SOL     OW26611   6.990   4.299   4.824
 8571SOL    HW126612   6.963   4.395   4.825
 8571SOL    HW226613   6.909   4.241   4.829
 8572SOL     OW26614   2.941   5.064   5.423
 8572SOL    HW126615   3.017   4.999   5.419
 8572SOL    HW226616   2.976   5.155   5.445
 8573SOL     OW26617   4.385   6.419   4.489
 8573SOL    HW126618   4.339   6.483   4.550
 8573SOL    HW226619   4.393   6.460   4.398
 8574SOL     OW26620   0.181   3.786   4.375
 8574SOL    HW126621   0.131   3.751   4.296
 8574SOL    HW226622   0.265   3.831   4.344
 8575SOL     OW26623   2.969   2.942   6.350
 8575SOL    HW126624   2.952   2.982   6.260
 8575SOL    HW226625   2.996   2.847   6.340
 8576SOL     OW26626   1.847   0.480   0.695
 8576SOL    HW126627   1.936   0.477   0.741
 8576SOL    HW226628   1.856   0.445   0.602
 8577SOL     OW26629   6.666   5.367   4.232
 8577SOL    HW126630   6.726   5.350   4.154
 8577SOL    HW226631   6.621   5.456   4.222
 8578SOL     OW26632   4.928   0.392   3.087
 8578SOL    HW126633   4.953   0.484   3.117
 8578SOL    HW226634   4.897   0.338   3.165
 8579SOL     OW26635   0.445   4.873   2.839
 8579SOL    HW126636   0.401   4.853   2.751
 8579SOL    HW226637   0.385   4.844   2.913
 8580SOL     OW26638   2.994   5.045   5.927
 8580SOL    HW126639   2.958   4.989   5.852
 8580SOL    HW226640   3.017   4.987   6.005
 8581SOL     OW26641   3.564   2.882   0.379
 8581SOL    HW126642   3.591   2.787   0.364
 8581SOL    HW226643   3.608   2.916   0.462
 8582SOL     OW26644   4.232   4.636   0.527
 8582SOL    HW126645   4.261   4.708   0.590
 8582SOL    HW226646   4.254   4.547   0.567
 8583SOL     OW26647   5.419   6.639   5.236
 8583SOL    HW126648   5.506   6.689   5.239
 8583SOL    HW226649   5.359   6.680   5.167
 8584SOL     OW26650   0.729   5.535   6.594
 8584SOL    HW126651   0.694   5.622   6.631
 8584SOL    HW226652   0.661   5.463   6.609
 8585SOL     OW26653   0.618   1.420   1.072
 8585SOL    HW126654   0.709   1.391   1.043
 8585SOL    HW226655   0.622   1.512   1.111
 8586SOL     OW26656   4.063   5.240   4.212
 8586SOL    HW126657   4.066   5.258   4.310
 8586SOL    HW226658   4.152   5.260   4.172
 8587SOL     OW26659   6.482   1.932   1.803
 8587SOL    HW126660   6.464   1.845   1.756
 8587SOL    HW226661   6.580   1.949   1.803
 8588SOL     OW26662   3.378   2.152   0.011
 8588SOL    HW126663   3.409   2.207   6.955
 8588SOL    HW226664   3.458   2.123   0.065
 8589SOL     OW26665   3.001   1.358   4.959
 8589SOL    HW126666   3.044   1.309   4.883
 8589SOL    HW226667   2.919   1.405   4.926
 8590SOL     OW26668   6.159   5.706   5.215
 8590SOL    HW126669   6.134   5.627   5.160
 8590SOL    HW226670   6.104   5.707   5.299
 8591SOL     OW26671   1.084   2.663   0.482
 8591SOL    HW126672   1.111   2.648   0.386
 8591SOL    HW226673   0.992   2.627   0.497
 8592SOL     OW26674   6.734   6.054   6.263
 8592SOL    HW126675   6.717   6.003   6.347
 8592SOL    HW226676   6.770   6.145   6.286
 8593SOL     OW26677   0.373   6.097   3.364
 8593SOL    HW126678   0.357   6.188   3.326
 8593SOL    HW226679   0.382   6.104   3.464
 8594SOL     OW26680   3.460   4.147   3.403
 8594SOL    HW126681   3.400   4.075   3.369
 8594SOL    HW226682   3.539   4.156   3.342
 8595SOL     OW26683   1.685   2.818   1.448
 8595SOL    HW126684   1.605   2.764   1.423
 8595SOL    HW226685   1.745   2.764   1.506
 8596SOL     OW26686   6.577   4.259   2.354
 8596SOL    HW126687   6.507   4.328   2.334
 8596SOL    HW226688   6.601   4.210   2.270
 8597SOL     OW26689   2.571   1.641   0.248
 8597SOL    HW126690   2.555   1.739   0.234
 8597SOL    HW226691   2.581   1.596   0.159
 8598SOL     OW26692   5.376   3.775   1.511
 8598SOL    HW126693   5.429   3.728   1.582
 8598SOL    HW226694   5.278   3.765   1.530
 8599SOL     OW26695   0.946   3.268   1.084
 8599SOL    HW126696   0.893   3.300   1.162
 8599SOL    HW226697   1.021   3.209   1.116
 8600SOL     OW26698   6.099   2.880   6.452
 8600SOL    HW126699   6.049   2.818   6.512
 8600SOL    HW226700   6.197   2.872   6.470
 8601SOL     OW26701   0.164   0.554   5.253
 8601SOL    HW126702   0.252   0.577   5.295
 8601SOL    HW226703   0.098   0.533   5.325
 8602SOL     OW26704   1.993   6.364   1.859
 8602SOL    HW126705   2.064   6.417   1.814
 8602SOL    HW226706   2.023   6.340   1.952
 8603SOL     OW26707   4.879   3.505   1.330
 8603SOL    HW126708   4.873   3.411   1.296
 8603SOL    HW226709   4.819   3.564   1.276
 8604SOL     OW26710   5.753   2.129   2.750
 8604SOL    HW126711   5.719   2.162   2.662
 8604SOL    HW226712   5.813   2.198   2.791
 8605SOL     OW26713   2.561   5.516   1.668
 8605SOL    HW126714   2.511   5.600   1.647
 8605SOL    HW226715   2.658   5.536   1.677
 8606SOL     OW26716   4.059   5.582   5.424
 8606SOL    HW126717   4.032   5.585   5.520
 8606SOL    HW226718   4.011   5.507   5.378
 8607SOL     OW26719   3.043   5.907   1.380
 8607SOL    HW126720   3.041   5.807   1.366
 8607SOL    HW226721   3.128   5.943   1.343
 8608SOL     OW26722   5.983   6.431   2.032
 8608SOL    HW126723   6.018   6.351   1.982
 8608SOL    HW226724   6.031   6.438   2.120
 8609SOL     OW26725   4.353   0.741   6.745
 8609SOL    HW126726   4.312   0.668   6.799
 8609SOL    HW226727   4.339   0.723   6.648
 8610SOL     OW26728   0.168   6.267   5.483
 8610SOL    HW126729   0.187   6.211   5.403
 8610SOL    HW226730   0.181   6.213   5.566
 8611SOL     OW26731   1.664   1.770   3.551
 8611SOL    HW126732   1.734   1.809   3.490
 8611SOL    HW226733   1.582   1.749   3.498
 8612SOL     OW26734   4.942   3.171   4.528
 8612SOL    HW126735   5.006   3.212   4.594
 8612SOL    HW226736   4.916   3.080   4.560
 8613SOL     OW26737   1.272   1.095   6.952
 8613SOL    HW126738   1.236   1.117   6.862
 8613SOL    HW226739   1.355   1.148   6.970
 8614SOL     OW26740   1.213   1.373   3.786
 8614SOL    HW126741   1.278   1.297   3.781
 8614SOL    HW226742   1.255   1.449   3.836
 8615SOL     OW26743   4.423   2.355   5.191
 8615SOL    HW126744   4.464   2.444   5.211
 8615SOL    HW226745   4.346   2.368   5.128
 8616SOL     OW26746   1.437   3.064   0.254
 8616SOL    HW126747   1.476   2.987   0.303
 8616SOL    HW226748   1.338   3.065   0.267
 8617SOL     OW26749   5.948   2.888   0.658
 8617SOL    HW126750   5.878   2.817   0.672
 8617SOL    HW226751   5.922   2.945   0.580
 8618SOL     OW26752   4.241   0.603   3.122
 8618SOL    HW126753   4.165   0.615   3.186
 8618SOL    HW226754   4.295   0.523   3.149
 8619SOL     OW26755   4.202   5.865   1.091
 8619SOL    HW126756   4.219   5.767   1.089
 8619SOL    HW226757   4.218   5.901   1.183
 8620SOL     OW26758   6.518   6.219   3.356
 8620SOL    HW126759   6.586   6.217   3.283
 8620SOL    HW226760   6.541   6.153   3.426
 8621SOL     OW26761   5.323   0.616   3.320
 8621SOL    HW126762   5.323   0.516   3.323
 8621SOL    HW226763   5.291   0.647   3.230
 8622SOL     OW26764   5.133   5.307   6.867
 8622SOL    HW126765   5.168   5.401   6.874
 8622SOL    HW226766   5.109   5.287   6.772
 8623SOL     OW26767   6.368   2.350   3.141
 8623SOL    HW126768   6.450   2.296   3.155
 8623SOL    HW226769   6.377   2.403   3.056
 8624SOL     OW26770   6.927   4.093   4.232
 8624SOL    HW126771   6.991   4.168   4.215
 8624SOL    HW226772   6.948   4.050   4.320
 8625SOL     OW26773   3.712   0.991   6.643
 8625SOL    HW126774   3.669   0.951   6.562
 8625SOL    HW226775   3.812   0.981   6.636
 8626SOL     OW26776   3.043   3.302   2.460
 8626SOL    HW126777   3.054   3.293   2.361
 8626SOL    HW226778   3.069   3.216   2.504
 8627SOL     OW26779   2.294   0.184   6.362
 8627SOL    HW126780   2.373   0.159   6.417
 8627SOL    HW226781   2.221   0.116   6.375
 8628SOL     OW26782   6.257   1.049   0.464
 8628SOL    HW126783   6.173   1.101   0.482
 8628SOL    HW226784   6.337   1.102   0.491
 8629SOL     OW26785   1.543   5.310   3.726
 8629SOL    HW126786   1.551   5.368   3.644
 8629SOL    HW226787   1.452   5.270   3.730
 8630SOL     OW26788   5.750   4.871   4.291
 8630SOL    HW126789   5.747   4.956   4.239
 8630SOL    HW226790   5.763   4.892   4.388
 8631SOL     OW26791   4.644   5.764   3.661
 8631SOL    HW126792   4.604   5.842   3.708
 8631SOL    HW226793   4.715   5.723   3.719
 8632SOL     OW26794   3.944   0.496   3.746
 8632SOL    HW126795   3.889   0.431   3.693
 8632SOL    HW226796   3.946   0.583   3.698
 8633SOL     OW26797   6.416   6.920   3.503
 8633SOL    HW126798   6.468   6.996   3.542
 8633SOL    HW226799   6.472   6.836   3.507
 8634SOL     OW26800   6.545   5.707   1.421
 8634SOL    HW126801   6.608   5.783   1.405
 8634SOL    HW226802   6.450   5.739   1.415
 8635SOL     OW26803   6.526   3.261   5.895
 8635SOL    HW126804   6.513   3.162   5.896
 8635SOL    HW226805   6.439   3.306   5.873
 8636SOL     OW26806   5.394   5.799   0.505
 8636SOL    HW126807   5.479   5.753   0.530
 8636SOL    HW226808   5.373   5.779   0.409
 8637SOL     OW26809   1.946   0.543   1.154
 8637SOL    HW126810   1.977   0.605   1.226
 8637SOL    HW226811   1.892   0.593   1.087
 8638SOL     OW26812   4.549   5.374   0.868
 8638SOL    HW126813   4.608   5.393   0.789
 8638SOL    HW226814   4.455   5.364   0.837
 8639SOL     OW26815   6.250   2.618   1.753
 8639SOL    HW126816   6.305   2.701   1.754
 8639SOL    HW226817   6.295   2.547   1.807
 8640SOL     OW26818   4.803   6.175   1.307
 8640SOL    HW126819   4.732   6.226   1.258
 8640SOL    HW226820   4.813   6.085   1.266
 8641SOL     OW26821   5.246   4.819   3.204
 8641SOL    HW126822   5.210   4.851   3.292
 8641SOL    HW226823   5.261   4.721   3.207
 8642SOL     OW26824   4.484   1.784   1.494
 8642SOL    HW126825   4.396   1.751   1.459
 8642SOL    HW226826   4.497   1.750   1.587
 8643SOL     OW26827   4.020   0.332   0.013
 8643SOL    HW126828   3.980   0.424   0.020
 8643SOL    HW226829   4.120   0.339   0.014
 8644SOL     OW26830   6.677   3.468   5.447
 8644SOL    HW126831   6.663   3.549   5.504
 8644SOL    HW226832   6.588   3.432   5.418
 8645SOL     OW26833   5.995   4.482   1.881
 8645SOL    HW126834   5.920   4.488   1.815
 8645SOL    HW226835   5.972   4.534   1.963
 8646SOL     OW26836   5.639   6.850   1.226
 8646SOL    HW126837   5.590   6.858   1.139
 8646SOL    HW226838   5.718   6.789   1.213
 8647SOL     OW26839   4.285   5.065   1.837
 8647SOL    HW126840   4.337   5.101   1.760
 8647SOL    HW226841   4.274   4.966   1.826
 8648SOL     OW26842   5.926   1.391   4.615
 8648SOL    HW126843   5.917   1.407   4.517
 8648SOL    HW226844   5.837   1.370   4.654
 8649SOL     OW26845   0.051   4.734   5.774
 8649SOL    HW126846   0.068   4.783   5.859
 8649SOL    HW226847   6.973   4.728   5.758
 8650SOL     OW26848   0.266   4.517   1.915
 8650SOL    HW126849   0.219   4.598   1.878
 8650SOL    HW226850   0.316   4.471   1.841
 8651SOL     OW26851   3.661   2.970   1.313
 8651SOL    HW126852   3.705   3.001   1.229
 8651SOL    HW226853   3.564   2.997   1.311
 8652SOL     OW26854   1.217   2.860   3.574
 8652SOL    HW126855   1.137   2.883   3.628
 8652SOL    HW226856   1.291   2.831   3.634
 8653SOL     OW26857   5.776   3.247   6.683
 8653SOL    HW126858   5.753   3.168   6.626
 8653SOL    HW226859   5.708   3.319   6.670
 8654SOL     OW26860   0.506   5.699   2.255
 8654SOL    HW126861   0.499   5.793   2.223
 8654SOL    HW226862   0.428   5.646   2.222
 8655SOL     OW26863   6.314   6.169   3.026
 8655SOL    HW126864   6.277   6.260   3.006
 8655SOL    HW226865   6.377   6.141   2.954
 8656SOL     OW26866   6.623   1.820   1.272
 8656SOL    HW126867   6.703   1.873   1.244
 8656SOL    HW226868   6.649   1.755   1.343
 8657SOL     OW26869   2.846   3.929   0.656
 8657SOL    HW126870   2.929   3.960   0.608
 8657SOL    HW226871   2.802   4.008   0.699
 8658SOL     OW26872   0.506   4.980   6.196
 8658SOL    HW126873   0.601   5.004   6.218
 8658SOL    HW226874   0.444   5.040   6.247
 8659SOL     OW26875   4.313   0.576   3.464
 8659SOL    HW126876   4.358   0.572   3.375
 8659SOL    HW226877   4.215   0.557   3.453
 8660SOL     OW26878   5.544   4.506   0.264
 8660SOL    HW126879   5.477   4.511   0.338
 8660SOL    HW226880   5.610   4.434   0.284
 8661SOL     OW26881   6.507   3.735   1.479
 8661SOL    HW126882   6.606   3.741   1.464
 8661SOL    HW226883   6.483   3.642   1.507
 8662SOL     OW26884   0.507   0.493   0.601
 8662SOL    HW126885   0.578   0.498   0.670
 8662SOL    HW226886   0.497   0.582   0.556
 8663SOL     OW26887   1.836   5.757   0.745
 8663SOL    HW126888   1.912   5.816   0.719
 8663SOL    HW226889   1.771   5.808   0.801
 8664SOL     OW26890   4.422   5.158   1.641
 8664SOL    HW126891   4.404   5.142   1.544
 8664SOL    HW226892   4.388   5.249   1.666
 8665SOL     OW26893   5.206   5.413   4.525
 8665SOL    HW126894   5.212   5.325   4.477
 8665SOL    HW226895   5.286   5.468   4.502
 8666SOL     OW26896   5.878   3.885   4.628
 8666SOL    HW126897   5.918   3.937   4.552
 8666SOL    HW226898   5.903   3.929   4.714
 8667SOL     OW26899   5.205   2.666   3.236
 8667SOL    HW126900   5.277   2.679   3.305
 8667SOL    HW226901   5.246   2.667   3.145
 8668SOL     OW26902   3.541   1.170   4.201
 8668SOL    HW126903   3.569   1.201   4.110
 8668SOL    HW226904   3.480   1.238   4.242
 8669SOL     OW26905   4.179   6.805   5.693
 8669SOL    HW126906   4.227   6.839   5.611
 8669SOL    HW226907   4.102   6.865   5.713
 8670SOL     OW26908   3.987   4.944   3.386
 8670SOL    HW126909   3.926   5.009   3.432
 8670SOL    HW226910   4.070   4.991   3.358
 8671SOL     OW26911   6.214   6.097   2.751
 8671SOL    HW126912   6.244   6.158   2.824
 8671SOL    HW226913   6.290   6.078   2.690
 8672SOL     OW26914   3.579   5.146   5.673
 8672SOL    HW126915   3.520   5.080   5.721
 8672SOL    HW226916   3.649   5.181   5.736
 8673SOL     OW26917   5.198   2.097   0.423
 8673SOL    HW126918   5.148   2.064   0.503
 8673SOL    HW226919   5.238   2.019   0.375
 8674SOL     OW26920   0.744   0.348   2.595
 8674SOL    HW126921   0.682   0.402   2.652
 8674SOL    HW226922   0.775   0.404   2.518
 8675SOL     OW26923   2.016   2.770   2.579
 8675SOL    HW126924   2.065   2.852   2.549
 8675SOL    HW226925   1.972   2.726   2.501
 8676SOL     OW26926   4.112   0.452   4.422
 8676SOL    HW126927   4.128   0.550   4.433
 8676SOL    HW226928   4.197   0.407   4.395
 8677SOL     OW26929   2.101   4.399   5.443
 8677SOL    HW126930   2.053   4.318   5.408
 8677SOL    HW226931   2.161   4.435   5.372
 8678SOL     OW26932   1.467   1.079   6.098
 8678SOL    HW126933   1.549   1.049   6.049
 8678SOL    HW226934   1.450   1.018   6.176
 8679SOL     OW26935   6.540   2.245   4.689
 8679SOL    HW126936   6.574   2.198   4.608
 8679SOL    HW226937   6.608   2.238   4.762
 8680SOL     OW26938   0.744   3.826   0.871
 8680SOL    HW126939   0.775   3.918   0.847
 8680SOL    HW226940   0.745   3.768   0.789
 8681SOL     OW26941   4.108   3.610   1.471
 8681SOL    HW126942   4.189   3.568   1.513
 8681SOL    HW226943   4.056   3.659   1.541
 8682SOL     OW26944   1.771   5.745   2.602
 8682SOL    HW126945   1.818   5.820   2.556
 8682SOL    HW226946   1.813   5.658   2.575
 8683SOL     OW26947   5.439   2.664   6.686
 8683SOL    HW126948   5.382   2.585   6.663
 8683SOL    HW226949   5.388   2.748   6.670
 8684SOL     OW26950   6.544   2.948   4.388
 8684SOL    HW126951   6.579   2.955   4.295
 8684SOL    HW226952   6.571   3.030   4.440
 8685SOL     OW26953   0.351   1.608   5.260
 8685SOL    HW126954   0.308   1.592   5.171
 8685SOL    HW226955   0.380   1.703   5.267
 8686SOL     OW26956   6.598   1.768   4.051
 8686SOL    HW126957   6.616   1.675   4.021
 8686SOL    HW226958   6.500   1.784   4.054
 8687SOL     OW26959   3.601   0.930   2.805
 8687SOL    HW126960   3.654   0.923   2.890
 8687SOL    HW226961   3.505   0.910   2.824
 8688SOL     OW26962   1.348   0.389   2.139
 8688SOL    HW126963   1.438   0.431   2.131
 8688SOL    HW226964   1.278   0.460   2.131
 8689SOL     OW26965   4.227   5.568   0.819
 8689SOL    HW126966   4.237   5.537   0.913
 8689SOL    HW226967   4.308   5.622   0.793
 8690SOL     OW26968   1.396   0.610   2.540
 8690SOL    HW126969   1.365   0.703   2.563
 8690SOL    HW226970   1.458   0.577   2.611
 8691SOL     OW26971   5.962   1.703   0.462
 8691SOL    HW126972   5.864   1.690   0.450
 8691SOL    HW226973   5.978   1.785   0.518
 8692SOL     OW26974   1.758   1.610   4.011
 8692SOL    HW126975   1.844   1.614   3.961
 8692SOL    HW226976   1.711   1.698   4.006
 8693SOL     OW26977   5.446   2.010   6.767
 8693SOL    HW126978   5.477   1.955   6.845
 8693SOL    HW226979   5.346   2.012   6.767
 8694SOL     OW26980   3.588   6.282   6.921
 8694SOL    HW126981   3.518   6.332   6.972
 8694SOL    HW226982   3.662   6.255   6.983
 8695SOL     OW26983   4.551   4.307   5.168
 8695SOL    HW126984   4.615   4.338   5.098
 8695SOL    HW226985   4.477   4.372   5.178
 8696SOL     OW26986   1.517   5.059   0.794
 8696SOL    HW126987   1.452   5.041   0.720
 8696SOL    HW226988   1.608   5.026   0.767
 8697SOL     OW26989   5.339   5.032   6.654
 8697SOL    HW126990   5.375   5.056   6.745
 8697SOL    HW226991   5.240   5.016   6.661
 8698SOL     OW26992   5.902   6.172   4.165
 8698SOL    HW126993   5.828   6.180   4.232
 8698SOL    HW226994   5.990   6.176   4.213
 8699SOL     OW26995   1.538   1.348   5.480
 8699SOL    HW126996   1.508   1.336   5.574
 8699SOL    HW226997   1.607   1.280   5.458
 8700SOL     OW26998   2.232   1.942   5.979
 8700SOL    HW126999   2.202   1.853   6.015
 8700SOL    HW227000   2.331   1.950   5.989
 8701SOL     OW27001   1.240   2.395   4.189
 8701SOL    HW127002   1.277   2.308   4.157
 8701SOL    HW227003   1.170   2.380   4.258
 8702SOL     OW27004   5.133   5.691   0.057
 8702SOL    HW127005   5.042   5.709   0.095
 8702SOL    HW227006   5.155   5.760   7.009
 8703SOL     OW27007   1.211   5.572   1.371
 8703SOL    HW127008   1.166   5.609   1.452
 8703SOL    HW227009   1.144   5.529   1.311
 8704SOL     OW27010   0.503   4.092   1.852
 8704SOL    HW127011   0.494   4.041   1.767
 8704SOL    HW227012   0.486   4.031   1.929
 8705SOL     OW27013   4.975   6.427   4.700
 8705SOL    HW127014   4.908   6.424   4.626
 8705SOL    HW227015   5.066   6.441   4.661
 8706SOL     OW27016   4.972   1.604   5.862
 8706SOL    HW127017   4.873   1.606   5.844
 8706SOL    HW227018   4.991   1.537   5.934
 8707SOL     OW27019   4.785   2.148   5.403
 8707SOL    HW127020   4.713   2.144   5.334
 8707SOL    HW227021   4.851   2.218   5.378
 8708SOL     OW27022   3.670   1.826   0.653
 8708SOL    HW127023   3.602   1.898   0.662
 8708SOL    HW227024   3.666   1.766   0.733
 8709SOL     OW27025   6.386   3.489   1.008
 8709SOL    HW127026   6.407   3.437   0.926
 8709SOL    HW227027   6.468   3.536   1.041
 8710SOL     OW27028   6.841   2.872   3.620
 8710SOL    HW127029   6.922   2.927   3.600
 8710SOL    HW227030   6.818   2.816   3.540
 8711SOL     OW27031   0.474   1.452   4.142
 8711SOL    HW127032   0.420   1.372   4.168
 8711SOL    HW227033   0.473   1.462   4.043
 8712SOL     OW27034   3.682   1.278   6.377
 8712SOL    HW127035   3.652   1.227   6.296
 8712SOL    HW227036   3.769   1.323   6.358
 8713SOL     OW27037   5.751   4.785   2.508
 8713SOL    HW127038   5.674   4.738   2.551
 8713SOL    HW227039   5.824   4.797   2.575
 8714SOL     OW27040   2.057   1.362   4.401
 8714SOL    HW127041   1.991   1.419   4.352
 8714SOL    HW227042   2.150   1.390   4.375
 8715SOL     OW27043   5.997   1.325   2.170
 8715SOL    HW127044   6.092   1.318   2.142
 8715SOL    HW227045   5.951   1.397   2.119
 8716SOL     OW27046   1.019   1.611   2.223
 8716SOL    HW127047   1.046   1.595   2.318
 8716SOL    HW227048   1.029   1.709   2.202
 8717SOL     OW27049   3.990   3.305   0.724
 8717SOL    HW127050   3.927   3.381   0.741
 8717SOL    HW227051   4.083   3.340   0.716
 8718SOL     OW27052   6.932   3.054   6.011
 8718SOL    HW127053   0.006   3.064   5.979
 8718SOL    HW227054   6.885   2.988   5.952
 8719SOL     OW27055   6.798   0.785   5.753
 8719SOL    HW127056   6.853   0.739   5.823
 8719SOL    HW227057   6.705   0.797   5.787
 8720SOL     OW27058   4.601   3.864   5.983
 8720SOL    HW127059   4.648   3.817   5.908
 8720SOL    HW227060   4.513   3.819   6.000
 8721SOL     OW27061   6.811   1.223   4.692
 8721SOL    HW127062   6.845   1.164   4.766
 8721SOL    HW227063   6.885   1.280   4.658
 8722SOL     OW27064   3.051   2.977   0.725
 8722SOL    HW127065   3.103   2.990   0.641
 8722SOL    HW227066   3.107   3.006   0.804
 8723SOL     OW27067   0.200   5.020   0.158
 8723SOL    HW127068   0.146   4.936   0.149
 8723SOL    HW227069   0.254   5.016   0.242
 8724SOL     OW27070   5.687   6.151   6.603
 8724SOL    HW127071   5.774   6.102   6.596
 8724SOL    HW227072   5.634   6.138   6.520
 8725SOL     OW27073   2.162   6.428   1.294
 8725SOL    HW127074   2.062   6.440   1.289
 8725SOL    HW227075   2.192   6.367   1.221
 8726SOL     OW27076   5.632   0.614   1.261
 8726SOL    HW127077   5.650   0.575   1.351
 8726SOL    HW227078   5.598   0.707   1.271
 8727SOL     OW27079   5.939   6.220   1.065
 8727SOL    HW127080   5.867   6.205   1.132
 8727SOL    HW227081   5.971   6.314   1.071
 8728SOL     OW27082   2.191   6.609   5.556
 8728SOL    HW127083   2.094   6.586   5.555
 8728SOL    HW227084   2.203   6.706   5.536
 8729SOL     OW27085   5.818   6.549   4.370
 8729SOL    HW127086   5.756   6.472   4.388
 8729SOL    HW227087   5.780   6.632   4.412
 8730SOL     OW27088   6.850   6.678   1.156
 8730SOL    HW127089   6.768   6.708   1.205
 8730SOL    HW227090   6.892   6.601   1.205
 8731SOL     OW27091   0.420   2.227   2.541
 8731SOL    HW127092   0.453   2.322   2.530
 8731SOL    HW227093   0.356   2.206   2.467
 8732SOL     OW27094   6.200   5.145   1.641
 8732SOL    HW127095   6.157   5.123   1.728
 8732SOL    HW227096   6.249   5.231   1.649
 8733SOL     OW27097   6.861   6.511   1.720
 8733SOL    HW127098   6.861   6.532   1.817
 8733SOL    HW227099   6.946   6.463   1.696
 8734SOL     OW27100   0.013   5.195   0.272
 8734SOL    HW127101   6.934   5.193   0.266
 8734SOL    HW227102   0.052   5.145   0.194
 8735SOL     OW27103   6.998   2.464   6.382
 8735SOL    HW127104   0.016   2.412   6.459
 8735SOL    HW227105   6.946   2.542   6.417
 8736SOL     OW27106   0.474   4.362   6.009
 8736SOL    HW127107   0.475   4.459   5.987
 8736SOL    HW227108   0.555   4.318   5.970
 8737SOL     OW27109   3.747   6.415   6.688
 8737SOL    HW127110   3.666   6.386   6.738
 8737SOL    HW227111   3.723   6.488   6.624
 8738SOL     OW27112   1.219   3.724   4.871
 8738SOL    HW127113   1.285   3.662   4.913
 8738SOL    HW227114   1.142   3.737   4.932
 8739SOL     OW27115   1.273   3.255   5.520
 8739SOL    HW127116   1.288   3.299   5.432
 8739SOL    HW227117   1.357   3.256   5.573
 8740SOL     OW27118   1.593   6.684   1.464
 8740SOL    HW127119   1.600   6.595   1.509
 8740SOL    HW227120   1.500   6.719   1.473
 8741SOL     OW27121   1.850   3.163   1.811
 8741SOL    HW127122   1.908   3.099   1.760
 8741SOL    HW227123   1.899   3.249   1.823
 8742SOL     OW27124   4.787   6.268   2.203
 8742SOL    HW127125   4.827   6.195   2.146
 8742SOL    HW227126   4.851   6.291   2.276
 8743SOL     OW27127   2.347   4.703   3.214
 8743SOL    HW127128   2.266   4.759   3.193
 8743SOL    HW227129   2.380   4.659   3.131
 8744SOL     OW27130   3.297   3.419   5.801
 8744SOL    HW127131   3.291   3.518   5.815
 8744SOL    HW227132   3.209   3.385   5.769
 8745SOL     OW27133   6.649   1.543   0.034
 8745SOL    HW127134   6.552   1.524   0.017
 8745SOL    HW227135   6.668   1.639   0.012
 8746SOL     OW27136   5.126   4.181   5.329
 8746SOL    HW127137   5.060   4.256   5.334
 8746SOL    HW227138   5.099   4.119   5.256
 8747SOL     OW27139   1.391   2.632   3.817
 8747SOL    HW127140   1.313   2.642   3.879
 8747SOL    HW227141   1.475   2.659   3.864
 8748SOL     OW27142   2.883   6.910   0.062
 8748SOL    HW127143   2.889   6.908   6.983
 8748SOL    HW227144   2.857   6.820   0.096
 8749SOL     OW27145   4.295   1.454   4.059
 8749SOL    HW127146   4.339   1.432   4.146
 8749SOL    HW227147   4.196   1.461   4.072
 8750SOL     OW27148   2.210   0.173   5.006
 8750SOL    HW127149   2.195   0.175   5.105
 8750SOL    HW227150   2.265   0.252   4.979
 8751SOL     OW27151   2.086   0.434   3.095
 8751SOL    HW127152   2.163   0.449   3.157
 8751SOL    HW227153   2.089   0.339   3.061
 8752SOL     OW27154   2.021   2.230   6.035
 8752SOL    HW127155   2.055   2.194   5.948
 8752SOL    HW227156   1.968   2.160   6.081
 8753SOL     OW27157   6.387   1.606   4.940
 8753SOL    HW127158   6.435   1.602   5.027
 8753SOL    HW227159   6.346   1.517   4.920
 8754SOL     OW27160   2.107   0.983   5.095
 8754SOL    HW127161   2.014   0.945   5.089
 8754SOL    HW227162   2.170   0.911   5.124
 8755SOL     OW27163   2.272   1.806   1.068
 8755SOL    HW127164   2.352   1.823   1.126
 8755SOL    HW227165   2.199   1.869   1.092
 8756SOL     OW27166   1.757   3.908   3.737
 8756SOL    HW127167   1.811   3.951   3.809
 8756SOL    HW227168   1.703   3.978   3.690
 8757SOL     OW27169   4.646   6.155   4.237
 8757SOL    HW127170   4.615   6.166   4.331
 8757SOL    HW227171   4.576   6.106   4.185
 8758SOL     OW27172   5.286   6.468   2.159
 8758SOL    HW127173   5.307   6.556   2.116
 8758SOL    HW227174   5.206   6.478   2.218
 8759SOL     OW27175   5.081   1.491   5.231
 8759SOL    HW127176   5.128   1.537   5.307
 8759SOL    HW227177   4.994   1.537   5.213
 8760SOL     OW27178   1.527   2.948   3.763
 8760SOL    HW127179   1.587   2.895   3.823
 8760SOL    HW227180   1.455   2.990   3.818
 8761SOL     OW27181   4.695   6.251   0.844
 8761SOL    HW127182   4.667   6.197   0.765
 8761SOL    HW227183   4.795   6.247   0.854
 8762SOL     OW27184   1.080   3.723   0.163
 8762SOL    HW127185   0.983   3.713   0.183
 8762SOL    HW227186   1.102   3.677   0.077
 8763SOL     OW27187   0.229   5.985   6.101
 8763SOL    HW127188   0.240   5.888   6.123
 8763SOL    HW227189   0.170   6.028   6.169
 8764SOL     OW27190   3.608   2.152   5.411
 8764SOL    HW127191   3.549   2.074   5.394
 8764SOL    HW227192   3.643   2.149   5.504
 8765SOL     OW27193   0.009   0.392   5.095
 8765SOL    HW127194   0.061   0.414   5.177
 8765SOL    HW227195   6.940   0.356   5.120
 8766SOL     OW27196   2.481   4.416   2.327
 8766SOL    HW127197   2.458   4.500   2.279
 8766SOL    HW227198   2.493   4.342   2.260
 8767SOL     OW27199   4.821   1.812   4.932
 8767SOL    HW127200   4.913   1.815   4.891
 8767SOL    HW227201   4.755   1.847   4.866
 8768SOL     OW27202   1.580   4.143   0.071
 8768SOL    HW127203   1.523   4.225   0.065
 8768SOL    HW227204   1.522   4.062   0.074
 8769SOL     OW27205   2.136   0.490   5.021
 8769SOL    HW127206   2.041   0.494   4.988
 8769SOL    HW227207   2.188   0.566   4.982
 8770SOL     OW27208   5.286   1.883   2.828
 8770SOL    HW127209   5.270   1.972   2.873
 8770SOL    HW227210   5.331   1.898   2.740
 8771SOL     OW27211   2.188   2.544   5.294
 8771SOL    HW127212   2.111   2.587   5.342
 8771SOL    HW227213   2.257   2.613   5.273
 8772SOL     OW27214   5.903   5.961   6.595
 8772SOL    HW127215   5.988   5.972   6.647
 8772SOL    HW227216   5.892   5.865   6.568
 8773SOL     OW27217   3.154   1.927   3.026
 8773SOL    HW127218   3.062   1.933   3.064
 8773SOL    HW227219   3.161   1.847   2.967
 8774SOL     OW27220   1.118   0.675   0.432
 8774SOL    HW127221   1.029   0.709   0.459
 8774SOL    HW227222   1.190   0.726   0.480
 8775SOL     OW27223   0.028   6.561   4.095
 8775SOL    HW127224   6.970   6.573   4.035
 8775SOL    HW227225   0.011   6.484   4.157
 8776SOL     OW27226   3.073   3.858   4.727
 8776SOL    HW127227   3.074   3.934   4.792
 8776SOL    HW227228   3.104   3.890   4.637
 8777SOL     OW27229   6.377   5.810   2.269
 8777SOL    HW127230   6.342   5.786   2.178
 8777SOL    HW227231   6.465   5.856   2.260
 8778SOL     OW27232   0.783   2.195   3.258
 8778SOL    HW127233   0.868   2.211   3.208
 8778SOL    HW227234   0.729   2.125   3.211
 8779SOL     OW27235   1.069   4.692   1.055
 8779SOL    HW127236   1.139   4.756   1.024
 8779SOL    HW227237   1.111   4.622   1.114
 8780SOL     OW27238   2.318   6.451   4.359
 8780SOL    HW127239   2.297   6.396   4.440
 8780SOL    HW227240   2.412   6.432   4.329
 8781SOL     OW27241   0.629   2.412   3.220
 8781SOL    HW127242   0.646   2.491   3.278
 8781SOL    HW227243   0.702   2.344   3.235
 8782SOL     OW27244   4.682   1.648   2.861
 8782SOL    HW127245   4.648   1.677   2.951
 8782SOL    HW227246   4.725   1.725   2.814
 8783SOL     OW27247   5.544   2.460   5.731
 8783SOL    HW127248   5.447   2.444   5.750
 8783SOL    HW227249   5.591   2.372   5.721
 8784SOL     OW27250   5.186   3.960   5.898
 8784SOL    HW127251   5.223   4.047   5.866
 8784SOL    HW227252   5.093   3.949   5.864
 8785SOL     OW27253   5.150   4.840   6.280
 8785SOL    HW127254   5.214   4.820   6.354
 8785SOL    HW227255   5.169   4.780   6.202
 8786SOL     OW27256   1.164   6.361   0.845
 8786SOL    HW127257   1.245   6.322   0.890
 8786SOL    HW227258   1.147   6.314   0.759
 8787SOL     OW27259   1.574   2.885   0.036
 8787SOL    HW127260   1.664   2.925   0.021
 8787SOL    HW227261   1.520   2.946   0.094
 8788SOL     OW27262   1.613   1.606   5.356
 8788SOL    HW127263   1.600   1.533   5.423
 8788SOL    HW227264   1.623   1.566   5.265
 8789SOL     OW27265   0.301   0.367   6.691
 8789SOL    HW127266   0.351   0.318   6.621
 8789SOL    HW227267   0.309   0.319   6.778
 8790SOL     OW27268   4.811   1.083   0.020
 8790SOL    HW127269   4.792   1.113   6.947
 8790SOL    HW227270   4.845   1.161   0.073
 8791SOL     OW27271   5.099   6.108   5.534
 8791SOL    HW127272   5.054   6.033   5.582
 8791SOL    HW227273   5.108   6.186   5.596
 8792SOL     OW27274   5.498   0.003   2.757
 8792SOL    HW127275   5.534   6.931   2.763
 8792SOL    HW227276   5.430   0.008   2.685
 8793SOL     OW27277   1.070   4.212   3.687
 8793SOL    HW127278   1.104   4.268   3.763
 8793SOL    HW227279   1.029   4.128   3.723
 8794SOL     OW27280   3.021   6.134   2.496
 8794SOL    HW127281   3.094   6.113   2.431
 8794SOL    HW227282   3.061   6.165   2.582
 8795SOL     OW27283   2.426   6.035   5.041
 8795SOL    HW127284   2.380   5.972   4.979
 8795SOL    HW227285   2.384   6.125   5.035
 8796SOL     OW27286   5.688   2.618   5.559
 8796SOL    HW127287   5.638   2.600   5.644
 8796SOL    HW227288   5.662   2.708   5.524
 8797SOL     OW27289   0.866   6.273   6.488
 8797SOL    HW127290   0.872   6.218   6.571
 8797SOL    HW227291   0.955   6.315   6.468
 8798SOL     OW27292   3.547   3.151   6.122
 8798SOL    HW127293   3.554   3.078   6.190
 8798SOL    HW227294   3.619   3.139   6.053
 8799SOL     OW27295   3.817   0.018   3.203
 8799SOL    HW127296   3.887   0.088   3.189
 8799SOL    HW227297   3.756   0.016   3.123
 8800SOL     OW27298   4.356   5.305   0.308
 8800SOL    HW127299   4.438   5.253   0.332
 8800SOL    HW227300   4.382   5.390   0.263
 8801SOL     OW27301   3.083   6.605   5.367
 8801SOL    HW127302   3.096   6.562   5.278
 8801SOL    HW227303   3.036   6.692   5.354
 8802SOL     OW27304   2.171   6.515   1.710
 8802SOL    HW127305   2.144   6.551   1.621
 8802SOL    HW227306   2.263   6.478   1.706
 8803SOL     OW27307   4.069   6.302   1.053
 8803SOL    HW127308   4.000   6.319   1.123
 8803SOL    HW227309   4.042   6.346   0.967
 8804SOL     OW27310   3.281   0.739   0.976
 8804SOL    HW127311   3.354   0.758   0.911
 8804SOL    HW227312   3.199   0.791   0.951
 8805SOL     OW27313   0.226   0.219   3.386
 8805SOL    HW127314   0.189   0.268   3.306
 8805SOL    HW227315   0.234   0.282   3.463
 8806SOL     OW27316   2.448   4.957   0.306
 8806SOL    HW127317   2.533   4.967   0.358
 8806SOL    HW227318   2.469   4.938   0.210
 8807SOL     OW27319   1.670   6.099   6.432
 8807SOL    HW127320   1.661   6.198   6.422
 8807SOL    HW227321   1.604   6.066   6.499
 8808SOL     OW27322   6.024   2.083   1.028
 8808SOL    HW127323   6.114   2.048   1.000
 8808SOL    HW227324   5.961   2.007   1.041
 8809SOL     OW27325   5.884   4.369   0.903
 8809SOL    HW127326   5.967   4.341   0.854
 8809SOL    HW227327   5.897   4.352   1.001
 8810SOL     OW27328   5.147   1.528   3.841
 8810SOL    HW127329   5.144   1.440   3.794
 8810SOL    HW227330   5.085   1.526   3.919
 8811SOL     OW27331   1.428   1.778   4.063
 8811SOL    HW127332   1.399   1.751   4.154
 8811SOL    HW227333   1.404   1.874   4.047
 8812SOL     OW27334   2.227   0.896   0.139
 8812SOL    HW127335   2.321   0.861   0.148
 8812SOL    HW227336   2.215   0.976   0.197
 8813SOL     OW27337   1.073   5.940   0.750
 8813SOL    HW127338   1.121   5.873   0.694
 8813SOL    HW227339   1.073   6.029   0.703
 8814SOL     OW27340   5.387   6.459   0.127
 8814SOL    HW127341   5.304   6.433   0.175
 8814SOL    HW227342   5.466   6.418   0.172
 8815SOL     OW27343   6.395   5.927   3.299
 8815SOL    HW127344   6.388   5.873   3.383
 8815SOL    HW227345   6.329   6.001   3.302
 8816SOL     OW27346   0.981   5.697   2.128
 8816SOL    HW127347   1.032   5.611   2.123
 8816SOL    HW227348   0.886   5.681   2.103
 8817SOL     OW27349   2.736   4.538   5.313
 8817SOL    HW127350   2.818   4.546   5.256
 8817SOL    HW227351   2.656   4.570   5.263
 8818SOL     OW27352   0.155   4.659   4.966
 8818SOL    HW127353   0.174   4.675   5.063
 8818SOL    HW227354   0.230   4.608   4.925
 8819SOL     OW27355   5.727   0.166   3.959
 8819SOL    HW127356   5.698   0.103   4.032
 8819SOL    HW227357   5.683   0.255   3.972
 8820SOL     OW27358   1.227   3.503   4.139
 8820SOL    HW127359   1.281   3.491   4.056
 8820SOL    HW227360   1.160   3.576   4.126
 8821SOL     OW27361   1.448   6.551   6.524
 8821SOL    HW127362   1.365   6.607   6.523
 8821SOL    HW227363   1.494   6.562   6.613
 8822SOL     OW27364   0.403   1.978   3.938
 8822SOL    HW127365   0.369   1.896   3.983
 8822SOL    HW227366   0.475   1.954   3.874
 8823SOL     OW27367   2.406   4.728   1.677
 8823SOL    HW127368   2.308   4.748   1.676
 8823SOL    HW227369   2.420   4.630   1.661
 8824SOL     OW27370   4.679   3.891   0.918
 8824SOL    HW127371   4.582   3.865   0.922
 8824SOL    HW227372   4.694   3.970   0.978
 8825SOL     OW27373   1.914   2.278   0.916
 8825SOL    HW127374   1.941   2.191   0.956
 8825SOL    HW227375   1.815   2.279   0.900
 8826SOL     OW27376   5.529   0.715   0.414
 8826SOL    HW127377   5.449   0.774   0.409
 8826SOL    HW227378   5.612   0.770   0.406
 8827SOL     OW27379   6.919   0.900   3.379
 8827SOL    HW127380   6.942   0.995   3.400
 8827SOL    HW227381   7.001   0.843   3.386
 8828SOL     OW27382   1.389   6.306   2.957
 8828SOL    HW127383   1.455   6.318   3.032
 8828SOL    HW227384   1.357   6.396   2.926
 8829SOL     OW27385   1.124   1.408   0.692
 8829SOL    HW127386   1.224   1.401   0.681
 8829SOL    HW227387   1.100   1.502   0.715
 8830SOL     OW27388   1.219   1.751   0.460
 8830SOL    HW127389   1.139   1.722   0.513
 8830SOL    HW227390   1.257   1.834   0.501
 8831SOL     OW27391   0.005   1.123   2.093
 8831SOL    HW127392   0.026   1.196   2.158
 8831SOL    HW227393   6.981   1.047   2.140
 8832SOL     OW27394   6.965   0.797   1.965
 8832SOL    HW127395   6.992   0.702   1.954
 8832SOL    HW227396   6.937   0.814   2.060
 8833SOL     OW27397   1.270   4.802   3.114
 8833SOL    HW127398   1.247   4.883   3.060
 8833SOL    HW227399   1.364   4.809   3.147
 8834SOL     OW27400   5.934   4.107   3.989
 8834SOL    HW127401   6.005   4.123   3.920
 8834SOL    HW227402   5.968   4.045   4.059
 8835SOL     OW27403   0.336   0.506   6.378
 8835SOL    HW127404   0.433   0.527   6.389
 8835SOL    HW227405   0.287   0.531   6.461
 8836SOL     OW27406   4.971   1.803   1.673
 8836SOL    HW127407   4.896   1.869   1.671
 8836SOL    HW227408   4.972   1.756   1.761
 8837SOL     OW27409   0.749   2.295   2.181
 8837SOL    HW127410   0.779   2.361   2.250
 8837SOL    HW227411   0.650   2.287   2.184
 8838SOL     OW27412   2.136   6.046   3.024
 8838SOL    HW127413   2.230   6.027   3.053
 8838SOL    HW227414   2.080   6.062   3.104
 8839SOL     OW27415   5.652   5.947   4.055
 8839SOL    HW127416   5.636   5.963   4.152
 8839SOL    HW227417   5.750   5.930   4.040
 8840SOL     OW27418   4.972   1.244   2.441
 8840SOL    HW127419   5.006   1.172   2.501
 8840SOL    HW227420   4.941   1.322   2.496
 8841SOL     OW27421   2.919   7.009   3.878
 8841SOL    HW127422   2.970   6.930   3.914
 8841SOL    HW227423   2.939   0.069   3.933
 8842SOL     OW27424   1.376   2.732   1.897
 8842SOL    HW127425   1.409   2.825   1.880
 8842SOL    HW227426   1.447   2.680   1.944
 8843SOL     OW27427   0.085   3.258   4.658
 8843SOL    HW127428   0.037   3.331   4.611
 8843SOL    HW227429   0.172   3.239   4.611
 8844SOL     OW27430   5.985   1.257   6.180
 8844SOL    HW127431   6.021   1.309   6.258
 8844SOL    HW227432   6.029   1.289   6.096
 8845SOL     OW27433   5.555   3.505   0.051
 8845SOL    HW127434   5.580   3.523   0.146
 8845SOL    HW227435   5.635   3.519   7.013
 8846SOL     OW27436   2.590   4.754   3.384
 8846SOL    HW127437   2.503   4.729   3.341
 8846SOL    HW227438   2.591   4.722   3.478
 8847SOL     OW27439   1.535   1.015   2.705
 8847SOL    HW127440   1.539   1.112   2.728
 8847SOL    HW227441   1.605   0.966   2.757
 8848SOL     OW27442   0.977   0.763   3.474
 8848SOL    HW127443   1.002   0.844   3.528
 8848SOL    HW227444   0.923   0.791   3.395
 8849SOL     OW27445   2.243   6.643   1.458
 8849SOL    HW127446   2.202   6.713   1.400
 8849SOL    HW227447   2.250   6.557   1.408
 8850SOL     OW27448   2.854   2.539   0.005
 8850SOL    HW127449   2.810   2.450   0.003
 8850SOL    HW227450   2.953   2.528   0.013
 8851SOL     OW27451   1.885   3.779   2.082
 8851SOL    HW127452   1.817   3.718   2.041
 8851SOL    HW227453   1.961   3.726   2.119
 8852SOL     OW27454   0.854   2.007   5.105
 8852SOL    HW127455   0.777   2.020   5.042
 8852SOL    HW227456   0.937   2.042   5.063
 8853SOL     OW27457   5.193   0.814   1.573
 8853SOL    HW127458   5.258   0.857   1.635
 8853SOL    HW227459   5.106   0.800   1.620
 8854SOL     OW27460   0.566   2.725   4.781
 8854SOL    HW127461   0.494   2.748   4.716
 8854SOL    HW227462   0.639   2.793   4.776
 8855SOL     OW27463   5.282   4.811   1.287
 8855SOL    HW127464   5.235   4.888   1.330
 8855SOL    HW227465   5.327   4.755   1.356
 8856SOL     OW27466   6.238   0.641   5.608
 8856SOL    HW127467   6.284   0.600   5.687
 8856SOL    HW227468   6.273   0.733   5.593
 8857SOL     OW27469   0.149   1.878   6.039
 8857SOL    HW127470   0.245   1.851   6.048
 8857SOL    HW227471   0.112   1.902   6.128
 8858SOL     OW27472   6.707   5.402   4.880
 8858SOL    HW127473   6.789   5.444   4.842
 8858SOL    HW227474   6.706   5.305   4.856
 8859SOL     OW27475   1.274   6.107   2.833
 8859SOL    HW127476   1.313   6.195   2.856
 8859SOL    HW227477   1.297   6.040   2.904
 8860SOL     OW27478   0.260   3.602   2.578
 8860SOL    HW127479   0.303   3.617   2.489
 8860SOL    HW227480   0.186   3.535   2.568
 8861SOL     OW27481   3.971   2.554   1.587
 8861SOL    HW127482   3.983   2.537   1.490
 8861SOL    HW227483   4.006   2.646   1.609
 8862SOL     OW27484   4.384   4.589   4.678
 8862SOL    HW127485   4.374   4.550   4.770
 8862SOL    HW227486   4.304   4.646   4.657
 8863SOL     OW27487   1.472   4.009   2.449
 8863SOL    HW127488   1.419   3.936   2.406
 8863SOL    HW227489   1.566   3.978   2.464
 8864SOL     OW27490   6.280   2.131   5.584
 8864SOL    HW127491   6.277   2.168   5.491
 8864SOL    HW227492   6.316   2.038   5.581
 8865SOL     OW27493   2.933   2.282   0.384
 8865SOL    HW127494   2.882   2.216   0.329
 8865SOL    HW227495   2.900   2.374   0.365
 8866SOL     OW27496   5.702   6.479   2.258
 8866SOL    HW127497   5.775   6.528   2.307
 8866SOL    HW227498   5.671   6.535   2.181
 8867SOL     OW27499   6.649   3.322   2.926
 8867SOL    HW127500   6.697   3.393   2.874
 8867SOL    HW227501   6.553   3.322   2.899
 8868SOL     OW27502   0.119   3.467   3.695
 8868SOL    HW127503   0.144   3.392   3.633
 8868SOL    HW227504   0.021   3.467   3.709
 8869SOL     OW27505   5.043   0.656   3.636
 8869SOL    HW127506   5.078   0.706   3.557
 8869SOL    HW227507   5.029   0.560   3.611
 8870SOL     OW27508   1.338   1.074   2.195
 8870SOL    HW127509   1.392   1.123   2.264
 8870SOL    HW227510   1.369   1.104   2.104
 8871SOL     OW27511   0.396   0.404   1.298
 8871SOL    HW127512   0.410   0.307   1.314
 8871SOL    HW227513   0.305   0.419   1.260
 8872SOL     OW27514   7.012   3.910   3.326
 8872SOL    HW127515   0.082   3.935   3.361
 8872SOL    HW227516   6.978   3.831   3.377
 8873SOL     OW27517   2.560   2.194   2.973
 8873SOL    HW127518   2.604   2.136   2.905
 8873SOL    HW227519   2.501   2.139   3.031
 8874SOL     OW27520   3.121   6.599   0.764
 8874SOL    HW127521   3.034   6.634   0.729
 8874SOL    HW227522   3.110   6.569   0.859
 8875SOL     OW27523   6.070   2.927   5.046
 8875SOL    HW127524   6.129   3.007   5.062
 8875SOL    HW227525   6.052   2.881   5.132
 8876SOL     OW27526   3.515   0.798   0.795
 8876SOL    HW127527   3.528   0.881   0.741
 8876SOL    HW227528   3.560   0.809   0.884
 8877SOL     OW27529   0.748   5.093   1.114
 8877SOL    HW127530   0.793   5.112   1.201
 8877SOL    HW227531   0.678   5.023   1.127
 8878SOL     OW27532   5.066   4.041   1.601
 8878SOL    HW127533   5.028   3.953   1.628
 8878SOL    HW227534   5.007   4.114   1.634
 8879SOL     OW27535   0.176   4.325   3.195
 8879SOL    HW127536   0.128   4.412   3.201
 8879SOL    HW227537   0.212   4.312   3.102
 8880SOL     OW27538   4.387   2.317   2.963
 8880SOL    HW127539   4.317   2.262   2.917
 8880SOL    HW227540   4.437   2.371   2.894
 8881SOL     OW27541   3.427   5.041   2.853
 8881SOL    HW127542   3.509   5.064   2.905
 8881SOL    HW227543   3.346   5.067   2.904
 8882SOL     OW27544   4.013   0.768   0.955
 8882SOL    HW127545   4.068   0.821   0.890
 8882SOL    HW227546   3.954   0.705   0.905
 8883SOL     OW27547   0.269   6.810   3.179
 8883SOL    HW127548   0.221   6.727   3.209
 8883SOL    HW227549   0.340   6.834   3.245
 8884SOL     OW27550   4.413   2.924   5.777
 8884SOL    HW127551   4.494   2.902   5.722
 8884SOL    HW227552   4.378   2.840   5.818
 8885SOL     OW27553   5.445   6.092   0.575
 8885SOL    HW127554   5.405   6.007   0.609
 8885SOL    HW227555   5.462   6.084   0.476
 8886SOL     OW27556   4.312   6.526   6.824
 8886SOL    HW127557   4.350   6.558   6.911
 8886SOL    HW227558   4.215   6.505   6.836
 8887SOL     OW27559   3.711   0.434   1.800
 8887SOL    HW127560   3.679   0.528   1.790
 8887SOL    HW227561   3.710   0.388   1.711
 8888SOL     OW27562   3.212   2.127   2.371
 8888SOL    HW127563   3.139   2.119   2.304
 8888SOL    HW227564   3.296   2.158   2.326
 8889SOL     OW27565   1.275   4.697   0.700
 8889SOL    HW127566   1.369   4.684   0.728
 8889SOL    HW227567   1.219   4.619   0.730
 8890SOL     OW27568   0.879   6.239   6.757
 8890SOL    HW127569   0.955   6.182   6.788
 8890SOL    HW227570   0.881   6.326   6.807
 8891SOL     OW27571   6.618   3.653   5.649
 8891SOL    HW127572   6.668   3.695   5.724
 8891SOL    HW227573   6.526   3.691   5.644
 8892SOL     OW27574   3.106   5.172   4.911
 8892SOL    HW127575   3.164   5.092   4.892
 8892SOL    HW227576   3.031   5.146   4.970
 8893SOL     OW27577   0.949   4.211   5.604
 8893SOL    HW127578   0.863   4.162   5.593
 8893SOL    HW227579   0.957   4.281   5.532
 8894SOL     OW27580   4.987   1.421   1.719
 8894SOL    HW127581   5.065   1.473   1.752
 8894SOL    HW227582   4.912   1.484   1.697
 8895SOL     OW27583   7.003   3.272   0.998
 8895SOL    HW127584   0.078   3.245   1.009
 8895SOL    HW227585   6.946   3.219   1.061
 8896SOL     OW27586   0.902   1.887   3.506
 8896SOL    HW127587   0.900   1.787   3.498
 8896SOL    HW227588   0.923   1.912   3.601
 8897SOL     OW27589   1.791   5.848   3.896
 8897SOL    HW127590   1.836   5.768   3.858
 8897SOL    HW227591   1.740   5.821   3.978
 8898SOL     OW27592   4.850   3.675   2.264
 8898SOL    HW127593   4.910   3.678   2.184
 8898SOL    HW227594   4.876   3.747   2.328
 8899SOL     OW27595   1.885   3.667   3.200
 8899SOL    HW127596   1.949   3.625   3.135
 8899SOL    HW227597   1.934   3.694   3.283
 8900SOL     OW27598   3.885   1.880   4.623
 8900SOL    HW127599   3.913   1.785   4.636
 8900SOL    HW227600   3.785   1.884   4.615
 8901SOL     OW27601   1.996   5.758   4.878
 8901SOL    HW127602   1.928   5.785   4.945
 8901SOL    HW227603   2.009   5.659   4.883
 8902SOL     OW27604   0.380   5.190   6.992
 8902SOL    HW127605   0.335   5.202   6.904
 8902SOL    HW227606   0.335   5.116   0.022
 8903SOL     OW27607   1.031   0.643   5.134
 8903SOL    HW127608   1.101   0.584   5.174
 8903SOL    HW227609   1.073   0.726   5.097
 8904SOL     OW27610   1.076   0.986   3.833
 8904SOL    HW127611   1.079   1.037   3.919
 8904SOL    HW227612   1.055   1.048   3.758
 8905SOL     OW27613   1.516   4.376   1.972
 8905SOL    HW127614   1.508   4.361   2.070
 8905SOL    HW227615   1.438   4.430   1.940
 8906SOL     OW27616   5.785   0.134   6.712
 8906SOL    HW127617   5.876   0.142   6.671
 8906SOL    HW227618   5.739   0.053   6.677
 8907SOL     OW27619   2.903   3.255   5.060
 8907SOL    HW127620   2.889   3.277   4.963
 8907SOL    HW227621   2.972   3.184   5.068
 8908SOL     OW27622   1.568   4.819   6.447
 8908SOL    HW127623   1.649   4.780   6.489
 8908SOL    HW227624   1.532   4.893   6.504
 8909SOL     OW27625   1.838   5.437   1.311
 8909SOL    HW127626   1.751   5.458   1.267
 8909SOL    HW227627   1.888   5.371   1.254
 8910SOL     OW27628   1.145   1.067   3.443
 8910SOL    HW127629   1.099   1.128   3.507
 8910SOL    HW227630   1.243   1.064   3.465
 8911SOL     OW27631   5.685   2.347   4.792
 8911SOL    HW127632   5.587   2.334   4.773
 8911SOL    HW227633   5.722   2.266   4.836
 8912SOL     OW27634   3.477   3.333   3.901
 8912SOL    HW127635   3.411   3.302   3.970
 8912SOL    HW227636   3.567   3.295   3.921
 8913SOL     OW27637   4.906   5.962   1.158
 8913SOL    HW127638   4.881   5.877   1.204
 8913SOL    HW227639   4.916   5.945   1.060
 8914SOL     OW27640   4.964   5.601   5.299
 8914SOL    HW127641   4.977   5.598   5.398
 8914SOL    HW227642   4.912   5.520   5.270
 8915SOL     OW27643   1.546   0.934   3.240
 8915SOL    HW127644   1.484   1.011   3.254
 8915SOL    HW227645   1.492   0.851   3.222
 8916SOL     OW27646   5.209   1.302   1.508
 8916SOL    HW127647   5.280   1.346   1.563
 8916SOL    HW227648   5.126   1.358   1.509
 8917SOL     OW27649   5.918   1.816   0.091
 8917SOL    HW127650   5.981   1.786   0.019
 8917SOL    HW227651   5.830   1.769   0.080
 8918SOL     OW27652   1.122   3.296   2.832
 8918SOL    HW127653   1.118   3.368   2.902
 8918SOL    HW227654   1.052   3.227   2.853
 8919SOL     OW27655   5.942   2.421   2.485
 8919SOL    HW127656   5.898   2.510   2.496
 8919SOL    HW227657   5.995   2.420   2.400
 8920SOL     OW27658   0.653   1.406   6.989
 8920SOL    HW127659   0.675   1.318   0.011
 8920SOL    HW227660   0.628   1.471   0.040
 8921SOL     OW27661   0.712   3.099   1.911
 8921SOL    HW127662   0.641   3.138   1.970
 8921SOL    HW227663   0.739   3.010   1.947
 8922SOL     OW27664   3.707   5.002   3.793
 8922SOL    HW127665   3.781   4.938   3.771
 8922SOL    HW227666   3.746   5.092   3.812
 8923SOL     OW27667   2.224   1.005   4.442
 8923SOL    HW127668   2.313   1.021   4.399
 8923SOL    HW227669   2.171   0.942   4.387
 8924SOL     OW27670   6.415   5.031   5.130
 8924SOL    HW127671   6.505   4.990   5.145
 8924SOL    HW227672   6.344   4.965   5.157
 8925SOL     OW27673   0.730   7.004   3.120
 8925SOL    HW127674   0.709   7.014   3.023
 8925SOL    HW227675   0.771   0.068   3.154
 8926SOL     OW27676   5.833   0.958   6.920
 8926SOL    HW127677   5.787   0.984   6.835
 8926SOL    HW227678   5.923   1.001   6.924
 8927SOL     OW27679   1.699   0.980   6.727
 8927SOL    HW127680   1.679   1.077   6.717
 8927SOL    HW227681   1.753   0.949   6.648
 8928SOL     OW27682   1.466   6.720   5.789
 8928SOL    HW127683   1.431   6.779   5.863
 8928SOL    HW227684   1.514   6.642   5.829
 8929SOL     OW27685   0.323   1.735   4.029
 8929SOL    HW127686   0.285   1.684   4.107
 8929SOL    HW227687   0.373   1.672   3.969
 8930SOL     OW27688   2.059   4.855   3.832
 8930SOL    HW127689   2.073   4.849   3.931
 8930SOL    HW227690   1.963   4.874   3.814
 8931SOL     OW27691   4.112   3.538   0.338
 8931SOL    HW127692   4.089   3.571   0.430
 8931SOL    HW227693   4.134   3.616   0.280
 8932SOL     OW27694   0.988   3.462   3.398
 8932SOL    HW127695   0.892   3.491   3.398
 8932SOL    HW227696   1.020   3.455   3.493
 8933SOL     OW27697   4.375   1.651   6.014
 8933SOL    HW127698   4.385   1.552   6.008
 8933SOL    HW227699   4.440   1.687   6.082
 8934SOL     OW27700   2.460   6.267   2.678
 8934SOL    HW127701   2.531   6.199   2.658
 8934SOL    HW227702   2.394   6.228   2.742
 8935SOL     OW27703   6.469   5.132   0.031
 8935SOL    HW127704   6.468   5.048   6.997
 8935SOL    HW227705   6.404   5.124   0.106
 8936SOL     OW27706   3.839   2.821   0.544
 8936SOL    HW127707   3.891   2.899   0.580
 8936SOL    HW227708   3.887   2.784   0.464
 8937SOL     OW27709   0.553   0.390   5.501
 8937SOL    HW127710   0.472   0.420   5.452
 8937SOL    HW227711   0.549   0.292   5.516
 8938SOL     OW27712   4.850   6.124   1.558
 8938SOL    HW127713   4.918   6.179   1.606
 8938SOL    HW227714   4.854   6.145   1.460
 8939SOL     OW27715   5.128   1.871   5.014
 8939SOL    HW127716   5.097   1.856   5.107
 8939SOL    HW227717   5.130   1.784   4.964
 8940SOL     OW27718   5.864   6.894   2.323
 8940SOL    HW127719   5.925   6.901   2.244
 8940SOL    HW227720   5.770   6.878   2.291
 8941SOL     OW27721   4.192   1.406   6.683
 8941SOL    HW127722   4.215   1.311   6.662
 8941SOL    HW227723   4.270   1.449   6.729
 8942SOL     OW27724   1.391   2.428   5.305
 8942SOL    HW127725   1.370   2.515   5.348
 8942SOL    HW227726   1.363   2.430   5.209
 8943SOL     OW27727   4.870   3.187   1.340
 8943SOL    HW127728   4.934   3.114   1.364
 8943SOL    HW227729   4.781   3.147   1.318
 8944SOL     OW27730   3.974   5.627   1.627
 8944SOL    HW127731   4.018   5.538   1.637
 8944SOL    HW227732   4.023   5.695   1.682
 8945SOL     OW27733   2.473   1.291   4.412
 8945SOL    HW127734   2.424   1.334   4.487
 8945SOL    HW227735   2.546   1.234   4.448
 8946SOL     OW27736   4.141   1.270   4.921
 8946SOL    HW127737   4.159   1.328   5.000
 8946SOL    HW227738   4.135   1.326   4.838
 8947SOL     OW27739   3.844   3.711   5.194
 8947SOL    HW127740   3.926   3.696   5.139
 8947SOL    HW227741   3.774   3.645   5.169
 8948SOL     OW27742   5.798   4.773   2.926
 8948SOL    HW127743   5.713   4.797   2.881
 8948SOL    HW227744   5.783   4.695   2.986
 8949SOL     OW27745   2.042   5.396   5.909
 8949SOL    HW127746   2.119   5.456   5.883
 8949SOL    HW227747   2.012   5.344   5.829
 8950SOL     OW27748   4.845   2.393   4.772
 8950SOL    HW127749   4.848   2.371   4.674
 8950SOL    HW227750   4.862   2.491   4.784
 8951SOL     OW27751   2.264   1.480   5.638
 8951SOL    HW127752   2.320   1.561   5.622
 8951SOL    HW227753   2.283   1.412   5.567
 8952SOL     OW27754   6.627   6.746   3.608
 8952SOL    HW127755   6.716   6.758   3.651
 8952SOL    HW227756   6.612   6.649   3.589
 8953SOL     OW27757   1.421   4.908   6.652
 8953SOL    HW127758   1.407   4.879   6.747
 8953SOL    HW227759   1.346   4.968   6.624
 8954SOL     OW27760   2.142   6.213   5.586
 8954SOL    HW127761   2.083   6.259   5.653
 8954SOL    HW227762   2.236   6.245   5.598
 8955SOL     OW27763   6.485   3.786   4.444
 8955SOL    HW127764   6.404   3.783   4.385
 8955SOL    HW227765   6.471   3.854   4.515
 8956SOL     OW27766   1.296   0.413   4.668
 8956SOL    HW127767   1.261   0.376   4.582
 8956SOL    HW227768   1.274   0.351   4.743
 8957SOL     OW27769   2.411   5.740   1.626
 8957SOL    HW127770   2.311   5.734   1.615
 8957SOL    HW227771   2.433   5.813   1.690
 8958SOL     OW27772   2.509   0.011   4.059
 8958SOL    HW127773   2.453   6.951   4.039
 8958SOL    HW227774   2.455   0.075   4.113
 8959SOL     OW27775   3.018   5.578   0.491
 8959SOL    HW127776   2.974   5.551   0.576
 8959SOL    HW227777   3.113   5.545   0.491
 8960SOL     OW27778   3.542   5.784   1.008
 8960SOL    HW127779   3.480   5.714   1.044
 8960SOL    HW227780   3.624   5.787   1.064
 8961SOL     OW27781   1.556   2.385   4.004
 8961SOL    HW127782   1.632   2.448   3.990
 8961SOL    HW227783   1.518   2.357   3.916
 8962SOL     OW27784   4.938   0.636   3.218
 8962SOL    HW127785   5.023   0.680   3.189
 8962SOL    HW227786   4.870   0.707   3.241
 8963SOL     OW27787   0.022   1.075   3.890
 8963SOL    HW127788   0.019   1.164   3.936
 8963SOL    HW227789   6.963   1.065   3.831
 8964SOL     OW27790   0.086   3.458   3.241
 8964SOL    HW127791   0.043   3.461   3.151
 8964SOL    HW227792   0.015   3.464   3.311
 8965SOL     OW27793   1.380   4.919   1.661
 8965SOL    HW127794   1.358   5.002   1.610
 8965SOL    HW227795   1.441   4.941   1.737
 8966SOL     OW27796   3.369   2.327   5.356
 8966SOL    HW127797   3.305   2.321   5.279
 8966SOL    HW227798   3.444   2.263   5.341
 8967SOL     OW27799   4.496   6.674   0.898
 8967SOL    HW127800   4.578   6.678   0.840
 8967SOL    HW227801   4.450   6.763   0.896
 8968SOL     OW27802   5.010   4.394   3.277
 8968SOL    HW127803   4.926   4.355   3.239
 8968SOL    HW227804   5.054   4.454   3.210
 8969SOL     OW27805   6.406   0.552   4.281
 8969SOL    HW127806   6.321   0.514   4.243
 8969SOL    HW227807   6.479   0.484   4.273
 8970SOL     OW27808   3.777   2.088   1.248
 8970SOL    HW127809   3.787   1.994   1.217
 8970SOL    HW227810   3.697   2.096   1.307
 8971SOL     OW27811   4.276   6.099   3.078
 8971SOL    HW127812   4.312   6.014   3.115
 8971SOL    HW227813   4.231   6.151   3.151
 8972SOL     OW27814   5.624   0.201   4.813
 8972SOL    HW127815   5.580   0.216   4.724
 8972SOL    HW227816   5.632   0.103   4.830
 8973SOL     OW27817   1.863   5.060   0.123
 8973SOL    HW127818   1.845   4.985   0.187
 8973SOL    HW227819   1.962   5.073   0.114
 8974SOL     OW27820   0.655   3.134   3.996
 8974SOL    HW127821   0.666   3.215   3.939
 8974SOL    HW227822   0.606   3.063   3.945
 8975SOL     OW27823   3.779   0.528   6.401
 8975SOL    HW127824   3.835   0.490   6.475
 8975SOL    HW227825   3.824   0.511   6.313
 8976SOL     OW27826   0.828   4.987   4.229
 8976SOL    HW127827   0.799   5.032   4.144
 8976SOL    HW227828   0.815   4.888   4.220
 8977SOL     OW27829   5.616   1.055   6.733
 8977SOL    HW127830   5.586   0.966   6.698
 8977SOL    HW227831   5.567   1.076   6.818
 8978SOL     OW27832   5.339   5.115   0.950
 8978SOL    HW127833   5.424   5.162   0.926
 8978SOL    HW227834   5.356   5.017   0.959
 8979SOL     OW27835   1.670   4.947   4.914
 8979SOL    HW127836   1.761   4.951   4.955
 8979SOL    HW227837   1.602   4.978   4.981
 8980SOL     OW27838   3.884   3.022   4.788
 8980SOL    HW127839   3.861   3.060   4.878
 8980SOL    HW227840   3.981   2.997   4.786
 8981SOL     OW27841   2.572   1.194   5.689
 8981SOL    HW127842   2.477   1.165   5.673
 8981SOL    HW227843   2.573   1.267   5.758
 8982SOL     OW27844   4.353   4.388   0.923
 8982SOL    HW127845   4.336   4.398   0.825
 8982SOL    HW227846   4.328   4.296   0.952
 8983SOL     OW27847   4.850   5.164   0.677
 8983SOL    HW127848   4.881   5.179   0.583
 8983SOL    HW227849   4.805   5.247   0.711
 8984SOL     OW27850   1.419   6.599   3.751
 8984SOL    HW127851   1.495   6.663   3.761
 8984SOL    HW227852   1.369   6.591   3.837
 8985SOL     OW27853   2.877   3.044   6.101
 8985SOL    HW127854   2.968   3.022   6.067
 8985SOL    HW227855   2.808   3.010   6.036
 8986SOL     OW27856   3.601   6.404   2.813
 8986SOL    HW127857   3.663   6.348   2.756
 8986SOL    HW227858   3.613   6.500   2.790
 8987SOL     OW27859   5.130   6.092   1.638
 8987SOL    HW127860   5.097   6.062   1.548
 8987SOL    HW227861   5.163   6.013   1.689
 8988SOL     OW27862   1.001   5.169   5.093
 8988SOL    HW127863   0.982   5.137   5.186
 8988SOL    HW227864   1.090   5.132   5.063
 8989SOL     OW27865   2.773   2.792   6.903
 8989SOL    HW127866   2.803   2.862   6.968
 8989SOL    HW227867   2.779   2.702   6.945
 8990SOL     OW27868   0.273   5.872   3.251
 8990SOL    HW127869   0.304   5.961   3.282
 8990SOL    HW227870   0.303   5.857   3.156
 8991SOL     OW27871   1.228   2.020   5.192
 8991SOL    HW127872   1.286   2.035   5.272
 8991SOL    HW227873   1.276   1.959   5.128
 8992SOL     OW27874   0.061   2.206   0.859
 8992SOL    HW127875   0.043   2.237   0.765
 8992SOL    HW227876   0.016   2.119   0.875
 8993SOL     OW27877   4.794   2.061   0.810
 8993SOL    HW127878   4.709   2.087   0.857
 8993SOL    HW227879   4.783   1.969   0.771
 8994SOL     OW27880   1.871   5.735   3.016
 8994SOL    HW127881   1.817   5.658   2.981
 8994SOL    HW227882   1.841   5.819   2.971
 8995SOL     OW27883   0.332   0.332   0.959
 8995SOL    HW127884   0.417   0.378   0.985
 8995SOL    HW227885   0.322   0.247   1.011
 8996SOL     OW27886   3.963   6.730   6.006
 8996SOL    HW127887   4.048   6.738   6.058
 8996SOL    HW227888   3.915   6.646   6.033
 8997SOL     OW27889   6.035   0.887   4.434
 8997SOL    HW127890   6.122   0.871   4.389
 8997SOL    HW227891   6.046   0.960   4.502
 8998SOL     OW27892   6.410   3.185   4.889
 8998SOL    HW127893   6.441   3.138   4.971
 8998SOL    HW227894   6.409   3.284   4.906
 8999SOL     OW27895   3.737   6.872   6.084
 8999SOL    HW127896   3.756   6.970   6.086
 8999SOL    HW227897   3.816   6.824   6.047
 9000SOL     OW27898   1.578   4.090   1.187
 9000SOL    HW127899   1.504   4.103   1.121
 9000SOL    HW227900   1.633   4.173   1.191
 9001SOL     OW27901   0.818   5.690   1.768
 9001SOL    HW127902   0.799   5.784   1.794
 9001SOL    HW227903   0.733   5.638   1.765
 9002SOL     OW27904   0.780   4.509   6.035
 9002SOL    HW127905   0.878   4.491   6.034
 9002SOL    HW227906   0.736   4.460   5.959
 9003SOL     OW27907   5.175   0.217   1.600
 9003SOL    HW127908   5.269   0.183   1.611
 9003SOL    HW227909   5.170   0.311   1.633
 9004SOL     OW27910   4.785   4.807   0.370
 9004SOL    HW127911   4.834   4.741   0.427
 9004SOL    HW227912   4.824   4.806   0.278
 9005SOL     OW27913   5.509   0.971   5.639
 9005SOL    HW127914   5.520   0.989   5.541
 9005SOL    HW227915   5.445   0.895   5.652
 9006SOL     OW27916   3.754   5.690   0.730
 9006SOL    HW127917   3.852   5.708   0.725
 9006SOL    HW227918   3.704   5.762   0.682
 9007SOL     OW27919   1.674   1.252   2.924
 9007SOL    HW127920   1.773   1.264   2.935
 9007SOL    HW227921   1.645   1.289   2.836
 9008SOL     OW27922   0.737   5.935   2.460
 9008SOL    HW127923   0.733   5.954   2.559
 9008SOL    HW227924   0.799   5.859   2.444
 9009SOL     OW27925   3.391   6.359   1.630
 9009SOL    HW127926   3.427   6.320   1.545
 9009SOL    HW227927   3.404   6.294   1.704
 9010SOL     OW27928   1.334   6.084   4.263
 9010SOL    HW127929   1.302   6.079   4.358
 9010SOL    HW227930   1.255   6.076   4.202
 9011SOL     OW27931   2.466   2.631   2.007
 9011SOL    HW127932   2.524   2.710   2.028
 9011SOL    HW227933   2.514   2.570   1.945
 9012SOL     OW27934   1.683   6.387   0.042
 9012SOL    HW127935   1.769   6.385   7.012
 9012SOL    HW227936   1.682   6.316   0.112
 9013SOL     OW27937   2.096   6.735   4.554
 9013SOL    HW127938   2.064   6.737   4.649
 9013SOL    HW227939   2.195   6.718   4.553
 9014SOL     OW27940   5.300   2.871   4.007
 9014SOL    HW127941   5.362   2.905   4.078
 9014SOL    HW227942   5.207   2.904   4.024
 9015SOL     OW27943   4.684   1.144   6.196
 9015SOL    HW127944   4.643   1.132   6.106
 9015SOL    HW227945   4.768   1.091   6.202
 9016SOL     OW27946   5.158   5.467   6.028
 9016SOL    HW127947   5.191   5.386   6.076
 9016SOL    HW227948   5.231   5.505   5.972
 9017SOL     OW27949   4.236   0.131   4.801
 9017SOL    HW127950   4.246   0.050   4.859
 9017SOL    HW227951   4.210   0.104   4.709
 9018SOL     OW27952   3.838   4.714   6.548
 9018SOL    HW127953   3.800   4.641   6.606
 9018SOL    HW227954   3.765   4.750   6.490
 9019SOL     OW27955   0.379   3.318   3.935
 9019SOL    HW127956   0.304   3.350   3.993
 9019SOL    HW227957   0.399   3.223   3.957
 9020SOL     OW27958   5.118   4.846   2.885
 9020SOL    HW127959   5.124   4.931   2.937
 9020SOL    HW227960   5.203   4.794   2.896
 9021SOL     OW27961   0.595   1.156   4.197
 9021SOL    HW127962   0.553   1.202   4.275
 9021SOL    HW227963   0.648   1.078   4.229
 9022SOL     OW27964   4.484   4.440   6.252
 9022SOL    HW127965   4.430   4.430   6.168
 9022SOL    HW227966   4.538   4.357   6.266
 9023SOL     OW27967   6.286   4.245   0.544
 9023SOL    HW127968   6.314   4.324   0.598
 9023SOL    HW227969   6.254   4.274   0.455
 9024SOL     OW27970   2.326   6.029   6.207
 9024SOL    HW127971   2.311   6.116   6.160
 9024SOL    HW227972   2.304   6.039   6.304
 9025SOL     OW27973   1.069   5.670   0.962
 9025SOL    HW127974   1.038   5.632   0.875
 9025SOL    HW227975   1.168   5.688   0.957
 9026SOL     OW27976   5.204   1.023   0.563
 9026SOL    HW127977   5.249   1.051   0.648
 9026SOL    HW227978   5.184   0.925   0.566
 9027SOL     OW27979   0.942   4.153   3.433
 9027SOL    HW127980   1.008   4.153   3.358
 9027SOL    HW227981   0.985   4.192   3.515
 9028SOL     OW27982   3.518   4.764   6.456
 9028SOL    HW127983   3.477   4.675   6.435
 9028SOL    HW227984   3.455   4.837   6.430
 9029SOL     OW27985   4.658   0.097   4.296
 9029SOL    HW127986   4.657   0.090   4.196
 9029SOL    HW227987   4.647   0.192   4.323
 9030SOL     OW27988   3.183   1.357   2.255
 9030SOL    HW127989   3.267   1.366   2.202
 9030SOL    HW227990   3.108   1.330   2.194
 9031SOL     OW27991   4.515   6.701   4.826
 9031SOL    HW127992   4.592   6.639   4.812
 9031SOL    HW227993   4.519   6.774   4.758
 9032SOL     OW27994   5.194   3.062   1.975
 9032SOL    HW127995   5.253   3.041   1.897
 9032SOL    HW227996   5.101   3.032   1.956
 9033SOL     OW27997   0.055   0.056   2.818
 9033SOL    HW127998   0.115   6.996   2.826
 9033SOL    HW227999   0.035   0.073   2.722
 9034SOL     OW28000   4.610   6.822   4.233
 9034SOL    HW128001   4.629   6.882   4.311
 9034SOL    HW228002   4.696   6.787   4.195
 9035SOL     OW28003   2.672   5.573   0.024
 9035SOL    HW128004   2.576   5.598   0.028
 9035SOL    HW228005   2.723   5.645   6.996
 9036SOL     OW28006   1.602   4.520   5.196
 9036SOL    HW128007   1.619   4.570   5.281
 9036SOL    HW228008   1.529   4.454   5.210
 9037SOL     OW28009   0.397   0.976   2.639
 9037SOL    HW128010   0.373   0.927   2.723
 9037SOL    HW228011   0.483   0.939   2.603
 9038SOL     OW28012   4.654   2.884   5.130
 9038SOL    HW128013   4.741   2.867   5.177
 9038SOL    HW228014   4.585   2.820   5.164
 9039SOL     OW28015   4.289   6.270   6.542
 9039SOL    HW128016   4.271   6.287   6.445
 9039SOL    HW228017   4.333   6.181   6.553
 9040SOL     OW28018   2.310   1.986   1.465
 9040SOL    HW128019   2.380   2.056   1.479
 9040SOL    HW228020   2.265   1.966   1.552
 9041SOL     OW28021   6.719   2.203   2.509
 9041SOL    HW128022   6.745   2.186   2.604
 9041SOL    HW228023   6.742   2.298   2.485
 9042SOL     OW28024   3.780   6.130   0.674
 9042SOL    HW128025   3.784   6.084   0.763
 9042SOL    HW228026   3.865   6.114   0.624
 9043SOL     OW28027   3.234   2.977   0.952
 9043SOL    HW128028   3.244   2.878   0.938
 9043SOL    HW228029   3.293   3.025   0.887
 9044SOL     OW28030   0.855   0.837   0.705
 9044SOL    HW128031   0.921   0.785   0.759
 9044SOL    HW228032   0.904   0.897   0.642
 9045SOL     OW28033   4.287   1.408   3.351
 9045SOL    HW128034   4.313   1.388   3.256
 9045SOL    HW228035   4.269   1.506   3.360
 9046SOL     OW28036   3.189   2.853   2.116
 9046SOL    HW128037   3.151   2.764   2.142
 9046SOL    HW228038   3.267   2.874   2.174
 9047SOL     OW28039   1.414   4.314   6.408
 9047SOL    HW128040   1.387   4.350   6.318
 9047SOL    HW228041   1.333   4.305   6.466
 9048SOL     OW28042   6.829   1.501   5.877
 9048SOL    HW128043   6.746   1.448   5.860
 9048SOL    HW228044   6.909   1.449   5.845
 9049SOL     OW28045   2.689   6.892   5.457
 9049SOL    HW128046   2.671   6.982   5.416
 9049SOL    HW228047   2.730   6.832   5.388
 9050SOL     OW28048   0.906   4.307   1.112
 9050SOL    HW128049   0.978   4.313   1.043
 9050SOL    HW228050   0.842   4.382   1.099
 9051SOL     OW28051   2.491   1.152   1.520
 9051SOL    HW128052   2.504   1.059   1.486
 9051SOL    HW228053   2.497   1.216   1.443
 9052SOL     OW28054   1.519   2.650   5.615
 9052SOL    HW128055   1.580   2.630   5.538
 9052SOL    HW228056   1.525   2.575   5.682
 9053SOL     OW28057   0.902   0.807   7.007
 9053SOL    HW128058   0.830   0.739   7.011
 9053SOL    HW228059   0.989   0.763   6.988
 9054SOL     OW28060   1.903   5.946   2.427
 9054SOL    HW128061   1.977   5.905   2.481
 9054SOL    HW228062   1.937   5.968   2.335
 9055SOL     OW28063   0.306   3.044   5.535
 9055SOL    HW128064   0.336   3.014   5.444
 9055SOL    HW228065   0.294   2.964   5.593
 9056SOL     OW28066   6.045   2.830   3.261
 9056SOL    HW128067   5.977   2.901   3.280
 9056SOL    HW228068   6.007   2.764   3.197
 9057SOL     OW28069   4.378   2.405   3.983
 9057SOL    HW128070   4.392   2.306   3.983
 9057SOL    HW228071   4.424   2.446   3.904
 9058SOL     OW28072   2.738   0.660   5.746
 9058SOL    HW128073   2.668   0.588   5.747
 9058SOL    HW228074   2.697   0.748   5.768
 9059SOL     OW28075   1.268   2.306   3.080
 9059SOL    HW128076   1.297   2.398   3.106
 9059SOL    HW228077   1.346   2.243   3.087
 9060SOL     OW28078   4.987   3.090   5.912
 9060SOL    HW128079   4.994   3.044   6.000
 9060SOL    HW228080   4.899   3.137   5.905
 9061SOL     OW28081   2.610   6.093   2.929
 9061SOL    HW128082   2.707   6.086   2.952
 9061SOL    HW228083   2.555   6.072   3.010
 9062SOL     OW28084   1.873   6.104   1.561
 9062SOL    HW128085   1.868   6.051   1.646
 9062SOL    HW228086   1.963   6.092   1.519
 9063SOL     OW28087   2.469   2.154   2.167
 9063SOL    HW128088   2.550   2.212   2.175
 9063SOL    HW228089   2.401   2.199   2.110
 9064SOL     OW28090   5.255   3.464   0.623
 9064SOL    HW128091   5.170   3.517   0.623
 9064SOL    HW228092   5.311   3.494   0.700
 9065SOL     OW28093   2.779   0.581   0.318
 9065SOL    HW128094   2.805   0.601   0.223
 9065SOL    HW228095   2.782   0.665   0.372
 9066SOL     OW28096   5.056   6.643   6.865
 9066SOL    HW128097   5.020   6.731   6.832
 9066SOL    HW228098   5.062   6.646   6.965
 9067SOL     OW28099   1.167   0.628   1.753
 9067SOL    HW128100   1.109   0.552   1.724
 9067SOL    HW228101   1.112   0.694   1.804
 9068SOL     OW28102   1.187   6.075   6.544
 9068SOL    HW128103   1.118   6.019   6.497
 9068SOL    HW228104   1.276   6.031   6.537
 9069SOL     OW28105   1.561   2.053   6.332
 9069SOL    HW128106   1.507   1.979   6.293
 9069SOL    HW228107   1.648   2.017   6.366
 9070SOL     OW28108   1.556   4.711   3.477
 9070SOL    HW128109   1.532   4.807   3.490
 9070SOL    HW228110   1.614   4.680   3.552
 9071SOL     OW28111   4.456   6.007   0.354
 9071SOL    HW128112   4.461   6.050   0.264
 9071SOL    HW228113   4.396   5.927   0.349
 9072SOL     OW28114   5.199   4.700   0.394
 9072SOL    HW128115   5.195   4.609   0.352
 9072SOL    HW228116   5.292   4.736   0.386
 9073SOL     OW28117   2.008   0.785   0.994
 9073SOL    HW128118   2.090   0.763   0.940
 9073SOL    HW228119   1.937   0.718   0.975
 9074SOL     OW28120   0.524   0.413   3.235
 9074SOL    HW128121   0.571   0.358   3.166
 9074SOL    HW228122   0.528   0.367   3.324
 9075SOL     OW28123   0.446   0.511   1.701
 9075SOL    HW128124   0.363   0.536   1.651
 9075SOL    HW228125   0.420   0.464   1.785
 9076SOL     OW28126   0.774   1.384   5.049
 9076SOL    HW128127   0.820   1.340   4.972
 9076SOL    HW228128   0.681   1.411   5.023
 9077SOL     OW28129   6.101   6.187   1.686
 9077SOL    HW128130   6.030   6.237   1.636
 9077SOL    HW228131   6.076   6.181   1.783
 9078SOL     OW28132   4.286   3.131   5.651
 9078SOL    HW128133   4.320   3.044   5.684
 9078SOL    HW228134   4.338   3.206   5.691
 9079SOL     OW28135   4.290   0.763   5.500
 9079SOL    HW128136   4.266   0.852   5.541
 9079SOL    HW228137   4.386   0.742   5.521
 9080SOL     OW28138   4.935   1.425   6.749
 9080SOL    HW128139   4.952   1.388   6.658
 9080SOL    HW228140   5.019   1.466   6.784
 9081SOL     OW28141   5.401   6.975   3.583
 9081SOL    HW128142   5.440   0.019   3.518
 9081SOL    HW228143   5.392   6.886   3.540
 9082SOL     OW28144   2.892   0.654   2.905
 9082SOL    HW128145   2.882   0.752   2.892
 9082SOL    HW228146   2.864   0.606   2.822
 9083SOL     OW28147   4.788   4.017   4.245
 9083SOL    HW128148   4.775   4.066   4.160
 9083SOL    HW228149   4.722   4.049   4.313
 9084SOL     OW28150   4.117   3.530   2.798
 9084SOL    HW128151   4.149   3.438   2.823
 9084SOL    HW228152   4.141   3.549   2.703
 9085SOL     OW28153   0.820   2.333   0.851
 9085SOL    HW128154   0.742   2.385   0.885
 9085SOL    HW228155   0.859   2.378   0.771
 9086SOL     OW28156   6.765   3.935   0.102
 9086SOL    HW128157   6.786   3.911   0.197
 9086SOL    HW228158   6.676   3.897   0.078
 9087SOL     OW28159   5.233   3.372   2.302
 9087SOL    HW128160   5.194   3.287   2.337
 9087SOL    HW228161   5.160   3.437   2.281
 9088SOL     OW28162   4.975   6.241   0.855
 9088SOL    HW128163   5.044   6.268   0.788
 9088SOL    HW228164   4.970   6.141   0.860
 9089SOL     OW28165   4.486   0.670   5.837
 9089SOL    HW128166   4.486   0.621   5.750
 9089SOL    HW228167   4.391   0.685   5.866
 9090SOL     OW28168   6.053   1.800   3.290
 9090SOL    HW128169   6.054   1.894   3.324
 9090SOL    HW228170   6.140   1.756   3.313
 9091SOL     OW28171   3.974   2.671   5.883
 9091SOL    HW128172   4.010   2.644   5.972
 9091SOL    HW228173   3.892   2.726   5.895
 9092SOL     OW28174   6.864   3.498   6.633
 9092SOL    HW128175   6.862   3.583   6.686
 9092SOL    HW228176   6.959   3.476   6.610
 9093SOL     OW28177   2.385   6.622   4.818
 9093SOL    HW128178   2.438   6.538   4.809
 9093SOL    HW228179   2.398   6.659   4.910
 9094SOL     OW28180   1.856   3.793   1.186
 9094SOL    HW128181   1.793   3.835   1.251
 9094SOL    HW228182   1.908   3.721   1.232
 9095SOL     OW28183   6.726   6.654   6.405
 9095SOL    HW128184   6.672   6.701   6.336
 9095SOL    HW228185   6.678   6.656   6.492
 9096SOL     OW28186   5.589   5.328   4.930
 9096SOL    HW128187   5.664   5.261   4.926
 9096SOL    HW228188   5.603   5.397   4.858
 9097SOL     OW28189   1.502   2.201   5.853
 9097SOL    HW128190   1.557   2.136   5.800
 9097SOL    HW228191   1.406   2.189   5.831
 9098SOL     OW28192   2.222   4.610   3.727
 9098SOL    HW128193   2.220   4.669   3.807
 9098SOL    HW228194   2.210   4.665   3.644
 9099SOL     OW28195   1.954   1.419   6.616
 9099SOL    HW128196   1.861   1.447   6.639
 9099SOL    HW228197   1.953   1.326   6.580
 9100SOL     OW28198   1.587   4.782   3.999
 9100SOL    HW128199   1.547   4.862   3.954
 9100SOL    HW228200   1.564   4.700   3.947
 9101SOL     OW28201   0.201   2.362   0.302
 9101SOL    HW128202   0.179   2.338   0.207
 9101SOL    HW228203   0.164   2.292   0.363
 9102SOL     OW28204   3.766   0.298   2.852
 9102SOL    HW128205   3.697   0.229   2.875
 9102SOL    HW228206   3.822   0.316   2.933
 9103SOL     OW28207   6.363   0.926   1.057
 9103SOL    HW128208   6.346   0.992   1.130
 9103SOL    HW228209   6.452   0.882   1.072
 9104SOL     OW28210   6.067   1.820   6.142
 9104SOL    HW128211   6.089   1.865   6.055
 9104SOL    HW228212   6.029   1.887   6.205
 9105SOL     OW28213   3.022   1.106   6.313
 9105SOL    HW128214   3.094   1.096   6.382
 9105SOL    HW228215   2.943   1.151   6.355
 9106SOL     OW28216   2.098   3.217   6.688
 9106SOL    HW128217   1.998   3.221   6.690
 9106SOL    HW228218   2.127   3.122   6.675
 9107SOL     OW28219   3.594   1.320   0.447
 9107SOL    HW128220   3.522   1.362   0.392
 9107SOL    HW228221   3.624   1.235   0.405
 9108SOL     OW28222   0.219   5.771   5.610
 9108SOL    HW128223   0.206   5.755   5.708
 9108SOL    HW228224   0.136   5.811   5.571
 9109SOL     OW28225   5.858   4.101   2.647
 9109SOL    HW128226   5.848   4.055   2.559
 9109SOL    HW228227   5.859   4.200   2.633
 9110SOL     OW28228   1.505   6.449   3.159
 9110SOL    HW128229   1.537   6.543   3.144
 9110SOL    HW228230   1.532   6.420   3.251
 9111SOL     OW28231   3.693   2.370   5.707
 9111SOL    HW128232   3.633   2.292   5.722
 9111SOL    HW228233   3.789   2.341   5.715
 9112SOL     OW28234   0.464   5.309   2.298
 9112SOL    HW128235   0.422   5.301   2.208
 9112SOL    HW228236   0.410   5.372   2.355
 9113SOL     OW28237   5.874   0.405   4.167
 9113SOL    HW128238   5.910   0.430   4.078
 9113SOL    HW228239   5.785   0.360   4.156
 9114SOL     OW28240   1.098   0.178   5.691
 9114SOL    HW128241   1.132   0.085   5.705
 9114SOL    HW228242   1.046   0.207   5.772
 9115SOL     OW28243   4.958   4.390   5.309
 9115SOL    HW128244   4.970   4.457   5.382
 9115SOL    HW228245   4.868   4.402   5.267
 9116SOL     OW28246   1.738   0.208   3.577
 9116SOL    HW128247   1.838   0.209   3.579
 9116SOL    HW228248   1.707   0.150   3.502
 9117SOL     OW28249   1.648   6.628   0.185
 9117SOL    HW128250   1.659   6.557   0.115
 9117SOL    HW228251   1.712   6.703   0.166
 9118SOL     OW28252   6.756   3.787   1.699
 9118SOL    HW128253   6.687   3.774   1.770
 9118SOL    HW228254   6.774   3.885   1.687
 9119SOL     OW28255   3.036   1.421   1.183
 9119SOL    HW128256   3.032   1.467   1.271
 9119SOL    HW228257   2.949   1.375   1.165
 9120SOL     OW28258   6.328   3.907   4.619
 9120SOL    HW128259   6.277   3.821   4.619
 9120SOL    HW228260   6.265   3.984   4.628
 9121SOL     OW28261   4.094   1.068   4.457
 9121SOL    HW128262   4.099   1.073   4.557
 9121SOL    HW228263   3.998   1.066   4.429
 9122SOL     OW28264   0.074   2.475   1.690
 9122SOL    HW128265   0.126   2.458   1.606
 9122SOL    HW228266   0.022   2.560   1.681
 9123SOL     OW28267   0.832   6.212   4.129
 9123SOL    HW128268   0.737   6.215   4.161
 9123SOL    HW228269   0.839   6.260   4.042
 9124SOL     OW28270   3.762   5.989   0.872
 9124SOL    HW128271   3.858   5.974   0.899
 9124SOL    HW228272   3.703   5.930   0.927
 9125SOL     OW28273   5.281   6.289   1.480
 9125SOL    HW128274   5.264   6.247   1.391
 9125SOL    HW228275   5.238   6.235   1.551
 9126SOL     OW28276   4.653   4.599   0.714
 9126SOL    HW128277   4.594   4.561   0.643
 9126SOL    HW228278   4.713   4.668   0.675
 9127SOL     OW28279   6.301   4.436   5.391
 9127SOL    HW128280   6.314   4.342   5.359
 9127SOL    HW228281   6.389   4.482   5.395
 9128SOL     OW28282   5.865   3.434   6.030
 9128SOL    HW128283   5.906   3.414   6.119
 9128SOL    HW228284   5.776   3.478   6.044
 9129SOL     OW28285   0.761   3.195   0.780
 9129SOL    HW128286   0.679   3.196   0.723
 9129SOL    HW228287   0.780   3.287   0.813
 9130SOL     OW28288   3.025   3.556   5.475
 9130SOL    HW128289   2.985   3.531   5.386
 9130SOL    HW228290   3.001   3.650   5.497
 9131SOL     OW28291   5.388   2.829   0.817
 9131SOL    HW128292   5.326   2.798   0.888
 9131SOL    HW228293   5.483   2.817   0.848
 9132SOL     OW28294   1.005   4.137   3.963
 9132SOL    HW128295   0.968   4.065   4.022
 9132SOL    HW228296   0.936   4.209   3.952
 9133SOL     OW28297   5.381   6.766   1.345
 9133SOL    HW128298   5.315   6.800   1.278
 9133SOL    HW228299   5.471   6.805   1.326
 9134SOL     OW28300   5.082   4.910   6.725
 9134SOL    HW128301   5.102   4.812   6.729
 9134SOL    HW228302   4.984   4.924   6.708
 9135SOL     OW28303   6.461   5.465   2.220
 9135SOL    HW128304   6.484   5.381   2.170
 9135SOL    HW228305   6.457   5.542   2.156
 9136SOL     OW28306   0.835   5.082   0.485
 9136SOL    HW128307   0.837   5.021   0.407
 9136SOL    HW228308   0.766   5.050   0.551
 9137SOL     OW28309   5.855   5.804   5.501
 9137SOL    HW128310   5.773   5.772   5.453
 9137SOL    HW228311   5.888   5.887   5.457
 9138SOL     OW28312   2.124   4.500   6.233
 9138SOL    HW128313   2.078   4.571   6.179
 9138SOL    HW228314   2.091   4.410   6.206
 9139SOL     OW28315   0.303   0.227   1.716
 9139SOL    HW128316   0.235   0.166   1.759
 9139SOL    HW228317   0.368   0.258   1.785
 9140SOL     OW28318   1.862   4.183   2.063
 9140SOL    HW128319   1.786   4.150   2.119
 9140SOL    HW228320   1.826   4.233   1.984
 9141SOL     OW28321   0.517   5.572   4.486
 9141SOL    HW128322   0.533   5.503   4.415
 9141SOL    HW228323   0.532   5.663   4.448
 9142SOL     OW28324   1.422   4.394   3.248
 9142SOL    HW128325   1.366   4.455   3.304
 9142SOL    HW228326   1.515   4.392   3.284
 9143SOL     OW28327   6.251   3.626   2.628
 9143SOL    HW128328   6.176   3.681   2.591
 9143SOL    HW228329   6.245   3.624   2.728
 9144SOL     OW28330   3.121   4.068   5.623
 9144SOL    HW128331   3.160   4.159   5.609
 9144SOL    HW228332   3.194   4.000   5.623
 9145SOL     OW28333   1.951   6.238   5.799
 9145SOL    HW128334   1.999   6.189   5.872
 9145SOL    HW228335   1.853   6.240   5.819
 9146SOL     OW28336   6.137   2.335   3.817
 9146SOL    HW128337   6.165   2.318   3.912
 9146SOL    HW228338   6.107   2.249   3.776
 9147SOL     OW28339   4.277   0.963   6.119
 9147SOL    HW128340   4.317   0.891   6.062
 9147SOL    HW228341   4.326   1.048   6.105
 9148SOL     OW28342   4.440   5.776   1.962
 9148SOL    HW128343   4.511   5.744   1.900
 9148SOL    HW228344   4.480   5.836   2.031
 9149SOL     OW28345   0.839   3.830   1.768
 9149SOL    HW128346   0.828   3.888   1.687
 9149SOL    HW228347   0.756   3.834   1.824
 9150SOL     OW28348   3.196   3.927   0.120
 9150SOL    HW128349   3.277   3.869   0.119
 9150SOL    HW228350   3.118   3.875   0.154
 9151SOL     OW28351   2.151   3.113   3.497
 9151SOL    HW128352   2.074   3.176   3.497
 9151SOL    HW228353   2.216   3.141   3.568
 9152SOL     OW28354   2.031   4.920   2.282
 9152SOL    HW128355   2.061   4.943   2.190
 9152SOL    HW228356   2.106   4.936   2.347
 9153SOL     OW28357   0.383   3.209   0.251
 9153SOL    HW128358   0.361   3.286   0.311
 9153SOL    HW228359   0.396   3.243   0.158
 9154SOL     OW28360   4.677   4.748   3.577
 9154SOL    HW128361   4.637   4.837   3.553
 9154SOL    HW228362   4.671   4.734   3.676
 9155SOL     OW28363   0.951   6.343   2.660
 9155SOL    HW128364   0.931   6.313   2.753
 9155SOL    HW228365   1.048   6.364   2.652
 9156SOL     OW28366   0.266   3.733   5.486
 9156SOL    HW128367   0.253   3.830   5.470
 9156SOL    HW228368   0.232   3.681   5.407
 9157SOL     OW28369   2.095   4.742   5.136
 9157SOL    HW128370   2.083   4.704   5.228
 9157SOL    HW228371   2.135   4.833   5.142
 9158SOL     OW28372   6.699   3.166   4.797
 9158SOL    HW128373   6.721   3.263   4.806
 9158SOL    HW228374   6.622   3.144   4.857
 9159SOL     OW28375   2.434   1.281   3.929
 9159SOL    HW128376   2.484   1.366   3.915
 9159SOL    HW228377   2.351   1.281   3.875
 9160SOL     OW28378   1.147   2.994   6.734
 9160SOL    HW128379   1.056   3.036   6.730
 9160SOL    HW228380   1.215   3.055   6.694
 9161SOL     OW28381   5.706   3.020   3.160
 9161SOL    HW128382   5.664   3.014   3.251
 9161SOL    HW228383   5.718   3.116   3.135
 9162SOL     OW28384   3.994   2.227   1.783
 9162SOL    HW128385   3.910   2.272   1.814
 9162SOL    HW228386   4.033   2.277   1.706
 9163SOL     OW28387   1.638   2.709   3.932
 9163SOL    HW128388   1.714   2.644   3.934
 9163SOL    HW228389   1.624   2.747   4.023
 9164SOL     OW28390   2.607   6.284   7.009
 9164SOL    HW128391   2.688   6.342   7.016
 9164SOL    HW228392   2.545   6.305   0.064
 9165SOL     OW28393   5.896   0.977   6.086
 9165SOL    HW128394   5.915   1.064   6.132
 9165SOL    HW228395   5.814   0.935   6.126
 9166SOL     OW28396   4.103   6.466   1.967
 9166SOL    HW128397   4.062   6.381   1.933
 9166SOL    HW228398   4.158   6.508   1.895
 9167SOL     OW28399   1.389   1.739   4.328
 9167SOL    HW128400   1.447   1.698   4.399
 9167SOL    HW228401   1.327   1.805   4.369
 9168SOL     OW28402   6.444   5.804   4.954
 9168SOL    HW128403   6.359   5.848   4.982
 9168SOL    HW228404   6.517   5.828   5.017
 9169SOL     OW28405   6.411   6.057   6.970
 9169SOL    HW128406   6.477   6.060   0.024
 9169SOL    HW228407   6.431   6.130   6.905
 9170SOL     OW28408   2.409   0.615   5.636
 9170SOL    HW128409   2.314   0.588   5.621
 9170SOL    HW228410   2.419   0.648   5.730
 9171SOL     OW28411   3.788   5.681   0.089
 9171SOL    HW128412   3.770   5.672   0.187
 9171SOL    HW228413   3.702   5.704   0.042
 9172SOL     OW28414   4.459   1.566   5.515
 9172SOL    HW128415   4.546   1.582   5.468
 9172SOL    HW228416   4.405   1.501   5.464
 9173SOL     OW28417   6.164   3.559   5.334
 9173SOL    HW128418   6.071   3.532   5.308
 9173SOL    HW228419   6.160   3.645   5.384
 9174SOL     OW28420   6.006   4.838   0.764
 9174SOL    HW128421   5.970   4.802   0.678
 9174SOL    HW228422   5.968   4.786   0.840
 9175SOL     OW28423   2.154   1.131   1.328
 9175SOL    HW128424   2.240   1.090   1.298
 9175SOL    HW228425   2.149   1.225   1.295
 9176SOL     OW28426   1.544   1.384   2.724
 9176SOL    HW128427   1.587   1.467   2.760
 9176SOL    HW228428   1.445   1.396   2.722
 9177SOL     OW28429   0.843   5.643   3.391
 9177SOL    HW128430   0.749   5.612   3.383
 9177SOL    HW228431   0.858   5.683   3.481
 9178SOL     OW28432   1.389   3.887   1.378
 9178SOL    HW128433   1.325   3.885   1.454
 9178SOL    HW228434   1.471   3.938   1.404
 9179SOL     OW28435   4.081   4.753   3.570
 9179SOL    HW128436   4.042   4.819   3.505
 9179SOL    HW228437   4.121   4.676   3.519
 9180SOL     OW28438   0.680   0.657   5.265
 9180SOL    HW128439   0.703   0.567   5.228
 9180SOL    HW228440   0.703   0.727   5.197
 9181SOL     OW28441   2.417   1.665   3.650
 9181SOL    HW128442   2.494   1.708   3.697
 9181SOL    HW228443   2.449   1.623   3.565
 9182SOL     OW28444   6.719   1.541   2.946
 9182SOL    HW128445   6.694   1.631   2.982
 9182SOL    HW228446   6.818   1.539   2.928
 9183SOL     OW28447   2.255   1.281   5.852
 9183SOL    HW128448   2.266   1.226   5.769
 9183SOL    HW228449   2.212   1.368   5.828
 9184SOL     OW28450   2.772   4.548   1.367
 9184SOL    HW128451   2.692   4.607   1.372
 9184SOL    HW228452   2.783   4.499   1.454
 9185SOL     OW28453   1.251   0.711   5.780
 9185SOL    HW128454   1.302   0.672   5.703
 9185SOL    HW228455   1.246   0.811   5.770
 9186SOL     OW28456   5.791   6.293   6.208
 9186SOL    HW128457   5.869   6.350   6.231
 9186SOL    HW228458   5.800   6.261   6.114
 9187SOL     OW28459   4.990   2.706   1.313
 9187SOL    HW128460   4.898   2.693   1.350
 9187SOL    HW228461   5.012   2.803   1.309
 9188SOL     OW28462   1.400   0.678   1.974
 9188SOL    HW128463   1.310   0.648   1.942
 9188SOL    HW228464   1.451   0.716   1.897
 9189SOL     OW28465   3.150   0.529   6.055
 9189SOL    HW128466   3.177   0.616   6.097
 9189SOL    HW228467   3.152   0.457   6.124
 9190SOL     OW28468   3.955   0.882   5.750
 9190SOL    HW128469   3.888   0.956   5.743
 9190SOL    HW228470   3.928   0.819   5.822
 9191SOL     OW28471   5.251   6.592   1.587
 9191SOL    HW128472   5.154   6.610   1.570
 9191SOL    HW228473   5.265   6.574   1.684
 9192SOL     OW28474   4.788   4.014   4.689
 9192SOL    HW128475   4.873   4.067   4.697
 9192SOL    HW228476   4.768   3.969   4.776
 9193SOL     OW28477   4.123   3.313   3.134
 9193SOL    HW128478   4.030   3.306   3.169
 9193SOL    HW228479   4.188   3.294   3.208
 9194SOL     OW28480   3.700   4.934   2.847
 9194SOL    HW128481   3.696   5.005   2.778
 9194SOL    HW228482   3.665   4.848   2.810
 9195SOL     OW28483   0.843   2.772   3.573
 9195SOL    HW128484   0.916   2.720   3.618
 9195SOL    HW228485   0.814   2.847   3.632
 9196SOL     OW28486   5.269   5.743   3.417
 9196SOL    HW128487   5.299   5.700   3.502
 9196SOL    HW228488   5.294   5.685   3.340
 9197SOL     OW28489   4.544   1.519   0.111
 9197SOL    HW128490   4.481   1.441   0.117
 9197SOL    HW228491   4.612   1.502   0.040
 9198SOL     OW28492   5.925   2.464   5.568
 9198SOL    HW128493   5.838   2.513   5.577
 9198SOL    HW228494   5.912   2.382   5.512
 9199SOL     OW28495   1.000   3.844   6.478
 9199SOL    HW128496   1.011   3.874   6.383
 9199SOL    HW228497   1.003   3.744   6.482
 9200SOL     OW28498   5.209   5.924   1.313
 9200SOL    HW128499   5.149   5.880   1.380
 9200SOL    HW228500   5.208   6.023   1.326
 9201SOL     OW28501   6.935   3.102   2.110
 9201SOL    HW128502   6.915   3.129   2.016
 9201SOL    HW228503   6.870   3.032   2.139
 9202SOL     OW28504   2.636   6.327   4.308
 9202SOL    HW128505   2.683   6.280   4.233
 9202SOL    HW228506   2.591   6.260   4.366
 9203SOL     OW28507   5.383   1.441   0.652
 9203SOL    HW128508   5.288   1.466   0.669
 9203SOL    HW228509   5.443   1.518   0.674
 9204SOL     OW28510   5.167   4.588   2.765
 9204SOL    HW128511   5.131   4.520   2.829
 9204SOL    HW228512   5.124   4.677   2.782
 9205SOL     OW28513   4.210   2.355   1.358
 9205SOL    HW128514   4.254   2.271   1.327
 9205SOL    HW228515   4.257   2.434   1.317
 9206SOL     OW28516   6.673   6.216   5.251
 9206SOL    HW128517   6.670   6.314   5.230
 9206SOL    HW228518   6.764   6.180   5.233
 9207SOL     OW28519   4.700   6.415   0.577
 9207SOL    HW128520   4.602   6.430   0.591
 9207SOL    HW228521   4.717   6.317   0.566
 9208SOL     OW28522   4.593   4.395   1.303
 9208SOL    HW128523   4.627   4.312   1.260
 9208SOL    HW228524   4.497   4.382   1.330
 9209SOL     OW28525   4.410   0.471   3.706
 9209SOL    HW128526   4.370   0.536   3.641
 9209SOL    HW228527   4.340   0.438   3.768
 9210SOL     OW28528   1.039   0.060   6.635
 9210SOL    HW128529   1.040   0.154   6.670
 9210SOL    HW228530   1.132   0.033   6.612
 9211SOL     OW28531   4.858   1.175   6.780
 9211SOL    HW128532   4.946   1.131   6.799
 9211SOL    HW228533   4.873   1.271   6.759
 9212SOL     OW28534   6.111   3.372   5.909
 9212SOL    HW128535   6.131   3.284   5.953
 9212SOL    HW228536   6.019   3.401   5.933
 9213SOL     OW28537   6.488   5.831   1.849
 9213SOL    HW128538   6.470   5.893   1.925
 9213SOL    HW228539   6.404   5.820   1.794
 9214SOL     OW28540   1.791   1.677   6.587
 9214SOL    HW128541   1.871   1.659   6.528
 9214SOL    HW228542   1.822   1.690   6.681
 9215SOL     OW28543   0.231   3.874   3.681
 9215SOL    HW128544   0.280   3.790   3.657
 9215SOL    HW228545   0.166   3.854   3.755
 9216SOL     OW28546   2.521   6.704   3.723
 9216SOL    HW128547   2.582   6.762   3.778
 9216SOL    HW228548   2.572   6.667   3.645
 9217SOL     OW28549   3.539   2.325   6.857
 9217SOL    HW128550   3.570   2.278   6.775
 9217SOL    HW228551   3.612   2.385   6.890
 9218SOL     OW28552   4.955   5.850   5.724
 9218SOL    HW128553   4.855   5.852   5.714
 9218SOL    HW228554   4.979   5.837   5.820
 9219SOL     OW28555   3.345   2.045   5.715
 9219SOL    HW128556   3.271   2.069   5.652
 9219SOL    HW228557   3.318   2.068   5.809
 9220SOL     OW28558   0.703   6.442   3.247
 9220SOL    HW128559   0.747   6.498   3.177
 9220SOL    HW228560   0.765   6.369   3.275
 9221SOL     OW28561   2.850   1.971   1.565
 9221SOL    HW128562   2.797   1.893   1.531
 9221SOL    HW228563   2.897   2.015   1.489
 9222SOL     OW28564   1.856   5.502   3.357
 9222SOL    HW128565   1.770   5.550   3.370
 9222SOL    HW228566   1.900   5.536   3.274
 9223SOL     OW28567   6.384   2.720   4.907
 9223SOL    HW128568   6.303   2.690   4.957
 9223SOL    HW228569   6.360   2.733   4.811
 9224SOL     OW28570   1.328   4.979   2.052
 9224SOL    HW128571   1.264   4.948   2.122
 9224SOL    HW228572   1.360   5.071   2.073
 9225SOL     OW28573   0.945   5.571   6.133
 9225SOL    HW128574   0.927   5.599   6.039
 9225SOL    HW228575   1.018   5.503   6.134
 9226SOL     OW28576   0.674   0.538   4.688
 9226SOL    HW128577   0.608   0.527   4.762
 9226SOL    HW228578   0.708   0.449   4.659
 9227SOL     OW28579   3.745   3.699   0.244
 9227SOL    HW128580   3.778   3.687   0.150
 9227SOL    HW228581   3.677   3.629   0.264
 9228SOL     OW28582   3.541   3.443   5.329
 9228SOL    HW128583   3.461   3.500   5.347
 9228SOL    HW228584   3.618   3.473   5.386
 9229SOL     OW28585   0.456   4.752   0.325
 9229SOL    HW128586   0.477   4.654   0.325
 9229SOL    HW228587   0.362   4.766   0.356
 9230SOL     OW28588   4.238   6.722   5.302
 9230SOL    HW128589   4.163   6.656   5.299
 9230SOL    HW228590   4.313   6.686   5.358
 9231SOL     OW28591   6.428   6.124   1.648
 9231SOL    HW128592   6.370   6.188   1.599
 9231SOL    HW228593   6.472   6.062   1.582
 9232SOL     OW28594   1.010   5.778   2.383
 9232SOL    HW128595   0.989   5.756   2.288
 9232SOL    HW228596   1.109   5.783   2.395
 9233SOL     OW28597   0.943   0.292   5.477
 9233SOL    HW128598   0.920   0.389   5.479
 9233SOL    HW228599   0.968   0.262   5.569
 9234SOL     OW28600   3.761   4.491   6.099
 9234SOL    HW128601   3.690   4.556   6.127
 9234SOL    HW228602   3.773   4.496   6.000
 9235SOL     OW28603   2.262   2.657   2.927
 9235SOL    HW128604   2.262   2.704   3.015
 9235SOL    HW228605   2.178   2.603   2.918
 9236SOL     OW28606   1.783   3.292   6.117
 9236SOL    HW128607   1.841   3.302   6.036
 9236SOL    HW228608   1.687   3.307   6.091
 9237SOL     OW28609   6.658   4.973   3.514
 9237SOL    HW128610   6.654   5.071   3.495
 9237SOL    HW228611   6.569   4.941   3.546
 9238SOL     OW28612   1.305   3.010   5.249
 9238SOL    HW128613   1.239   2.976   5.182
 9238SOL    HW228614   1.379   3.058   5.201
 9239SOL     OW28615   1.485   6.054   5.741
 9239SOL    HW128616   1.484   6.063   5.642
 9239SOL    HW228617   1.417   6.116   5.781
 9240SOL     OW28618   3.361   1.406   4.330
 9240SOL    HW128619   3.397   1.393   4.422
 9240SOL    HW228620   3.343   1.503   4.315
 9241SOL     OW28621   5.616   6.287   0.200
 9241SOL    HW128622   5.706   6.315   0.168
 9241SOL    HW228623   5.599   6.192   0.175
 9242SOL     OW28624   2.359   2.941   0.187
 9242SOL    HW128625   2.447   2.989   0.190
 9242SOL    HW228626   2.372   2.846   0.214
 9243SOL     OW28627   1.942   0.276   0.279
 9243SOL    HW128628   1.923   0.360   0.329
 9243SOL    HW228629   1.857   0.227   0.260
 9244SOL     OW28630   2.413   6.320   6.790
 9244SOL    HW128631   2.339   6.254   6.796
 9244SOL    HW228632   2.486   6.294   6.852
 9245SOL     OW28633   0.691   4.974   2.871
 9245SOL    HW128634   0.595   4.950   2.855
 9245SOL    HW228635   0.746   4.941   2.794
 9246SOL     OW28636   4.920   6.667   0.074
 9246SOL    HW128637   4.906   6.626   0.164
 9246SOL    HW228638   4.832   6.671   0.026
 9247SOL     OW28639   3.437   6.733   2.553
 9247SOL    HW128640   3.376   6.664   2.516
 9247SOL    HW228641   3.398   6.771   2.636
 9248SOL     OW28642   2.528   0.304   6.931
 9248SOL    HW128643   2.520   0.233   7.001
 9248SOL    HW228644   2.577   0.382   6.968
 9249SOL     OW28645   3.388   0.386   0.478
 9249SOL    HW128646   3.294   0.417   0.491
 9249SOL    HW228647   3.451   0.461   0.497
 9250SOL     OW28648   0.539   3.908   2.914
 9250SOL    HW128649   0.544   3.830   2.852
 9250SOL    HW228650   0.489   3.881   2.997
 9251SOL     OW28651   4.007   1.627   1.297
 9251SOL    HW128652   3.911   1.654   1.305
 9251SOL    HW228653   4.014   1.527   1.305
 9252SOL     OW28654   5.669   1.265   4.706
 9252SOL    HW128655   5.627   1.199   4.643
 9252SOL    HW228656   5.684   1.221   4.794
 9253SOL     OW28657   2.294   5.289   4.150
 9253SOL    HW128658   2.339   5.358   4.207
 9253SOL    HW228659   2.361   5.248   4.089
 9254SOL     OW28660   0.115   5.633   2.293
 9254SOL    HW128661   0.029   5.617   2.246
 9254SOL    HW228662   0.144   5.728   2.280
 9255SOL     OW28663   6.510   3.349   0.819
 9255SOL    HW128664   6.561   3.411   0.760
 9255SOL    HW228665   6.516   3.256   0.782
 9256SOL     OW28666   2.556   6.609   0.720
 9256SOL    HW128667   2.519   6.552   0.793
 9256SOL    HW228668   2.576   6.551   0.640
 9257SOL     OW28669   6.679   5.799   4.737
 9257SOL    HW128670   6.665   5.725   4.671
 9257SOL    HW228671   6.601   5.802   4.800
 9258SOL     OW28672   5.232   4.891   2.195
 9258SOL    HW128673   5.259   4.882   2.099
 9258SOL    HW228674   5.195   4.982   2.211
 9259SOL     OW28675   0.853   2.375   6.934
 9259SOL    HW128676   0.802   2.420   7.006
 9259SOL    HW228677   0.790   2.343   6.863
 9260SOL     OW28678   5.038   4.185   4.754
 9260SOL    HW128679   5.082   4.122   4.691
 9260SOL    HW228680   5.062   4.279   4.729
 9261SOL     OW28681   1.476   3.600   2.065
 9261SOL    HW128682   1.567   3.561   2.051
 9261SOL    HW228683   1.458   3.669   1.996
 9262SOL     OW28684   0.006   6.754   6.069
 9262SOL    HW128685   6.957   6.683   6.057
 9262SOL    HW228686   0.095   6.720   6.041
 9263SOL     OW28687   2.485   4.601   2.696
 9263SOL    HW128688   2.559   4.637   2.640
 9263SOL    HW228689   2.475   4.503   2.680
 9264SOL     OW28690   5.071   3.193   5.456
 9264SOL    HW128691   5.056   3.263   5.387
 9264SOL    HW228692   5.106   3.235   5.540
 9265SOL     OW28693   5.086   0.369   2.010
 9265SOL    HW128694   5.017   0.402   2.073
 9265SOL    HW228695   5.053   0.287   1.963
 9266SOL     OW28696   0.807   5.138   0.848
 9266SOL    HW128697   0.738   5.072   0.819
 9266SOL    HW228698   0.812   5.137   0.948
 9267SOL     OW28699   6.869   1.547   3.784
 9267SOL    HW128700   6.949   1.542   3.844
 9267SOL    HW228701   6.868   1.636   3.738
 9268SOL     OW28702   0.621   1.497   1.590
 9268SOL    HW128703   0.536   1.466   1.634
 9268SOL    HW228704   0.694   1.500   1.658
 9269SOL     OW28705   4.075   0.458   1.235
 9269SOL    HW128706   4.130   0.500   1.307
 9269SOL    HW228707   4.042   0.369   1.265
 9270SOL     OW28708   2.597   0.815   5.196
 9270SOL    HW128709   2.655   0.887   5.233
 9270SOL    HW228710   2.534   0.782   5.266
 9271SOL     OW28711   1.533   4.224   5.533
 9271SOL    HW128712   1.532   4.221   5.433
 9271SOL    HW228713   1.443   4.254   5.566
 9272SOL     OW28714   6.844   6.560   5.466
 9272SOL    HW128715   6.749   6.531   5.464
 9272SOL    HW228716   6.903   6.486   5.435
 9273SOL     OW28717   5.985   3.706   4.293
 9273SOL    HW128718   6.014   3.610   4.290
 9273SOL    HW228719   5.916   3.718   4.364
 9274SOL     OW28720   0.225   3.470   6.903
 9274SOL    HW128721   0.148   3.483   6.965
 9274SOL    HW228722   0.268   3.558   6.884
 9275SOL     OW28723   5.679   1.642   0.512
 9275SOL    HW128724   5.650   1.653   0.607
 9275SOL    HW228725   5.607   1.597   0.460
 9276SOL     OW28726   2.454   3.916   0.128
 9276SOL    HW128727   2.501   3.993   0.172
 9276SOL    HW228728   2.390   3.951   0.060
 9277SOL     OW28729   4.192   5.743   2.350
 9277SOL    HW128730   4.133   5.673   2.311
 9277SOL    HW228731   4.137   5.808   2.402
 9278SOL     OW28732   0.730   0.148   5.728
 9278SOL    HW128733   0.784   0.068   5.702
 9278SOL    HW228734   0.647   0.151   5.673
 9279SOL     OW28735   3.163   6.099   1.759
 9279SOL    HW128736   3.140   6.141   1.671
 9279SOL    HW228737   3.229   6.156   1.807
 9280SOL     OW28738   1.017   5.163   2.096
 9280SOL    HW128739   1.086   5.095   2.123
 9280SOL    HW228740   0.926   5.125   2.111
 9281SOL     OW28741   1.419   5.517   0.826
 9281SOL    HW128742   1.353   5.460   0.777
 9281SOL    HW228743   1.373   5.566   0.900
 9282SOL     OW28744   2.342   0.256   4.493
 9282SOL    HW128745   2.288   0.340   4.484
 9282SOL    HW228746   2.282   0.180   4.516
 9283SOL     OW28747   4.588   5.796   6.885
 9283SOL    HW128748   4.671   5.784   6.940
 9283SOL    HW228749   4.543   5.882   6.911
 9284SOL     OW28750   4.238   6.701   1.099
 9284SOL    HW128751   4.250   6.725   1.002
 9284SOL    HW228752   4.141   6.707   1.123
 9285SOL     OW28753   0.029   5.953   3.598
 9285SOL    HW128754   0.006   6.004   3.515
 9285SOL    HW228755   6.968   5.940   3.654
 9286SOL     OW28756   4.712   6.690   1.768
 9286SOL    HW128757   4.747   6.619   1.706
 9286SOL    HW228758   4.683   6.769   1.714
 9287SOL     OW28759   4.565   4.300   0.220
 9287SOL    HW128760   4.545   4.379   0.279
 9287SOL    HW228761   4.511   4.222   0.250
 9288SOL     OW28762   3.809   1.704   2.565
 9288SOL    HW128763   3.752   1.711   2.483
 9288SOL    HW228764   3.852   1.614   2.569
 9289SOL     OW28765   4.607   5.957   2.079
 9289SOL    HW128766   4.565   6.045   2.101
 9289SOL    HW228767   4.686   5.941   2.138
 9290SOL     OW28768   5.257   1.051   3.315
 9290SOL    HW128769   5.253   1.072   3.218
 9290SOL    HW228770   5.163   1.041   3.350
 9291SOL     OW28771   0.491   3.988   5.390
 9291SOL    HW128772   0.422   4.004   5.461
 9291SOL    HW228773   0.448   3.993   5.300
 9292SOL     OW28774   1.032   1.707   6.772
 9292SOL    HW128775   1.094   1.681   6.846
 9292SOL    HW228776   0.938   1.704   6.805
 9293SOL     OW28777   4.927   1.114   5.936
 9293SOL    HW128778   4.831   1.087   5.941
 9293SOL    HW228779   4.985   1.033   5.931
 9294SOL     OW28780   5.411   6.265   6.056
 9294SOL    HW128781   5.368   6.236   5.971
 9294SOL    HW228782   5.452   6.186   6.102
 9295SOL     OW28783   6.448   0.509   3.155
 9295SOL    HW128784   6.409   0.453   3.228
 9295SOL    HW228785   6.492   0.450   3.087
 9296SOL     OW28786   1.634   3.978   5.702
 9296SOL    HW128787   1.562   4.023   5.754
 9296SOL    HW228788   1.658   4.034   5.623
 9297SOL     OW28789   6.703   4.951   2.243
 9297SOL    HW128790   6.730   4.880   2.177
 9297SOL    HW228791   6.640   4.912   2.310
 9298SOL     OW28792   0.467   4.136   6.200
 9298SOL    HW128793   0.491   4.204   6.131
 9298SOL    HW228794   0.373   4.151   6.230
 9299SOL     OW28795   3.062   1.926   3.898
 9299SOL    HW128796   3.009   1.869   3.835
 9299SOL    HW228797   3.111   1.867   3.963
 9300SOL     OW28798   2.519   5.685   5.519
 9300SOL    HW128799   2.571   5.757   5.562
 9300SOL    HW228800   2.580   5.624   5.469
 9301SOL     OW28801   1.124   4.167   4.398
 9301SOL    HW128802   1.026   4.151   4.385
 9301SOL    HW228803   1.149   4.146   4.492
 9302SOL     OW28804   3.339   5.576   3.974
 9302SOL    HW128805   3.419   5.630   3.947
 9302SOL    HW228806   3.339   5.564   4.074
 9303SOL     OW28807   2.573   4.591   0.256
 9303SOL    HW128808   2.590   4.575   0.353
 9303SOL    HW228809   2.658   4.617   0.211
 9304SOL     OW28810   5.482   5.623   6.526
 9304SOL    HW128811   5.385   5.621   6.550
 9304SOL    HW228812   5.536   5.585   6.601
 9305SOL     OW28813   1.766   1.704   0.970
 9305SOL    HW128814   1.723   1.793   0.982
 9305SOL    HW228815   1.698   1.638   0.938
 9306SOL     OW28816   6.867   6.242   4.513
 9306SOL    HW128817   6.821   6.214   4.598
 9306SOL    HW228818   6.822   6.197   4.436
 9307SOL     OW28819   2.272   3.826   1.357
 9307SOL    HW128820   2.357   3.781   1.387
 9307SOL    HW228821   2.262   3.913   1.404
 9308SOL     OW28822   2.346   3.470   1.537
 9308SOL    HW128823   2.442   3.495   1.524
 9308SOL    HW228824   2.339   3.373   1.558
 9309SOL     OW28825   4.869   5.042   5.996
 9309SOL    HW128826   4.775   5.076   6.000
 9309SOL    HW228827   4.901   5.043   5.902
 9310SOL     OW28828   6.195   6.219   5.647
 9310SOL    HW128829   6.200   6.125   5.615
 9310SOL    HW228830   6.280   6.244   5.692
 9311SOL     OW28831   5.718   4.167   0.783
 9311SOL    HW128832   5.775   4.228   0.838
 9311SOL    HW228833   5.700   4.209   0.694
 9312SOL     OW28834   6.009   2.876   4.522
 9312SOL    HW128835   5.942   2.930   4.471
 9312SOL    HW228836   6.027   2.791   4.472
 9313SOL     OW28837   0.621   0.788   2.271
 9313SOL    HW128838   0.622   0.852   2.347
 9313SOL    HW228839   0.644   0.836   2.186
 9314SOL     OW28840   5.106   5.274   1.179
 9314SOL    HW128841   5.009   5.293   1.165
 9314SOL    HW228842   5.133   5.196   1.123
 9315SOL     OW28843   6.172   5.401   5.714
 9315SOL    HW128844   6.085   5.449   5.718
 9315SOL    HW228845   6.184   5.360   5.623
 9316SOL     OW28846   5.497   6.843   0.992
 9316SOL    HW128847   5.422   6.799   0.941
 9316SOL    HW228848   5.557   6.891   0.929
 9317SOL     OW28849   2.387   6.051   3.509
 9317SOL    HW128850   2.293   6.029   3.535
 9317SOL    HW228851   2.397   6.043   3.409
 9318SOL     OW28852   3.336   6.593   3.181
 9318SOL    HW128853   3.239   6.604   3.204
 9318SOL    HW228854   3.381   6.683   3.183
 9319SOL     OW28855   3.954   1.978   0.177
 9319SOL    HW128856   3.941   1.904   0.244
 9319SOL    HW228857   4.034   2.032   0.203
 9320SOL     OW28858   6.720   6.730   6.667
 9320SOL    HW128859   6.812   6.698   6.641
 9320SOL    HW228860   6.720   6.830   6.671
 9321SOL     OW28861   0.529   2.937   3.845
 9321SOL    HW128862   0.607   2.875   3.858
 9321SOL    HW228863   0.537   2.984   3.757
 9322SOL     OW28864   4.766   2.782   0.176
 9322SOL    HW128865   4.771   2.837   0.092
 9322SOL    HW228866   4.827   2.820   0.245
 9323SOL     OW28867   0.493   2.314   5.343
 9323SOL    HW128868   0.572   2.267   5.383
 9323SOL    HW228869   0.487   2.291   5.246
 9324SOL     OW28870   0.548   4.933   1.269
 9324SOL    HW128871   0.608   4.982   1.332
 9324SOL    HW228872   0.480   4.997   1.231
 9325SOL     OW28873   0.839   5.270   3.421
 9325SOL    HW128874   0.865   5.176   3.442
 9325SOL    HW228875   0.831   5.282   3.322
 9326SOL     OW28876   5.127   4.436   1.025
 9326SOL    HW128877   5.056   4.461   0.960
 9326SOL    HW228878   5.119   4.494   1.106
 9327SOL     OW28879   2.553   1.554   2.966
 9327SOL    HW128880   2.586   1.594   3.052
 9327SOL    HW228881   2.497   1.473   2.986
 9328SOL     OW28882   1.522   0.205   3.096
 9328SOL    HW128883   1.450   0.138   3.118
 9328SOL    HW228884   1.564   0.182   3.009
 9329SOL     OW28885   1.361   5.325   6.451
 9329SOL    HW128886   1.437   5.387   6.471
 9329SOL    HW228887   1.277   5.377   6.441
 9330SOL     OW28888   0.710   6.789   1.050
 9330SOL    HW128889   0.680   6.709   0.998
 9330SOL    HW228890   0.721   6.867   0.989
 9331SOL     OW28891   1.882   4.663   4.286
 9331SOL    HW128892   1.976   4.644   4.316
 9331SOL    HW228893   1.884   4.721   4.205
 9332SOL     OW28894   6.888   4.922   0.319
 9332SOL    HW128895   6.836   4.977   0.255
 9332SOL    HW228896   6.873   4.824   0.301
 9333SOL     OW28897   2.419   4.972   1.156
 9333SOL    HW128898   2.408   5.024   1.071
 9333SOL    HW228899   2.379   4.881   1.145
 9334SOL     OW28900   0.276   5.218   6.751
 9334SOL    HW128901   0.233   5.168   6.675
 9334SOL    HW228902   0.232   5.308   6.759
 9335SOL     OW28903   0.307   3.567   1.245
 9335SOL    HW128904   0.373   3.492   1.239
 9335SOL    HW228905   0.352   3.653   1.221
 9336SOL     OW28906   4.493   5.831   5.354
 9336SOL    HW128907   4.495   5.904   5.422
 9336SOL    HW228908   4.585   5.815   5.319
 9337SOL     OW28909   2.727   1.738   5.328
 9337SOL    HW128910   2.628   1.732   5.343
 9337SOL    HW228911   2.758   1.831   5.344
 9338SOL     OW28912   4.867   6.605   0.780
 9338SOL    HW128913   4.832   6.584   0.871
 9338SOL    HW228914   4.795   6.588   0.712
 9339SOL     OW28915   6.909   3.434   5.310
 9339SOL    HW128916   6.833   3.451   5.372
 9339SOL    HW228917   6.887   3.359   5.248
 9340SOL     OW28918   2.793   4.943   2.539
 9340SOL    HW128919   2.761   5.038   2.542
 9340SOL    HW228920   2.803   4.914   2.444
 9341SOL     OW28921   5.581   5.431   0.203
 9341SOL    HW128922   5.672   5.465   0.227
 9341SOL    HW228923   5.588   5.336   0.174
 9342SOL     OW28924   3.246   0.386   5.204
 9342SOL    HW128925   3.322   0.330   5.238
 9342SOL    HW228926   3.278   0.442   5.127
 9343SOL     OW28927   5.116   3.642   1.363
 9343SOL    HW128928   5.138   3.657   1.459
 9343SOL    HW228929   5.018   3.626   1.352
 9344SOL     OW28930   5.901   0.030   4.876
 9344SOL    HW128931   5.814   7.009   4.851
 9344SOL    HW228932   5.915   0.114   4.823
 9345SOL     OW28933   0.110   4.793   6.443
 9345SOL    HW128934   0.150   4.729   6.377
 9345SOL    HW228935   0.047   4.744   6.502
 9346SOL     OW28936   5.318   0.325   2.117
 9346SOL    HW128937   5.378   0.402   2.139
 9346SOL    HW228938   5.240   0.358   2.064
 9347SOL     OW28939   4.978   6.309   1.805
 9347SOL    HW128940   4.914   6.265   1.869
 9347SOL    HW228941   5.038   6.239   1.766
 9348SOL     OW28942   2.415   4.875   1.970
 9348SOL    HW128943   2.434   4.860   1.873
 9348SOL    HW228944   2.469   4.952   2.003
 9349SOL     OW28945   6.220   5.824   0.803
 9349SOL    HW128946   6.164   5.906   0.807
 9349SOL    HW228947   6.185   5.763   0.732
 9350SOL     OW28948   6.311   0.196   0.327
 9350SOL    HW128949   6.236   0.137   0.356
 9350SOL    HW228950   6.396   0.168   0.372
 9351SOL     OW28951   4.366   3.840   6.555
 9351SOL    HW128952   4.397   3.865   6.647
 9351SOL    HW228953   4.444   3.809   6.501
 9352SOL     OW28954   2.259   1.985   6.832
 9352SOL    HW128955   2.230   2.053   6.899
 9352SOL    HW228956   2.199   1.988   6.752
 9353SOL     OW28957   1.195   3.073   1.730
 9353SOL    HW128958   1.131   3.113   1.795
 9353SOL    HW228959   1.263   3.019   1.780
 9354SOL     OW28960   5.506   1.741   2.433
 9354SOL    HW128961   5.546   1.694   2.512
 9354SOL    HW228962   5.443   1.812   2.466
 9355SOL     OW28963   0.277   2.119   2.311
 9355SOL    HW128964   0.328   2.040   2.277
 9355SOL    HW228965   0.226   2.161   2.236
 9356SOL     OW28966   5.187   2.816   2.647
 9356SOL    HW128967   5.100   2.784   2.684
 9356SOL    HW228968   5.178   2.911   2.617
 9357SOL     OW28969   2.382   4.737   0.452
 9357SOL    HW128970   2.400   4.830   0.420
 9357SOL    HW228971   2.402   4.672   0.379
 9358SOL     OW28972   5.106   3.703   2.628
 9358SOL    HW128973   5.037   3.637   2.598
 9358SOL    HW228974   5.155   3.738   2.548
 9359SOL     OW28975   4.714   5.451   6.075
 9359SOL    HW128976   4.706   5.506   6.159
 9359SOL    HW228977   4.691   5.508   5.996
 9360SOL     OW28978   1.527   0.701   4.796
 9360SOL    HW128979   1.539   0.663   4.705
 9360SOL    HW228980   1.473   0.785   4.791
 9361SOL     OW28981   2.177   1.264   2.572
 9361SOL    HW128982   2.195   1.168   2.548
 9361SOL    HW228983   2.171   1.319   2.489
 9362SOL     OW28984   2.402   1.817   2.893
 9362SOL    HW128985   2.448   1.729   2.901
 9362SOL    HW228986   2.341   1.815   2.814
 9363SOL     OW28987   1.593   6.515   2.301
 9363SOL    HW128988   1.557   6.607   2.285
 9363SOL    HW228989   1.518   6.455   2.329
 9364SOL     OW28990   5.541   4.621   0.986
 9364SOL    HW128991   5.507   4.537   0.945
 9364SOL    HW228992   5.639   4.630   0.969
 9365SOL     OW28993   2.112   1.079   4.058
 9365SOL    HW128994   2.203   1.100   4.093
 9365SOL    HW228995   2.048   1.151   4.086
 9366SOL     OW28996   3.167   1.693   2.151
 9366SOL    HW128997   3.125   1.644   2.227
 9366SOL    HW228998   3.160   1.637   2.068
 9367SOL     OW28999   6.414   6.411   4.080
 9367SOL    HW129000   6.359   6.350   4.024
 9367SOL    HW229001   6.355   6.473   4.131
 9368SOL     OW29002   4.704   3.030   0.692
 9368SOL    HW129003   4.646   3.112   0.699
 9368SOL    HW229004   4.751   3.015   0.779
 9369SOL     OW29005   0.602   1.810   5.332
 9369SOL    HW129006   0.587   1.830   5.429
 9369SOL    HW229007   0.692   1.844   5.305
 9370SOL     OW29008   5.736   5.618   3.034
 9370SOL    HW129009   5.681   5.590   2.956
 9370SOL    HW229010   5.785   5.539   3.071
 9371SOL     OW29011   0.709   0.009   0.444
 9371SOL    HW129012   0.806   7.002   0.443
 9371SOL    HW229013   0.693   0.071   0.521
 9372SOL     OW29014   5.977   6.521   0.394
 9372SOL    HW129015   5.967   6.604   0.338
 9372SOL    HW229016   5.889   6.474   0.400
 9373SOL     OW29017   5.813   2.200   4.491
 9373SOL    HW129018   5.873   2.123   4.515
 9373SOL    HW229019   5.850   2.284   4.531
 9374SOL     OW29020   4.792   4.032   0.477
 9374SOL    HW129021   4.822   4.124   0.453
 9374SOL    HW229022   4.843   3.965   0.421
 9375SOL     OW29023   6.751   1.178   4.439
 9375SOL    HW129024   6.696   1.261   4.434
 9375SOL    HW229025   6.792   1.171   4.530
 9376SOL     OW29026   2.090   2.777   1.551
 9376SOL    HW129027   2.007   2.724   1.565
 9376SOL    HW229028   2.101   2.798   1.454
 9377SOL     OW29029   5.935   4.753   2.691
 9377SOL    HW129030   5.915   4.722   2.784
 9377SOL    HW229031   5.999   4.688   2.649
 9378SOL     OW29032   3.358   6.331   1.077
 9378SOL    HW129033   3.439   6.273   1.084
 9378SOL    HW229034   3.295   6.292   1.009
 9379SOL     OW29035   5.805   4.835   5.278
 9379SOL    HW129036   5.772   4.918   5.234
 9379SOL    HW229037   5.807   4.848   5.377
 9380SOL     OW29038   6.360   5.739   6.075
 9380SOL    HW129039   6.410   5.820   6.105
 9380SOL    HW229040   6.341   5.680   6.154
 9381SOL     OW29041   1.170   0.532   0.173
 9381SOL    HW129042   1.138   0.580   0.255
 9381SOL    HW229043   1.092   0.489   0.127
 9382SOL     OW29044   5.290   2.193   2.532
 9382SOL    HW129045   5.253   2.112   2.486
 9382SOL    HW229046   5.260   2.194   2.627
 9383SOL     OW29047   6.566   5.539   5.972
 9383SOL    HW129048   6.534   5.629   5.943
 9383SOL    HW229049   6.640   5.509   5.912
 9384SOL     OW29050   3.909   6.333   3.069
 9384SOL    HW129051   3.854   6.417   3.068
 9384SOL    HW229052   3.874   6.270   2.998
 9385SOL     OW29053   3.769   1.226   4.370
 9385SOL    HW129054   3.819   1.297   4.319
 9385SOL    HW229055   3.680   1.212   4.327
 9386SOL     OW29056   4.160   0.300   5.575
 9386SOL    HW129057   4.100   0.297   5.496
 9386SOL    HW229058   4.119   0.247   5.650
 9387SOL     OW29059   3.780   5.841   1.170
 9387SOL    HW129060   3.849   5.890   1.118
 9387SOL    HW229061   3.825   5.774   1.230
 9388SOL     OW29062   6.247   6.639   2.420
 9388SOL    HW129063   6.341   6.675   2.417
 9388SOL    HW229064   6.183   6.715   2.406
 9389SOL     OW29065   3.438   1.782   6.940
 9389SOL    HW129066   3.525   1.758   6.897
 9389SOL    HW229067   3.399   1.861   6.893
 9390SOL     OW29068   3.010   5.600   1.338
 9390SOL    HW129069   3.040   5.530   1.273
 9390SOL    HW229070   2.910   5.606   1.337
 9391SOL     OW29071   6.724   1.408   5.250
 9391SOL    HW129072   6.758   1.442   5.338
 9391SOL    HW229073   6.802   1.376   5.195
 9392SOL     OW29074   1.150   6.974   4.463
 9392SOL    HW129075   1.225   0.019   4.458
 9392SOL    HW229076   1.110   6.975   4.555
 9393SOL     OW29077   3.903   1.827   5.219
 9393SOL    HW129078   3.873   1.922   5.216
 9393SOL    HW229079   3.823   1.767   5.211
 9394SOL     OW29080   5.797   2.455   1.685
 9394SOL    HW129081   5.771   2.543   1.724
 9394SOL    HW229082   5.715   2.402   1.663
 9395SOL     OW29083   2.064   2.890   6.119
 9395SOL    HW129084   1.966   2.872   6.114
 9395SOL    HW229085   2.098   2.914   6.028
 9396SOL     OW29086   0.065   0.973   5.955
 9396SOL    HW129087   0.030   1.045   6.015
 9396SOL    HW229088   0.161   0.992   5.933
 9397SOL     OW29089   2.648   1.990   0.971
 9397SOL    HW129090   2.609   2.023   0.886
 9397SOL    HW229091   2.612   2.043   1.048
 9398SOL     OW29092   2.350   1.607   0.859
 9398SOL    HW129093   2.299   1.657   0.929
 9398SOL    HW229094   2.289   1.584   0.783
 9399SOL     OW29095   6.862   0.396   5.692
 9399SOL    HW129096   6.909   0.483   5.673
 9399SOL    HW229097   6.899   0.325   5.631
 9400SOL     OW29098   4.010   1.754   3.635
 9400SOL    HW129099   4.057   1.837   3.606
 9400SOL    HW229100   3.930   1.738   3.577
 9401SOL     OW29101   4.387   6.684   3.829
 9401SOL    HW129102   4.479   6.656   3.858
 9401SOL    HW229103   4.330   6.701   3.909
 9402SOL     OW29104   2.321   5.211   0.333
 9402SOL    HW129105   2.389   5.139   0.318
 9402SOL    HW229106   2.361   5.300   0.311
 9403SOL     OW29107   5.671   0.461   4.823
 9403SOL    HW129108   5.677   0.361   4.817
 9403SOL    HW229109   5.748   0.495   4.878
 9404SOL     OW29110   1.271   3.833   5.641
 9404SOL    HW129111   1.276   3.933   5.646
 9404SOL    HW229112   1.182   3.806   5.605
 9405SOL     OW29113   0.038   0.085   0.864
 9405SOL    HW129114   0.023   0.112   0.768
 9405SOL    HW229115   0.074   0.163   0.915
 9406SOL     OW29116   6.696   1.113   5.473
 9406SOL    HW129117   6.714   1.097   5.570
 9406SOL    HW229118   6.756   1.056   5.418
 9407SOL     OW29119   3.917   5.771   3.396
 9407SOL    HW129120   3.856   5.767   3.317
 9407SOL    HW229121   3.973   5.689   3.400
 9408SOL     OW29122   4.306   1.834   0.437
 9408SOL    HW129123   4.315   1.856   0.340
 9408SOL    HW229124   4.260   1.745   0.447
 9409SOL     OW29125   5.905   3.622   3.738
 9409SOL    HW129126   5.884   3.637   3.835
 9409SOL    HW229127   5.838   3.670   3.682
 9410SOL     OW29128   4.537   6.484   1.964
 9410SOL    HW129129   4.615   6.520   2.014
 9410SOL    HW229130   4.529   6.531   1.876
 9411SOL     OW29131   4.571   5.724   1.698
 9411SOL    HW129132   4.593   5.632   1.665
 9411SOL    HW229133   4.649   5.784   1.683
 9412SOL     OW29134   5.826   2.865   2.936
 9412SOL    HW129135   5.924   2.851   2.929
 9412SOL    HW229136   5.807   2.940   2.999
 9413SOL     OW29137   3.430   5.105   3.950
 9413SOL    HW129138   3.379   5.172   3.895
 9413SOL    HW229139   3.441   5.021   3.896
 9414SOL     OW29140   2.264   1.001   2.456
 9414SOL    HW129141   2.339   0.957   2.506
 9414SOL    HW229142   2.293   1.017   2.361
 9415SOL     OW29143   2.231   1.309   2.284
 9415SOL    HW129144   2.257   1.232   2.227
 9415SOL    HW229145   2.132   1.322   2.278
 9416SOL     OW29146   1.635   2.313   1.191
 9416SOL    HW129147   1.577   2.394   1.201
 9416SOL    HW229148   1.671   2.287   1.280
 9417SOL     OW29149   1.911   0.040   4.567
 9417SOL    HW129150   2.011   0.044   4.566
 9417SOL    HW229151   1.875   0.125   4.605
 9418SOL     OW29152   4.330   4.394   1.382
 9418SOL    HW129153   4.285   4.314   1.342
 9418SOL    HW229154   4.322   4.390   1.481
 9419SOL     OW29155   3.456   5.401   4.554
 9419SOL    HW129156   3.404   5.317   4.570
 9419SOL    HW229157   3.413   5.477   4.603
 9420SOL     OW29158   1.308   1.660   4.706
 9420SOL    HW129159   1.250   1.629   4.781
 9420SOL    HW229160   1.272   1.624   4.620
 9421SOL     OW29161   1.939   5.635   4.312
 9421SOL    HW129162   2.024   5.621   4.261
 9421SOL    HW229163   1.915   5.732   4.309
 9422SOL     OW29164   4.302   1.301   2.803
 9422SOL    HW129165   4.366   1.378   2.798
 9422SOL    HW229166   4.345   1.225   2.852
 9423SOL     OW29167   4.991   0.033   4.552
 9423SOL    HW129168   5.028   0.097   4.484
 9423SOL    HW229169   4.961   0.083   4.632
 9424SOL     OW29170   3.186   6.371   4.088
 9424SOL    HW129171   3.189   6.461   4.130
 9424SOL    HW229172   3.266   6.360   4.028
 9425SOL     OW29173   1.167   5.148   3.259
 9425SOL    HW129174   1.128   5.212   3.192
 9425SOL    HW229175   1.257   5.180   3.287
 9426SOL     OW29176   3.274   5.673   1.050
 9426SOL    HW129177   3.236   5.766   1.050
 9426SOL    HW229178   3.271   5.636   0.958
 9427SOL     OW29179   2.915   4.820   4.422
 9427SOL    HW129180   2.922   4.880   4.502
 9427SOL    HW229181   2.835   4.761   4.431
 9428SOL     OW29182   5.033   6.084   2.185
 9428SOL    HW129183   4.968   6.013   2.213
 9428SOL    HW229184   5.009   6.117   2.093
 9429SOL     OW29185   0.228   3.234   2.868
 9429SOL    HW129186   0.220   3.141   2.904
 9429SOL    HW229187   0.324   3.261   2.867
 9430SOL     OW29188   5.588   7.015   2.254
 9430SOL    HW129189   5.488   7.019   2.263
 9430SOL    HW229190   5.613   7.009   2.158
 9431SOL     OW29191   6.466   4.029   0.578
 9431SOL    HW129192   6.429   4.080   0.501
 9431SOL    HW229193   6.399   4.028   0.653
 9432SOL     OW29194   6.476   6.482   4.738
 9432SOL    HW129195   6.437   6.496   4.648
 9432SOL    HW229196   6.429   6.540   4.805
 9433SOL     OW29197   3.262   4.951   4.803
 9433SOL    HW129198   3.280   4.908   4.715
 9433SOL    HW229199   3.217   4.885   4.864
 9434SOL     OW29200   5.566   4.416   3.206
 9434SOL    HW129201   5.533   4.330   3.244
 9434SOL    HW229202   5.654   4.402   3.161
 9435SOL     OW29203   1.857   2.404   4.849
 9435SOL    HW129204   1.804   2.321   4.869
 9435SOL    HW229205   1.867   2.415   4.751
 9436SOL     OW29206   2.504   1.982   5.954
 9436SOL    HW129207   2.497   1.882   5.961
 9436SOL    HW229208   2.590   2.012   5.995
 9437SOL     OW29209   0.937   5.429   3.937
 9437SOL    HW129210   0.906   5.524   3.945
 9437SOL    HW229211   0.938   5.401   3.841
 9438SOL     OW29212   0.626   6.902   2.347
 9438SOL    HW129213   0.625   6.816   2.295
 9438SOL    HW229214   0.582   6.973   2.293
 9439SOL     OW29215   1.433   3.147   1.342
 9439SOL    HW129216   1.461   3.161   1.437
 9439SOL    HW229217   1.426   3.049   1.323
 9440SOL     OW29218   4.063   5.574   4.709
 9440SOL    HW129219   3.965   5.593   4.715
 9440SOL    HW229220   4.102   5.621   4.631
 9441SOL     OW29221   1.516   5.995   5.229
 9441SOL    HW129222   1.615   6.006   5.231
 9441SOL    HW229223   1.493   5.898   5.223
 9442SOL     OW29224   0.835   3.668   1.312
 9442SOL    HW129225   0.871   3.665   1.405
 9442SOL    HW229226   0.870   3.750   1.266
 9443SOL     OW29227   1.721   3.250   1.337
 9443SOL    HW129228   1.714   3.277   1.241
 9443SOL    HW229229   1.630   3.240   1.376
 9444SOL     OW29230   1.377   4.181   5.822
 9444SOL    HW129231   1.305   4.140   5.767
 9444SOL    HW229232   1.357   4.166   5.919
 9445SOL     OW29233   6.350   3.296   1.684
 9445SOL    HW129234   6.375   3.215   1.631
 9445SOL    HW229235   6.410   3.304   1.764
 9446SOL     OW29236   5.997   4.470   0.583
 9446SOL    HW129237   5.913   4.499   0.629
 9446SOL    HW229238   6.031   4.386   0.625
 9447SOL     OW29239   5.878   2.032   1.668
 9447SOL    HW129240   5.820   2.089   1.726
 9447SOL    HW229241   5.921   1.961   1.723
 9448SOL     OW29242   6.190   6.149   0.663
 9448SOL    HW129243   6.138   6.174   0.581
 9448SOL    HW229244   6.147   6.190   0.743
 9449SOL     OW29245   6.638   4.983   5.333
 9449SOL    HW129246   6.565   4.927   5.373
 9449SOL    HW229247   6.724   4.963   5.379
 9450SOL     OW29248   2.874   5.881   4.245
 9450SOL    HW129249   2.798   5.819   4.264
 9450SOL    HW229250   2.958   5.828   4.229
 9451SOL     OW29251   4.203   4.234   5.700
 9451SOL    HW129252   4.117   4.186   5.681
 9451SOL    HW229253   4.196   4.329   5.670
 9452SOL     OW29254   3.442   4.853   1.199
 9452SOL    HW129255   3.441   4.953   1.201
 9452SOL    HW229256   3.388   4.821   1.121
 9453SOL     OW29257   2.675   5.236   1.339
 9453SOL    HW129258   2.611   5.312   1.352
 9453SOL    HW229259   2.734   5.256   1.260
 9454SOL     OW29260   2.103   1.752   5.536
 9454SOL    HW129261   2.008   1.757   5.566
 9454SOL    HW229262   2.114   1.678   5.469
 9455SOL     OW29263   2.114   2.088   2.390
 9455SOL    HW129264   2.079   2.020   2.325
 9455SOL    HW229265   2.211   2.071   2.407
 9456SOL     OW29266   1.044   3.342   0.562
 9456SOL    HW129267   1.073   3.366   0.470
 9456SOL    HW229268   0.948   3.365   0.574
 9457SOL     OW29269   6.931   3.473   0.340
 9457SOL    HW129270   6.852   3.434   0.388
 9457SOL    HW229271   6.922   3.572   0.336
 9458SOL     OW29272   0.996   5.648   4.575
 9458SOL    HW129273   1.059   5.717   4.537
 9458SOL    HW229274   0.983   5.575   4.509
 9459SOL     OW29275   4.263   6.529   1.756
 9459SOL    HW129276   4.256   6.629   1.752
 9459SOL    HW229277   4.357   6.501   1.734
 9460SOL     OW29278   1.013   2.360   5.728
 9460SOL    HW129279   0.943   2.310   5.778
 9460SOL    HW229280   0.970   2.416   5.657
 9461SOL     OW29281   1.829   0.641   2.464
 9461SOL    HW129282   1.768   0.578   2.416
 9461SOL    HW229283   1.816   0.733   2.428
 9462SOL     OW29284   0.138   2.978   3.187
 9462SOL    HW129285   0.173   2.965   3.095
 9462SOL    HW229286   0.165   3.069   3.220
 9463SOL     OW29287   5.497   1.709   6.433
 9463SOL    HW129288   5.417   1.720   6.374
 9463SOL    HW229289   5.580   1.719   6.378
 9464SOL     OW29290   4.329   6.851   5.921
 9464SOL    HW129291   4.284   6.863   6.010
 9464SOL    HW229292   4.260   6.828   5.852
 9465SOL     OW29293   5.356   6.792   4.253
 9465SOL    HW129294   5.382   6.698   4.278
 9465SOL    HW229295   5.269   6.790   4.203
 9466SOL     OW29296   2.450   1.363   6.870
 9466SOL    HW129297   2.367   1.391   6.821
 9466SOL    HW229298   2.527   1.363   6.807
 9467SOL     OW29299   2.091   3.172   2.098
 9467SOL    HW129300   2.112   3.246   2.035
 9467SOL    HW229301   2.132   3.190   2.187
 9468SOL     OW29302   0.420   2.541   6.708
 9468SOL    HW129303   0.481   2.614   6.739
 9468SOL    HW229304   0.469   2.481   6.645
 9469SOL     OW29305   6.697   3.925   2.801
 9469SOL    HW129306   6.775   3.872   2.834
 9469SOL    HW229307   6.612   3.884   2.834
 9470SOL     OW29308   6.310   3.540   1.518
 9470SOL    HW129309   6.319   3.450   1.560
 9470SOL    HW229310   6.297   3.530   1.419
 9471SOL     OW29311   0.349   2.802   6.279
 9471SOL    HW129312   0.265   2.752   6.255
 9471SOL    HW229313   0.417   2.790   6.207
 9472SOL     OW29314   6.753   2.512   4.558
 9472SOL    HW129315   6.725   2.566   4.637
 9472SOL    HW229316   6.673   2.475   4.512
 9473SOL     OW29317   3.739   5.462   4.690
 9473SOL    HW129318   3.676   5.387   4.670
 9473SOL    HW229319   3.734   5.486   4.787
 9474SOL     OW29320   3.601   5.305   3.608
 9474SOL    HW129321   3.556   5.385   3.568
 9474SOL    HW229322   3.642   5.331   3.696
 9475SOL     OW29323   1.853   3.482   1.447
 9475SOL    HW129324   1.771   3.540   1.450
 9475SOL    HW229325   1.829   3.394   1.407
 9476SOL     OW29326   3.465   3.197   5.757
 9476SOL    HW129327   3.401   3.264   5.792
 9476SOL    HW229328   3.491   3.221   5.664
 9477SOL     OW29329   0.306   2.074   0.979
 9477SOL    HW129330   0.369   2.095   0.904
 9477SOL    HW229331   0.219   2.120   0.964
 9478SOL     OW29332   5.154   3.767   5.631
 9478SOL    HW129333   5.185   3.862   5.628
 9478SOL    HW229334   5.200   3.714   5.559
 9479SOL     OW29335   6.411   5.550   4.846
 9479SOL    HW129336   6.405   5.643   4.883
 9479SOL    HW229337   6.503   5.514   4.864
 9480SOL     OW29338   5.647   3.798   6.143
 9480SOL    HW129339   5.701   3.824   6.062
 9480SOL    HW229340   5.680   3.849   6.222
 9481SOL     OW29341   6.640   3.642   2.459
 9481SOL    HW129342   6.712   3.674   2.521
 9481SOL    HW229343   6.634   3.704   2.381
 9482SOL     OW29344   4.312   6.957   2.838
 9482SOL    HW129345   4.395   7.010   2.817
 9482SOL    HW229346   4.337   6.865   2.867
 9483SOL     OW29347   2.135   1.768   0.680
 9483SOL    HW129348   2.223   1.781   0.635
 9483SOL    HW229349   2.107   1.854   0.724
 9484SOL     OW29350   5.961   0.774   2.810
 9484SOL    HW129351   5.980   0.677   2.825
 9484SOL    HW229352   5.869   0.795   2.845
 9485SOL     OW29353   1.121   0.178   2.722
 9485SOL    HW129354   1.160   0.124   2.648
 9485SOL    HW229355   1.187   0.246   2.753
 9486SOL     OW29356   2.878   6.095   2.267
 9486SOL    HW129357   2.906   6.016   2.213
 9486SOL    HW229358   2.929   6.095   2.354
 9487SOL     OW29359   2.895   3.374   3.163
 9487SOL    HW129360   2.904   3.446   3.231
 9487SOL    HW229361   2.877   3.415   3.073
 9488SOL     OW29362   1.298   1.573   1.446
 9488SOL    HW129363   1.352   1.636   1.391
 9488SOL    HW229364   1.257   1.622   1.523
 9489SOL     OW29365   3.101   4.155   0.887
 9489SOL    HW129366   3.112   4.235   0.828
 9489SOL    HW229367   3.011   4.115   0.871
 9490SOL     OW29368   5.295   1.747   0.127
 9490SOL    HW129369   5.250   1.828   0.089
 9490SOL    HW229370   5.375   1.724   0.072
 9491SOL     OW29371   0.228   4.981   5.283
 9491SOL    HW129372   0.207   4.955   5.378
 9491SOL    HW229373   0.318   5.023   5.279
 9492SOL     OW29374   2.885   4.233   1.421
 9492SOL    HW129375   2.945   4.228   1.341
 9492SOL    HW229376   2.938   4.264   1.500
 9493SOL     OW29377   5.491   6.305   2.299
 9493SOL    HW129378   5.433   6.381   2.271
 9493SOL    HW229379   5.587   6.328   2.282
 9494SOL     OW29380   3.093   2.963   5.975
 9494SOL    HW129381   3.077   2.928   5.883
 9494SOL    HW229382   3.148   3.046   5.970
 9495SOL     OW29383   5.667   1.810   4.828
 9495SOL    HW129384   5.626   1.765   4.907
 9495SOL    HW229385   5.598   1.818   4.755
 9496SOL     OW29386   5.933   3.721   0.063
 9496SOL    HW129387   5.887   3.688   0.145
 9496SOL    HW229388   5.950   3.645   0.000
 9497SOL     OW29389   0.497   6.377   6.210
 9497SOL    HW129390   0.572   6.323   6.248
 9497SOL    HW229391   0.522   6.410   6.120
 9498SOL     OW29392   4.073   0.679   6.288
 9498SOL    HW129393   4.153   0.739   6.296
 9498SOL    HW229394   3.990   0.734   6.289
 9499SOL     OW29395   4.366   4.655   6.355
 9499SOL    HW129396   4.422   4.583   6.314
 9499SOL    HW229397   4.285   4.614   6.398
 9500SOL     OW29398   5.369   5.493   1.821
 9500SOL    HW129399   5.425   5.411   1.811
 9500SOL    HW229400   5.329   5.496   1.912
 9501SOL     OW29401   3.236   1.625   4.860
 9501SOL    HW129402   3.167   1.670   4.917
 9501SOL    HW229403   3.257   1.535   4.898
 9502SOL     OW29404   4.336   3.316   5.869
 9502SOL    HW129405   4.308   3.238   5.924
 9502SOL    HW229406   4.287   3.398   5.899
 9503SOL     OW29407   1.601   6.918   1.084
 9503SOL    HW129408   1.504   6.923   1.105
 9503SOL    HW229409   1.631   7.005   1.044
 9504SOL     OW29410   1.000   2.815   0.198
 9504SOL    HW129411   1.013   2.797   0.101
 9504SOL    HW229412   1.078   2.778   0.249
 9505SOL     OW29413   4.928   3.585   3.304
 9505SOL    HW129414   5.013   3.557   3.349
 9505SOL    HW229415   4.942   3.587   3.205
 9506SOL     OW29416   6.910   2.417   0.933
 9506SOL    HW129417   6.984   2.473   0.896
 9506SOL    HW229418   6.928   2.320   0.914
 9507SOL     OW29419   1.245   1.963   4.486
 9507SOL    HW129420   1.210   1.959   4.580
 9507SOL    HW229421   1.318   2.031   4.480
 9508SOL     OW29422   5.002   1.774   6.149
 9508SOL    HW129423   5.052   1.690   6.172
 9508SOL    HW229424   5.030   1.807   6.059
 9509SOL     OW29425   2.900   6.513   5.632
 9509SOL    HW129426   2.910   6.463   5.719
 9509SOL    HW229427   2.980   6.496   5.575
 9510SOL     OW29428   6.485   3.965   3.178
 9510SOL    HW129429   6.576   3.934   3.204
 9510SOL    HW229430   6.483   4.064   3.173
 9511SOL     OW29431   1.926   1.387   1.368
 9511SOL    HW129432   1.875   1.447   1.306
 9511SOL    HW229433   2.023   1.412   1.367
 9512SOL     OW29434   1.341   3.108   4.676
 9512SOL    HW129435   1.283   3.096   4.757
 9512SOL    HW229436   1.400   3.028   4.665
 9513SOL     OW29437   2.158   4.426   4.218
 9513SOL    HW129438   2.114   4.423   4.308
 9513SOL    HW229439   2.253   4.455   4.229
 9514SOL     OW29440   2.754   2.705   6.066
 9514SOL    HW129441   2.677   2.668   6.118
 9514SOL    HW229442   2.730   2.795   6.030
 9515SOL     OW29443   2.391   5.074   5.690
 9515SOL    HW129444   2.421   4.991   5.643
 9515SOL    HW229445   2.463   5.104   5.753
 9516SOL     OW29446   5.531   4.035   5.632
 9516SOL    HW129447   5.453   3.979   5.602
 9516SOL    HW229448   5.500   4.129   5.648
 9517SOL     OW29449   0.763   5.979   1.801
 9517SOL    HW129450   0.860   6.005   1.800
 9517SOL    HW229451   0.732   5.963   1.707
 9518SOL     OW29452   0.737   3.007   5.086
 9518SOL    HW129453   0.658   3.039   5.137
 9518SOL    HW229454   0.803   2.965   5.149
 9519SOL     OW29455   3.545   2.926   3.553
 9519SOL    HW129456   3.475   2.968   3.495
 9519SOL    HW229457   3.541   2.966   3.644
 9520SOL     OW29458   5.217   7.007   6.163
 9520SOL    HW129459   5.158   6.929   6.183
 9520SOL    HW229460   5.299   6.976   6.115
 9521SOL     OW29461   3.446   1.406   1.401
 9521SOL    HW129462   3.419   1.362   1.316
 9521SOL    HW229463   3.370   1.400   1.467
 9522SOL     OW29464   3.732   5.856   1.721
 9522SOL    HW129465   3.786   5.903   1.651
 9522SOL    HW229466   3.736   5.757   1.705
 9523SOL     OW29467   2.646   4.680   4.247
 9523SOL    HW129468   2.702   4.653   4.168
 9523SOL    HW229469   2.672   4.624   4.326
 9524SOL     OW29470   2.026   3.784   0.779
 9524SOL    HW129471   2.014   3.841   0.698
 9524SOL    HW229472   1.952   3.717   0.784
 9525SOL     OW29473   2.419   3.062   5.456
 9525SOL    HW129474   2.435   3.069   5.358
 9525SOL    HW229475   2.337   3.112   5.481
 9526SOL     OW29476   5.250   5.533   6.855
 9526SOL    HW129477   5.244   5.563   6.950
 9526SOL    HW229478   5.344   5.539   6.824
 9527SOL     OW29479   4.082   6.763   4.746
 9527SOL    HW129480   3.996   6.783   4.699
 9527SOL    HW229481   4.152   6.738   4.679
 9528SOL     OW29482   5.221   2.344   0.586
 9528SOL    HW129483   5.224   2.268   0.521
 9528SOL    HW229484   5.233   2.308   0.679
 9529SOL     OW29485   5.548   0.819   2.035
 9529SOL    HW129486   5.582   0.848   1.945
 9529SOL    HW229487   5.453   0.789   2.028
 9530SOL     OW29488   1.400   5.693   3.477
 9530SOL    HW129489   1.443   5.774   3.517
 9530SOL    HW229490   1.339   5.651   3.544
 9531SOL     OW29491   3.348   5.597   2.537
 9531SOL    HW129492   3.378   5.517   2.589
 9531SOL    HW229493   3.255   5.622   2.565
 9532SOL     OW29494   6.539   5.139   4.052
 9532SOL    HW129495   6.467   5.117   4.118
 9532SOL    HW229496   6.534   5.235   4.027
 9533SOL     OW29497   1.938   4.251   3.109
 9533SOL    HW129498   2.023   4.296   3.134
 9533SOL    HW229499   1.860   4.303   3.146
 9534SOL     OW29500   5.248   5.061   4.667
 9534SOL    HW129501   5.249   5.128   4.741
 9534SOL    HW229502   5.241   4.969   4.706
 9535SOL     OW29503   0.075   1.763   4.249
 9535SOL    HW129504   0.078   1.841   4.187
 9535SOL    HW229505   0.103   1.792   4.341
 9536SOL     OW29506   3.506   3.746   4.724
 9536SOL    HW129507   3.482   3.752   4.628
 9536SOL    HW229508   3.606   3.746   4.734
 9537SOL     OW29509   6.639   1.427   4.378
 9537SOL    HW129510   6.620   1.479   4.461
 9537SOL    HW229511   6.658   1.490   4.302
 9538SOL     OW29512   5.312   6.972   4.857
 9538SOL    HW129513   5.356   6.937   4.775
 9538SOL    HW229514   5.314   0.052   4.855
 9539SOL     OW29515   3.307   3.774   2.491
 9539SOL    HW129516   3.246   3.697   2.468
 9539SOL    HW229517   3.352   3.806   2.408
 9540SOL     OW29518   4.480   4.743   3.181
 9540SOL    HW129519   4.573   4.758   3.216
 9540SOL    HW229520   4.440   4.663   3.227
 9541SOL     OW29521   2.265   5.204   5.464
 9541SOL    HW129522   2.288   5.132   5.531
 9541SOL    HW229523   2.186   5.255   5.497
 9542SOL     OW29524   6.242   4.385   3.844
 9542SOL    HW129525   6.275   4.453   3.778
 9542SOL    HW229526   6.192   4.432   3.917
 9543SOL     OW29527   2.474   0.221   5.868
 9543SOL    HW129528   2.525   0.289   5.919
 9543SOL    HW229529   2.422   0.266   5.795
 9544SOL     OW29530   5.803   3.241   4.782
 9544SOL    HW129531   5.800   3.153   4.735
 9544SOL    HW229532   5.889   3.250   4.832
 9545SOL     OW29533   6.802   4.625   1.947
 9545SOL    HW129534   6.738   4.553   1.974
 9545SOL    HW229535   6.829   4.677   2.028
 9546SOL     OW29536   2.937   2.881   1.111
 9546SOL    HW129537   2.904   2.967   1.148
 9546SOL    HW229538   2.912   2.806   1.173
 9547SOL     OW29539   4.133   0.165   3.633
 9547SOL    HW129540   4.216   0.126   3.672
 9547SOL    HW229541   4.084   0.217   3.704
 9548SOL     OW29542   1.172   4.977   6.231
 9548SOL    HW129543   1.129   4.896   6.271
 9548SOL    HW229544   1.114   5.013   6.158
 9549SOL     OW29545   4.810   1.774   1.042
 9549SOL    HW129546   4.907   1.749   1.037
 9549SOL    HW229547   4.782   1.776   1.138
 9550SOL     OW29548   6.113   3.220   1.799
 9550SOL    HW129549   6.045   3.208   1.727
 9550SOL    HW229550   6.197   3.257   1.760
 9551SOL     OW29551   5.862   3.083   6.462
 9551SOL    HW129552   5.942   3.142   6.477
 9551SOL    HW229553   5.880   2.993   6.502
 9552SOL     OW29554   3.430   1.510   0.313
 9552SOL    HW129555   3.413   1.544   0.406
 9552SOL    HW229556   3.348   1.463   0.279
 9553SOL     OW29557   5.589   1.270   6.359
 9553SOL    HW129558   5.636   1.263   6.447
 9553SOL    HW229559   5.555   1.180   6.332
 9554SOL     OW29560   2.989   0.853   3.632
 9554SOL    HW129561   3.044   0.934   3.654
 9554SOL    HW229562   2.897   0.863   3.672
 9555SOL     OW29563   6.777   6.943   4.035
 9555SOL    HW129564   6.680   6.938   4.012
 9555SOL    HW229565   6.788   6.930   4.134
 9556SOL     OW29566   2.171   5.097   6.752
 9556SOL    HW129567   2.088   5.116   6.700
 9556SOL    HW229568   2.151   5.033   6.826
 9557SOL     OW29569   5.569   0.766   1.728
 9557SOL    HW129570   5.660   0.779   1.766
 9557SOL    HW229571   5.528   0.855   1.709
 9558SOL     OW29572   5.053   6.520   6.402
 9558SOL    HW129573   4.972   6.556   6.447
 9558SOL    HW229574   5.027   6.471   6.319
 9559SOL     OW29575   1.747   4.529   0.248
 9559SOL    HW129576   1.779   4.500   0.338
 9559SOL    HW229577   1.773   4.461   0.180
 9560SOL     OW29578   3.151   0.202   2.687
 9560SOL    HW129579   3.070   0.147   2.669
 9560SOL    HW229580   3.157   0.221   2.785
 9561SOL     OW29581   0.617   1.004   0.254
 9561SOL    HW129582   0.633   0.908   0.277
 9561SOL    HW229583   0.606   1.057   0.338
 9562SOL     OW29584   2.475   6.585   2.461
 9562SOL    HW129585   2.416   6.505   2.451
 9562SOL    HW229586   2.478   6.611   2.558
 9563SOL     OW29587   0.823   5.674   6.378
 9563SOL    HW129588   0.792   5.597   6.434
 9563SOL    HW229589   0.873   5.640   6.299
 9564SOL     OW29590   1.721   0.583   0.275
 9564SOL    HW129591   1.809   0.603   0.317
 9564SOL    HW229592   1.735   0.554   0.180
 9565SOL     OW29593   3.090   1.829   4.598
 9565SOL    HW129594   3.066   1.876   4.514
 9565SOL    HW229595   3.033   1.747   4.608
 9566SOL     OW29596   3.339   0.581   0.213
 9566SOL    HW129597   3.245   0.599   0.240
 9566SOL    HW229598   3.341   0.523   0.132
 9567SOL     OW29599   0.191   3.986   1.224
 9567SOL    HW129600   0.186   4.046   1.144
 9567SOL    HW229601   0.177   4.041   1.307
 9568SOL     OW29602   4.675   1.479   6.899
 9568SOL    HW129603   4.736   1.476   6.820
 9568SOL    HW229604   4.587   1.518   6.871
 9569SOL     OW29605   5.956   0.425   1.950
 9569SOL    HW129606   5.859   0.406   1.967
 9569SOL    HW229607   5.964   0.515   1.906
 9570SOL     OW29608   0.607   2.878   1.696
 9570SOL    HW129609   0.699   2.916   1.695
 9570SOL    HW229610   0.542   2.947   1.665
 9571SOL     OW29611   1.555   1.993   6.802
 9571SOL    HW129612   1.620   2.047   6.749
 9571SOL    HW229613   1.583   1.990   6.898
 9572SOL     OW29614   2.323   4.211   3.854
 9572SOL    HW129615   2.355   4.281   3.790
 9572SOL    HW229616   2.294   4.130   3.803
 9573SOL     OW29617   6.315   0.522   4.562
 9573SOL    HW129618   6.362   0.519   4.473
 9573SOL    HW229619   6.230   0.470   4.556
 9574SOL     OW29620   3.797   3.277   0.989
 9574SOL    HW129621   3.778   3.182   0.965
 9574SOL    HW229622   3.895   3.289   1.002
 9575SOL     OW29623   5.470   6.028   1.676
 9575SOL    HW129624   5.524   5.949   1.647
 9575SOL    HW229625   5.527   6.109   1.678
 9576SOL     OW29626   1.309   0.595   6.257
 9576SOL    HW129627   1.335   0.663   6.189
 9576SOL    HW229628   1.250   0.637   6.326
 9577SOL     OW29629   6.386   5.067   2.801
 9577SOL    HW129630   6.330   5.010   2.861
 9577SOL    HW229631   6.373   5.038   2.706
 9578SOL     OW29632   2.182   3.693   2.891
 9578SOL    HW129633   2.134   3.753   2.955
 9578SOL    HW229634   2.217   3.747   2.814
 9579SOL     OW29635   6.094   6.031   2.220
 9579SOL    HW129636   6.045   6.009   2.305
 9579SOL    HW229637   6.170   5.967   2.208
 9580SOL     OW29638   5.232   4.040   3.341
 9580SOL    HW129639   5.305   3.990   3.295
 9580SOL    HW229640   5.180   3.977   3.399
 9581SOL     OW29641   6.076   1.095   6.905
 9581SOL    HW129642   6.071   1.182   6.954
 9581SOL    HW229643   6.147   1.037   6.947
 9582SOL     OW29644   5.559   6.406   4.569
 9582SOL    HW129645   5.495   6.353   4.623
 9582SOL    HW229646   5.610   6.468   4.628
 9583SOL     OW29647   3.492   4.938   1.827
 9583SOL    HW129648   3.421   4.894   1.772
 9583SOL    HW229649   3.532   4.872   1.890
 9584SOL     OW29650   2.487   5.535   3.806
 9584SOL    HW129651   2.433   5.461   3.846
 9584SOL    HW229652   2.511   5.601   3.877
 9585SOL     OW29653   4.204   5.960   1.361
 9585SOL    HW129654   4.144   6.034   1.392
 9585SOL    HW229655   4.268   5.936   1.434
 9586SOL     OW29656   4.221   5.092   2.986
 9586SOL    HW129657   4.233   5.022   3.055
 9586SOL    HW229658   4.132   5.137   2.998
 9587SOL     OW29659   2.887   5.946   1.091
 9587SOL    HW129660   2.981   5.933   1.059
 9587SOL    HW229661   2.888   5.978   1.186
 9588SOL     OW29662   6.768   6.016   0.394
 9588SOL    HW129663   6.836   6.050   0.330
 9588SOL    HW229664   6.712   5.946   0.349
 9589SOL     OW29665   1.832   3.281   6.735
 9589SOL    HW129666   1.803   3.255   6.827
 9589SOL    HW229667   1.863   3.376   6.736
 9590SOL     OW29668   6.149   0.707   1.133
 9590SOL    HW129669   6.189   0.722   1.223
 9590SOL    HW229670   6.082   0.779   1.114
 9591SOL     OW29671   3.870   0.707   0.362
 9591SOL    HW129672   3.843   0.698   0.458
 9591SOL    HW229673   3.841   0.626   0.311
 9592SOL     OW29674   2.537   6.594   5.906
 9592SOL    HW129675   2.579   6.641   5.828
 9592SOL    HW229676   2.512   6.501   5.879
 9593SOL     OW29677   1.895   2.217   3.812
 9593SOL    HW129678   1.899   2.217   3.911
 9593SOL    HW229679   1.814   2.167   3.781
 9594SOL     OW29680   0.474   6.567   3.962
 9594SOL    HW129681   0.389   6.558   3.911
 9594SOL    HW229682   0.505   6.663   3.960
 9595SOL     OW29683   0.494   3.224   3.329
 9595SOL    HW129684   0.531   3.134   3.353
 9595SOL    HW229685   0.563   3.294   3.348
 9596SOL     OW29686   0.726   6.210   0.710
 9596SOL    HW129687   0.629   6.234   0.720
 9596SOL    HW229688   0.760   6.171   0.795
 9597SOL     OW29689   1.314   3.377   2.206
 9597SOL    HW129690   1.301   3.412   2.298
 9597SOL    HW229691   1.321   3.453   2.142
 9598SOL     OW29692   2.095   4.373   3.680
 9598SOL    HW129693   2.157   4.451   3.676
 9598SOL    HW229694   2.073   4.353   3.776
 9599SOL     OW29695   4.564   6.491   3.925
 9599SOL    HW129696   4.485   6.431   3.933
 9599SOL    HW229697   4.626   6.475   4.001
 9600SOL     OW29698   3.545   1.139   1.687
 9600SOL    HW129699   3.523   1.052   1.643
 9600SOL    HW229700   3.623   1.181   1.641
 9601SOL     OW29701   1.154   3.739   1.053
 9601SOL    HW129702   1.149   3.639   1.062
 9601SOL    HW229703   1.242   3.771   1.086
 9602SOL     OW29704   4.761   5.288   5.477
 9602SOL    HW129705   4.695   5.275   5.403
 9602SOL    HW229706   4.712   5.286   5.565
 9603SOL     OW29707   5.171   6.271   5.332
 9603SOL    HW129708   5.158   6.203   5.404
 9603SOL    HW229709   5.122   6.355   5.356
 9604SOL     OW29710   5.080   6.536   0.371
 9604SOL    HW129711   4.982   6.552   0.360
 9604SOL    HW229712   5.129   6.623   0.367
 9605SOL     OW29713   5.938   5.583   2.417
 9605SOL    HW129714   5.981   5.531   2.491
 9605SOL    HW229715   5.864   5.528   2.377
 9606SOL     OW29716   1.691   1.129   0.074
 9606SOL    HW129717   1.637   1.122   0.157
 9606SOL    HW229718   1.636   1.168   0.001
 9607SOL     OW29719   2.490   2.322   6.038
 9607SOL    HW129720   2.516   2.404   5.987
 9607SOL    HW229721   2.426   2.268   5.984
 9608SOL     OW29722   6.353   3.402   4.357
 9608SOL    HW129723   6.291   3.480   4.366
 9608SOL    HW229724   6.365   3.359   4.447
 9609SOL     OW29725   4.260   3.335   6.681
 9609SOL    HW129726   4.198   3.336   6.603
 9609SOL    HW229727   4.354   3.324   6.650
 9610SOL     OW29728   0.759   4.959   3.190
 9610SOL    HW129729   0.776   5.057   3.183
 9610SOL    HW229730   0.669   4.943   3.230
 9611SOL     OW29731   1.971   0.516   0.390
 9611SOL    HW129732   2.057   0.466   0.401
 9611SOL    HW229733   1.980   0.608   0.430
 9612SOL     OW29734   0.016   3.093   4.026
 9612SOL    HW129735   0.111   3.063   4.017
 9612SOL    HW229736   0.004   3.140   4.113
 9613SOL     OW29737   6.184   5.420   3.047
 9613SOL    HW129738   6.216   5.410   2.953
 9613SOL    HW229739   6.122   5.498   3.053
 9614SOL     OW29740   4.518   2.512   3.726
 9614SOL    HW129741   4.543   2.604   3.757
 9614SOL    HW229742   4.591   2.476   3.668
 9615SOL     OW29743   2.724   3.987   1.335
 9615SOL    HW129744   2.767   4.067   1.377
 9615SOL    HW229745   2.725   3.998   1.235
 9616SOL     OW29746   4.013   3.545   6.792
 9616SOL    HW129747   4.065   3.495   6.861
 9616SOL    HW229748   4.073   3.610   6.744
 9617SOL     OW29749   1.592   2.456   3.182
 9617SOL    HW129750   1.630   2.548   3.188
 9617SOL    HW229751   1.615   2.416   3.094
 9618SOL     OW29752   1.985   1.435   1.038
 9618SOL    HW129753   1.994   1.435   0.939
 9618SOL    HW229754   1.921   1.507   1.065
 9619SOL     OW29755   3.113   1.187   5.632
 9619SOL    HW129756   3.033   1.137   5.665
 9619SOL    HW229757   3.083   1.261   5.571
 9620SOL     OW29758   6.054   0.995   5.301
 9620SOL    HW129759   6.129   0.952   5.251
 9620SOL    HW229760   5.970   0.943   5.287
 9621SOL     OW29761   1.866   2.938   3.634
 9621SOL    HW129762   1.914   2.854   3.611
 9621SOL    HW229763   1.800   2.959   3.562
 9622SOL     OW29764   5.630   0.139   1.249
 9622SOL    HW129765   5.614   0.178   1.158
 9622SOL    HW229766   5.645   0.040   1.240
 9623SOL     OW29767   2.522   3.207   6.626
 9623SOL    HW129768   2.447   3.214   6.692
 9623SOL    HW229769   2.485   3.189   6.535
 9624SOL     OW29770   6.552   3.126   3.833
 9624SOL    HW129771   6.638   3.172   3.813
 9624SOL    HW229772   6.571   3.036   3.873
 9625SOL     OW29773   5.740   5.898   1.059
 9625SOL    HW129774   5.734   5.994   1.086
 9625SOL    HW229775   5.683   5.842   1.119
 9626SOL     OW29776   3.186   6.564   0.046
 9626SOL    HW129777   3.229   6.653   0.032
 9626SOL    HW229778   3.231   6.496   7.008
 9627SOL     OW29779   1.063   6.634   6.579
 9627SOL    HW129780   0.980   6.681   6.608
 9627SOL    HW229781   1.040   6.542   6.547
 9628SOL     OW29782   3.500   6.690   2.259
 9628SOL    HW129783   3.410   6.709   2.299
 9628SOL    HW229784   3.488   6.643   2.172
 9629SOL     OW29785   2.228   6.897   1.166
 9629SOL    HW129786   2.278   6.813   1.146
 9629SOL    HW229787   2.155   6.878   1.231
 9630SOL     OW29788   6.975   1.206   6.031
 9630SOL    HW129789   6.968   1.271   6.107
 9630SOL    HW229790   6.987   1.256   5.945
 9631SOL     OW29791   6.069   6.213   0.403
 9631SOL    HW129792   6.023   6.301   0.417
 9631SOL    HW229793   6.110   6.211   0.311
 9632SOL     OW29794   1.401   5.903   1.823
 9632SOL    HW129795   1.386   5.993   1.865
 9632SOL    HW229796   1.318   5.848   1.831
 9633SOL     OW29797   6.774   4.850   6.082
 9633SOL    HW129798   6.821   4.788   6.145
 9633SOL    HW229799   6.689   4.881   6.124
 9634SOL     OW29800   1.419   6.202   5.063
 9634SOL    HW129801   1.461   6.129   5.118
 9634SOL    HW229802   1.322   6.182   5.051
 9635SOL     OW29803   1.145   5.740   5.475
 9635SOL    HW129804   1.158   5.646   5.506
 9635SOL    HW229805   1.216   5.799   5.514
 9636SOL     OW29806   4.036   1.607   6.916
 9636SOL    HW129807   4.020   1.508   6.916
 9636SOL    HW229808   3.966   1.652   6.971
 9637SOL     OW29809   2.106   1.173   0.243
 9637SOL    HW129810   2.024   1.226   0.269
 9637SOL    HW229811   2.155   1.222   0.171
 9638SOL     OW29812   6.625   2.005   6.221
 9638SOL    HW129813   6.665   2.096   6.226
 9638SOL    HW229814   6.551   2.005   6.153
 9639SOL     OW29815   3.962   0.971   2.751
 9639SOL    HW129816   3.919   0.988   2.840
 9639SOL    HW229817   3.894   0.933   2.688
 9640SOL     OW29818   1.979   2.332   2.310
 9640SOL    HW129819   2.042   2.259   2.337
 9640SOL    HW229820   1.887   2.294   2.299
 9641SOL     OW29821   5.716   5.573   6.987
 9641SOL    HW129822   5.677   5.563   0.058
 9641SOL    HW229823   5.788   5.642   6.990
 9642SOL     OW29824   3.215   0.180   3.809
 9642SOL    HW129825   3.175   0.232   3.884
 9642SOL    HW229826   3.311   0.161   3.829
 9643SOL     OW29827   3.709   4.990   3.130
 9643SOL    HW129828   3.689   4.987   3.032
 9643SOL    HW229829   3.792   4.937   3.148
 9644SOL     OW29830   2.753   2.244   0.003
 9644SOL    HW129831   2.802   2.275   6.942
 9644SOL    HW229832   2.672   2.193   6.996
 9645SOL     OW29833   3.370   5.109   5.256
 9645SOL    HW129834   3.316   5.182   5.296
 9645SOL    HW229835   3.461   5.107   5.298
 9646SOL     OW29836   4.165   5.078   3.700
 9646SOL    HW129837   4.248   5.071   3.756
 9646SOL    HW229838   4.098   5.011   3.730
 9647SOL     OW29839   6.354   2.971   6.871
 9647SOL    HW129840   6.392   3.008   6.956
 9647SOL    HW229841   6.415   2.994   6.795
 9648SOL     OW29842   4.193   3.561   1.205
 9648SOL    HW129843   4.147   3.592   1.122
 9648SOL    HW229844   4.128   3.563   1.281
 9649SOL     OW29845   2.190   6.101   1.083
 9649SOL    HW129846   2.108   6.159   1.077
 9649SOL    HW229847   2.165   6.011   1.117
 9650SOL     OW29848   0.256   7.006   1.508
 9650SOL    HW129849   0.164   6.978   1.481
 9650SOL    HW229850   0.250   0.057   1.578
 9651SOL     OW29851   0.604   1.812   5.893
 9651SOL    HW129852   0.701   1.802   5.913
 9651SOL    HW229853   0.574   1.904   5.918
 9652SOL     OW29854   0.242   5.190   2.568
 9652SOL    HW129855   0.192   5.209   2.652
 9652SOL    HW229856   0.275   5.275   2.528
 9653SOL     OW29857   6.524   6.050   4.436
 9653SOL    HW129858   6.509   6.129   4.376
 9653SOL    HW229859   6.510   6.078   4.531
 9654SOL     OW29860   2.100   3.214   2.685
 9654SOL    HW129861   2.167   3.149   2.721
 9654SOL    HW229862   2.021   3.165   2.651
 9655SOL     OW29863   5.719   1.701   6.651
 9655SOL    HW129864   5.632   1.686   6.604
 9655SOL    HW229865   5.794   1.674   6.591
 9656SOL     OW29866   3.317   1.091   3.091
 9656SOL    HW129867   3.342   1.085   2.994
 9656SOL    HW229868   3.365   1.167   3.134
 9657SOL     OW29869   0.681   6.998   5.293
 9657SOL    HW129870   0.601   0.031   5.268
 9657SOL    HW229871   0.653   6.906   5.320
 9658SOL     OW29872   5.536   2.006   3.369
 9658SOL    HW129873   5.554   1.913   3.400
 9658SOL    HW229874   5.552   2.013   3.271
 9659SOL     OW29875   1.136   4.789   0.059
 9659SOL    HW129876   1.180   4.730   7.012
 9659SOL    HW229877   1.110   4.875   0.016
 9660SOL     OW29878   0.439   5.036   0.357
 9660SOL    HW129879   0.491   4.951   0.362
 9660SOL    HW229880   0.387   5.048   0.442
 9661SOL     OW29881   4.429   6.927   1.146
 9661SOL    HW129882   4.409   6.837   1.185
 9661SOL    HW229883   4.385   6.936   1.057
 9662SOL     OW29884   4.990   0.937   4.692
 9662SOL    HW129885   4.989   0.932   4.592
 9662SOL    HW229886   4.899   0.963   4.725
 9663SOL     OW29887   2.320   6.445   3.065
 9663SOL    HW129888   2.292   6.530   3.021
 9663SOL    HW229889   2.413   6.456   3.101
 9664SOL     OW29890   2.146   5.714   1.523
 9664SOL    HW129891   2.153   5.647   1.449
 9664SOL    HW229892   2.072   5.687   1.586
 9665SOL     OW29893   5.544   4.277   3.938
 9665SOL    HW129894   5.544   4.371   3.969
 9665SOL    HW229895   5.455   4.254   3.899
 9666SOL     OW29896   5.234   4.622   4.941
 9666SOL    HW129897   5.301   4.590   4.874
 9666SOL    HW229898   5.144   4.584   4.921
 9667SOL     OW29899   3.249   3.339   3.224
 9667SOL    HW129900   3.162   3.304   3.258
 9667SOL    HW229901   3.248   3.338   3.124
 9668SOL     OW29902   0.521   1.314   4.673
 9668SOL    HW129903   0.602   1.272   4.714
 9668SOL    HW229904   0.521   1.412   4.694
 9669SOL     OW29905   1.616   6.392   0.403
 9669SOL    HW129906   1.527   6.352   0.377
 9669SOL    HW229907   1.633   6.473   0.349
 9670SOL     OW29908   5.816   4.635   6.425
 9670SOL    HW129909   5.869   4.682   6.354
 9670SOL    HW229910   5.853   4.661   6.515
 9671SOL     OW29911   0.098   0.291   0.004
 9671SOL    HW129912   0.184   0.279   6.976
 9671SOL    HW229913   0.115   0.292   0.103
 9672SOL     OW29914   1.574   6.314   4.810
 9672SOL    HW129915   1.529   6.225   4.809
 9672SOL    HW229916   1.632   6.321   4.892
 9673SOL     OW29917   2.531   2.551   5.886
 9673SOL    HW129918   2.556   2.589   5.797
 9673SOL    HW229919   2.473   2.615   5.935
 9674SOL     OW29920   2.743   6.998   2.328
 9674SOL    HW129921   2.790   6.981   2.241
 9674SOL    HW229922   2.676   6.925   2.344
 9675SOL     OW29923   0.066   2.516   2.102
 9675SOL    HW129924   7.011   2.520   2.037
 9675SOL    HW229925   0.101   2.423   2.107
 9676SOL     OW29926   0.105   3.334   4.949
 9676SOL    HW129927   0.111   3.302   4.855
 9676SOL    HW229928   0.012   3.322   4.983
 9677SOL     OW29929   1.644   3.566   5.193
 9677SOL    HW129930   1.688   3.584   5.105
 9677SOL    HW229931   1.706   3.593   5.267
 9678SOL     OW29932   3.738   3.326   2.956
 9678SOL    HW129933   3.732   3.259   2.882
 9678SOL    HW229934   3.803   3.295   3.025
 9679SOL     OW29935   0.394   3.819   1.164
 9679SOL    HW129936   0.315   3.879   1.149
 9679SOL    HW229937   0.410   3.765   1.081
 9680SOL     OW29938   5.170   4.824   3.479
 9680SOL    HW129939   5.260   4.808   3.518
 9680SOL    HW229940   5.123   4.736   3.466
 9681SOL     OW29941   0.811   1.016   4.314
 9681SOL    HW129942   0.869   1.094   4.336
 9681SOL    HW229943   0.835   0.981   4.223
 9682SOL     OW29944   0.221   5.199   3.012
 9682SOL    HW129945   0.286   5.225   3.083
 9682SOL    HW229946   0.158   5.131   3.048
 9683SOL     OW29947   4.845   6.619   6.537
 9683SOL    HW129948   4.847   6.698   6.598
 9683SOL    HW229949   4.818   6.538   6.589
 9684SOL     OW29950   0.786   4.446   3.635
 9684SOL    HW129951   0.752   4.356   3.664
 9684SOL    HW229952   0.721   4.487   3.572
 9685SOL     OW29953   1.784   2.424   6.982
 9685SOL    HW129954   1.871   2.377   6.996
 9685SOL    HW229955   1.710   2.365   7.015
 9686SOL     OW29956   5.710   1.240   1.287
 9686SOL    HW129957   5.640   1.298   1.328
 9686SOL    HW229958   5.753   1.184   1.358
 9687SOL     OW29959   3.750   1.706   4.111
 9687SOL    HW129960   3.785   1.756   4.190
 9687SOL    HW229961   3.803   1.731   4.030
 9688SOL     OW29962   6.279   2.020   3.836
 9688SOL    HW129963   6.347   2.090   3.815
 9688SOL    HW229964   6.195   2.038   3.784
 9689SOL     OW29965   1.588   5.789   5.777
 9689SOL    HW129966   1.517   5.720   5.791
 9689SOL    HW229967   1.546   5.880   5.777
 9690SOL     OW29968   5.962   4.011   0.827
 9690SOL    HW129969   5.863   4.019   0.827
 9690SOL    HW229970   5.995   3.991   0.919
 9691SOL     OW29971   1.354   4.386   1.146
 9691SOL    HW129972   1.380   4.403   1.051
 9691SOL    HW229973   1.281   4.449   1.172
 9692SOL     OW29974   2.170   5.671   0.868
 9692SOL    HW129975   2.109   5.723   0.927
 9692SOL    HW229976   2.193   5.726   0.787
 9693SOL     OW29977   6.387   5.348   1.607
 9693SOL    HW129978   6.463   5.310   1.661
 9693SOL    HW229979   6.411   5.347   1.510
 9694SOL     OW29980   1.653   1.798   0.447
 9694SOL    HW129981   1.722   1.820   0.517
 9694SOL    HW229982   1.655   1.868   0.376
 9695SOL     OW29983   6.605   4.276   0.616
 9695SOL    HW129984   6.562   4.363   0.593
 9695SOL    HW229985   6.537   4.203   0.616
 9696SOL     OW29986   3.407   4.371   0.965
 9696SOL    HW129987   3.372   4.350   1.056
 9696SOL    HW229988   3.444   4.464   0.963
 9697SOL     OW29989   0.611   5.861   6.351
 9697SOL    HW129990   0.709   5.845   6.342
 9697SOL    HW229991   0.563   5.814   6.277
 9698SOL     OW29992   5.172   1.172   5.451
 9698SOL    HW129993   5.152   1.141   5.544
 9698SOL    HW229994   5.218   1.260   5.455
 9699SOL     OW29995   2.189   2.953   7.010
 9699SOL    HW129996   2.249   2.960   0.069
 9699SOL    HW229997   2.244   2.946   6.927
 9700SOL     OW29998   3.359   4.212   3.642
 9700SOL    HW129999   3.260   4.203   3.653
 9700SOL    HW230000   3.383   4.199   3.546
 9701SOL     OW30001   4.827   4.330   4.976
 9701SOL    HW130002   4.735   4.367   4.964
 9701SOL    HW230003   4.828   4.233   4.955
 9702SOL     OW30004   4.471   0.306   0.569
 9702SOL    HW130005   4.465   0.310   0.470
 9702SOL    HW230006   4.561   0.272   0.597
 9703SOL     OW30007   3.381   6.126   4.191
 9703SOL    HW130008   3.479   6.142   4.203
 9703SOL    HW230009   3.337   6.123   4.280
 9704SOL     OW30010   2.516   0.913   3.962
 9704SOL    HW130011   2.484   0.865   3.880
 9704SOL    HW230012   2.562   0.998   3.935
 9705SOL     OW30013   4.067   3.981   0.971
 9705SOL    HW130014   4.074   4.078   0.949
 9705SOL    HW230015   3.976   3.947   0.947
 9706SOL     OW30016   6.336   2.474   2.898
 9706SOL    HW130017   6.398   2.427   2.836
 9706SOL    HW230018   6.292   2.550   2.851
 9707SOL     OW30019   2.818   5.691   2.929
 9707SOL    HW130020   2.846   5.690   2.833
 9707SOL    HW230021   2.741   5.755   2.940
 9708SOL     OW30022   1.870   2.086   2.528
 9708SOL    HW130023   1.885   2.040   2.616
 9708SOL    HW230024   1.957   2.093   2.479
 9709SOL     OW30025   1.862   5.120   2.806
 9709SOL    HW130026   1.895   5.081   2.719
 9709SOL    HW230027   1.768   5.091   2.821
 9710SOL     OW30028   0.716   0.514   3.891
 9710SOL    HW130029   0.639   0.554   3.842
 9710SOL    HW230030   0.725   0.558   3.980
 9711SOL     OW30031   1.880   3.351   6.374
 9711SOL    HW130032   1.833   3.435   6.403
 9711SOL    HW230033   1.843   3.320   6.287
 9712SOL     OW30034   4.864   3.044   4.276
 9712SOL    HW130035   4.964   3.048   4.278
 9712SOL    HW230036   4.827   3.132   4.307
 9713SOL     OW30037   6.606   5.277   2.445
 9713SOL    HW130038   6.678   5.231   2.393
 9713SOL    HW230039   6.538   5.315   2.382
 9714SOL     OW30040   1.434   2.413   2.088
 9714SOL    HW130041   1.363   2.382   2.025
 9714SOL    HW230042   1.413   2.381   2.180
 9715SOL     OW30043   5.922   5.593   5.651
 9715SOL    HW130044   5.856   5.657   5.612
 9715SOL    HW230045   5.874   5.521   5.701
 9716SOL     OW30046   3.963   2.252   5.915
 9716SOL    HW130047   3.967   2.152   5.911
 9716SOL    HW230048   3.970   2.290   5.823
 9717SOL     OW30049   6.263   4.932   3.431
 9717SOL    HW130050   6.280   4.917   3.334
 9717SOL    HW230051   6.216   5.019   3.444
 9718SOL     OW30052   4.569   3.425   1.626
 9718SOL    HW130053   4.506   3.433   1.549
 9718SOL    HW230054   4.528   3.467   1.707
 9719SOL     OW30055   0.490   1.586   0.492
 9719SOL    HW130056   0.516   1.676   0.527
 9719SOL    HW230057   0.570   1.526   0.492
 9720SOL     OW30058   0.899   0.397   0.621
 9720SOL    HW130059   0.849   0.437   0.698
 9720SOL    HW230060   0.989   0.367   0.652
 9721SOL     OW30061   6.843   2.734   3.045
 9721SOL    HW130062   6.814   2.645   3.080
 9721SOL    HW230063   6.881   2.722   2.953
 9722SOL     OW30064   6.645   0.352   4.580
 9722SOL    HW130065   6.565   0.322   4.630
 9722SOL    HW230066   6.727   0.341   4.637
 9723SOL     OW30067   6.385   1.152   3.722
 9723SOL    HW130068   6.323   1.175   3.648
 9723SOL    HW230069   6.367   1.211   3.800
 9724SOL     OW30070   3.790   2.951   0.996
 9724SOL    HW130071   3.834   2.895   0.925
 9724SOL    HW230072   3.692   2.932   0.997
 9725SOL     OW30073   4.233   3.737   5.548
 9725SOL    HW130074   4.278   3.809   5.495
 9725SOL    HW230075   4.138   3.728   5.518
 9726SOL     OW30076   5.970   5.768   4.636
 9726SOL    HW130077   6.025   5.696   4.595
 9726SOL    HW230078   6.027   5.849   4.651
 9727SOL     OW30079   1.298   1.170   6.517
 9727SOL    HW130080   1.386   1.208   6.545
 9727SOL    HW230081   1.313   1.097   6.450
 9728SOL     OW30082   2.956   5.555   6.972
 9728SOL    HW130083   3.002   5.532   0.037
 9728SOL    HW230084   2.860   5.527   6.977
 9729SOL     OW30085   2.980   5.137   2.315
 9729SOL    HW130086   2.898   5.088   2.286
 9729SOL    HW230087   2.956   5.230   2.341
 9730SOL     OW30088   5.993   3.457   3.241
 9730SOL    HW130089   5.948   3.520   3.179
 9730SOL    HW230090   5.978   3.363   3.211
 9731SOL     OW30091   4.793   5.718   1.261
 9731SOL    HW130092   4.721   5.766   1.310
 9731SOL    HW230093   4.851   5.668   1.326
 9732SOL     OW30094   6.273   5.590   3.875
 9732SOL    HW130095   6.249   5.528   3.950
 9732SOL    HW230096   6.369   5.579   3.852
 9733SOL     OW30097   6.014   4.693   5.774
 9733SOL    HW130098   6.009   4.651   5.865
 9733SOL    HW230099   6.065   4.779   5.780
 9734SOL     OW30100   5.530   2.032   5.042
 9734SOL    HW130101   5.619   2.038   4.997
 9734SOL    HW230102   5.520   2.108   5.107
 9735SOL     OW30103   2.940   4.360   0.069
 9735SOL    HW130104   2.934   4.261   0.059
 9735SOL    HW230105   2.896   4.388   0.154
 9736SOL     OW30106   3.486   1.863   1.613
 9736SOL    HW130107   3.566   1.803   1.611
 9736SOL    HW230108   3.474   1.898   1.706
 9737SOL     OW30109   4.182   2.270   4.753
 9737SOL    HW130110   4.190   2.328   4.834
 9737SOL    HW230111   4.105   2.207   4.764
 9738SOL     OW30112   2.318   1.017   2.192
 9738SOL    HW130113   2.408   0.979   2.169
 9738SOL    HW230114   2.262   1.023   2.109
 9739SOL     OW30115   5.440   4.856   1.638
 9739SOL    HW130116   5.420   4.768   1.593
 9739SOL    HW230117   5.482   4.918   1.571
 9740SOL     OW30118   6.251   3.574   3.204
 9740SOL    HW130119   6.296   3.523   3.277
 9740SOL    HW230120   6.152   3.565   3.213
 9741SOL     OW30121   4.026   1.649   2.158
 9741SOL    HW130122   3.926   1.645   2.155
 9741SOL    HW230123   4.055   1.745   2.165
 9742SOL     OW30124   4.437   1.595   3.601
 9742SOL    HW130125   4.485   1.589   3.689
 9742SOL    HW230126   4.342   1.567   3.614
 9743SOL     OW30127   1.617   1.866   5.236
 9743SOL    HW130128   1.661   1.917   5.309
 9743SOL    HW230129   1.642   1.770   5.242
 9744SOL     OW30130   2.476   0.441   1.815
 9744SOL    HW130131   2.443   0.535   1.816
 9744SOL    HW230132   2.399   0.378   1.808
 9745SOL     OW30133   0.283   1.058   4.818
 9745SOL    HW130134   0.321   1.012   4.737
 9745SOL    HW230135   0.356   1.073   4.884
 9746SOL     OW30136   6.345   0.804   4.038
 9746SOL    HW130137   6.269   0.851   3.992
 9746SOL    HW230138   6.339   0.820   4.137
 9747SOL     OW30139   0.070   0.260   6.157
 9747SOL    HW130140   0.068   0.182   6.095
 9747SOL    HW230141   0.113   0.338   6.111
 9748SOL     OW30142   0.409   4.797   4.496
 9748SOL    HW130143   0.430   4.787   4.593
 9748SOL    HW230144   0.410   4.894   4.472
 9749SOL     OW30145   0.295   4.333   4.265
 9749SOL    HW130146   0.315   4.424   4.301
 9749SOL    HW230147   0.380   4.280   4.261
 9750SOL     OW30148   3.442   5.294   3.253
 9750SOL    HW130149   3.457   5.365   3.321
 9750SOL    HW230150   3.344   5.272   3.249
 9751SOL     OW30151   1.882   2.594   0.729
 9751SOL    HW130152   1.958   2.607   0.794
 9751SOL    HW230153   1.897   2.654   0.650
 9752SOL     OW30154   3.965   1.930   6.233
 9752SOL    HW130155   3.923   2.017   6.260
 9752SOL    HW230156   3.908   1.855   6.265
 9753SOL     OW30157   6.863   6.537   6.057
 9753SOL    HW130158   6.774   6.493   6.065
 9753SOL    HW230159   6.935   6.468   6.053
 9754SOL     OW30160   0.088   2.724   6.310
 9754SOL    HW130161   0.080   2.631   6.347
 9754SOL    HW230162   0.046   2.727   6.219
 9755SOL     OW30163   3.712   5.441   5.608
 9755SOL    HW130164   3.672   5.377   5.674
 9755SOL    HW230165   3.790   5.487   5.649
 9756SOL     OW30166   4.863   2.543   5.684
 9756SOL    HW130167   4.868   2.634   5.723
 9756SOL    HW230168   4.780   2.535   5.629
 9757SOL     OW30169   6.193   1.164   3.532
 9757SOL    HW130170   6.096   1.174   3.556
 9757SOL    HW230171   6.203   1.090   3.466
 9758SOL     OW30172   3.082   0.678   0.260
 9758SOL    HW130173   3.123   0.767   0.283
 9758SOL    HW230174   3.015   0.654   0.330
 9759SOL     OW30175   3.275   6.007   1.296
 9759SOL    HW130176   3.363   5.997   1.250
 9759SOL    HW230177   3.258   6.104   1.314
 9760SOL     OW30178   5.998   4.518   6.014
 9760SOL    HW130179   5.929   4.459   5.973
 9760SOL    HW230180   6.079   4.463   6.037
 9761SOL     OW30181   5.241   5.210   2.930
 9761SOL    HW130182   5.296   5.292   2.918
 9761SOL    HW230183   5.262   5.168   3.018
 9762SOL     OW30184   2.978   0.773   3.318
 9762SOL    HW130185   3.014   0.718   3.393
 9762SOL    HW230186   2.897   0.822   3.348
 9763SOL     OW30187   2.102   1.610   2.433
 9763SOL    HW130188   2.031   1.588   2.366
 9763SOL    HW230189   2.192   1.593   2.394
 9764SOL     OW30190   1.327   2.707   2.378
 9764SOL    HW130191   1.396   2.687   2.308
 9764SOL    HW230192   1.367   2.693   2.469
 9765SOL     OW30193   0.268   1.192   5.146
 9765SOL    HW130194   0.358   1.188   5.101
 9765SOL    HW230195   0.198   1.162   5.081
 9766SOL     OW30196   1.945   0.314   2.593
 9766SOL    HW130197   1.882   0.242   2.565
 9766SOL    HW230198   1.894   0.397   2.616
 9767SOL     OW30199   5.060   0.042   5.469
 9767SOL    HW130200   4.973   0.088   5.454
 9767SOL    HW230201   5.123   0.062   5.394
 9768SOL     OW30202   4.928   2.616   3.970
 9768SOL    HW130203   4.958   2.545   3.907
 9768SOL    HW230204   4.997   2.630   4.040
 9769SOL     OW30205   0.508   1.746   1.519
 9769SOL    HW130206   0.551   1.657   1.538
 9769SOL    HW230207   0.579   1.812   1.495
 9770SOL     OW30208   6.947   3.187   5.616
 9770SOL    HW130209   6.891   3.252   5.667
 9770SOL    HW230210   0.001   3.235   5.569
 9771SOL     OW30211   2.698   5.298   3.807
 9771SOL    HW130212   2.750   5.261   3.884
 9771SOL    HW230213   2.664   5.389   3.831
 9772SOL     OW30214   6.134   0.112   1.252
 9772SOL    HW130215   6.065   0.156   1.309
 9772SOL    HW230216   6.189   0.050   1.309
 9773SOL     OW30217   5.013   4.859   3.830
 9773SOL    HW130218   4.994   4.766   3.801
 9773SOL    HW230219   4.941   4.920   3.799
 9774SOL     OW30220   0.295   4.848   3.903
 9774SOL    HW130221   0.385   4.818   3.871
 9774SOL    HW230222   0.270   4.796   3.985
 9775SOL     OW30223   2.773   2.254   4.986
 9775SOL    HW130224   2.818   2.227   4.901
 9775SOL    HW230225   2.690   2.306   4.964
 9776SOL     OW30226   0.270   4.830   4.191
 9776SOL    HW130227   0.310   4.919   4.213
 9776SOL    HW230228   0.316   4.759   4.245
 9777SOL     OW30229   5.759   4.858   6.104
 9777SOL    HW130230   5.814   4.937   6.077
 9777SOL    HW230231   5.666   4.888   6.126
 9778SOL     OW30232   3.760   0.907   4.058
 9778SOL    HW130233   3.843   0.902   4.004
 9778SOL    HW230234   3.772   0.853   4.142
 9779SOL     OW30235   3.094   2.068   6.684
 9779SOL    HW130236   3.108   2.043   6.780
 9779SOL    HW230237   3.168   2.129   6.654
 9780SOL     OW30238   3.231   4.337   0.566
 9780SOL    HW130239   3.265   4.247   0.538
 9780SOL    HW230240   3.273   4.407   0.508
 9781SOL     OW30241   1.624   6.174   4.320
 9781SOL    HW130242   1.706   6.153   4.266
 9781SOL    HW230243   1.566   6.238   4.270
 9782SOL     OW30244   6.188   0.431   0.616
 9782SOL    HW130245   6.193   0.425   0.516
 9782SOL    HW230246   6.180   0.527   0.644
 9783SOL     OW30247   6.032   0.892   3.214
 9783SOL    HW130248   6.037   0.795   3.190
 9783SOL    HW230249   5.956   0.907   3.278
 9784SOL     OW30250   5.765   0.635   4.290
 9784SOL    HW130251   5.821   0.572   4.237
 9784SOL    HW230252   5.679   0.654   4.242
 9785SOL     OW30253   0.713   2.775   0.977
 9785SOL    HW130254   0.769   2.856   0.998
 9785SOL    HW230255   0.722   2.708   1.050
 9786SOL     OW30256   2.873   0.016   4.681
 9786SOL    HW130257   2.941   0.077   4.639
 9786SOL    HW230258   2.787   0.065   4.694
 9787SOL     OW30259   6.354   4.252   1.426
 9787SOL    HW130260   6.431   4.188   1.424
 9787SOL    HW230261   6.385   4.343   1.398
 9788SOL     OW30262   6.903   1.034   5.235
 9788SOL    HW130263   6.943   0.943   5.249
 9788SOL    HW230264   6.914   1.060   5.139
 9789SOL     OW30265   2.049   5.535   4.555
 9789SOL    HW130266   2.060   5.438   4.536
 9789SOL    HW230267   1.991   5.576   4.485
 9790SOL     OW30268   6.613   1.068   3.591
 9790SOL    HW130269   6.536   1.121   3.626
 9790SOL    HW230270   6.630   1.092   3.496
 9791SOL     OW30271   1.187   2.354   1.269
 9791SOL    HW130272   1.144   2.326   1.355
 9791SOL    HW230273   1.116   2.379   1.203
 9792SOL     OW30274   3.487   5.814   2.438
 9792SOL    HW130275   3.423   5.877   2.394
 9792SOL    HW230276   3.436   5.738   2.479
 9793SOL     OW30277   5.412   6.330   1.927
 9793SOL    HW130278   5.362   6.348   2.012
 9793SOL    HW230279   5.500   6.288   1.949
 9794SOL     OW30280   3.013   3.461   6.849
 9794SOL    HW130281   2.917   3.454   6.824
 9794SOL    HW230282   3.067   3.397   6.795
 9795SOL     OW30283   2.458   5.153   3.986
 9795SOL    HW130284   2.556   5.142   4.007
 9795SOL    HW230285   2.440   5.117   3.895
 9796SOL     OW30286   3.616   5.082   0.684
 9796SOL    HW130287   3.698   5.139   0.689
 9796SOL    HW230288   3.635   5.002   0.628
 9797SOL     OW30289   5.277   2.761   4.711
 9797SOL    HW130290   5.349   2.699   4.743
 9797SOL    HW230291   5.219   2.787   4.788
 9798SOL     OW30292   2.432   1.637   1.586
 9798SOL    HW130293   2.487   1.595   1.514
 9798SOL    HW230294   2.493   1.675   1.656
 9799SOL     OW30295   3.472   4.173   2.310
 9799SOL    HW130296   3.460   4.271   2.295
 9799SOL    HW230297   3.559   4.156   2.356
 9800SOL     OW30298   3.962   5.013   0.013
 9800SOL    HW130299   3.991   5.074   0.087
 9800SOL    HW230300   3.985   4.918   0.037
 9801SOL     OW30301   4.809   5.721   0.985
 9801SOL    HW130302   4.846   5.633   0.954
 9801SOL    HW230303   4.763   5.709   1.073
 9802SOL     OW30304   0.452   5.186   1.665
 9802SOL    HW130305   0.417   5.147   1.750
 9802SOL    HW230306   0.375   5.205   1.603
 9803SOL     OW30307   4.858   0.181   6.245
 9803SOL    HW130308   4.814   0.110   6.299
 9803SOL    HW230309   4.946   0.205   6.287
 9804SOL     OW30310   5.429   5.627   4.192
 9804SOL    HW130311   5.475   5.701   4.242
 9804SOL    HW230312   5.487   5.546   4.192
 9805SOL     OW30313   3.639   4.126   1.074
 9805SOL    HW130314   3.637   4.134   1.173
 9805SOL    HW230315   3.546   4.112   1.039
 9806SOL     OW30316   6.999   1.716   2.644
 9806SOL    HW130317   6.952   1.681   2.563
 9806SOL    HW230318   0.076   1.721   2.627
 9807SOL     OW30319   2.470   3.383   0.765
 9807SOL    HW130320   2.436   3.291   0.788
 9807SOL    HW230321   2.434   3.449   0.830
 9808SOL     OW30322   1.791   1.799   4.852
 9808SOL    HW130323   1.800   1.702   4.829
 9808SOL    HW230324   1.832   1.817   4.941
 9809SOL     OW30325   0.771   0.607   4.133
 9809SOL    HW130326   0.844   0.547   4.167
 9809SOL    HW230327   0.724   0.649   4.210
 9810SOL     OW30328   4.350   1.823   2.648
 9810SOL    HW130329   4.416   1.836   2.574
 9810SOL    HW230330   4.269   1.776   2.612
 9811SOL     OW30331   1.264   0.069   2.529
 9811SOL    HW130332   1.329   0.100   2.459
 9811SOL    HW230333   1.265   6.990   2.534
 9812SOL     OW30334   5.605   2.878   5.516
 9812SOL    HW130335   5.522   2.931   5.537
 9812SOL    HW230336   5.658   2.926   5.446
 9813SOL     OW30337   6.556   3.857   0.361
 9813SOL    HW130338   6.534   3.945   0.405
 9813SOL    HW230339   6.566   3.787   0.432
 9814SOL     OW30340   6.811   0.700   5.493
 9814SOL    HW130341   6.829   0.723   5.589
 9814SOL    HW230342   6.875   0.748   5.434
 9815SOL     OW30343   0.155   3.944   2.933
 9815SOL    HW130344   0.104   4.014   2.983
 9815SOL    HW230345   0.211   3.891   2.997
 9816SOL     OW30346   5.859   0.879   5.596
 9816SOL    HW130347   5.893   0.786   5.612
 9816SOL    HW230348   5.776   0.875   5.540
 9817SOL     OW30349   2.375   0.989   0.872
 9817SOL    HW130350   2.426   1.014   0.789
 9817SOL    HW230351   2.298   1.051   0.884
 9818SOL     OW30352   0.322   6.972   2.320
 9818SOL    HW130353   0.315   6.884   2.273
 9818SOL    HW230354   0.396   0.005   2.280
 9819SOL     OW30355   6.544   2.419   4.376
 9819SOL    HW130356   6.513   2.334   4.334
 9819SOL    HW230357   6.466   2.467   4.417
 9820SOL     OW30358   3.843   1.692   6.237
 9820SOL    HW130359   3.774   1.655   6.174
 9820SOL    HW230360   3.933   1.661   6.209
 9821SOL     OW30361   4.127   3.256   0.353
 9821SOL    HW130362   4.116   3.355   0.349
 9821SOL    HW230363   4.041   3.214   0.383
 9822SOL     OW30364   3.379   5.226   4.182
 9822SOL    HW130365   3.458   5.209   4.241
 9822SOL    HW230366   3.396   5.188   4.092
 9823SOL     OW30367   3.889   6.464   3.452
 9823SOL    HW130368   3.915   6.369   3.473
 9823SOL    HW230369   3.937   6.526   3.513
 9824SOL     OW30370   1.474   5.706   5.254
 9824SOL    HW130371   1.409   5.653   5.198
 9824SOL    HW230372   1.567   5.684   5.227
 9825SOL     OW30373   0.344   6.036   5.006
 9825SOL    HW130374   0.307   5.948   4.976
 9825SOL    HW230375   0.437   6.022   5.040
 9826SOL     OW30376   1.881   5.600   6.147
 9826SOL    HW130377   1.829   5.678   6.181
 9826SOL    HW230378   1.889   5.607   6.047
 9827SOL     OW30379   2.101   4.601   1.841
 9827SOL    HW130380   2.124   4.527   1.777
 9827SOL    HW230381   2.062   4.562   1.925
 9828SOL     OW30382   4.509   2.132   4.906
 9828SOL    HW130383   4.480   2.169   4.818
 9828SOL    HW230384   4.599   2.170   4.929
 9829SOL     OW30385   5.285   4.202   5.835
 9829SOL    HW130386   5.377   4.234   5.811
 9829SOL    HW230387   5.218   4.245   5.774
 9830SOL     OW30388   5.774   1.806   3.414
 9830SOL    HW130389   5.865   1.848   3.414
 9830SOL    HW230390   5.742   1.794   3.508
 9831SOL     OW30391   0.412   4.481   2.357
 9831SOL    HW130392   0.368   4.550   2.299
 9831SOL    HW230393   0.480   4.526   2.415
 9832SOL     OW30394   4.987   5.584   4.475
 9832SOL    HW130395   5.073   5.536   4.488
 9832SOL    HW230396   4.950   5.564   4.385
 9833SOL     OW30397   3.950   3.392   4.970
 9833SOL    HW130398   4.035   3.431   5.005
 9833SOL    HW230399   3.928   3.433   4.882
 9834SOL     OW30400   3.408   6.051   5.646
 9834SOL    HW130401   3.455   6.039   5.558
 9834SOL    HW230402   3.346   6.129   5.641
 9835SOL     OW30403   4.065   3.264   3.798
 9835SOL    HW130404   4.112   3.322   3.732
 9835SOL    HW230405   4.096   3.286   3.891
 9836SOL     OW30406   6.685   3.133   5.483
 9836SOL    HW130407   6.749   3.199   5.522
 9836SOL    HW230408   6.734   3.075   5.417
 9837SOL     OW30409   6.290   0.945   3.338
 9837SOL    HW130410   6.347   1.016   3.296
 9837SOL    HW230411   6.204   0.937   3.288
 9838SOL     OW30412   0.379   5.871   0.416
 9838SOL    HW130413   0.381   5.773   0.398
 9838SOL    HW230414   0.446   5.893   0.487
 9839SOL     OW30415   4.388   6.055   3.452
 9839SOL    HW130416   4.296   6.045   3.416
 9839SOL    HW230417   4.424   6.145   3.427
 9840SOL     OW30418   6.613   1.588   6.745
 9840SOL    HW130419   6.573   1.575   6.655
 9840SOL    HW230420   6.691   1.525   6.757
 9841SOL     OW30421   0.209   5.897   2.291
 9841SOL    HW130422   0.122   5.941   2.268
 9841SOL    HW230423   0.257   5.951   2.359
 9842SOL     OW30424   3.571   0.550   0.602
 9842SOL    HW130425   3.583   0.639   0.646
 9842SOL    HW230426   3.652   0.494   0.618
 9843SOL     OW30427   6.911   0.514   0.940
 9843SOL    HW130428   6.812   0.527   0.945
 9843SOL    HW230429   6.953   0.595   0.899
 9844SOL     OW30430   5.012   0.424   5.300
 9844SOL    HW130431   5.033   0.389   5.392
 9844SOL    HW230432   5.094   0.420   5.243
 9845SOL     OW30433   1.015   3.947   2.301
 9845SOL    HW130434   1.086   3.893   2.256
 9845SOL    HW230435   0.931   3.893   2.307
 9846SOL     OW30436   5.453   1.704   2.171
 9846SOL    HW130437   5.363   1.746   2.169
 9846SOL    HW230438   5.477   1.682   2.266
 9847SOL     OW30439   3.969   4.537   6.761
 9847SOL    HW130440   3.919   4.484   6.692
 9847SOL    HW230441   4.004   4.475   6.831
 9848SOL     OW30442   2.878   4.652   5.538
 9848SOL    HW130443   2.796   4.639   5.482
 9848SOL    HW230444   2.958   4.659   5.479
 9849SOL     OW30445   2.063   2.569   3.924
 9849SOL    HW130446   2.035   2.664   3.943
 9849SOL    HW230447   2.146   2.548   3.975
 9850SOL     OW30448   1.189   0.066   4.161
 9850SOL    HW130449   1.103   0.101   4.200
 9850SOL    HW230450   1.214   7.001   4.207
 9851SOL     OW30451   3.808   5.595   3.978
 9851SOL    HW130452   3.905   5.581   3.957
 9851SOL    HW230453   3.760   5.619   3.893
 9852SOL     OW30454   1.680   6.123   0.240
 9852SOL    HW130455   1.596   6.117   0.295
 9852SOL    HW230456   1.713   6.031   0.220
 9853SOL     OW30457   0.344   4.433   3.925
 9853SOL    HW130458   0.254   4.429   3.968
 9853SOL    HW230459   0.343   4.381   3.839
 9854SOL     OW30460   6.551   3.347   6.923
 9854SOL    HW130461   6.512   3.435   6.950
 9854SOL    HW230462   6.649   3.348   6.941
 9855SOL     OW30463   0.658   6.194   6.316
 9855SOL    HW130464   0.622   6.111   6.357
 9855SOL    HW230465   0.735   6.228   6.370
 9856SOL     OW30466   5.108   4.104   3.108
 9856SOL    HW130467   5.141   4.074   3.198
 9856SOL    HW230468   5.020   4.150   3.118
 9857SOL     OW30469   5.152   0.252   6.092
 9857SOL    HW130470   5.195   0.318   6.154
 9857SOL    HW230471   5.156   0.161   6.132
 9858SOL     OW30472   6.396   5.602   2.446
 9858SOL    HW130473   6.447   5.539   2.387
 9858SOL    HW230474   6.361   5.678   2.392
 9859SOL     OW30475   1.037   5.392   2.412
 9859SOL    HW130476   1.061   5.405   2.316
 9859SOL    HW230477   0.942   5.361   2.419
 9860SOL     OW30478   1.777   3.300   3.908
 9860SOL    HW130479   1.803   3.340   3.996
 9860SOL    HW230480   1.761   3.372   3.841
 9861SOL     OW30481   3.672   2.049   3.468
 9861SOL    HW130482   3.670   2.011   3.561
 9861SOL    HW230483   3.761   2.089   3.450
 9862SOL     OW30484   1.799   3.604   6.453
 9862SOL    HW130485   1.897   3.624   6.450
 9862SOL    HW230486   1.755   3.663   6.520
 9863SOL     OW30487   4.136   6.757   2.391
 9863SOL    HW130488   4.124   6.730   2.295
 9863SOL    HW230489   4.076   6.835   2.411
 9864SOL     OW30490   2.789   6.548   5.366
 9864SOL    HW130491   2.792   6.552   5.466
 9864SOL    HW230492   2.738   6.467   5.337
 9865SOL     OW30493   2.272   6.279   6.115
 9865SOL    HW130494   2.240   6.367   6.149
 9865SOL    HW230495   2.287   6.284   6.017
 9866SOL     OW30496   6.606   5.259   6.098
 9866SOL    HW130497   6.526   5.313   6.123
 9866SOL    HW230498   6.689   5.312   6.114
 9867SOL     OW30499   4.575   1.341   2.068
 9867SOL    HW130500   4.500   1.359   2.133
 9867SOL    HW230501   4.542   1.283   1.994
 9868SOL     OW30502   2.229   5.005   3.487
 9868SOL    HW130503   2.262   4.999   3.393
 9868SOL    HW230504   2.150   5.067   3.491
 9869SOL     OW30505   6.480   2.745   2.544
 9869SOL    HW130506   6.393   2.731   2.496
 9869SOL    HW230507   6.507   2.841   2.537
 9870SOL     OW30508   2.216   2.030   3.423
 9870SOL    HW130509   2.209   2.129   3.412
 9870SOL    HW230510   2.216   1.986   3.333
 9871SOL     OW30511   5.737   5.856   3.179
 9871SOL    HW130512   5.642   5.883   3.165
 9871SOL    HW230513   5.749   5.761   3.151
 9872SOL     OW30514   0.697   6.008   5.672
 9872SOL    HW130515   0.746   5.928   5.640
 9872SOL    HW230516   0.748   6.051   5.747
 9873SOL     OW30517   0.740   1.085   5.087
 9873SOL    HW130518   0.793   1.120   5.164
 9873SOL    HW230519   0.752   0.986   5.080
 9874SOL     OW30520   0.111   2.447   3.672
 9874SOL    HW130521   0.188   2.405   3.721
 9874SOL    HW230522   0.118   2.424   3.575
 9875SOL     OW30523   6.372   6.098   0.958
 9875SOL    HW130524   6.387   6.196   0.946
 9875SOL    HW230525   6.273   6.079   0.954
 9876SOL     OW30526   0.257   6.857   3.761
 9876SOL    HW130527   0.357   6.863   3.758
 9876SOL    HW230528   0.217   6.927   3.701
 9877SOL     OW30529   1.127   6.179   5.086
 9877SOL    HW130530   1.105   6.236   5.165
 9877SOL    HW230531   1.118   6.083   5.111
 9878SOL     OW30532   3.347   2.461   6.985
 9878SOL    HW130533   3.393   2.400   6.920
 9878SOL    HW230534   3.414   2.499   0.028
 9879SOL     OW30535   6.547   5.614   4.221
 9879SOL    HW130536   6.548   5.713   4.209
 9879SOL    HW230537   6.452   5.583   4.226
 9880SOL     OW30538   3.690   1.451   1.331
 9880SOL    HW130539   3.611   1.424   1.386
 9880SOL    HW230540   3.759   1.379   1.335
 9881SOL     OW30541   6.005   0.425   3.523
 9881SOL    HW130542   5.963   0.339   3.493
 9881SOL    HW230543   5.940   0.476   3.580
 9882SOL     OW30544   3.531   3.233   4.738
 9882SOL    HW130545   3.613   3.229   4.681
 9882SOL    HW230546   3.556   3.220   4.833
 9883SOL     OW30547   1.867   6.456   2.323
 9883SOL    HW130548   1.881   6.465   2.422
 9883SOL    HW230549   1.774   6.487   2.300
 9884SOL     OW30550   3.078   2.544   5.331
 9884SOL    HW130551   3.142   2.487   5.279
 9884SOL    HW230552   3.048   2.494   5.412
 9885SOL     OW30553   4.631   2.539   5.553
 9885SOL    HW130554   4.577   2.458   5.527
 9885SOL    HW230555   4.577   2.621   5.534
 9886SOL     OW30556   2.385   6.134   1.282
 9886SOL    HW130557   2.292   6.126   1.244
 9886SOL    HW230558   2.434   6.207   1.235
 9887SOL     OW30559   3.537   1.206   0.143
 9887SOL    HW130560   3.453   1.260   0.137
 9887SOL    HW230561   3.611   1.255   0.097
 9888SOL     OW30562   6.904   6.434   3.557
 9888SOL    HW130563   6.974   6.363   3.556
 9888SOL    HW230564   6.876   6.454   3.463
 9889SOL     OW30565   6.432   5.625   2.970
 9889SOL    HW130566   6.480   5.588   3.050
 9889SOL    HW230567   6.345   5.578   2.960
 9890SOL     OW30568   1.432   3.420   2.812
 9890SOL    HW130569   1.464   3.507   2.776
 9890SOL    HW230570   1.407   3.359   2.737
 9891SOL     OW30571   4.738   6.664   2.044
 9891SOL    HW130572   4.830   6.679   2.079
 9891SOL    HW230573   4.733   6.690   1.948
 9892SOL     OW30574   1.732   6.225   3.310
 9892SOL    HW130575   1.757   6.322   3.308
 9892SOL    HW230576   1.651   6.213   3.366
 9893SOL     OW30577   6.212   4.390   5.635
 9893SOL    HW130578   6.222   4.381   5.536
 9893SOL    HW230579   6.258   4.474   5.666
 9894SOL     OW30580   4.588   4.116   5.339
 9894SOL    HW130581   4.555   4.148   5.428
 9894SOL    HW230582   4.572   4.187   5.271
 9895SOL     OW30583   4.973   2.072   6.402
 9895SOL    HW130584   5.035   1.997   6.385
 9895SOL    HW230585   4.908   2.080   6.326
 9896SOL     OW30586   4.112   3.772   6.623
 9896SOL    HW130587   4.057   3.854   6.607
 9896SOL    HW230588   4.209   3.796   6.623
 9897SOL     OW30589   0.557   1.525   2.877
 9897SOL    HW130590   0.541   1.555   2.783
 9897SOL    HW230591   0.516   1.435   2.890
 9898SOL     OW30592   0.885   4.578   0.077
 9898SOL    HW130593   0.961   4.530   0.121
 9898SOL    HW230594   0.895   4.572   6.998
 9899SOL     OW30595   4.358   5.460   2.381
 9899SOL    HW130596   4.277   5.512   2.409
 9899SOL    HW230597   4.396   5.500   2.297
 9900SOL     OW30598   2.197   4.674   4.058
 9900SOL    HW130599   2.109   4.654   4.101
 9900SOL    HW230600   2.271   4.646   4.119
 9901SOL     OW30601   2.508   1.721   6.017
 9901SOL    HW130602   2.597   1.737   6.060
 9901SOL    HW230603   2.448   1.673   6.082
 9902SOL     OW30604   4.262   3.983   6.968
 9902SOL    HW130605   4.172   3.963   7.008
 9902SOL    HW230606   4.318   3.901   6.970
 9903SOL     OW30607   2.996   1.793   1.182
 9903SOL    HW130608   3.073   1.797   1.118
 9903SOL    HW230609   3.007   1.715   1.243
 9904SOL     OW30610   7.016   6.094   2.269
 9904SOL    HW130611   0.046   6.165   2.318
 9904SOL    HW230612   6.920   6.097   2.296
 9905SOL     OW30613   2.096   0.002   6.010
 9905SOL    HW130614   2.162   6.949   5.997
 9905SOL    HW230615   2.144   0.088   6.022
 9906SOL     OW30616   3.396   4.152   6.100
 9906SOL    HW130617   3.298   4.152   6.122
 9906SOL    HW230618   3.449   4.138   6.184
 9907SOL     OW30619   1.042   6.406   3.053
 9907SOL    HW130620   1.014   6.320   3.011
 9907SOL    HW230621   0.964   6.469   3.056
 9908SOL     OW30622   6.267   2.924   5.599
 9908SOL    HW130623   6.362   2.908   5.574
 9908SOL    HW230624   6.208   2.862   5.546
 9909SOL     OW30625   3.025   6.947   2.906
 9909SOL    HW130626   2.944   7.005   2.897
 9909SOL    HW230627   3.096   6.996   2.957
 9910SOL     OW30628   1.008   5.557   0.729
 9910SOL    HW130629   1.102   5.524   0.716
 9910SOL    HW230630   0.945   5.498   0.678
 9911SOL     OW30631   3.345   5.031   2.585
 9911SOL    HW130632   3.250   5.060   2.589
 9911SOL    HW230633   3.383   5.025   2.677
 9912SOL     OW30634   4.924   6.874   0.746
 9912SOL    HW130635   4.911   6.777   0.767
 9912SOL    HW230636   4.835   6.918   0.734
 9913SOL     OW30637   5.104   2.190   3.092
 9913SOL    HW130638   5.097   2.115   3.157
 9913SOL    HW230639   5.033   2.181   3.022
 9914SOL     OW30640   2.482   5.942   4.282
 9914SOL    HW130641   2.401   5.905   4.327
 9914SOL    HW230642   2.455   6.013   4.217
 9915SOL     OW30643   6.133   4.097   4.589
 9915SOL    HW130644   6.068   4.164   4.626
 9915SOL    HW230645   6.161   4.124   4.497
 9916SOL     OW30646   2.801   3.661   0.564
 9916SOL    HW130647   2.794   3.664   0.464
 9916SOL    HW230648   2.813   3.754   0.599
 9917SOL     OW30649   2.197   2.970   4.613
 9917SOL    HW130650   2.164   3.055   4.654
 9917SOL    HW230651   2.244   2.916   4.682
 9918SOL     OW30652   2.381   0.643   4.469
 9918SOL    HW130653   2.304   0.646   4.533
 9918SOL    HW230654   2.431   0.729   4.473
 9919SOL     OW30655   0.678   5.315   2.002
 9919SOL    HW130656   0.717   5.311   1.910
 9919SOL    HW230657   0.582   5.344   1.995
 9920SOL     OW30658   4.085   0.088   2.891
 9920SOL    HW130659   4.174   0.045   2.879
 9920SOL    HW230660   4.062   0.141   2.809
 9921SOL     OW30661   4.741   0.459   2.911
 9921SOL    HW130662   4.822   0.412   2.945
 9921SOL    HW230663   4.745   0.556   2.937
 9922SOL     OW30664   5.507   2.437   2.553
 9922SOL    HW130665   5.451   2.354   2.558
 9922SOL    HW230666   5.456   2.514   2.592
 9923SOL     OW30667   5.970   0.458   6.596
 9923SOL    HW130668   5.974   0.555   6.572
 9923SOL    HW230669   5.940   0.449   6.691
 9924SOL     OW30670   5.289   1.105   3.920
 9924SOL    HW130671   5.280   1.032   3.852
 9924SOL    HW230672   5.234   1.082   4.001
 9925SOL     OW30673   3.627   2.118   4.495
 9925SOL    HW130674   3.715   2.163   4.481
 9925SOL    HW230675   3.621   2.038   4.435
 9926SOL     OW30676   1.886   0.871   5.456
 9926SOL    HW130677   1.917   0.963   5.479
 9926SOL    HW230678   1.837   0.874   5.369
 9927SOL     OW30679   1.148   3.044   3.043
 9927SOL    HW130680   1.229   2.986   3.050
 9927SOL    HW230681   1.080   3.015   3.111
 9928SOL     OW30682   0.166   2.929   2.294
 9928SOL    HW130683   0.203   2.861   2.231
 9928SOL    HW230684   0.105   2.885   2.360
 9929SOL     OW30685   0.810   5.304   5.738
 9929SOL    HW130686   0.724   5.264   5.768
 9929SOL    HW230687   0.886   5.254   5.781
 9930SOL     OW30688   6.580   5.547   6.337
 9930SOL    HW130689   6.676   5.575   6.337
 9930SOL    HW230690   6.560   5.498   6.252
 9931SOL     OW30691   2.067   4.776   6.872
 9931SOL    HW130692   1.998   4.843   6.843
 9931SOL    HW230693   2.040   4.737   6.960
 9932SOL     OW30694   2.530   2.629   1.170
 9932SOL    HW130695   2.494   2.607   1.261
 9932SOL    HW230696   2.630   2.637   1.175
 9933SOL     OW30697   0.833   1.577   3.205
 9933SOL    HW130698   0.739   1.547   3.222
 9933SOL    HW230699   0.896   1.504   3.233
 9934SOL     OW30700   5.109   0.196   6.393
 9934SOL    HW130701   5.174   0.270   6.379
 9934SOL    HW230702   5.158   0.113   6.422
 9935SOL     OW30703   2.419   3.120   0.762
 9935SOL    HW130704   2.458   3.034   0.731
 9935SOL    HW230705   2.320   3.119   0.749
 9936SOL     OW30706   5.190   6.108   6.938
 9936SOL    HW130707   5.133   6.142   6.863
 9936SOL    HW230708   5.286   6.126   6.918
 9937SOL     OW30709   1.642   6.588   4.031
 9937SOL    HW130710   1.626   6.540   4.117
 9937SOL    HW230711   1.680   6.526   3.963
 9938SOL     OW30712   6.638   1.014   3.293
 9938SOL    HW130713   6.722   0.961   3.304
 9938SOL    HW230714   6.601   1.002   3.201
 9939SOL     OW30715   2.556   3.741   1.309
 9939SOL    HW130716   2.578   3.838   1.306
 9939SOL    HW230717   2.515   3.713   1.223
 9940SOL     OW30718   0.271   0.395   3.600
 9940SOL    HW130719   0.202   0.433   3.662
 9940SOL    HW230720   0.355   0.376   3.651
 9941SOL     OW30721   5.555   3.541   0.649
 9941SOL    HW130722   5.651   3.531   0.677
 9941SOL    HW230723   5.495   3.519   0.726
 9942SOL     OW30724   6.268   5.571   2.700
 9942SOL    HW130725   6.299   5.476   2.706
 9942SOL    HW230726   6.295   5.609   2.611
 9943SOL     OW30727   1.528   3.894   5.387
 9943SOL    HW130728   1.553   3.869   5.480
 9943SOL    HW230729   1.595   3.858   5.323
 9944SOL     OW30730   2.336   5.765   6.716
 9944SOL    HW130731   2.303   5.673   6.696
 9944SOL    HW230732   2.322   5.823   6.636
 9945SOL     OW30733   6.593   3.791   6.765
 9945SOL    HW130734   6.556   3.717   6.708
 9945SOL    HW230735   6.678   3.760   6.809
 9946SOL     OW30736   5.111   2.481   1.568
 9946SOL    HW130737   5.057   2.564   1.561
 9946SOL    HW230738   5.127   2.459   1.665
 9947SOL     OW30739   0.894   1.153   3.166
 9947SOL    HW130740   0.833   1.179   3.092
 9947SOL    HW230741   0.967   1.094   3.131
 9948SOL     OW30742   5.738   0.760   5.321
 9948SOL    HW130743   5.770   0.684   5.378
 9948SOL    HW230744   5.786   0.759   5.234
 9949SOL     OW30745   6.931   3.708   2.880
 9949SOL    HW130746   6.988   3.778   2.924
 9949SOL    HW230747   6.960   3.617   2.911
 9950SOL     OW30748   4.341   5.450   5.845
 9950SOL    HW130749   4.365   5.465   5.941
 9950SOL    HW230750   4.370   5.528   5.791
 9951SOL     OW30751   0.267   2.108   2.928
 9951SOL    HW130752   0.265   2.010   2.908
 9951SOL    HW230753   0.211   2.127   3.009
 9952SOL     OW30754   1.178   4.869   1.471
 9952SOL    HW130755   1.119   4.788   1.479
 9952SOL    HW230756   1.257   4.859   1.531
 9953SOL     OW30757   5.955   4.588   4.817
 9953SOL    HW130758   5.923   4.500   4.852
 9953SOL    HW230759   6.053   4.595   4.831
 9954SOL     OW30760   4.010   1.074   1.065
 9954SOL    HW130761   4.055   1.036   1.146
 9954SOL    HW230762   4.029   1.015   0.986
 9955SOL     OW30763   6.088   5.006   1.150
 9955SOL    HW130764   6.017   4.961   1.094
 9955SOL    HW230765   6.146   5.062   1.090
 9956SOL     OW30766   1.468   3.750   3.501
 9956SOL    HW130767   1.446   3.659   3.466
 9956SOL    HW230768   1.566   3.754   3.524
 9957SOL     OW30769   4.971   0.083   0.026
 9957SOL    HW130770   4.947   0.060   0.121
 9957SOL    HW230771   5.045   0.150   0.026
 9958SOL     OW30772   6.050   6.087   6.056
 9958SOL    HW130773   6.038   6.076   6.154
 9958SOL    HW230774   5.967   6.126   6.016
 9959SOL     OW30775   5.882   4.841   0.005
 9959SOL    HW130776   5.915   4.765   6.969
 9959SOL    HW230777   5.959   4.898   0.034
 9960SOL     OW30778   6.640   0.405   6.780
 9960SOL    HW130779   6.683   0.412   6.870
 9960SOL    HW230780   6.618   0.496   6.745
 9961SOL     OW30781   3.327   6.397   0.356
 9961SOL    HW130782   3.237   6.439   0.368
 9961SOL    HW230783   3.361   6.365   0.445
 9962SOL     OW30784   3.236   0.734   1.443
 9962SOL    HW130785   3.140   0.739   1.416
 9962SOL    HW230786   3.248   0.666   1.515
 9963SOL     OW30787   1.135   0.612   6.475
 9963SOL    HW130788   1.199   0.620   6.552
 9963SOL    HW230789   1.083   0.527   6.484
 9964SOL     OW30790   4.746   5.473   5.173
 9964SOL    HW130791   4.711   5.379   5.169
 9964SOL    HW230792   4.797   5.493   5.089
 9965SOL     OW30793   2.681   4.712   4.535
 9965SOL    HW130794   2.626   4.676   4.611
 9965SOL    HW230795   2.622   4.766   4.474
 9966SOL     OW30796   2.705   5.807   2.664
 9966SOL    HW130797   2.715   5.716   2.625
 9966SOL    HW230798   2.612   5.818   2.698
 9967SOL     OW30799   0.561   0.581   2.606
 9967SOL    HW130800   0.554   0.514   2.532
 9967SOL    HW230801   0.481   0.575   2.664
 9968SOL     OW30802   4.980   6.203   6.785
 9968SOL    HW130803   5.011   6.246   6.700
 9968SOL    HW230804   4.925   6.268   6.837
 9969SOL     OW30805   0.331   5.960   2.984
 9969SOL    HW130806   0.264   6.031   2.965
 9969SOL    HW230807   0.344   5.903   2.903
 9970SOL     OW30808   6.789   3.175   1.876
 9970SOL    HW130809   6.700   3.135   1.854
 9970SOL    HW230810   6.822   3.226   1.796
 9971SOL     OW30811   0.189   5.074   4.989
 9971SOL    HW130812   0.101   5.119   4.978
 9971SOL    HW230813   0.202   5.048   5.085
 9972SOL     OW30814   2.893   4.702   5.947
 9972SOL    HW130815   2.895   4.740   5.854
 9972SOL    HW230816   2.979   4.724   5.993
 9973SOL     OW30817   3.243   2.148   3.174
 9973SOL    HW130818   3.228   2.079   3.104
 9973SOL    HW230819   3.341   2.161   3.189
 9974SOL     OW30820   0.812   2.565   3.084
 9974SOL    HW130821   0.884   2.574   3.153
 9974SOL    HW230822   0.764   2.653   3.075
 9975SOL     OW30823   2.339   4.269   6.554
 9975SOL    HW130824   2.318   4.354   6.506
 9975SOL    HW230825   2.335   4.284   6.652
 9976SOL     OW30826   3.765   6.357   5.607
 9976SOL    HW130827   3.666   6.369   5.596
 9976SOL    HW230828   3.785   6.334   5.702
 9977SOL     OW30829   4.367   0.192   5.263
 9977SOL    HW130830   4.441   0.139   5.306
 9977SOL    HW230831   4.307   0.229   5.333
 9978SOL     OW30832   6.985   3.021   6.828
 9978SOL    HW130833   0.031   2.948   6.813
 9978SOL    HW230834   0.011   3.100   6.868
 9979SOL     OW30835   3.722   3.732   4.442
 9979SOL    HW130836   3.633   3.738   4.397
 9979SOL    HW230837   3.748   3.635   4.452
 9980SOL     OW30838   0.350   0.285   6.950
 9980SOL    HW130839   0.420   0.219   6.924
 9980SOL    HW230840   0.393   0.367   6.988
 9981SOL     OW30841   5.920   0.764   0.145
 9981SOL    HW130842   6.008   0.811   0.151
 9981SOL    HW230843   5.871   0.796   0.064
 9982SOL     OW30844   2.817   2.239   4.398
 9982SOL    HW130845   2.900   2.235   4.453
 9982SOL    HW230846   2.743   2.189   4.444
 9983SOL     OW30847   0.702   2.766   2.366
 9983SOL    HW130848   0.734   2.753   2.272
 9983SOL    HW230849   0.672   2.861   2.378
 9984SOL     OW30850   0.658   4.464   1.093
 9984SOL    HW130851   0.614   4.534   1.150
 9984SOL    HW230852   0.588   4.404   1.055
 9985SOL     OW30853   4.671   4.529   0.383
 9985SOL    HW130854   4.765   4.497   0.372
 9985SOL    HW230855   4.667   4.627   0.366
 9986SOL     OW30856   5.449   4.784   0.398
 9986SOL    HW130857   5.453   4.881   0.374
 9986SOL    HW230858   5.485   4.770   0.490
 9987SOL     OW30859   4.792   2.384   1.139
 9987SOL    HW130860   4.873   2.428   1.180
 9987SOL    HW230861   4.733   2.350   1.212
 9988SOL     OW30862   5.746   6.482   3.722
 9988SOL    HW130863   5.662   6.456   3.768
 9988SOL    HW230864   5.801   6.401   3.703
 9989SOL     OW30865   6.529   5.595   1.988
 9989SOL    HW130866   6.513   5.689   1.958
 9989SOL    HW230867   6.626   5.573   1.979
 9990SOL     OW30868   0.556   6.067   3.157
 9990SOL    HW130869   0.493   6.068   3.235
 9990SOL    HW230870   0.505   6.051   3.073
 9991SOL     OW30871   2.061   4.294   2.278
 9991SOL    HW130872   2.040   4.197   2.282
 9991SOL    HW230873   2.005   4.338   2.209
 9992SOL     OW30874   2.674   4.993   0.429
 9992SOL    HW130875   2.710   4.916   0.482
 9992SOL    HW230876   2.736   5.013   0.353
 9993SOL     OW30877   4.230   0.261   5.047
 9993SOL    HW130878   4.242   0.222   4.956
 9993SOL    HW230879   4.275   0.203   5.115
 9994SOL     OW30880   6.074   5.247   4.957
 9994SOL    HW130881   6.046   5.197   5.039
 9994SOL    HW230882   6.011   5.323   4.941
 9995SOL     OW30883   4.378   1.459   6.384
 9995SOL    HW130884   4.280   1.481   6.385
 9995SOL    HW230885   4.416   1.469   6.476
 9996SOL     OW30886   3.034   4.644   0.939
 9996SOL    HW130887   2.979   4.599   1.009
 9996SOL    HW230888   3.067   4.577   0.873
 9997SOL     OW30889   6.510   1.086   2.966
 9997SOL    HW130890   6.517   0.995   2.925
 9997SOL    HW230891   6.587   1.143   2.934
 9998SOL     OW30892   5.191   3.679   2.373
 9998SOL    HW130893   5.191   3.779   2.373
 9998SOL    HW230894   5.160   3.646   2.283
 9999SOL     OW30895   0.493   6.868   4.593
 9999SOL    HW130896   0.437   6.785   4.582
 9999SOL    HW230897   0.568   6.866   4.526
10000SOL     OW30898   4.605   2.327   1.309
10000SOL    HW130899   4.614   2.252   1.373
10000SOL    HW230900   4.510   2.338   1.282
10001SOL     OW30901   3.850   6.395   1.536
10001SOL    HW130902   3.936   6.444   1.547
10001SOL    HW230903   3.782   6.431   1.601
10002SOL     OW30904   2.402   0.033   2.065
10002SOL    HW130905   2.382   6.982   2.133
10002SOL    HW230906   2.452   7.013   1.988
10003SOL     OW30907   1.134   1.068   2.463
10003SOL    HW130908   1.083   1.048   2.379
10003SOL    HW230909   1.192   1.148   2.449
10004SOL     OW30910   0.025   3.852   3.879
10004SOL    HW130911   6.987   3.794   3.824
10004SOL    HW230912   6.990   3.919   3.928
10005SOL     OW30913   2.749   5.400   3.307
10005SOL    HW130914   2.688   5.478   3.319
10005SOL    HW230915   2.767   5.357   3.396
10006SOL     OW30916   5.207   1.693   5.368
10006SOL    HW130917   5.298   1.718   5.332
10006SOL    HW230918   5.152   1.776   5.380
10007SOL     OW30919   1.831   5.399   3.973
10007SOL    HW130920   1.736   5.428   3.989
10007SOL    HW230921   1.831   5.315   3.920
10008SOL     OW30922   4.675   1.002   5.936
10008SOL    HW130923   4.620   1.014   5.853
10008SOL    HW230924   4.681   0.904   5.958
10009SOL     OW30925   0.761   4.796   2.678
10009SOL    HW130926   0.834   4.830   2.618
10009SOL    HW230927   0.794   4.717   2.729
10010SOL     OW30928   1.713   4.432   1.059
10010SOL    HW130929   1.732   4.530   1.060
10010SOL    HW230930   1.782   4.386   1.002
10011SOL     OW30931   3.236   3.049   0.538
10011SOL    HW130932   3.308   3.106   0.579
10011SOL    HW230933   3.163   3.109   0.504
10012SOL     OW30934   5.429   1.908   4.020
10012SOL    HW130935   5.403   1.986   4.077
10012SOL    HW230936   5.467   1.836   4.078
10013SOL     OW30937   0.818   6.438   4.446
10013SOL    HW130938   0.753   6.402   4.381
10013SOL    HW230939   0.772   6.502   4.508
10014SOL     OW30940   1.131   0.955   3.213
10014SOL    HW130941   1.163   0.860   3.213
10014SOL    HW230942   1.139   0.993   3.305
10015SOL     OW30943   3.865   6.839   6.379
10015SOL    HW130944   3.782   6.824   6.325
10015SOL    HW230945   3.929   6.895   6.327
10016SOL     OW30946   2.825   1.214   4.580
10016SOL    HW130947   2.872   1.289   4.627
10016SOL    HW230948   2.856   1.209   4.485
10017SOL     OW30949   3.092   1.762   2.777
10017SOL    HW130950   3.111   1.804   2.688
10017SOL    HW230951   3.149   1.681   2.789
10018SOL     OW30952   0.019   4.130   5.194
10018SOL    HW130953   0.055   4.200   5.132
10018SOL    HW230954   0.032   4.159   5.289
10019SOL     OW30955   6.756   2.241   1.842
10019SOL    HW130956   6.785   2.157   1.796
10019SOL    HW230957   6.666   2.268   1.809
10020SOL     OW30958   6.424   0.994   2.383
10020SOL    HW130959   6.506   0.948   2.417
10020SOL    HW230960   6.376   0.934   2.318
10021SOL     OW30961   0.761   3.166   1.629
10021SOL    HW130962   0.778   3.171   1.727
10021SOL    HW230963   0.847   3.179   1.579
10022SOL     OW30964   1.595   6.488   5.852
10022SOL    HW130965   1.658   6.488   5.930
10022SOL    HW230966   1.504   6.458   5.883
10023SOL     OW30967   0.177   1.894   5.727
10023SOL    HW130968   0.172   1.807   5.776
10023SOL    HW230969   0.092   1.945   5.742
10024SOL     OW30970   1.874   4.559   3.118
10024SOL    HW130971   1.816   4.580   3.040
10024SOL    HW230972   1.958   4.514   3.087
10025SOL     OW30973   0.832   3.378   1.325
10025SOL    HW130974   0.740   3.367   1.363
10025SOL    HW230975   0.864   3.471   1.344
10026SOL     OW30976   5.672   1.268   5.019
10026SOL    HW130977   5.580   1.265   5.058
10026SOL    HW230978   5.732   1.209   5.073
10027SOL     OW30979   3.327   1.601   5.213
10027SOL    HW130980   3.384   1.554   5.146
10027SOL    HW230981   3.320   1.546   5.296
10028SOL     OW30982   4.087   6.936   2.068
10028SOL    HW130983   4.008   6.970   2.016
10028SOL    HW230984   4.073   6.840   2.092
10029SOL     OW30985   0.038   4.377   4.265
10029SOL    HW130986   0.132   4.345   4.250
10029SOL    HW230987   0.011   4.436   4.189
10030SOL     OW30988   2.584   0.121   4.474
10030SOL    HW130989   2.586   0.040   4.533
10030SOL    HW230990   2.498   0.170   4.488
10031SOL     OW30991   1.977   6.136   3.227
10031SOL    HW130992   1.895   6.164   3.277
10031SOL    HW230993   2.058   6.179   3.268
10032SOL     OW30994   3.418   5.870   4.530
10032SOL    HW130995   3.455   5.787   4.570
10032SOL    HW230996   3.342   5.847   4.469
10033SOL     OW30997   3.304   1.160   5.340
10033SOL    HW130998   3.281   1.089   5.407
10033SOL    HW230999   3.220   1.201   5.305
10034SOL     OW31000   2.606   1.447   2.430
10034SOL    HW131001   2.650   1.535   2.409
10034SOL    HW231002   2.667   1.372   2.405
10035SOL     OW31003   6.612   3.011   2.655
10035SOL    HW131004   6.674   2.943   2.695
10035SOL    HW231005   6.664   3.073   2.597
10036SOL     OW31006   1.174   0.764   6.907
10036SOL    HW131007   1.253   0.706   6.928
10036SOL    HW231008   1.205   0.859   6.894
10037SOL     OW31009   5.734   6.737   6.385
10037SOL    HW131010   5.683   6.654   6.363
10037SOL    HW231011   5.762   6.783   6.301
10038SOL     OW31012   5.111   6.276   6.531
10038SOL    HW131013   5.131   6.200   6.469
10038SOL    HW231014   5.089   6.358   6.478
10039SOL     OW31015   0.278   5.765   2.024
10039SOL    HW131016   0.361   5.789   1.974
10039SOL    HW231017   0.272   5.821   2.106
10040SOL     OW31018   2.429   6.841   0.230
10040SOL    HW131019   2.339   6.882   0.211
10040SOL    HW231020   2.420   6.741   0.231
10041SOL     OW31021   5.570   5.539   5.108
10041SOL    HW131022   5.494   5.598   5.082
10041SOL    HW231023   5.567   5.455   5.054
10042SOL     OW31024   6.742   0.766   5.109
10042SOL    HW131025   6.650   0.748   5.072
10042SOL    HW231026   6.738   0.841   5.174
10043SOL     OW31027   0.571   0.694   3.207
10043SOL    HW131028   0.529   0.652   3.287
10043SOL    HW231029   0.646   0.635   3.174
10044SOL     OW31030   3.017   1.955   0.152
10044SOL    HW131031   3.052   1.966   0.245
10044SOL    HW231032   2.936   2.011   0.139
10045SOL     OW31033   4.109   6.429   4.851
10045SOL    HW131034   4.105   6.347   4.907
10045SOL    HW231035   4.037   6.492   4.881
10046SOL     OW31036   6.009   2.393   1.827
10046SOL    HW131037   6.083   2.370   1.764
10046SOL    HW231038   5.933   2.434   1.776
10047SOL     OW31039   0.351   2.468   3.466
10047SOL    HW131040   0.400   2.426   3.542
10047SOL    HW231041   0.402   2.547   3.433
10048SOL     OW31042   3.767   2.576   1.759
10048SOL    HW131043   3.845   2.584   1.697
10048SOL    HW231044   3.774   2.491   1.811
10049SOL     OW31045   1.964   6.281   4.518
10049SOL    HW131046   1.869   6.265   4.546
10049SOL    HW231047   1.965   6.350   4.445
10050SOL     OW31048   5.375   1.134   4.479
10050SOL    HW131049   5.443   1.116   4.551
10050SOL    HW231050   5.381   1.064   4.409
10051SOL     OW31051   6.267   2.048   0.186
10051SOL    HW131052   6.327   2.128   0.194
10051SOL    HW231053   6.214   2.037   0.270
10052SOL     OW31054   1.177   4.538   1.909
10052SOL    HW131055   1.227   4.481   1.844
10052SOL    HW231056   1.187   4.634   1.884
10053SOL     OW31057   2.807   6.952   3.164
10053SOL    HW131058   2.791   0.030   3.162
10053SOL    HW231059   2.879   6.932   3.231
10054SOL     OW31060   4.241   5.932   3.926
10054SOL    HW131061   4.278   5.953   3.836
10054SOL    HW231062   4.310   5.949   3.996
10055SOL     OW31063   6.106   3.234   6.489
10055SOL    HW131064   6.196   3.222   6.447
10055SOL    HW231065   6.111   3.213   6.587
10056SOL     OW31066   6.444   4.886   2.014
10056SOL    HW131067   6.467   4.973   2.057
10056SOL    HW231068   6.475   4.810   2.072
10057SOL     OW31069   2.606   2.044   3.812
10057SOL    HW131070   2.535   2.067   3.878
10057SOL    HW231071   2.613   2.117   3.744
10058SOL     OW31072   0.995   4.495   3.813
10058SOL    HW131073   0.928   4.470   3.742
10058SOL    HW231074   1.069   4.548   3.771
10059SOL     OW31075   5.688   6.966   1.662
10059SOL    HW131076   5.710   0.043   1.663
10059SOL    HW231077   5.589   6.954   1.648
10060SOL     OW31078   2.213   2.956   2.421
10060SOL    HW131079   2.293   2.929   2.474
10060SOL    HW231080   2.216   3.054   2.402
10061SOL     OW31081   6.347   2.044   4.784
10061SOL    HW131082   6.419   2.079   4.725
10061SOL    HW231083   6.315   2.118   4.844
10062SOL     OW31084   6.053   5.675   3.094
10062SOL    HW131085   5.964   5.677   3.048
10062SOL    HW231086   6.102   5.759   3.074
10063SOL     OW31087   0.929   2.410   2.739
10063SOL    HW131088   0.958   2.457   2.823
10063SOL    HW231089   0.830   2.401   2.739
10064SOL     OW31090   5.801   5.872   5.216
10064SOL    HW131091   5.871   5.938   5.190
10064SOL    HW231092   5.833   5.780   5.195
10065SOL     OW31093   0.424   6.354   3.259
10065SOL    HW131094   0.523   6.360   3.245
10065SOL    HW231095   0.381   6.436   3.220
10066SOL     OW31096   0.773   0.255   3.183
10066SOL    HW131097   0.756   0.323   3.254
10066SOL    HW231098   0.859   0.276   3.136
10067SOL     OW31099   4.904   6.811   3.477
10067SOL    HW131100   4.905   6.784   3.381
10067SOL    HW231101   4.822   6.774   3.521
10068SOL     OW31102   4.858   3.764   5.620
10068SOL    HW131103   4.854   3.863   5.632
10068SOL    HW231104   4.954   3.735   5.613
10069SOL     OW31105   5.159   0.889   3.787
10069SOL    HW131106   5.187   0.829   3.713
10069SOL    HW231107   5.081   0.945   3.757
10070SOL     OW31108   0.975   6.847   4.290
10070SOL    HW131109   0.898   6.864   4.352
10070SOL    HW231110   1.059   6.883   4.331
10071SOL     OW31111   5.379   5.226   5.194
10071SOL    HW131112   5.429   5.147   5.158
10071SOL    HW231113   5.367   5.215   5.293
10072SOL     OW31114   1.047   0.100   3.430
10072SOL    HW131115   1.119   0.161   3.400
10072SOL    HW231116   0.964   0.117   3.377
10073SOL     OW31117   0.343   5.116   6.367
10073SOL    HW131118   0.259   5.122   6.314
10073SOL    HW231119   0.328   5.058   6.447
10074SOL     OW31120   2.651   6.752   5.705
10074SOL    HW131121   2.731   6.753   5.765
10074SOL    HW231122   2.670   6.808   5.624
10075SOL     OW31123   1.524   2.312   3.690
10075SOL    HW131124   1.535   2.410   3.673
10075SOL    HW231125   1.541   2.262   3.605
10076SOL     OW31126   5.630   0.204   4.311
10076SOL    HW131127   5.563   0.242   4.247
10076SOL    HW231128   5.679   0.128   4.268
10077SOL     OW31129   2.995   1.105   6.829
10077SOL    HW131130   2.904   1.069   6.812
10077SOL    HW231131   3.014   1.180   6.766
10078SOL     OW31132   5.514   5.912   5.290
10078SOL    HW131133   5.607   5.926   5.254
10078SOL    HW231134   5.510   5.824   5.337
10079SOL     OW31135   6.415   2.736   6.279
10079SOL    HW131136   6.390   2.825   6.317
10079SOL    HW231137   6.452   2.748   6.187
10080SOL     OW31138   1.482   2.372   6.301
10080SOL    HW131139   1.434   2.339   6.220
10080SOL    HW231140   1.522   2.295   6.350
10081SOL     OW31141   0.356   0.992   6.894
10081SOL    HW131142   0.456   0.984   6.886
10081SOL    HW231143   0.313   0.954   6.813
10082SOL     OW31144   6.570   0.896   0.613
10082SOL    HW131145   6.653   0.933   0.655
10082SOL    HW231146   6.493   0.909   0.675
10083SOL     OW31147   5.080   1.218   4.359
10083SOL    HW131148   5.095   1.278   4.281
10083SOL    HW231149   5.168   1.187   4.394
10084SOL     OW31150   2.202   0.873   6.232
10084SOL    HW131151   2.130   0.804   6.232
10084SOL    HW231152   2.180   0.944   6.164
10085SOL     OW31153   0.827   5.643   2.529
10085SOL    HW131154   0.867   5.569   2.583
10085SOL    HW231155   0.897   5.684   2.471
10086SOL     OW31156   6.591   3.809   2.225
10086SOL    HW131157   6.645   3.734   2.187
10086SOL    HW231158   6.494   3.785   2.220
10087SOL     OW31159   1.627   6.827   3.732
10087SOL    HW131160   1.711   6.823   3.785
10087SOL    HW231161   1.631   6.903   3.668
10088SOL     OW31162   6.813   0.364   4.808
10088SOL    HW131163   6.829   0.446   4.863
10088SOL    HW231164   6.858   0.286   4.853
10089SOL     OW31165   1.904   2.985   2.165
10089SOL    HW131166   1.973   2.919   2.193
10089SOL    HW231167   1.948   3.068   2.131
10090SOL     OW31168   0.448   4.324   1.580
10090SOL    HW131169   0.540   4.301   1.612
10090SOL    HW231170   0.435   4.291   1.487
10091SOL     OW31171   0.496   2.445   4.281
10091SOL    HW131172   0.489   2.487   4.191
10091SOL    HW231173   0.487   2.516   4.352
10092SOL     OW31174   1.855   3.102   4.592
10092SOL    HW131175   1.873   3.018   4.542
10092SOL    HW231176   1.845   3.081   4.690
10093SOL     OW31177   6.899   5.242   6.567
10093SOL    HW131178   6.817   5.270   6.619
10093SOL    HW231179   6.877   5.163   6.511
10094SOL     OW31180   1.524   1.228   2.323
10094SOL    HW131181   1.569   1.156   2.376
10094SOL    HW231182   1.588   1.266   2.257
10095SOL     OW31183   0.330   1.023   5.862
10095SOL    HW131184   0.331   1.122   5.879
10095SOL    HW231185   0.374   1.004   5.774
10096SOL     OW31186   0.297   4.658   2.174
10096SOL    HW131187   0.304   4.757   2.159
10096SOL    HW231188   0.352   4.610   2.105
10097SOL     OW31189   1.025   2.354   6.400
10097SOL    HW131190   1.069   2.397   6.479
10097SOL    HW231191   1.033   2.414   6.321
10098SOL     OW31192   3.235   5.061   6.574
10098SOL    HW131193   3.149   5.022   6.542
10098SOL    HW231194   3.221   5.157   6.598
10099SOL     OW31195   6.546   4.376   4.365
10099SOL    HW131196   6.608   4.366   4.443
10099SOL    HW231197   6.599   4.381   4.281
10100SOL     OW31198   5.413   0.490   5.478
10100SOL    HW131199   5.366   0.485   5.566
10100SOL    HW231200   5.498   0.437   5.482
10101SOL     OW31201   6.915   4.461   2.423
10101SOL    HW131202   6.833   4.508   2.390
10101SOL    HW231203   6.996   4.508   2.388
10102SOL     OW31204   3.803   0.995   3.524
10102SOL    HW131205   3.807   1.055   3.604
10102SOL    HW231206   3.762   0.907   3.550
10103SOL     OW31207   2.252   1.552   0.145
10103SOL    HW131208   2.344   1.560   0.182
10103SOL    HW231209   2.241   1.614   0.067
10104SOL     OW31210   1.953   5.815   5.325
10104SOL    HW131211   1.916   5.843   5.414
10104SOL    HW231212   2.050   5.840   5.320
10105SOL     OW31213   2.702   0.371   6.578
10105SOL    HW131214   2.695   0.287   6.633
10105SOL    HW231215   2.611   0.405   6.557
10106SOL     OW31216   5.467   5.829   0.904
10106SOL    HW131217   5.385   5.884   0.887
10106SOL    HW231218   5.471   5.803   1.000
10107SOL     OW31219   5.659   0.778   5.858
10107SOL    HW131220   5.671   0.874   5.835
10107SOL    HW231221   5.746   0.740   5.891
10108SOL     OW31222   5.887   6.242   6.983
10108SOL    HW131223   5.933   6.234   6.894
10108SOL    HW231224   5.913   6.165   0.020
10109SOL     OW31225   4.806   5.044   3.659
10109SOL    HW131226   4.854   5.129   3.681
10109SOL    HW231227   4.708   5.056   3.675
10110SOL     OW31228   3.517   1.370   5.881
10110SOL    HW131229   3.442   1.305   5.870
10110SOL    HW231230   3.492   1.457   5.838
10111SOL     OW31231   0.304   2.706   2.517
10111SOL    HW131232   0.367   2.769   2.472
10111SOL    HW231233   0.348   2.617   2.529
10112SOL     OW31234   4.104   4.420   6.021
10112SOL    HW131235   4.049   4.362   5.961
10112SOL    HW231236   4.199   4.391   6.017
10113SOL     OW31237   4.029   6.176   0.539
10113SOL    HW131238   4.126   6.197   0.522
10113SOL    HW231239   3.981   6.170   0.451
10114SOL     OW31240   4.227   1.694   1.436
10114SOL    HW131241   4.205   1.709   1.532
10114SOL    HW231242   4.143   1.673   1.386
10115SOL     OW31243   1.039   2.179   3.829
10115SOL    HW131244   1.033   2.092   3.780
10115SOL    HW231245   1.084   2.248   3.772
10116SOL     OW31246   0.740   0.649   1.110
10116SOL    HW131247   0.701   0.691   1.028
10116SOL    HW231248   0.769   0.721   1.173
10117SOL     OW31249   5.031   0.384   5.886
10117SOL    HW131250   5.055   0.314   5.953
10117SOL    HW231251   4.932   0.391   5.878
10118SOL     OW31252   6.571   4.810   2.505
10118SOL    HW131253   6.639   4.877   2.535
10118SOL    HW231254   6.490   4.859   2.472
10119SOL     OW31255   2.559   0.336   5.329
10119SOL    HW131256   2.653   0.365   5.348
10119SOL    HW231257   2.495   0.398   5.375
10120SOL     OW31258   6.069   2.825   4.190
10120SOL    HW131259   6.161   2.794   4.165
10120SOL    HW231260   6.003   2.752   4.175
10121SOL     OW31261   6.042   5.086   4.323
10121SOL    HW131262   6.120   5.049   4.372
10121SOL    HW231263   6.004   5.164   4.372
10122SOL     OW31264   5.359   3.433   0.377
10122SOL    HW131265   5.454   3.461   0.361
10122SOL    HW231266   5.327   3.474   0.462
10123SOL     OW31267   0.038   0.011   0.215
10123SOL    HW131268   0.097   0.031   0.294
10123SOL    HW231269   6.986   0.080   0.210
10124SOL     OW31270   2.924   4.540   0.591
10124SOL    HW131271   2.871   4.496   0.663
10124SOL    HW231272   2.989   4.475   0.553
10125SOL     OW31273   1.397   0.233   1.126
10125SOL    HW131274   1.318   0.275   1.080
10125SOL    HW231275   1.471   0.301   1.134
10126SOL     OW31276   5.635   4.860   0.088
10126SOL    HW131277   5.728   4.862   0.050
10126SOL    HW231278   5.637   4.818   0.178
10127SOL     OW31279   3.530   4.467   5.293
10127SOL    HW131280   3.461   4.395   5.284
10127SOL    HW231281   3.621   4.428   5.285
10128SOL     OW31282   0.148   2.198   1.327
10128SOL    HW131283   0.202   2.275   1.294
10128SOL    HW231284   0.060   2.196   1.279
10129SOL     OW31285   5.416   2.545   3.430
10129SOL    HW131286   5.333   2.525   3.483
10129SOL    HW231287   5.472   2.463   3.423
10130SOL     OW31288   6.573   5.298   1.817
10130SOL    HW131289   6.655   5.259   1.861
10130SOL    HW231290   6.565   5.395   1.840
10131SOL     OW31291   6.620   0.808   1.084
10131SOL    HW131292   6.684   0.848   1.019
10131SOL    HW231293   6.652   0.828   1.177
10132SOL     OW31294   2.745   0.114   2.920
10132SOL    HW131295   2.727   0.201   2.874
10132SOL    HW231296   2.780   0.131   3.012
10133SOL     OW31297   5.120   5.174   3.352
10133SOL    HW131298   5.031   5.128   3.361
10133SOL    HW231299   5.165   5.176   3.441
10134SOL     OW31300   0.378   1.801   2.347
10134SOL    HW131301   0.311   1.727   2.339
10134SOL    HW231302   0.455   1.770   2.403
10135SOL     OW31303   3.060   6.016   3.122
10135SOL    HW131304   3.138   5.958   3.097
10135SOL    HW231305   3.093   6.094   3.176
10136SOL     OW31306   6.449   0.364   2.144
10136SOL    HW131307   6.438   0.289   2.078
10136SOL    HW231308   6.371   0.426   2.138
10137SOL     OW31309   5.506   5.076   4.634
10137SOL    HW131310   5.413   5.042   4.648
10137SOL    HW231311   5.517   5.163   4.682
10138SOL     OW31312   5.424   2.283   6.878
10138SOL    HW131313   5.490   2.283   6.803
10138SOL    HW231314   5.412   2.189   6.911
10139SOL     OW31315   3.807   3.051   3.309
10139SOL    HW131316   3.832   3.031   3.404
10139SOL    HW231317   3.717   3.095   3.307
10140SOL     OW31318   0.700   4.764   5.095
10140SOL    HW131319   0.607   4.726   5.092
10140SOL    HW231320   0.696   4.861   5.117
10141SOL     OW31321   1.959   0.242   3.802
10141SOL    HW131322   1.970   0.340   3.821
10141SOL    HW231323   1.867   0.214   3.829
10142SOL     OW31324   4.753   5.993   4.576
10142SOL    HW131325   4.717   5.900   4.569
10142SOL    HW231326   4.693   6.056   4.527
10143SOL     OW31327   5.133   6.188   1.266
10143SOL    HW131328   5.141   6.256   1.193
10143SOL    HW231329   5.053   6.131   1.248
10144SOL     OW31330   2.915   5.106   3.292
10144SOL    HW131331   2.962   5.092   3.379
10144SOL    HW231332   2.842   5.174   3.304
10145SOL     OW31333   2.962   6.326   5.804
10145SOL    HW131334   2.969   6.227   5.791
10145SOL    HW231335   3.051   6.362   5.832
10146SOL     OW31336   5.128   4.857   4.831
10146SOL    HW131337   5.056   4.914   4.871
10146SOL    HW231338   5.185   4.819   4.904
10147SOL     OW31339   4.962   5.201   4.302
10147SOL    HW131340   5.060   5.197   4.323
10147SOL    HW231341   4.941   5.288   4.258
10148SOL     OW31342   5.784   5.119   0.361
10148SOL    HW131343   5.789   5.150   0.266
10148SOL    HW231344   5.689   5.107   0.388
10149SOL     OW31345   4.125   3.672   0.947
10149SOL    HW131346   4.111   3.769   0.966
10149SOL    HW231347   4.215   3.659   0.906
10150SOL     OW31348   5.160   4.142   1.227
10150SOL    HW131349   5.239   4.092   1.265
10150SOL    HW231350   5.141   4.222   1.283
10151SOL     OW31351   1.968   6.534   5.804
10151SOL    HW131352   1.940   6.548   5.709
10151SOL    HW231353   1.982   6.436   5.819
10152SOL     OW31354   0.201   5.041   3.564
10152SOL    HW131355   0.273   4.972   3.552
10152SOL    HW231356   0.241   5.125   3.601
10153SOL     OW31357   5.436   6.714   3.499
10153SOL    HW131358   5.529   6.679   3.513
10153SOL    HW231359   5.375   6.638   3.479
10154SOL     OW31360   6.480   5.584   5.539
10154SOL    HW131361   6.457   5.575   5.442
10154SOL    HW231362   6.575   5.616   5.548
10155SOL     OW31363   3.684   1.717   6.854
10155SOL    HW131364   3.692   1.647   6.783
10155SOL    HW231365   3.775   1.746   6.883
10156SOL     OW31366   5.736   0.217   2.360
10156SOL    HW131367   5.816   0.193   2.414
10156SOL    HW231368   5.694   0.134   2.324
10157SOL     OW31369   5.333   0.740   5.626
10157SOL    HW131370   5.235   0.758   5.634
10157SOL    HW231371   5.349   0.664   5.563
10158SOL     OW31372   4.425   4.015   6.239
10158SOL    HW131373   4.513   4.044   6.203
10158SOL    HW231374   4.390   4.085   6.302
10159SOL     OW31375   1.340   0.947   6.375
10159SOL    HW131376   1.409   0.874   6.366
10159SOL    HW231377   1.265   0.929   6.311
10160SOL     OW31378   0.930   5.788   3.144
10160SOL    HW131379   0.922   5.888   3.147
10160SOL    HW231380   0.921   5.752   3.237
10161SOL     OW31381   2.262   5.903   5.826
10161SOL    HW131382   2.320   5.985   5.827
10161SOL    HW231383   2.209   5.899   5.911
10162SOL     OW31384   3.170   1.998   6.941
10162SOL    HW131385   3.251   2.038   6.984
10162SOL    HW231386   3.113   1.955   7.011
10163SOL     OW31387   6.632   2.660   5.403
10163SOL    HW131388   6.607   2.585   5.341
10163SOL    HW231389   6.698   2.627   5.471
10164SOL     OW31390   0.728   2.690   5.379
10164SOL    HW131391   0.651   2.751   5.395
10164SOL    HW231392   0.759   2.652   5.466
10165SOL     OW31393   6.643   2.074   3.468
10165SOL    HW131394   6.596   2.076   3.556
10165SOL    HW231395   6.580   2.100   3.395
10166SOL     OW31396   1.021   0.726   2.319
10166SOL    HW131397   1.040   0.814   2.276
10166SOL    HW231398   1.016   0.738   2.419
10167SOL     OW31399   4.230   0.423   0.247
10167SOL    HW131400   4.277   0.339   0.274
10167SOL    HW231401   4.139   0.425   0.288
10168SOL     OW31402   6.654   4.087   4.224
10168SOL    HW131403   6.751   4.075   4.244
10168SOL    HW231404   6.604   4.099   4.310
10169SOL     OW31405   6.238   4.146   4.256
10169SOL    HW131406   6.298   4.131   4.178
10169SOL    HW231407   6.181   4.227   4.240
10170SOL     OW31408   1.765   3.774   4.494
10170SOL    HW131409   1.837   3.795   4.428
10170SOL    HW231410   1.799   3.709   4.562
10171SOL     OW31411   6.136   3.201   6.114
10171SOL    HW131412   6.183   3.115   6.093
10171SOL    HW231413   6.037   3.185   6.114
10172SOL     OW31414   5.098   1.303   3.693
10172SOL    HW131415   5.167   1.344   3.633
10172SOL    HW231416   5.008   1.310   3.649
10173SOL     OW31417   2.192   1.669   2.140
10173SOL    HW131418   2.202   1.705   2.047
10173SOL    HW231419   2.268   1.606   2.159
10174SOL     OW31420   6.135   4.719   1.052
10174SOL    HW131421   6.144   4.796   0.989
10174SOL    HW231422   6.226   4.684   1.074
10175SOL     OW31423   6.067   1.878   6.454
10175SOL    HW131424   6.009   1.914   6.381
10175SOL    HW231425   6.160   1.912   6.443
10176SOL     OW31426   2.548   4.249   0.126
10176SOL    HW131427   2.533   4.232   0.224
10176SOL    HW231428   2.645   4.265   0.110
10177SOL     OW31429   1.740   0.204   5.970
10177SOL    HW131430   1.653   0.253   5.977
10177SOL    HW231431   1.802   0.237   6.041
10178SOL     OW31432   5.887   2.482   4.641
10178SOL    HW131433   5.822   2.438   4.703
10178SOL    HW231434   5.849   2.568   4.608
10179SOL     OW31435   1.439   3.382   6.915
10179SOL    HW131436   1.381   3.422   6.844
10179SOL    HW231437   1.472   3.293   6.885
10180SOL     OW31438   2.440   6.567   5.631
10180SOL    HW131439   2.500   6.647   5.635
10180SOL    HW231440   2.350   6.596   5.596
10181SOL     OW31441   5.991   3.167   1.567
10181SOL    HW131442   6.070   3.177   1.508
10181SOL    HW231443   5.935   3.090   1.535
10182SOL     OW31444   5.775   1.337   0.475
10182SOL    HW131445   5.684   1.301   0.459
10182SOL    HW231446   5.770   1.436   0.491
10183SOL     OW31447   1.759   1.967   6.515
10183SOL    HW131448   1.755   2.039   6.584
10183SOL    HW231449   1.759   1.878   6.560
10184SOL     OW31450   4.434   0.525   6.179
10184SOL    HW131451   4.378   0.578   6.116
10184SOL    HW231452   4.486   0.456   6.127
10185SOL     OW31453   4.913   0.798   6.730
10185SOL    HW131454   4.903   0.870   6.660
10185SOL    HW231455   4.829   0.745   6.734
10186SOL     OW31456   4.234   2.141   3.215
10186SOL    HW131457   4.227   2.193   3.130
10186SOL    HW231458   4.296   2.188   3.278
10187SOL     OW31459   1.185   2.052   2.433
10187SOL    HW131460   1.187   2.096   2.342
10187SOL    HW231461   1.136   2.111   2.497
10188SOL     OW31462   3.398   5.105   1.245
10188SOL    HW131463   3.438   5.193   1.221
10188SOL    HW231464   3.352   5.112   1.333
10189SOL     OW31465   1.522   6.444   5.111
10189SOL    HW131466   1.475   6.357   5.096
10189SOL    HW231467   1.464   6.504   5.166
10190SOL     OW31468   5.474   2.460   0.194
10190SOL    HW131469   5.492   2.455   0.096
10190SOL    HW231470   5.375   2.463   0.210
10191SOL     OW31471   6.548   4.386   6.921
10191SOL    HW131472   6.448   4.385   6.920
10191SOL    HW231473   6.583   4.293   6.927
10192SOL     OW31474   3.184   0.950   6.684
10192SOL    HW131475   3.269   0.930   6.733
10192SOL    HW231476   3.124   1.003   6.743
10193SOL     OW31477   4.215   3.772   0.236
10193SOL    HW131478   4.287   3.786   0.168
10193SOL    HW231479   4.254   3.783   0.328
10194SOL     OW31480   5.050   3.642   5.860
10194SOL    HW131481   5.110   3.566   5.885
10194SOL    HW231482   5.067   3.667   5.765
10195SOL     OW31483   6.560   4.255   1.729
10195SOL    HW131484   6.648   4.226   1.690
10195SOL    HW231485   6.505   4.174   1.749
10196SOL     OW31486   0.505   1.604   4.692
10196SOL    HW131487   0.582   1.656   4.729
10196SOL    HW231488   0.456   1.660   4.625
10197SOL     OW31489   5.682   0.738   6.702
10197SOL    HW131490   5.778   0.761   6.684
10197SOL    HW231491   5.652   0.669   6.636
10198SOL     OW31492   4.274   6.808   3.619
10198SOL    HW131493   4.220   6.760   3.688
10198SOL    HW231494   4.296   6.900   3.651
10199SOL     OW31495   1.240   2.181   5.795
10199SOL    HW131496   1.166   2.248   5.795
10199SOL    HW231497   1.215   2.103   5.737
10200SOL     OW31498   5.564   2.037   1.298
10200SOL    HW131499   5.647   1.992   1.330
10200SOL    HW231500   5.586   2.129   1.267
10201SOL     OW31501   0.744   3.684   0.634
10201SOL    HW131502   0.755   3.589   0.604
10201SOL    HW231503   0.814   3.741   0.590
10202SOL     OW31504   4.201   0.854   4.216
10202SOL    HW131505   4.133   0.928   4.212
10202SOL    HW231506   4.198   0.801   4.132
10203SOL     OW31507   6.739   2.653   4.789
10203SOL    HW131508   6.746   2.617   4.882
10203SOL    HW231509   6.762   2.751   4.789
10204SOL     OW31510   5.728   4.938   6.491
10204SOL    HW131511   5.722   4.925   6.392
10204SOL    HW231512   5.815   4.901   6.525
10205SOL     OW31513   1.038   0.565   5.863
10205SOL    HW131514   1.057   0.566   5.961
10205SOL    HW231515   1.114   0.605   5.813
10206SOL     OW31516   1.617   1.101   4.644
10206SOL    HW131517   1.590   1.190   4.681
10206SOL    HW231518   1.560   1.029   4.685
10207SOL     OW31519   2.129   2.129   5.291
10207SOL    HW131520   2.193   2.064   5.331
10207SOL    HW231521   2.075   2.172   5.364
10208SOL     OW31522   6.757   5.684   5.355
10208SOL    HW131523   6.804   5.771   5.341
10208SOL    HW231524   6.695   5.667   5.278
10209SOL     OW31525   0.306   0.017   5.399
10209SOL    HW131526   0.324   6.942   5.378
10209SOL    HW231527   0.211   0.027   5.431
10210SOL     OW31528   2.750   6.889   1.686
10210SOL    HW131529   2.707   6.799   1.694
10210SOL    HW231530   2.801   6.909   1.769
10211SOL     OW31531   5.514   5.920   6.104
10211SOL    HW131532   5.421   5.884   6.115
10211SOL    HW231533   5.540   5.968   6.188
10212SOL     OW31534   0.609   0.556   6.358
10212SOL    HW131535   0.663   0.637   6.378
10212SOL    HW231536   0.657   0.475   6.392
10213SOL     OW31537   6.430   1.977   1.179
10213SOL    HW131538   6.486   1.895   1.189
10213SOL    HW231539   6.394   2.005   1.268
10214SOL     OW31540   0.879   2.063   0.104
10214SOL    HW131541   0.931   2.134   0.057
10214SOL    HW231542   0.839   2.101   0.187
10215SOL     OW31543   2.879   3.483   2.279
10215SOL    HW131544   2.947   3.550   2.250
10215SOL    HW231545   2.787   3.520   2.264
10216SOL     OW31546   0.504   6.521   1.924
10216SOL    HW131547   0.583   6.482   1.972
10216SOL    HW231548   0.517   6.513   1.826
10217SOL     OW31549   3.685   1.426   4.740
10217SOL    HW131550   3.758   1.362   4.714
10217SOL    HW231551   3.698   1.454   4.835
10218SOL     OW31552   1.396   3.006   2.388
10218SOL    HW131553   1.310   2.970   2.425
10218SOL    HW231554   1.410   2.970   2.296
10219SOL     OW31555   7.018   6.031   3.333
10219SOL    HW131556   7.020   5.955   3.268
10219SOL    HW231557   0.072   6.094   3.313
10220SOL     OW31558   3.405   2.849   0.654
10220SOL    HW131559   3.432   2.900   0.736
10220SOL    HW231560   3.371   2.913   0.585
10221SOL     OW31561   0.746   5.344   4.119
10221SOL    HW131562   0.811   5.386   4.055
10221SOL    HW231563   0.797   5.293   4.189
10222SOL     OW31564   3.594   3.430   4.155
10222SOL    HW131565   3.544   3.404   4.237
10222SOL    HW231566   3.640   3.350   4.117
10223SOL     OW31567   1.692   6.010   1.042
10223SOL    HW131568   1.629   6.054   1.106
10223SOL    HW231569   1.762   6.077   1.013
10224SOL     OW31570   5.991   3.881   3.150
10224SOL    HW131571   5.934   3.921   3.078
10224SOL    HW231572   6.084   3.916   3.142
10225SOL     OW31573   2.395   3.741   5.743
10225SOL    HW131574   2.476   3.784   5.703
10225SOL    HW231575   2.415   3.645   5.762
10226SOL     OW31576   4.786   3.012   0.375
10226SOL    HW131577   4.765   3.014   0.473
10226SOL    HW231578   4.793   3.105   0.340
10227SOL     OW31579   5.739   3.298   1.258
10227SOL    HW131580   5.821   3.296   1.201
10227SOL    HW231581   5.727   3.390   1.296
10228SOL     OW31582   5.216   0.579   0.791
10228SOL    HW131583   5.295   0.571   0.731
10228SOL    HW231584   5.185   0.487   0.818
10229SOL     OW31585   0.051   3.019   5.262
10229SOL    HW131586   0.139   2.985   5.227
10229SOL    HW231587   0.065   3.106   5.309
10230SOL     OW31588   0.105   6.038   1.930
10230SOL    HW131589   0.184   6.049   1.989
10230SOL    HW231590   0.132   6.052   1.834
10231SOL     OW31591   0.631   5.287   2.563
10231SOL    HW131592   0.707   5.240   2.518
10231SOL    HW231593   0.553   5.292   2.501
10232SOL     OW31594   5.042   4.575   3.522
10232SOL    HW131595   5.063   4.508   3.452
10232SOL    HW231596   4.951   4.556   3.560
10233SOL     OW31597   2.894   4.221   5.566
10233SOL    HW131598   2.856   4.191   5.478
10233SOL    HW231599   2.982   4.175   5.581
10234SOL     OW31600   0.633   1.266   1.945
10234SOL    HW131601   0.695   1.312   2.009
10234SOL    HW231602   0.614   1.174   1.977
10235SOL     OW31603   1.366   1.154   3.217
10235SOL    HW131604   1.269   1.158   3.242
10235SOL    HW231605   1.377   1.185   3.122
10236SOL     OW31606   1.744   6.997   2.153
10236SOL    HW131607   1.796   0.041   2.099
10236SOL    HW231608   1.804   6.923   2.185
10237SOL     OW31609   0.408   3.684   4.763
10237SOL    HW131610   0.375   3.769   4.723
10237SOL    HW231611   0.505   3.692   4.783
10238SOL     OW31612   2.852   0.229   1.646
10238SOL    HW131613   2.774   0.233   1.583
10238SOL    HW231614   2.904   0.315   1.640
10239SOL     OW31615   0.649   2.072   4.172
10239SOL    HW131616   0.562   2.096   4.216
10239SOL    HW231617   0.652   2.111   4.081
10240SOL     OW31618   1.756   6.199   0.780
10240SOL    HW131619   1.806   6.245   0.853
10240SOL    HW231620   1.658   6.212   0.794
10241SOL     OW31621   4.345   2.817   1.426
10241SOL    HW131622   4.337   2.878   1.505
10241SOL    HW231623   4.255   2.779   1.405
10242SOL     OW31624   0.349   3.041   6.552
10242SOL    HW131625   0.365   2.943   6.541
10242SOL    HW231626   0.428   3.091   6.517
10243SOL     OW31627   2.629   5.783   1.428
10243SOL    HW131628   2.574   5.751   1.351
10243SOL    HW231629   2.587   5.752   1.514
10244SOL     OW31630   2.604   5.106   2.102
10244SOL    HW131631   2.600   5.156   2.016
10244SOL    HW231632   2.640   5.166   2.174
10245SOL     OW31633   5.034   4.182   0.990
10245SOL    HW131634   5.068   4.125   1.066
10245SOL    HW231635   5.067   4.276   1.002
10246SOL     OW31636   3.034   3.174   3.981
10246SOL    HW131637   2.989   3.222   3.906
10246SOL    HW231638   3.132   3.167   3.962
10247SOL     OW31639   0.846   3.092   4.174
10247SOL    HW131640   0.783   3.096   4.096
10247SOL    HW231641   0.812   3.151   4.247
10248SOL     OW31642   0.910   1.266   4.377
10248SOL    HW131643   0.861   1.300   4.457
10248SOL    HW231644   0.864   1.298   4.294
10249SOL     OW31645   2.662   5.286   6.096
10249SOL    HW131646   2.586   5.224   6.118
10249SOL    HW231647   2.628   5.361   6.039
10250SOL     OW31648   3.711   2.468   0.625
10250SOL    HW131649   3.792   2.521   0.598
10250SOL    HW231650   3.654   2.524   0.685
10251SOL     OW31651   1.624   0.391   4.256
10251SOL    HW131652   1.646   0.300   4.291
10251SOL    HW231653   1.556   0.435   4.315
10252SOL     OW31654   5.537   4.517   5.874
10252SOL    HW131655   5.492   4.497   5.961
10252SOL    HW231656   5.594   4.439   5.848
10253SOL     OW31657   3.772   6.267   6.455
10253SOL    HW131658   3.779   6.283   6.554
10253SOL    HW231659   3.852   6.306   6.410
10254SOL     OW31660   6.100   1.956   5.914
10254SOL    HW131661   6.137   2.046   5.893
10254SOL    HW231662   6.080   1.908   5.829
10255SOL     OW31663   3.964   4.399   1.677
10255SOL    HW131664   3.976   4.346   1.593
10255SOL    HW231665   3.876   4.376   1.718
10256SOL     OW31666   3.852   1.174   3.739
10256SOL    HW131667   3.921   1.233   3.781
10256SOL    HW231668   3.762   1.216   3.747
10257SOL     OW31669   3.952   5.777   2.962
10257SOL    HW131670   4.031   5.834   2.942
10257SOL    HW231671   3.888   5.827   3.020
10258SOL     OW31672   2.374   1.544   2.352
10258SOL    HW131673   2.463   1.514   2.386
10258SOL    HW231674   2.327   1.467   2.309
10259SOL     OW31675   2.027   4.379   3.960
10259SOL    HW131676   1.927   4.375   3.967
10259SOL    HW231677   2.066   4.394   4.051
10260SOL     OW31678   0.223   0.392   2.766
10260SOL    HW131679   0.172   0.370   2.849
10260SOL    HW231680   0.299   0.452   2.788
10261SOL     OW31681   0.331   3.882   0.331
10261SOL    HW131682   0.426   3.900   0.306
10261SOL    HW231683   0.315   3.912   0.426
10262SOL     OW31684   4.251   1.012   0.372
10262SOL    HW131685   4.274   1.020   0.275
10262SOL    HW231686   4.287   0.927   0.408
10263SOL     OW31687   5.456   0.628   2.563
10263SOL    HW131688   5.372   0.603   2.612
10263SOL    HW231689   5.456   0.586   2.472
10264SOL     OW31690   6.491   0.218   6.622
10264SOL    HW131691   6.485   0.264   6.534
10264SOL    HW231692   6.567   0.255   6.674
10265SOL     OW31693   2.161   2.139   0.879
10265SOL    HW131694   2.240   2.084   0.856
10265SOL    HW231695   2.190   2.218   0.934
10266SOL     OW31696   2.651   3.373   1.756
10266SOL    HW131697   2.683   3.455   1.708
10266SOL    HW231698   2.555   3.387   1.783
10267SOL     OW31699   5.570   0.264   1.000
10267SOL    HW131700   5.654   0.288   0.953
10267SOL    HW231701   5.527   0.346   1.037
10268SOL     OW31702   3.756   6.245   2.280
10268SOL    HW131703   3.743   6.289   2.191
10268SOL    HW231704   3.759   6.315   2.351
10269SOL     OW31705   2.818   2.030   0.518
10269SOL    HW131706   2.886   2.101   0.502
10269SOL    HW231707   2.771   2.047   0.605
10270SOL     OW31708   3.123   0.702   3.080
10270SOL    HW131709   3.050   0.675   3.017
10270SOL    HW231710   3.083   0.737   3.165
10271SOL     OW31711   1.507   1.665   6.520
10271SOL    HW131712   1.606   1.664   6.537
10271SOL    HW231713   1.462   1.724   6.587
10272SOL     OW31714   6.186   0.161   4.670
10272SOL    HW131715   6.099   0.203   4.643
10272SOL    HW231716   6.230   0.121   4.589
10273SOL     OW31717   2.302   5.329   3.629
10273SOL    HW131718   2.243   5.398   3.586
10273SOL    HW231719   2.250   5.278   3.697
10274SOL     OW31720   1.180   4.813   4.940
10274SOL    HW131721   1.256   4.768   4.894
10274SOL    HW231722   1.205   4.908   4.959
10275SOL     OW31723   6.704   0.339   1.633
10275SOL    HW131724   6.798   0.306   1.623
10275SOL    HW231725   6.706   0.429   1.676
10276SOL     OW31726   3.738   5.567   4.949
10276SOL    HW131727   3.784   5.645   4.906
10276SOL    HW231728   3.699   5.596   5.036
10277SOL     OW31729   0.878   5.738   3.651
10277SOL    HW131730   0.945   5.701   3.715
10277SOL    HW231731   0.838   5.821   3.689
10278SOL     OW31732   6.776   0.248   5.161
10278SOL    HW131733   6.752   0.175   5.225
10278SOL    HW231734   6.803   0.208   5.074
10279SOL     OW31735   1.305   6.228   3.764
10279SOL    HW131736   1.208   6.249   3.777
10279SOL    HW231737   1.349   6.218   3.853
10280SOL     OW31738   6.757   4.794   0.055
10280SOL    HW131739   6.754   4.891   0.078
10280SOL    HW231740   6.735   4.739   0.135
10281SOL     OW31741   5.943   1.209   3.549
10281SOL    HW131742   5.882   1.209   3.470
10281SOL    HW231743   5.888   1.211   3.633
10282SOL     OW31744   5.031   3.250   3.496
10282SOL    HW131745   5.077   3.334   3.526
10282SOL    HW231746   5.098   3.180   3.473
10283SOL     OW31747   1.173   2.903   0.927
10283SOL    HW131748   1.110   2.845   0.875
10283SOL    HW231749   1.227   2.958   0.864
10284SOL     OW31750   7.016   4.042   4.543
10284SOL    HW131751   0.078   4.098   4.552
10284SOL    HW231752   0.017   3.947   4.564
10285SOL     OW31753   5.966   6.696   5.879
10285SOL    HW131754   6.043   6.696   5.943
10285SOL    HW231755   5.890   6.645   5.919
10286SOL     OW31756   2.727   1.765   3.211
10286SOL    HW131757   2.746   1.850   3.260
10286SOL    HW231758   2.641   1.725   3.245
10287SOL     OW31759   1.690   5.964   2.786
10287SOL    HW131760   1.692   5.949   2.885
10287SOL    HW231761   1.722   5.882   2.739
10288SOL     OW31762   3.873   6.296   5.339
10288SOL    HW131763   3.830   6.278   5.250
10288SOL    HW231764   3.809   6.348   5.396
10289SOL     OW31765   2.820   5.780   6.926
10289SOL    HW131766   2.896   5.718   6.945
10289SOL    HW231767   2.855   5.867   6.892
10290SOL     OW31768   3.491   3.082   2.028
10290SOL    HW131769   3.487   2.985   2.004
10290SOL    HW231770   3.548   3.130   1.962
10291SOL     OW31771   2.314   1.757   1.924
10291SOL    HW131772   2.357   1.673   1.891
10291SOL    HW231773   2.383   1.815   1.967
10292SOL     OW31774   6.811   7.003   5.808
10292SOL    HW131775   6.813   6.919   5.861
10292SOL    HW231776   6.858   6.988   5.720
10293SOL     OW31777   1.208   4.497   4.797
10293SOL    HW131778   1.235   4.547   4.714
10293SOL    HW231779   1.281   4.433   4.822
10294SOL     OW31780   3.598   0.948   2.404
10294SOL    HW131781   3.629   0.892   2.327
10294SOL    HW231782   3.498   0.942   2.411
10295SOL     OW31783   1.329   1.535   6.346
10295SOL    HW131784   1.364   1.570   6.433
10295SOL    HW231785   1.298   1.612   6.289
10296SOL     OW31786   6.099   1.355   5.945
10296SOL    HW131787   6.031   1.320   5.880
10296SOL    HW231788   6.082   1.453   5.960
10297SOL     OW31789   3.275   1.318   0.137
10297SOL    HW131790   3.250   1.301   0.042
10297SOL    HW231791   3.194   1.347   0.188
10298SOL     OW31792   0.261   2.711   2.139
10298SOL    HW131793   0.208   2.627   2.133
10298SOL    HW231794   0.281   2.745   2.047
10299SOL     OW31795   4.505   6.960   3.124
10299SOL    HW131796   4.491   6.888   3.057
10299SOL    HW231797   4.420   6.977   3.174
10300SOL     OW31798   1.195   4.125   1.697
10300SOL    HW131799   1.229   4.032   1.712
10300SOL    HW231800   1.252   4.170   1.629
10301SOL     OW31801   3.566   0.727   0.177
10301SOL    HW131802   3.637   0.683   0.232
10301SOL    HW231803   3.482   0.675   0.183
10302SOL     OW31804   2.820   6.214   5.444
10302SOL    HW131805   2.887   6.169   5.384
10302SOL    HW231806   2.867   6.282   5.500
10303SOL     OW31807   0.654   5.284   4.650
10303SOL    HW131808   0.633   5.260   4.745
10303SOL    HW231809   0.634   5.205   4.591
10304SOL     OW31810   5.875   6.515   0.940
10304SOL    HW131811   5.778   6.492   0.936
10304SOL    HW231812   5.927   6.452   0.882
10305SOL     OW31813   3.255   3.873   5.941
10305SOL    HW131814   3.194   3.794   5.945
10305SOL    HW231815   3.220   3.945   6.000
10306SOL     OW31816   3.834   0.737   1.220
10306SOL    HW131817   3.883   0.759   1.136
10306SOL    HW231818   3.756   0.678   1.199
10307SOL     OW31819   2.142   0.550   5.663
10307SOL    HW131820   2.079   0.625   5.645
10307SOL    HW231821   2.109   0.496   5.741
10308SOL     OW31822   2.806   4.848   1.867
10308SOL    HW131823   2.730   4.853   1.803
10308SOL    HW231824   2.806   4.757   1.911
10309SOL     OW31825   0.473   1.162   4.980
10309SOL    HW131826   0.550   1.159   5.044
10309SOL    HW231827   0.505   1.192   4.891
10310SOL     OW31828   2.189   3.921   5.785
10310SOL    HW131829   2.275   3.870   5.779
10310SOL    HW231830   2.193   4.000   5.725
10311SOL     OW31831   5.317   5.135   6.979
10311SOL    HW131832   5.316   5.186   0.045
10311SOL    HW231833   5.239   5.162   6.923
10312SOL     OW31834   3.819   6.973   1.943
10312SOL    HW131835   3.805   6.975   2.042
10312SOL    HW231836   3.739   7.013   1.898
10313SOL     OW31837   5.418   6.504   2.796
10313SOL    HW131838   5.510   6.489   2.760
10313SOL    HW231839   5.390   6.424   2.849
10314SOL     OW31840   0.287   0.103   1.065
10314SOL    HW131841   0.324   0.130   1.154
10314SOL    HW231842   0.240   0.015   1.075
10315SOL     OW31843   5.885   5.240   3.680
10315SOL    HW131844   5.812   5.263   3.745
10315SOL    HW231845   5.973   5.264   3.720
10316SOL     OW31846   0.417   1.802   6.749
10316SOL    HW131847   0.461   1.869   6.808
10316SOL    HW231848   0.483   1.770   6.680
10317SOL     OW31849   3.302   6.272   5.065
10317SOL    HW131850   3.372   6.274   4.994
10317SOL    HW231851   3.213   6.296   5.025
10318SOL     OW31852   6.366   0.232   0.049
10318SOL    HW131853   6.284   0.243   7.013
10318SOL    HW231854   6.339   0.215   0.144
10319SOL     OW31855   0.589   4.222   3.726
10319SOL    HW131856   0.639   4.136   3.738
10319SOL    HW231857   0.503   4.204   3.677
10320SOL     OW31858   0.490   6.748   3.347
10320SOL    HW131859   0.507   6.724   3.251
10320SOL    HW231860   0.575   6.780   3.388
10321SOL     OW31861   5.495   2.909   2.358
10321SOL    HW131862   5.437   2.990   2.359
10321SOL    HW231863   5.581   2.928   2.404
10322SOL     OW31864   4.600   4.483   4.902
10322SOL    HW131865   4.624   4.576   4.873
10322SOL    HW231866   4.503   4.478   4.925
10323SOL     OW31867   0.977   4.234   5.877
10323SOL    HW131868   0.963   4.139   5.905
10323SOL    HW231869   0.990   4.238   5.778
10324SOL     OW31870   3.235   3.126   1.928
10324SOL    HW131871   3.197   3.081   2.009
10324SOL    HW231872   3.330   3.099   1.917
10325SOL     OW31873   6.574   5.795   3.850
10325SOL    HW131874   6.546   5.700   3.838
10325SOL    HW231875   6.552   5.847   3.768
10326SOL     OW31876   5.374   3.793   6.350
10326SOL    HW131877   5.414   3.826   6.435
10326SOL    HW231878   5.343   3.871   6.295
10327SOL     OW31879   2.289   4.626   0.694
10327SOL    HW131880   2.348   4.634   0.774
10327SOL    HW231881   2.314   4.695   0.627
10328SOL     OW31882   5.787   1.968   2.379
10328SOL    HW131883   5.784   2.057   2.423
10328SOL    HW231884   5.708   1.958   2.318
10329SOL     OW31885   3.796   2.127   2.775
10329SOL    HW131886   3.700   2.144   2.798
10329SOL    HW231887   3.801   2.074   2.690
10330SOL     OW31888   5.292   0.764   2.003
10330SOL    HW131889   5.262   0.810   1.919
10330SOL    HW231890   5.212   0.733   2.054
10331SOL     OW31891   6.131   5.832   5.978
10331SOL    HW131892   6.220   5.803   6.014
10331SOL    HW231893   6.118   5.929   5.995
10332SOL     OW31894   1.296   1.289   6.082
10332SOL    HW131895   1.240   1.308   6.163
10332SOL    HW231896   1.352   1.208   6.099
10333SOL     OW31897   1.382   4.124   4.314
10333SOL    HW131898   1.444   4.059   4.358
10333SOL    HW231899   1.289   4.112   4.351
10334SOL     OW31900   3.360   1.397   3.726
10334SOL    HW131901   3.271   1.438   3.705
10334SOL    HW231902   3.419   1.466   3.769
10335SOL     OW31903   1.049   2.185   5.027
10335SOL    HW131904   1.078   2.280   5.017
10335SOL    HW231905   1.126   2.130   5.059
10336SOL     OW31906   5.416   6.768   3.138
10336SOL    HW131907   5.451   6.702   3.205
10336SOL    HW231908   5.322   6.793   3.162
10337SOL     OW31909   6.690   5.622   6.813
10337SOL    HW131910   6.764   5.620   6.881
10337SOL    HW231911   6.623   5.692   6.840
10338SOL     OW31912   1.277   6.509   2.025
10338SOL    HW131913   1.323   6.428   2.063
10338SOL    HW231914   1.180   6.489   2.011
10339SOL     OW31915   5.950   2.513   6.254
10339SOL    HW131916   6.016   2.485   6.185
10339SOL    HW231917   5.860   2.524   6.212
10340SOL     OW31918   2.465   3.199   6.174
10340SOL    HW131919   2.439   3.146   6.255
10340SOL    HW231920   2.557   3.236   6.187
10341SOL     OW31921   2.150   3.254   3.210
10341SOL    HW131922   2.099   3.285   3.290
10341SOL    HW231923   2.225   3.318   3.192
10342SOL     OW31924   0.348   1.239   3.822
10342SOL    HW131925   0.359   1.337   3.837
10342SOL    HW231926   0.274   1.204   3.880
10343SOL     OW31927   3.303   5.809   2.209
10343SOL    HW131928   3.337   5.715   2.212
10343SOL    HW231929   3.270   5.830   2.117
10344SOL     OW31930   4.826   6.147   6.449
10344SOL    HW131931   4.813   6.236   6.493
10344SOL    HW231932   4.921   6.118   6.460
10345SOL     OW31933   1.900   3.438   4.356
10345SOL    HW131934   1.984   3.483   4.326
10345SOL    HW231935   1.826   3.460   4.292
10346SOL     OW31936   6.918   6.086   7.016
10346SOL    HW131937   6.945   6.066   0.090
10346SOL    HW231938   6.877   6.177   7.012
10347SOL     OW31939   5.017   1.788   4.596
10347SOL    HW131940   5.035   1.886   4.602
10347SOL    HW231941   4.919   1.773   4.581
10348SOL     OW31942   6.478   4.539   0.595
10348SOL    HW131943   6.542   4.616   0.605
10348SOL    HW231944   6.473   4.512   0.499
10349SOL     OW31945   0.986   0.138   6.085
10349SOL    HW131946   0.942   0.214   6.037
10349SOL    HW231947   0.973   0.053   6.032
10350SOL     OW31948   2.762   0.194   6.196
10350SOL    HW131949   2.824   0.165   6.124
10350SOL    HW231950   2.809   0.259   6.256
10351SOL     OW31951   4.103   5.488   6.437
10351SOL    HW131952   4.053   5.557   6.489
10351SOL    HW231953   4.168   5.532   6.376
10352SOL     OW31954   3.496   4.351   6.426
10352SOL    HW131955   3.575   4.310   6.380
10352SOL    HW231956   3.459   4.286   6.493
10353SOL     OW31957   0.966   3.096   4.722
10353SOL    HW131958   0.906   3.080   4.644
10353SOL    HW231959   0.992   3.193   4.725
10354SOL     OW31960   5.230   1.914   1.581
10354SOL    HW131961   5.133   1.911   1.606
10354SOL    HW231962   5.238   1.952   1.488
10355SOL     OW31963   1.293   5.060   2.973
10355SOL    HW131964   1.348   5.064   3.056
10355SOL    HW231965   1.337   4.998   2.907
10356SOL     OW31966   0.362   2.441   4.583
10356SOL    HW131967   0.314   2.465   4.667
10356SOL    HW231968   0.299   2.398   4.519
10357SOL     OW31969   2.801   2.109   0.231
10357SOL    HW131970   2.802   2.176   0.156
10357SOL    HW231971   2.711   2.107   0.273
10358SOL     OW31972   0.023   1.720   1.979
10358SOL    HW131973   7.017   1.812   2.005
10358SOL    HW231974   0.123   1.716   1.971
10359SOL     OW31975   0.612   1.668   1.166
10359SOL    HW131976   0.644   1.680   1.260
10359SOL    HW231977   0.527   1.718   1.153
10360SOL     OW31978   6.918   5.645   2.920
10360SOL    HW131979   7.018   5.633   2.923
10360SOL    HW231980   6.887   5.641   2.825
10361SOL     OW31981   1.635   4.961   1.268
10361SOL    HW131982   1.600   4.957   1.362
10361SOL    HW231983   1.561   4.989   1.206
10362SOL     OW31984   1.852   5.246   4.633
10362SOL    HW131985   1.832   5.197   4.549
10362SOL    HW231986   1.780   5.312   4.652
10363SOL     OW31987   5.912   7.020   3.526
10363SOL    HW131988   5.909   0.078   3.463
10363SOL    HW231989   5.998   6.971   3.513
10364SOL     OW31990   1.457   4.644   1.406
10364SOL    HW131991   1.521   4.711   1.445
10364SOL    HW231992   1.383   4.628   1.471
10365SOL     OW31993   4.713   6.207   0.043
10365SOL    HW131994   4.731   6.138   6.993
10365SOL    HW231995   4.626   6.253   0.024
10366SOL     OW31996   3.705   6.637   3.742
10366SOL    HW131997   3.684   6.722   3.790
10366SOL    HW231998   3.804   6.632   3.727
10367SOL     OW31999   6.593   1.743   3.392
10367SOL    HW132000   6.565   1.681   3.465
10367SOL    HW232001   6.692   1.734   3.377
10368SOL     OW32002   2.899   0.109   1.305
10368SOL    HW132003   2.904   0.038   1.376
10368SOL    HW232004   2.804   0.120   1.276
10369SOL     OW32005   4.268   3.050   0.022
10369SOL    HW132006   4.281   2.969   6.987
10369SOL    HW232007   4.174   3.083   0.012
10370SOL     OW32008   4.320   0.501   5.125
10370SOL    HW132009   4.291   0.412   5.091
10370SOL    HW232010   4.416   0.496   5.154
10371SOL     OW32011   5.198   6.359   5.644
10371SOL    HW132012   5.263   6.388   5.574
10371SOL    HW232013   5.218   6.406   5.730
10372SOL     OW32014   1.022   0.487   3.434
10372SOL    HW132015   0.990   0.581   3.444
10372SOL    HW232016   1.111   0.477   3.479
10373SOL     OW32017   1.840   5.457   5.248
10373SOL    HW132018   1.924   5.503   5.221
10373SOL    HW232019   1.808   5.493   5.335
10374SOL     OW32020   2.872   2.019   4.653
10374SOL    HW132021   2.947   1.956   4.673
10374SOL    HW232022   2.894   2.110   4.687
10375SOL     OW32023   0.084   2.142   0.454
10375SOL    HW132024   0.132   2.070   0.504
10375SOL    HW232025   0.009   2.102   0.402
10376SOL     OW32026   6.357   0.659   3.367
10376SOL    HW132027   6.369   0.759   3.370
10376SOL    HW232028   6.365   0.627   3.273
10377SOL     OW32029   0.549   6.698   4.283
10377SOL    HW132030   0.599   6.633   4.226
10377SOL    HW232031   0.454   6.705   4.250
10378SOL     OW32032   6.629   6.959   5.584
10378SOL    HW132033   6.641   6.987   5.679
10378SOL    HW232034   6.569   6.878   5.580
10379SOL     OW32035   4.997   1.490   4.698
10379SOL    HW132036   5.030   1.402   4.664
10379SOL    HW232037   5.001   1.557   4.625
10380SOL     OW32038   4.471   1.066   3.898
10380SOL    HW132039   4.569   1.079   3.911
10380SOL    HW232040   4.439   0.993   3.957
10381SOL     OW32041   4.482   5.662   4.987
10381SOL    HW132042   4.525   5.596   4.924
10381SOL    HW232043   4.404   5.705   4.941
10382SOL     OW32044   1.589   5.886   0.461
10382SOL    HW132045   1.642   5.963   0.496
10382SOL    HW232046   1.583   5.816   0.531
10383SOL     OW32047   5.469   2.533   6.945
10383SOL    HW132048   5.444   2.596   6.872
10383SOL    HW232049   5.449   2.439   6.918
10384SOL     OW32050   6.085   0.942   6.641
10384SOL    HW132051   6.123   0.880   6.709
10384SOL    HW232052   6.086   1.036   6.677
10385SOL     OW32053   6.153   2.198   6.916
10385SOL    HW132054   6.181   2.234   7.006
10385SOL    HW232055   6.231   2.200   6.854
10386SOL     OW32056   6.559   1.605   6.461
10386SOL    HW132057   6.577   1.609   6.362
10386SOL    HW232058   6.527   1.694   6.493
10387SOL     OW32059   1.973   4.042   2.300
10387SOL    HW132060   2.013   3.961   2.341
10387SOL    HW232061   1.952   4.024   2.203
10388SOL     OW32062   1.408   5.138   2.444
10388SOL    HW132063   1.474   5.178   2.507
10388SOL    HW232064   1.413   5.038   2.449
10389SOL     OW32065   0.648   5.473   3.786
10389SOL    HW132066   0.562   5.463   3.736
10389SOL    HW232067   0.641   5.551   3.848
10390SOL     OW32068   2.017   3.763   3.409
10390SOL    HW132069   2.056   3.738   3.497
10390SOL    HW232070   2.045   3.856   3.385
10391SOL     OW32071   3.594   6.229   4.881
10391SOL    HW132072   3.536   6.148   4.875
10391SOL    HW232073   3.650   6.237   4.798
10392SOL     OW32074   6.529   5.372   6.935
10392SOL    HW132075   6.512   5.281   6.974
10392SOL    HW232076   6.613   5.371   6.882
10393SOL     OW32077   0.795   1.489   4.171
10393SOL    HW132078   0.700   1.482   4.143
10393SOL    HW232079   0.849   1.420   4.122
10394SOL     OW32080   3.328   6.437   0.707
10394SOL    HW132081   3.425   6.455   0.691
10394SOL    HW232082   3.279   6.524   0.715
10395SOL     OW32083   1.537   1.471   5.118
10395SOL    HW132084   1.477   1.391   5.116
10395SOL    HW232085   1.519   1.528   5.037
10396SOL     OW32086   0.728   6.901   4.757
10396SOL    HW132087   0.661   6.947   4.699
10396SOL    HW232088   0.756   6.961   4.831
10397SOL     OW32089   4.099   1.923   2.889
10397SOL    HW132090   4.052   2.009   2.908
10397SOL    HW232091   4.117   1.916   2.791
10398SOL     OW32092   6.730   3.617   2.090
10398SOL    HW132093   6.762   3.526   2.115
10398SOL    HW232094   6.743   3.631   1.992
10399SOL     OW32095   6.016   2.419   5.986
10399SOL    HW132096   6.083   2.436   5.914
10399SOL    HW232097   5.924   2.415   5.947
10400SOL     OW32098   1.153   4.922   2.230
10400SOL    HW132099   1.151   4.957   2.324
10400SOL    HW232100   1.100   4.837   2.225
10401SOL     OW32101   0.513   5.145   0.845
10401SOL    HW132102   0.484   5.164   0.752
10401SOL    HW232103   0.522   5.231   0.896
10402SOL     OW32104   1.028   1.956   4.826
10402SOL    HW132105   1.096   2.025   4.800
10402SOL    HW232106   0.937   1.989   4.801
10403SOL     OW32107   5.019   1.049   2.202
10403SOL    HW132108   5.036   1.003   2.289
10403SOL    HW232109   4.954   0.995   2.148
10404SOL     OW32110   0.044   0.245   4.146
10404SOL    HW132111   0.007   0.159   4.181
10404SOL    HW232112   0.136   0.229   4.111
10405SOL     OW32113   2.017   6.737   6.812
10405SOL    HW132114   2.075   6.693   6.744
10405SOL    HW232115   1.991   6.828   6.779
10406SOL     OW32116   2.056   5.936   5.640
10406SOL    HW132117   2.089   6.030   5.631
10406SOL    HW232118   2.123   5.881   5.689
10407SOL     OW32119   1.833   1.288   6.249
10407SOL    HW132120   1.734   1.281   6.232
10407SOL    HW232121   1.872   1.354   6.186
10408SOL     OW32122   4.118   5.981   3.345
10408SOL    HW132123   4.084   5.888   3.332
10408SOL    HW232124   4.058   6.046   3.299
10409SOL     OW32125   6.692   4.353   2.817
10409SOL    HW132126   6.646   4.410   2.749
10409SOL    HW232127   6.742   4.280   2.772
10410SOL     OW32128   5.607   6.462   0.893
10410SOL    HW132129   5.569   6.402   0.823
10410SOL    HW232130   5.536   6.487   0.958
10411SOL     OW32131   1.350   4.895   2.768
10411SOL    HW132132   1.434   4.841   2.762
10411SOL    HW232133   1.284   4.863   2.700
10412SOL     OW32134   7.004   2.199   6.289
10412SOL    HW132135   6.936   2.173   6.359
10412SOL    HW232136   7.000   2.297   6.274
10413SOL     OW32137   0.564   1.920   5.596
10413SOL    HW132138   0.654   1.959   5.614
10413SOL    HW232139   0.503   1.937   5.674
10414SOL     OW32140   5.839   6.424   5.286
10414SOL    HW132141   5.750   6.423   5.241
10414SOL    HW232142   5.832   6.381   5.376
10415SOL     OW32143   0.172   5.650   2.919
10415SOL    HW132144   0.221   5.609   2.996
10415SOL    HW232145   0.233   5.714   2.871
10416SOL     OW32146   4.898   0.030   0.298
10416SOL    HW132147   4.953   0.004   0.377
10416SOL    HW232148   4.832   0.100   0.325
10417SOL     OW32149   4.356   4.706   4.192
10417SOL    HW132150   4.346   4.725   4.290
10417SOL    HW232151   4.417   4.774   4.151
10418SOL     OW32152   5.918   4.084   6.822
10418SOL    HW132153   5.927   4.181   6.841
10418SOL    HW232154   5.837   4.069   6.765
10419SOL     OW32155   2.050   0.300   4.370
10419SOL    HW132156   2.009   0.348   4.292
10419SOL    HW232157   1.986   0.299   4.446
10420SOL     OW32158   5.837   3.517   4.723
10420SOL    HW132159   5.828   3.418   4.738
10420SOL    HW232160   5.899   3.555   4.792
10421SOL     OW32161   1.467   4.611   3.842
10421SOL    HW132162   1.390   4.613   3.779
10421SOL    HW232163   1.465   4.526   3.895
10422SOL     OW32164   5.741   3.211   5.860
10422SOL    HW132165   5.784   3.295   5.894
10422SOL    HW232166   5.641   3.222   5.863
10423SOL     OW32167   2.805   5.255   3.528
10423SOL    HW132168   2.887   5.309   3.544
10423SOL    HW232169   2.749   5.253   3.611
10424SOL     OW32170   4.136   1.178   1.828
10424SOL    HW132171   4.077   1.220   1.898
10424SOL    HW232172   4.120   1.079   1.828
10425SOL     OW32173   1.669   3.733   0.429
10425SOL    HW132174   1.677   3.790   0.511
10425SOL    HW232175   1.709   3.643   0.446
10426SOL     OW32176   6.260   2.044   6.646
10426SOL    HW132177   6.279   2.030   6.549
10426SOL    HW232178   6.263   2.142   6.667
10427SOL     OW32179   5.790   0.855   3.380
10427SOL    HW132180   5.727   0.933   3.377
10427SOL    HW232181   5.738   0.770   3.371
10428SOL     OW32182   1.426   6.574   4.705
10428SOL    HW132183   1.466   6.491   4.743
10428SOL    HW232184   1.328   6.559   4.686
10429SOL     OW32185   2.181   4.376   1.689
10429SOL    HW132186   2.275   4.400   1.666
10429SOL    HW232187   2.153   4.294   1.638
10430SOL     OW32188   3.985   0.340   4.655
10430SOL    HW132189   4.048   0.287   4.598
10430SOL    HW232190   3.899   0.289   4.665
10431SOL     OW32191   4.119   1.730   4.200
10431SOL    HW132192   4.035   1.780   4.221
10431SOL    HW232193   4.126   1.651   4.261
10432SOL     OW32194   1.350   5.025   0.584
10432SOL    HW132195   1.263   5.041   0.630
10432SOL    HW232196   1.340   4.951   0.518
10433SOL     OW32197   4.090   6.674   4.033
10433SOL    HW132198   4.180   6.660   4.073
10433SOL    HW232199   4.024   6.614   4.078
10434SOL     OW32200   4.025   1.013   6.787
10434SOL    HW132201   4.012   1.002   6.689
10434SOL    HW232202   4.119   0.989   6.812
10435SOL     OW32203   2.180   1.584   1.489
10435SOL    HW132204   2.262   1.623   1.532
10435SOL    HW232205   2.149   1.644   1.415
10436SOL     OW32206   1.162   3.599   4.447
10436SOL    HW132207   1.121   3.517   4.408
10436SOL    HW232208   1.250   3.576   4.488
10437SOL     OW32209   0.014   6.117   4.901
10437SOL    HW132210   0.070   6.036   4.916
10437SOL    HW232211   6.949   6.091   4.857
10438SOL     OW32212   6.773   5.740   6.561
10438SOL    HW132213   6.706   5.779   6.498
10438SOL    HW232214   6.726   5.691   6.634
10439SOL     OW32215   6.230   5.617   4.657
10439SOL    HW132216   6.290   5.601   4.735
10439SOL    HW232217   6.265   5.694   4.603
10440SOL     OW32218   5.978   2.758   1.086
10440SOL    HW132219   6.019   2.786   0.999
10440SOL    HW232220   6.035   2.689   1.129
10441SOL     OW32221   4.400   2.167   0.085
10441SOL    HW132222   4.479   2.191   0.140
10441SOL    HW232223   4.374   2.072   0.102
10442SOL     OW32224   2.893   1.070   5.037
10442SOL    HW132225   2.986   1.046   5.008
10442SOL    HW232226   2.855   1.137   4.973
10443SOL     OW32227   0.479   0.498   0.100
10443SOL    HW132228   0.388   0.538   0.099
10443SOL    HW232229   0.501   0.463   0.191
10444SOL     OW32230   4.489   4.910   3.764
10444SOL    HW132231   4.393   4.890   3.785
10444SOL    HW232232   4.548   4.855   3.822
10445SOL     OW32233   1.110   3.304   3.758
10445SOL    HW132234   1.186   3.305   3.823
10445SOL    HW232235   1.099   3.396   3.719
10446SOL     OW32236   2.383   5.091   4.766
10446SOL    HW132237   2.291   5.129   4.754
10446SOL    HW232238   2.422   5.070   4.676
10447SOL     OW32239   0.969   1.821   2.582
10447SOL    HW132240   0.954   1.834   2.680
10447SOL    HW232241   1.051   1.870   2.554
10448SOL     OW32242   1.203   6.141   2.314
10448SOL    HW132243   1.212   6.047   2.281
10448SOL    HW232244   1.126   6.147   2.377
10449SOL     OW32245   3.855   4.903   4.424
10449SOL    HW132246   3.832   4.885   4.329
10449SOL    HW232247   3.935   4.849   4.450
10450SOL     OW32248   0.587   2.210   3.938
10450SOL    HW132249   0.656   2.202   3.866
10450SOL    HW232250   0.497   2.191   3.898
10451SOL     OW32251   3.349   2.035   3.977
10451SOL    HW132252   3.257   1.997   3.983
10451SOL    HW232253   3.366   2.067   3.884
10452SOL     OW32254   6.830   2.905   4.771
10452SOL    HW132255   6.785   2.987   4.738
10452SOL    HW232256   6.877   2.925   4.857
10453SOL     OW32257   4.120   5.549   4.246
10453SOL    HW132258   4.209   5.503   4.242
10453SOL    HW232259   4.051   5.485   4.280
10454SOL     OW32260   6.583   1.104   6.781
10454SOL    HW132261   6.658   1.153   6.825
10454SOL    HW232262   6.575   1.135   6.686
10455SOL     OW32263   0.547   6.240   2.420
10455SOL    HW132264   0.548   6.155   2.367
10455SOL    HW232265   0.575   6.316   2.361
10456SOL     OW32266   1.377   5.503   6.082
10456SOL    HW132267   1.397   5.546   6.171
10456SOL    HW232268   1.445   5.432   6.063
10457SOL     OW32269   4.194   1.682   0.108
10457SOL    HW132270   4.236   1.597   0.140
10457SOL    HW232271   4.145   1.665   0.023
10458SOL     OW32272   1.270   6.226   6.988
10458SOL    HW132273   1.336   6.298   6.966
10458SOL    HW232274   1.219   6.201   6.906
10459SOL     OW32275   6.193   5.756   1.065
10459SOL    HW132276   6.113   5.800   1.107
10459SOL    HW232277   6.195   5.778   0.968
10460SOL     OW32278   6.167   0.865   0.152
10460SOL    HW132279   6.237   0.798   0.130
10460SOL    HW232280   6.202   0.958   0.136
10461SOL     OW32281   6.915   4.082   6.255
10461SOL    HW132282   6.820   4.050   6.246
10461SOL    HW232283   6.972   4.008   6.290
10462SOL     OW32284   3.222   3.620   6.439
10462SOL    HW132285   3.281   3.604   6.361
10462SOL    HW232286   3.277   3.638   6.520
10463SOL     OW32287   4.737   2.857   6.407
10463SOL    HW132288   4.751   2.868   6.308
10463SOL    HW232289   4.820   2.818   6.448
10464SOL     OW32290   6.378   4.410   2.069
10464SOL    HW132291   6.365   4.389   2.166
10464SOL    HW232292   6.289   4.414   2.023
10465SOL     OW32293   5.623   4.550   1.655
10465SOL    HW132294   5.722   4.560   1.644
10465SOL    HW232295   5.604   4.466   1.706
10466SOL     OW32296   5.669   3.585   5.775
10466SOL    HW132297   5.761   3.625   5.775
10466SOL    HW232298   5.634   3.581   5.869
10467SOL     OW32299   0.102   2.759   6.741
10467SOL    HW132300   0.055   2.676   6.769
10467SOL    HW232301   0.135   2.750   6.647
10468SOL     OW32302   1.658   4.162   4.233
10468SOL    HW132303   1.558   4.168   4.237
10468SOL    HW232304   1.697   4.239   4.285
10469SOL     OW32305   0.901   1.932   3.801
10469SOL    HW132306   0.933   1.962   3.890
10469SOL    HW232307   0.873   1.836   3.806
10470SOL     OW32308   2.245   3.905   2.115
10470SOL    HW132309   2.205   3.927   2.026
10470SOL    HW232310   2.288   3.814   2.110
10471SOL     OW32311   2.428   5.220   6.820
10471SOL    HW132312   2.337   5.210   6.779
10471SOL    HW232313   2.424   5.197   6.917
10472SOL     OW32314   3.975   5.608   5.997
10472SOL    HW132315   3.971   5.704   6.025
10472SOL    HW232316   3.883   5.576   5.975
10473SOL     OW32317   6.214   4.927   6.996
10473SOL    HW132318   6.139   4.964   6.941
10473SOL    HW232319   6.227   4.984   0.057
10474SOL     OW32320   6.563   6.719   5.259
10474SOL    HW132321   6.490   6.786   5.270
10474SOL    HW232322   6.638   6.760   5.206
10475SOL     OW32323   0.672   5.050   1.494
10475SOL    HW132324   0.597   5.104   1.532
10475SOL    HW232325   0.723   5.007   1.568
10476SOL     OW32326   5.132   6.339   1.049
10476SOL    HW132327   5.061   6.306   0.987
10476SOL    HW232328   5.214   6.362   0.996
10477SOL     OW32329   0.060   5.717   3.810
10477SOL    HW132330   0.131   5.771   3.765
10477SOL    HW232331   0.070   5.620   3.785
10478SOL     OW32332   0.171   0.825   6.347
10478SOL    HW132333   0.246   0.763   6.323
10478SOL    HW232334   0.084   0.782   6.324
10479SOL     OW32335   0.590   3.368   1.836
10479SOL    HW132336   0.610   3.285   1.784
10479SOL    HW232337   0.671   3.427   1.836
10480SOL     OW32338   2.616   0.963   3.157
10480SOL    HW132339   2.701   0.986   3.205
10480SOL    HW232340   2.540   1.013   3.197
10481SOL     OW32341   6.912   1.497   1.429
10481SOL    HW132342   6.913   1.398   1.418
10481SOL    HW232343   6.963   1.540   1.354
10482SOL     OW32344   5.428   3.217   4.312
10482SOL    HW132345   5.490   3.227   4.390
10482SOL    HW232346   5.453   3.135   4.261
10483SOL     OW32347   5.806   0.103   6.997
10483SOL    HW132348   5.829   0.111   6.900
10483SOL    HW232349   5.706   0.099   7.008
10484SOL     OW32350   6.658   0.785   1.864
10484SOL    HW132351   6.731   0.813   1.926
10484SOL    HW232352   6.692   0.781   1.770
10485SOL     OW32353   5.576   3.187   4.934
10485SOL    HW132354   5.650   3.227   4.881
10485SOL    HW232355   5.515   3.136   4.873
10486SOL     OW32356   5.055   2.490   2.835
10486SOL    HW132357   5.149   2.489   2.869
10486SOL    HW232358   5.051   2.441   2.748
10487SOL     OW32359   4.309   6.945   2.430
10487SOL    HW132360   4.321   6.946   2.529
10487SOL    HW232361   4.252   6.868   2.404
10488SOL     OW32362   3.805   4.005   6.867
10488SOL    HW132363   3.876   4.020   6.936
10488SOL    HW232364   3.848   3.980   6.780
10489SOL     OW32365   1.713   5.178   5.169
10489SOL    HW132366   1.713   5.270   5.131
10489SOL    HW232367   1.796   5.130   5.140
10490SOL     OW32368   6.174   0.424   4.223
10490SOL    HW132369   6.079   0.433   4.194
10490SOL    HW232370   6.208   0.333   4.200
10491SOL     OW32371   0.224   4.664   5.241
10491SOL    HW132372   0.179   4.598   5.300
10491SOL    HW232373   0.233   4.752   5.290
10492SOL     OW32374   3.938   4.604   5.773
10492SOL    HW132375   3.869   4.532   5.767
10492SOL    HW232376   3.904   4.686   5.726
10493SOL     OW32377   3.405   1.529   0.935
10493SOL    HW132378   3.489   1.516   0.987
10493SOL    HW232379   3.397   1.457   0.866
10494SOL     OW32380   5.272   1.881   5.933
10494SOL    HW132381   5.178   1.866   5.900
10494SOL    HW232382   5.315   1.953   5.878
10495SOL     OW32383   1.467   6.887   6.733
10495SOL    HW132384   1.565   6.884   6.714
10495SOL    HW232385   1.418   6.912   6.649
10496SOL     OW32386   6.272   0.484   5.396
10496SOL    HW132387   6.324   0.544   5.336
10496SOL    HW232388   6.261   0.527   5.485
10497SOL     OW32389   1.366   1.817   6.717
10497SOL    HW132390   1.288   1.852   6.666
10497SOL    HW232391   1.432   1.890   6.732
10498SOL     OW32392   2.841   4.433   6.001
10498SOL    HW132393   2.851   4.533   5.999
10498SOL    HW232394   2.821   4.400   5.909
10499SOL     OW32395   3.225   5.680   3.342
10499SOL    HW132396   3.154   5.613   3.318
10499SOL    HW232397   3.245   5.737   3.263
10500SOL     OW32398   2.395   2.234   6.571
10500SOL    HW132399   2.329   2.295   6.528
10500SOL    HW232400   2.394   2.248   6.670
10501SOL     OW32401   1.092   3.409   3.108
10501SOL    HW132402   1.048   3.434   3.194
10501SOL    HW232403   1.151   3.484   3.077
10502SOL     OW32404   3.033   5.440   5.122
10502SOL    HW132405   2.975   5.380   5.068
10502SOL    HW232406   3.078   5.388   5.194
10503SOL     OW32407   2.923   3.130   5.557
10503SOL    HW132408   2.869   3.146   5.474
10503SOL    HW232409   3.020   3.136   5.535
10504SOL     OW32410   2.072   3.444   1.584
10504SOL    HW132411   2.152   3.494   1.550
10504SOL    HW232412   1.998   3.450   1.517
10505SOL     OW32413   6.884   6.955   0.985
10505SOL    HW132414   6.958   7.017   0.958
10505SOL    HW232415   6.876   6.881   0.918
10506SOL     OW32416   0.314   3.882   5.196
10506SOL    HW132417   0.262   3.934   5.128
10506SOL    HW232418   0.269   3.794   5.212
10507SOL     OW32419   1.895   0.296   3.308
10507SOL    HW132420   1.946   0.251   3.381
10507SOL    HW232421   1.959   0.344   3.248
10508SOL     OW32422   5.460   3.637   2.487
10508SOL    HW132423   5.389   3.666   2.423
10508SOL    HW232424   5.420   3.572   2.552
10509SOL     OW32425   2.424   0.705   5.877
10509SOL    HW132426   2.393   0.628   5.933
10509SOL    HW232427   2.408   0.791   5.926
10510SOL     OW32428   5.803   6.806   6.858
10510SOL    HW132429   5.815   6.710   6.883
10510SOL    HW232430   5.808   6.816   6.759
10511SOL     OW32431   0.534   2.045   0.573
10511SOL    HW132432   0.478   2.074   0.495
10511SOL    HW232433   0.475   2.005   0.643
10512SOL     OW32434   2.857   0.412   6.341
10512SOL    HW132435   2.865   0.405   6.441
10512SOL    HW232436   2.769   0.452   6.317
10513SOL     OW32437   0.195   2.076   0.163
10513SOL    HW132438   0.241   1.996   0.126
10513SOL    HW232439   0.185   2.145   0.092
10514SOL     OW32440   0.188   3.159   1.552
10514SOL    HW132441   0.194   3.209   1.638
10514SOL    HW232442   0.169   3.224   1.477
10515SOL     OW32443   6.281   2.982   4.448
10515SOL    HW132444   6.231   2.918   4.389
10515SOL    HW232445   6.378   2.983   4.422
10516SOL     OW32446   2.946   6.907   0.900
10516SOL    HW132447   2.869   6.931   0.841
10516SOL    HW232448   3.009   6.984   0.905
10517SOL     OW32449   0.048   2.379   2.991
10517SOL    HW132450   0.082   2.473   2.983
10517SOL    HW232451   0.038   2.339   2.900
10518SOL     OW32452   0.352   6.510   2.381
10518SOL    HW132453   0.325   6.535   2.288
10518SOL    HW232454   0.439   6.555   2.403
10519SOL     OW32455   3.631   3.810   5.368
10519SOL    HW132456   3.719   3.783   5.328
10519SOL    HW232457   3.626   3.910   5.374
10520SOL     OW32458   3.350   4.562   6.357
10520SOL    HW132459   3.258   4.549   6.319
10520SOL    HW232460   3.389   4.472   6.378
10521SOL     OW32461   6.183   5.272   2.079
10521SOL    HW132462   6.083   5.260   2.084
10521SOL    HW232463   6.205   5.333   2.002
10522SOL     OW32464   6.520   6.991   2.267
10522SOL    HW132465   6.543   0.025   2.186
10522SOL    HW232466   6.433   0.002   2.304
10523SOL     OW32467   6.865   5.833   5.786
10523SOL    HW132468   6.902   5.760   5.728
10523SOL    HW232469   6.935   5.903   5.800
10524SOL     OW32470   4.629   0.354   4.410
10524SOL    HW132471   4.726   0.372   4.399
10524SOL    HW232472   4.580   0.439   4.430
10525SOL     OW32473   3.046   6.333   4.960
10525SOL    HW132474   2.963   6.303   5.006
10525SOL    HW232475   3.026   6.354   4.864
10526SOL     OW32476   5.330   0.088   2.278
10526SOL    HW132477   5.358   0.172   2.231
10526SOL    HW232478   5.231   0.078   2.272
10527SOL     OW32479   1.497   2.886   4.634
10527SOL    HW132480   1.466   2.797   4.601
10527SOL    HW232481   1.523   2.944   4.556
10528SOL     OW32482   6.080   5.055   5.612
10528SOL    HW132483   6.092   5.135   5.553
10528SOL    HW232484   6.105   5.079   5.706
10529SOL     OW32485   0.135   5.975   4.643
10529SOL    HW132486   0.186   5.952   4.560
10529SOL    HW232487   0.173   6.058   4.684
10530SOL     OW32488   2.038   1.526   5.352
10530SOL    HW132489   2.114   1.485   5.301
10530SOL    HW232490   1.968   1.558   5.288
10531SOL     OW32491   1.410   1.975   5.399
10531SOL    HW132492   1.458   1.919   5.332
10531SOL    HW232493   1.463   2.058   5.418
10532SOL     OW32494   3.098   3.086   5.126
10532SOL    HW132495   3.185   3.128   5.098
10532SOL    HW232496   3.094   3.080   5.225
10533SOL     OW32497   2.653   1.327   6.635
10533SOL    HW132498   2.703   1.245   6.665
10533SOL    HW232499   2.699   1.408   6.670
10534SOL     OW32500   5.574   5.709   1.156
10534SOL    HW132501   5.538   5.692   1.247
10534SOL    HW232502   5.578   5.623   1.105
10535SOL     OW32503   0.207   1.364   1.941
10535SOL    HW132504   0.112   1.376   1.969
10535SOL    HW232505   0.254   1.306   2.008
10536SOL     OW32506   5.644   5.654   3.468
10536SOL    HW132507   5.716   5.592   3.438
10536SOL    HW232508   5.679   5.748   3.468
10537SOL     OW32509   6.944   5.653   0.836
10537SOL    HW132510   7.001   5.606   0.768
10537SOL    HW232511   6.878   5.712   0.789
10538SOL     OW32512   4.074   4.366   6.927
10538SOL    HW132513   4.027   4.337   7.010
10538SOL    HW232514   4.110   4.286   6.879
10539SOL     OW32515   1.046   3.606   5.145
10539SOL    HW132516   1.121   3.662   5.180
10539SOL    HW232517   0.965   3.619   5.202
10540SOL     OW32518   3.127   0.506   0.501
10540SOL    HW132519   3.173   0.576   0.555
10540SOL    HW232520   3.047   0.473   0.552
10541SOL     OW32521   4.227   2.355   0.725
10541SOL    HW132522   4.290   2.432   0.712
10541SOL    HW232523   4.183   2.364   0.814
10542SOL     OW32524   1.118   2.325   0.297
10542SOL    HW132525   1.112   2.337   0.198
10542SOL    HW232526   1.202   2.277   0.320
10543SOL     OW32527   2.983   0.705   5.126
10543SOL    HW132528   3.046   0.731   5.199
10543SOL    HW232529   2.961   0.608   5.133
10544SOL     OW32530   6.490   2.521   1.501
10544SOL    HW132531   6.495   2.427   1.466
10544SOL    HW232532   6.419   2.571   1.451
10545SOL     OW32533   4.934   1.109   3.067
10545SOL    HW132534   4.926   1.202   3.031
10545SOL    HW232535   5.027   1.076   3.052
10546SOL     OW32536   4.059   1.504   5.517
10546SOL    HW132537   4.128   1.569   5.552
10546SOL    HW232538   3.969   1.528   5.554
10547SOL     OW32539   4.340   7.007   1.646
10547SOL    HW132540   4.276   0.059   1.620
10547SOL    HW232541   4.290   6.922   1.660
10548SOL     OW32542   4.136   4.833   5.370
10548SOL    HW132543   4.107   4.859   5.462
10548SOL    HW232544   4.120   4.909   5.307
10549SOL     OW32545   1.249   1.573   1.777
10549SOL    HW132546   1.301   1.600   1.858
10549SOL    HW232547   1.254   1.474   1.765
10550SOL     OW32548   5.279   6.704   4.633
10550SOL    HW132549   5.220   6.763   4.578
10550SOL    HW232550   5.276   6.611   4.598
10551SOL     OW32551   1.367   2.639   6.283
10551SOL    HW132552   1.357   2.539   6.284
10551SOL    HW232553   1.448   2.665   6.336
10552SOL     OW32554   2.953   2.253   4.770
10552SOL    HW132555   3.014   2.255   4.849
10552SOL    HW232556   2.950   2.343   4.728
10553SOL     OW32557   2.982   5.303   5.528
10553SOL    HW132558   3.004   5.398   5.504
10553SOL    HW232559   2.905   5.302   5.592
10554SOL     OW32560   6.373   4.025   6.176
10554SOL    HW132561   6.393   3.927   6.179
10554SOL    HW232562   6.458   4.076   6.164
10555SOL     OW32563   3.526   2.921   1.010
10555SOL    HW132564   3.474   2.990   1.060
10555SOL    HW232565   3.463   2.853   0.972
10556SOL     OW32566   1.357   3.481   3.907
10556SOL    HW132567   1.410   3.566   3.913
10556SOL    HW232568   1.418   3.407   3.879
10557SOL     OW32569   5.522   1.356   3.359
10557SOL    HW132570   5.589   1.425   3.332
10557SOL    HW232571   5.500   1.298   3.280
10558SOL     OW32572   5.300   5.537   4.747
10558SOL    HW132573   5.332   5.627   4.717
10558SOL    HW232574   5.264   5.487   4.668
10559SOL     OW32575   4.587   2.549   1.076
10559SOL    HW132576   4.656   2.498   1.128
10559SOL    HW232577   4.622   2.567   0.984
10560SOL     OW32578   6.973   2.852   4.320
10560SOL    HW132579   6.974   2.820   4.415
10560SOL    HW232580   0.036   2.821   4.274
10561SOL     OW32581   2.587   4.006   6.209
10561SOL    HW132582   2.488   4.010   6.198
10561SOL    HW232583   2.627   4.093   6.180
10562SOL     OW32584   3.110   1.441   0.479
10562SOL    HW132585   3.123   1.540   0.485
10562SOL    HW232586   3.044   1.420   0.406
10563SOL     OW32587   1.688   2.100   3.316
10563SOL    HW132588   1.740   2.033   3.369
10563SOL    HW232589   1.750   2.172   3.283
10564SOL     OW32590   6.860   2.221   2.119
10564SOL    HW132591   6.817   2.296   2.169
10564SOL    HW232592   6.844   2.232   2.021
10565SOL     OW32593   5.600   1.529   4.750
10565SOL    HW132594   5.641   1.551   4.838
10565SOL    HW232595   5.612   1.432   4.731
10566SOL     OW32596   4.304   5.560   0.087
10566SOL    HW132597   4.240   5.622   0.133
10566SOL    HW232598   4.252   5.486   0.044
10567SOL     OW32599   2.045   5.485   4.100
10567SOL    HW132600   1.968   5.454   4.045
10567SOL    HW232601   2.130   5.451   4.060
10568SOL     OW32602   3.783   1.904   2.964
10568SOL    HW132603   3.766   1.984   2.907
10568SOL    HW232604   3.849   1.844   2.918
10569SOL     OW32605   6.046   3.125   3.195
10569SOL    HW132606   6.133   3.122   3.146
10569SOL    HW232607   5.976   3.166   3.136
10570SOL     OW32608   1.119   4.036   1.381
10570SOL    HW132609   1.129   3.948   1.428
10570SOL    HW232610   1.204   4.087   1.386
10571SOL     OW32611   6.425   6.697   4.928
10571SOL    HW132612   6.371   6.643   4.992
10571SOL    HW232613   6.431   6.791   4.960
10572SOL     OW32614   6.733   3.195   1.454
10572SOL    HW132615   6.704   3.100   1.448
10572SOL    HW232616   6.812   3.203   1.515
10573SOL     OW32617   6.286   4.624   6.181
10573SOL    HW132618   6.287   4.530   6.214
10573SOL    HW232619   6.232   4.682   6.242
10574SOL     OW32620   0.312   2.112   3.560
10574SOL    HW132621   0.337   2.154   3.647
10574SOL    HW232622   0.371   2.148   3.488
10575SOL     OW32623   1.189   6.717   5.947
10575SOL    HW132624   1.240   6.797   5.979
10575SOL    HW232625   1.154   6.734   5.855
10576SOL     OW32626   1.125   5.522   3.379
10576SOL    HW132627   1.026   5.534   3.379
10576SOL    HW232628   1.148   5.430   3.411
10577SOL     OW32629   0.495   2.713   5.674
10577SOL    HW132630   0.479   2.621   5.638
10577SOL    HW232631   0.573   2.711   5.737
10578SOL     OW32632   5.544   0.995   5.329
10578SOL    HW132633   5.574   0.901   5.309
10578SOL    HW232634   5.616   1.043   5.379
10579SOL     OW32635   5.076   0.043   0.876
10579SOL    HW132636   5.075   6.976   0.829
10579SOL    HW232637   5.144   0.041   0.950
10580SOL     OW32638   6.989   6.128   0.244
10580SOL    HW132639   6.942   6.216   0.252
10580SOL    HW232640   0.054   6.132   0.295
10581SOL     OW32641   4.756   2.250   4.092
10581SOL    HW132642   4.675   2.309   4.088
10581SOL    HW232643   4.757   2.189   4.013
10582SOL     OW32644   3.322   4.900   0.074
10582SOL    HW132645   3.368   4.987   0.055
10582SOL    HW232646   3.386   4.824   0.061
10583SOL     OW32647   4.407   1.035   1.705
10583SOL    HW132648   4.465   0.967   1.750
10583SOL    HW232649   4.404   1.118   1.761
10584SOL     OW32650   5.995   0.463   1.317
10584SOL    HW132651   6.068   0.525   1.345
10584SOL    HW232652   6.005   0.440   1.220
10585SOL     OW32653   2.486   4.721   6.555
10585SOL    HW132654   2.504   4.819   6.557
10585SOL    HW232655   2.497   4.687   6.461
10586SOL     OW32656   5.050   1.471   0.820
10586SOL    HW132657   5.070   1.517   0.734
10586SOL    HW232658   4.984   1.398   0.804
10587SOL     OW32659   6.153   2.976   0.267
10587SOL    HW132660   6.069   2.954   0.318
10587SOL    HW232661   6.147   3.071   0.235
10588SOL     OW32662   1.471   5.103   3.199
10588SOL    HW132663   1.489   5.201   3.197
10588SOL    HW232664   1.549   5.054   3.158
10589SOL     OW32665   5.869   1.240   4.044
10589SOL    HW132666   5.919   1.238   4.131
10589SOL    HW232667   5.848   1.334   4.020
10590SOL     OW32668   1.522   0.540   4.510
10590SOL    HW132669   1.448   0.586   4.459
10590SOL    HW232670   1.483   0.471   4.570
10591SOL     OW32671   2.097   2.372   0.707
10591SOL    HW132672   2.034   2.449   0.719
10591SOL    HW232673   2.094   2.313   0.787
10592SOL     OW32674   6.447   1.356   6.527
10592SOL    HW132675   6.441   1.299   6.445
10592SOL    HW232676   6.486   1.444   6.504
10593SOL     OW32677   1.111   5.161   1.819
10593SOL    HW132678   1.207   5.177   1.842
10593SOL    HW232679   1.055   5.172   1.900
10594SOL     OW32680   0.616   1.541   4.404
10594SOL    HW132681   0.687   1.558   4.336
10594SOL    HW232682   0.575   1.629   4.431
10595SOL     OW32683   2.621   5.786   4.910
10595SOL    HW132684   2.563   5.767   4.831
10595SOL    HW232685   2.569   5.838   4.977
10596SOL     OW32686   3.124   1.017   1.982
10596SOL    HW132687   3.183   0.972   1.915
10596SOL    HW232688   3.162   1.006   2.074
10597SOL     OW32689   1.744   0.992   3.561
10597SOL    HW132690   1.728   0.983   3.659
10597SOL    HW232691   1.777   0.906   3.524
10598SOL     OW32692   1.892   0.999   0.298
10598SOL    HW132693   1.899   1.087   0.250
10598SOL    HW232694   1.796   0.981   0.321
10599SOL     OW32695   5.051   0.596   6.862
10599SOL    HW132696   5.028   0.679   6.812
10599SOL    HW232697   5.122   0.546   6.812
10600SOL     OW32698   1.514   2.221   5.425
10600SOL    HW132699   1.600   2.225   5.374
10600SOL    HW232700   1.450   2.289   5.389
10601SOL     OW32701   3.528   6.109   5.389
10601SOL    HW132702   3.618   6.068   5.401
10601SOL    HW232703   3.506   6.113   5.291
10602SOL     OW32704   4.686   0.963   1.122
10602SOL    HW132705   4.724   1.031   1.184
10602SOL    HW232706   4.590   0.986   1.102
10603SOL     OW32707   0.890   5.522   4.841
10603SOL    HW132708   0.814   5.576   4.804
10603SOL    HW232709   0.947   5.490   4.766
10604SOL     OW32710   6.827   3.944   5.792
10604SOL    HW132711   6.880   4.000   5.856
10604SOL    HW232712   6.755   4.000   5.752
10605SOL     OW32713   1.850   5.173   6.341
10605SOL    HW132714   1.802   5.096   6.300
10605SOL    HW232715   1.919   5.207   6.277
10606SOL     OW32716   0.445   1.177   2.485
10606SOL    HW132717   0.539   1.168   2.452
10606SOL    HW232718   0.426   1.103   2.549
10607SOL     OW32719   5.914   4.790   6.632
10607SOL    HW132720   5.963   4.873   6.658
10607SOL    HW232721   5.862   4.756   6.711
10608SOL     OW32722   5.647   0.357   2.986
10608SOL    HW132723   5.686   0.319   3.070
10608SOL    HW232724   5.685   0.448   2.971
10609SOL     OW32725   3.659   6.645   2.721
10609SOL    HW132726   3.566   6.674   2.701
10609SOL    HW232727   3.722   6.686   2.656
10610SOL     OW32728   2.082   4.390   4.468
10610SOL    HW132729   2.147   4.320   4.496
10610SOL    HW232730   2.038   4.429   4.549
10611SOL     OW32731   4.883   2.389   6.140
10611SOL    HW132732   4.796   2.349   6.168
10611SOL    HW232733   4.927   2.432   6.219
10612SOL     OW32734   1.932   0.075   1.420
10612SOL    HW132735   2.008   0.105   1.362
10612SOL    HW232736   1.849   0.067   1.365
10613SOL     OW32737   0.229   6.770   6.374
10613SOL    HW132738   0.129   6.776   6.378
10613SOL    HW232739   0.263   6.729   6.459
10614SOL     OW32740   6.609   0.472   3.490
10614SOL    HW132741   6.526   0.494   3.440
10614SOL    HW232742   6.603   0.509   3.583
10615SOL     OW32743   6.847   6.139   5.472
10615SOL    HW132744   6.752   6.158   5.498
10615SOL    HW232745   6.891   6.223   5.441
10616SOL     OW32746   2.468   5.970   0.869
10616SOL    HW132747   2.473   5.953   0.967
10616SOL    HW232748   2.411   6.051   0.852
10617SOL     OW32749   0.193   1.609   6.686
10617SOL    HW132750   0.250   1.688   6.710
10617SOL    HW232751   0.109   1.640   6.641
10618SOL     OW32752   6.403   3.849   0.998
10618SOL    HW132753   6.425   3.795   0.916
10618SOL    HW232754   6.390   3.787   1.076
10619SOL     OW32755   0.785   4.012   3.034
10619SOL    HW132756   0.699   3.974   3.001
10619SOL    HW232757   0.854   4.007   2.962
10620SOL     OW32758   1.173   5.317   4.069
10620SOL    HW132759   1.254   5.347   4.018
10620SOL    HW232760   1.091   5.350   4.023
10621SOL     OW32761   3.255   6.223   0.853
10621SOL    HW132762   3.182   6.166   0.814
10621SOL    HW232763   3.272   6.300   0.792
10622SOL     OW32764   4.377   1.934   0.947
10622SOL    HW132765   4.450   1.868   0.927
10622SOL    HW232766   4.289   1.887   0.948
10623SOL     OW32767   6.741   0.894   4.331
10623SOL    HW132768   6.779   0.986   4.343
10623SOL    HW232769   6.694   0.888   4.243
10624SOL     OW32770   3.127   1.068   4.210
10624SOL    HW132771   3.198   1.083   4.142
10624SOL    HW232772   3.110   0.970   4.221
10625SOL     OW32773   0.834   2.656   0.378
10625SOL    HW132774   0.878   2.718   0.314
10625SOL    HW232775   0.766   2.707   0.432
10626SOL     OW32776   5.829   1.761   1.996
10626SOL    HW132777   5.747   1.801   1.955
10626SOL    HW232778   5.910   1.807   1.960
10627SOL     OW32779   5.997   6.004   4.445
10627SOL    HW132780   6.065   5.973   4.511
10627SOL    HW232781   5.921   6.047   4.493
10628SOL     OW32782   0.064   5.472   5.429
10628SOL    HW132783   7.006   5.411   5.422
10628SOL    HW232784   0.137   5.441   5.369
10629SOL     OW32785   2.351   4.778   6.849
10629SOL    HW132786   2.386   4.831   6.771
10629SOL    HW232787   2.260   4.743   6.828
10630SOL     OW32788   6.210   0.984   2.036
10630SOL    HW132789   6.240   1.079   2.041
10630SOL    HW232790   6.176   0.955   2.125
10631SOL     OW32791   0.977   6.738   5.065
10631SOL    HW132792   0.925   6.684   4.999
10631SOL    HW232793   1.001   6.681   5.143
10632SOL     OW32794   0.061   3.001   6.270
10632SOL    HW132795   7.018   2.964   6.202
10632SOL    HW232796   0.087   2.930   6.335
10633SOL     OW32797   0.649   4.970   0.673
10633SOL    HW132798   0.662   4.872   0.690
10633SOL    HW232799   0.592   5.009   0.745
10634SOL     OW32800   3.702   6.499   2.390
10634SOL    HW132801   3.775   6.552   2.347
10634SOL    HW232802   3.614   6.540   2.366
10635SOL     OW32803   1.293   1.123   1.637
10635SOL    HW132804   1.274   1.038   1.587
10635SOL    HW232805   1.330   1.191   1.575
10636SOL     OW32806   5.583   1.666   0.765
10636SOL    HW132807   5.534   1.747   0.799
10636SOL    HW232808   5.608   1.607   0.842
10637SOL     OW32809   2.770   4.437   5.688
10637SOL    HW132810   2.798   4.523   5.646
10637SOL    HW232811   2.826   4.363   5.653
10638SOL     OW32812   6.721   6.883   6.182
10638SOL    HW132813   6.642   6.939   6.206
10638SOL    HW232814   6.798   6.906   6.242
10639SOL     OW32815   3.371   2.092   4.893
10639SOL    HW132816   3.437   2.058   4.961
10639SOL    HW232817   3.304   2.151   4.939
10640SOL     OW32818   4.414   6.186   1.346
10640SOL    HW132819   4.395   6.094   1.312
10640SOL    HW232820   4.393   6.253   1.274
10641SOL     OW32821   3.663   0.776   6.438
10641SOL    HW132822   3.711   0.693   6.465
10641SOL    HW232823   3.566   0.756   6.425
10642SOL     OW32824   0.166   4.663   0.162
10642SOL    HW132825   0.139   4.581   0.213
10642SOL    HW232826   0.237   4.639   0.096
10643SOL     OW32827   4.130   3.448   5.267
10643SOL    HW132828   4.212   3.415   5.314
10643SOL    HW232829   4.049   3.411   5.311
10644SOL     OW32830   3.827   1.207   5.193
10644SOL    HW132831   3.747   1.208   5.253
10644SOL    HW232832   3.830   1.122   5.141
10645SOL     OW32833   2.518   6.943   4.663
10645SOL    HW132834   2.436   6.959   4.718
10645SOL    HW232835   2.496   6.882   4.587
10646SOL     OW32836   0.844   4.705   6.663
10646SOL    HW132837   0.791   4.677   6.583
10646SOL    HW232838   0.874   4.799   6.653
10647SOL     OW32839   0.280   6.017   0.775
10647SOL    HW132840   0.296   6.062   0.863
10647SOL    HW232841   0.252   5.923   0.790
10648SOL     OW32842   4.749   5.140   6.596
10648SOL    HW132843   4.762   5.067   6.662
10648SOL    HW232844   4.837   5.164   6.555
10649SOL     OW32845   0.184   3.786   6.010
10649SOL    HW132846   0.099   3.838   6.017
10649SOL    HW232847   0.230   3.785   6.098
10650SOL     OW32848   3.191   0.815   5.272
10650SOL    HW132849   3.132   0.895   5.258
10650SOL    HW232850   3.237   0.824   5.360
10651SOL     OW32851   2.596   0.566   5.029
10651SOL    HW132852   2.686   0.523   5.041
10651SOL    HW232853   2.589   0.645   5.089
10652SOL     OW32854   3.905   1.659   0.650
10652SOL    HW132855   3.885   1.650   0.748
10652SOL    HW232856   3.868   1.581   0.601
10653SOL     OW32857   6.275   3.734   4.283
10653SOL    HW132858   6.312   3.736   4.191
10653SOL    HW232859   6.176   3.717   4.279
10654SOL     OW32860   4.559   0.835   1.798
10654SOL    HW132861   4.630   0.799   1.857
10654SOL    HW232862   4.535   0.767   1.729
10655SOL     OW32863   2.261   5.336   1.415
10655SOL    HW132864   2.313   5.271   1.470
10655SOL    HW232865   2.177   5.362   1.464
10656SOL     OW32866   6.263   2.546   6.612
10656SOL    HW132867   6.224   2.614   6.673
10656SOL    HW232868   6.205   2.536   6.531
10657SOL     OW32869   6.434   0.451   1.375
10657SOL    HW132870   6.486   0.423   1.294
10657SOL    HW232871   6.491   0.439   1.456
10658SOL     OW32872   0.192   6.531   4.353
10658SOL    HW132873   0.146   6.453   4.311
10658SOL    HW232874   0.229   6.590   4.282
10659SOL     OW32875   4.932   0.974   0.914
10659SOL    HW132876   4.862   0.968   0.985
10659SOL    HW232877   5.009   0.915   0.937
10660SOL     OW32878   5.564   5.577   6.243
10660SOL    HW132879   5.508   5.628   6.308
10660SOL    HW232880   5.557   5.618   6.152
10661SOL     OW32881   0.350   0.791   2.194
10661SOL    HW132882   0.447   0.781   2.173
10661SOL    HW232883   0.306   0.844   2.121
10662SOL     OW32884   6.489   1.781   6.868
10662SOL    HW132885   6.522   1.692   6.836
10662SOL    HW232886   6.392   1.775   6.891
10663SOL     OW32887   0.743   1.934   0.432
10663SOL    HW132888   0.666   1.989   0.464
10663SOL    HW232889   0.819   1.994   0.408
10664SOL     OW32890   2.230   5.089   6.353
10664SOL    HW132891   2.291   5.133   6.287
10664SOL    HW232892   2.223   5.146   6.435
10665SOL     OW32893   5.511   1.414   6.707
10665SOL    HW132894   5.504   1.376   6.614
10665SOL    HW232895   5.600   1.391   6.746
10666SOL     OW32896   0.403   0.201   0.210
10666SOL    HW132897   0.357   0.136   0.149
10666SOL    HW232898   0.383   0.177   0.305
10667SOL     OW32899   2.829   2.259   5.721
10667SOL    HW132900   2.828   2.250   5.821
10667SOL    HW232901   2.768   2.192   5.681
10668SOL     OW32902   2.412   1.179   6.592
10668SOL    HW132903   2.402   1.092   6.544
10668SOL    HW232904   2.503   1.216   6.576
10669SOL     OW32905   1.326   6.303   6.235
10669SOL    HW132906   1.379   6.226   6.200
10669SOL    HW232907   1.382   6.386   6.230
10670SOL     OW32908   6.521   4.081   4.713
10670SOL    HW132909   6.508   4.114   4.619
10670SOL    HW232910   6.464   4.000   4.728
10671SOL     OW32911   1.894   2.291   3.237
10671SOL    HW132912   1.840   2.352   3.295
10671SOL    HW232913   1.957   2.346   3.182
10672SOL     OW32914   0.056   2.579   0.448
10672SOL    HW132915   0.123   2.511   0.421
10672SOL    HW232916   0.011   2.550   0.533
10673SOL     OW32917   3.366   3.758   4.479
10673SOL    HW132918   3.401   3.805   4.399
10673SOL    HW232919   3.284   3.705   4.454
10674SOL     OW32920   3.983   1.460   2.519
10674SOL    HW132921   4.020   1.433   2.430
10674SOL    HW232922   3.927   1.387   2.556
10675SOL     OW32923   0.961   1.289   5.676
10675SOL    HW132924   0.935   1.227   5.602
10675SOL    HW232925   1.041   1.252   5.724
10676SOL     OW32926   6.947   0.353   6.563
10676SOL    HW132927   6.871   0.383   6.506
10676SOL    HW232928   7.018   0.424   6.563
10677SOL     OW32929   6.103   1.401   1.043
10677SOL    HW132930   6.064   1.421   1.133
10677SOL    HW232931   6.200   1.376   1.054
10678SOL     OW32932   2.035   5.185   3.478
10678SOL    HW132933   1.999   5.255   3.540
10678SOL    HW232934   2.001   5.202   3.385
10679SOL     OW32935   5.510   4.775   3.831
10679SOL    HW132936   5.594   4.804   3.785
10679SOL    HW232937   5.532   4.742   3.923
10680SOL     OW32938   0.566   2.702   3.632
10680SOL    HW132939   0.660   2.735   3.643
10680SOL    HW232940   0.559   2.609   3.667
10681SOL     OW32941   0.415   2.212   0.043
10681SOL    HW132942   0.379   2.283   7.005
10681SOL    HW232943   0.493   2.247   0.095
10682SOL     OW32944   6.697   1.802   3.035
10682SOL    HW132945   6.738   1.887   3.068
10682SOL    HW232946   6.599   1.800   3.057
10683SOL     OW32947   1.338   0.444   4.263
10683SOL    HW132948   1.261   0.417   4.320
10683SOL    HW232949   1.360   0.370   4.199
10684SOL     OW32950   5.033   5.778   0.386
10684SOL    HW132951   5.102   5.755   0.455
10684SOL    HW232952   4.944   5.742   0.415
10685SOL     OW32953   6.167   2.499   2.635
10685SOL    HW132954   6.261   2.472   2.619
10685SOL    HW232955   6.106   2.447   2.574
10686SOL     OW32956   4.273   4.925   0.912
10686SOL    HW132957   4.218   4.861   0.966
10686SOL    HW232958   4.283   4.891   0.819
10687SOL     OW32959   6.355   4.976   1.295
10687SOL    HW132960   6.430   5.009   1.238
10687SOL    HW232961   6.268   5.006   1.257
10688SOL     OW32962   0.373   5.051   1.074
10688SOL    HW132963   0.284   5.092   1.053
10688SOL    HW232964   0.428   5.047   0.990
10689SOL     OW32965   1.037   0.015   0.947
10689SOL    HW132966   0.949   0.025   0.994
10689SOL    HW232967   1.046   0.086   0.877
10690SOL     OW32968   4.496   6.558   3.257
10690SOL    HW132969   4.512   6.646   3.303
10690SOL    HW232970   4.409   6.562   3.209
10691SOL     OW32971   5.815   1.212   1.700
10691SOL    HW132972   5.761   1.194   1.782
10691SOL    HW232973   5.877   1.288   1.718
10692SOL     OW32974   6.580   6.563   3.905
10692SOL    HW132975   6.532   6.508   3.973
10692SOL    HW232976   6.534   6.652   3.896
10693SOL     OW32977   5.198   2.623   4.100
10693SOL    HW132978   5.221   2.686   4.026
10693SOL    HW232979   5.209   2.669   4.188
10694SOL     OW32980   2.248   6.206   0.389
10694SOL    HW132981   2.150   6.183   0.387
10694SOL    HW232982   2.301   6.122   0.400
10695SOL     OW32983   5.465   3.263   5.852
10695SOL    HW132984   5.380   3.316   5.852
10695SOL    HW232985   5.471   3.210   5.767
10696SOL     OW32986   6.302   6.939   1.415
10696SOL    HW132987   6.245   6.891   1.482
10696SOL    HW232988   6.380   6.981   1.462
10697SOL     OW32989   1.847   6.449   2.610
10697SOL    HW132990   1.831   6.351   2.599
10697SOL    HW232991   1.939   6.465   2.644
10698SOL     OW32992   3.000   0.626   4.642
10698SOL    HW132993   2.937   0.673   4.579
10698SOL    HW232994   2.947   0.573   4.708
10699SOL     OW32995   1.467   2.561   3.574
10699SOL    HW132996   1.427   2.593   3.659
10699SOL    HW232997   1.545   2.619   3.550
10700SOL     OW32998   0.845   2.488   2.357
10700SOL    HW132999   0.802   2.558   2.414
10700SOL    HW233000   0.944   2.501   2.358
10701SOL     OW33001   2.656   0.206   1.479
10701SOL    HW133002   2.617   0.119   1.508
10701SOL    HW233003   2.664   0.208   1.380
10702SOL     OW33004   5.168   2.313   0.917
10702SOL    HW133005   5.175   2.217   0.946
10702SOL    HW233006   5.085   2.353   0.957
10703SOL     OW33007   3.871   2.999   4.071
10703SOL    HW133008   3.927   2.988   3.988
10703SOL    HW233009   3.779   2.965   4.053
10704SOL     OW33010   5.785   6.141   2.201
10704SOL    HW133011   5.827   6.204   2.135
10704SOL    HW233012   5.847   6.065   2.218
10705SOL     OW33013   1.598   3.386   6.518
10705SOL    HW133014   1.663   3.325   6.564
10705SOL    HW233015   1.584   3.468   6.572
10706SOL     OW33016   3.258   3.365   1.019
10706SOL    HW133017   3.225   3.309   1.095
10706SOL    HW233018   3.357   3.375   1.026
10707SOL     OW33019   6.223   6.948   6.468
10707SOL    HW133020   6.311   6.993   6.480
10707SOL    HW233021   6.200   6.896   6.551
10708SOL     OW33022   4.824   1.614   1.581
10708SOL    HW133023   4.879   1.696   1.596
10708SOL    HW233024   4.786   1.615   1.489
10709SOL     OW33025   0.782   6.738   6.297
10709SOL    HW133026   0.806   6.830   6.327
10709SOL    HW233027   0.853   6.704   6.234
10710SOL     OW33028   0.304   6.573   3.515
10710SOL    HW133029   0.385   6.604   3.466
10710SOL    HW233030   0.224   6.578   3.454
10711SOL     OW33031   2.234   4.799   5.706
10711SOL    HW133032   2.324   4.756   5.705
10711SOL    HW233033   2.170   4.741   5.757
10712SOL     OW33034   3.339   1.554   6.448
10712SOL    HW133035   3.314   1.649   6.467
10712SOL    HW233036   3.382   1.548   6.357
10713SOL     OW33037   1.915   6.840   0.417
10713SOL    HW133038   1.946   6.934   0.406
10713SOL    HW233039   1.912   6.816   0.514
10714SOL     OW33040   5.805   5.840   4.312
10714SOL    HW133041   5.743   5.914   4.286
10714SOL    HW233042   5.898   5.876   4.321
10715SOL     OW33043   5.685   0.603   2.703
10715SOL    HW133044   5.765   0.575   2.649
10715SOL    HW233045   5.602   0.570   2.658
10716SOL     OW33046   0.191   0.847   1.711
10716SOL    HW133047   0.263   0.881   1.652
10716SOL    HW233048   0.128   0.921   1.733
10717SOL     OW33049   0.285   6.492   2.070
10717SOL    HW133050   0.297   6.401   2.109
10717SOL    HW233051   0.360   6.511   2.006
10718SOL     OW33052   1.379   4.367   5.276
10718SOL    HW133053   1.282   4.343   5.277
10718SOL    HW233054   1.433   4.285   5.257
10719SOL     OW33055   3.837   5.994   2.278
10719SOL    HW133056   3.754   5.948   2.244
10719SOL    HW233057   3.816   6.089   2.299
10720SOL     OW33058   0.432   3.258   6.292
10720SOL    HW133059   0.371   3.314   6.235
10720SOL    HW233060   0.427   3.163   6.262
10721SOL     OW33061   5.586   1.716   4.146
10721SOL    HW133062   5.578   1.739   4.243
10721SOL    HW233063   5.595   1.617   4.136
10722SOL     OW33064   0.508   5.384   0.106
10722SOL    HW133065   0.454   5.466   0.089
10722SOL    HW233066   0.464   5.305   0.063
10723SOL     OW33067   6.195   3.960   6.369
10723SOL    HW133068   6.253   4.006   6.302
10723SOL    HW233069   6.253   3.907   6.432
10724SOL     OW33070   3.702   0.049   5.756
10724SOL    HW133071   3.677   0.002   5.671
10724SOL    HW233072   3.628   0.110   5.784
10725SOL     OW33073   0.453   6.493   5.262
10725SOL    HW133074   0.475   6.396   5.263
10725SOL    HW233075   0.388   6.514   5.335
10726SOL     OW33076   6.764   0.238   3.437
10726SOL    HW133077   6.694   0.309   3.425
10726SOL    HW233078   6.796   0.239   3.532
10727SOL     OW33079   4.624   6.560   6.348
10727SOL    HW133080   4.710   6.579   6.396
10727SOL    HW233081   4.589   6.644   6.308
10728SOL     OW33082   5.920   5.613   3.638
10728SOL    HW133083   5.904   5.703   3.679
10728SOL    HW233084   5.923   5.622   3.538
10729SOL     OW33085   6.770   3.391   4.086
10729SOL    HW133086   6.682   3.415   4.128
10729SOL    HW233087   6.814   3.320   4.141
10730SOL     OW33088   1.530   6.532   4.273
10730SOL    HW133089   1.433   6.553   4.283
10730SOL    HW233090   1.580   6.564   4.353
10731SOL     OW33091   4.895   5.326   6.369
10731SOL    HW133092   4.888   5.394   6.296
10731SOL    HW233093   4.913   5.236   6.329
10732SOL     OW33094   6.745   5.985   2.445
10732SOL    HW133095   6.836   5.955   2.473
10732SOL    HW233096   6.678   5.951   2.511
10733SOL     OW33097   0.491   2.004   6.217
10733SOL    HW133098   0.442   1.917   6.207
10733SOL    HW233099   0.461   2.049   6.301
10734SOL     OW33100   0.366   0.890   4.618
10734SOL    HW133101   0.345   0.799   4.654
10734SOL    HW233102   0.463   0.896   4.597
10735SOL     OW33103   0.041   0.480   1.668
10735SOL    HW133104   0.124   0.533   1.648
10735SOL    HW233105   0.028   0.476   1.767
10736SOL     OW33106   6.046   5.741   3.937
10736SOL    HW133107   6.121   5.676   3.930
10736SOL    HW233108   5.979   5.723   3.865
10737SOL     OW33109   6.916   0.868   1.332
10737SOL    HW133110   6.819   0.894   1.340
10737SOL    HW233111   6.968   0.946   1.296
10738SOL     OW33112   2.231   6.820   1.724
10738SOL    HW133113   2.248   6.729   1.687
10738SOL    HW233114   2.159   6.865   1.671
10739SOL     OW33115   5.050   2.899   4.072
10739SOL    HW133116   4.968   2.934   4.026
10739SOL    HW233117   5.023   2.845   4.151
10740SOL     OW33118   2.660   0.385   5.690
10740SOL    HW133119   2.696   0.387   5.597
10740SOL    HW233120   2.590   0.314   5.698
10741SOL     OW33121   1.078   2.889   3.999
10741SOL    HW133122   1.103   2.795   4.024
10741SOL    HW233123   1.040   2.936   4.079
10742SOL     OW33124   0.228   0.101   2.131
10742SOL    HW133125   0.196   0.058   2.216
10742SOL    HW233126   0.320   0.067   2.109
10743SOL     OW33127   3.708   2.033   5.923
10743SOL    HW133128   3.682   1.993   6.011
10743SOL    HW233129   3.802   2.006   5.901
10744SOL     OW33130   2.509   2.122   1.181
10744SOL    HW133131   2.498   2.109   1.280
10744SOL    HW233132   2.526   2.218   1.161
10745SOL     OW33133   2.529   5.452   1.392
10745SOL    HW133134   2.568   5.460   1.484
10745SOL    HW233135   2.429   5.446   1.399
10746SOL     OW33136   1.995   5.361   6.184
10746SOL    HW133137   1.948   5.448   6.195
10746SOL    HW233138   2.009   5.342   6.087
10747SOL     OW33139   0.450   0.322   4.529
10747SOL    HW133140   0.549   0.318   4.542
10747SOL    HW233141   0.422   0.414   4.504
10748SOL     OW33142   3.157   6.554   2.488
10748SOL    HW133143   3.059   6.569   2.474
10748SOL    HW233144   3.171   6.513   2.578
10749SOL     OW33145   5.689   4.547   2.045
10749SOL    HW133146   5.644   4.553   2.134
10749SOL    HW233147   5.788   4.558   2.057
10750SOL     OW33148   4.037   2.190   4.043
10750SOL    HW133149   4.113   2.177   4.106
10750SOL    HW233150   4.072   2.220   3.954
10751SOL     OW33151   6.845   6.485   3.924
10751SOL    HW133152   6.763   6.542   3.917
10751SOL    HW233153   6.819   6.394   3.956
10752SOL     OW33154   0.195   6.340   6.625
10752SOL    HW133155   0.162   6.350   6.719
10752SOL    HW233156   0.236   6.426   6.594
10753SOL     OW33157   5.585   6.645   4.949
10753SOL    HW133158   5.485   6.648   4.954
10753SOL    HW233159   5.624   6.669   5.038
10754SOL     OW33160   0.546   5.658   2.533
10754SOL    HW133161   0.536   5.668   2.434
10754SOL    HW233162   0.642   5.667   2.558
10755SOL     OW33163   0.369   2.359   1.878
10755SOL    HW133164   0.430   2.362   1.800
10755SOL    HW233165   0.282   2.404   1.855
10756SOL     OW33166   1.280   6.992   6.284
10756SOL    HW133167   1.262   6.895   6.299
10756SOL    HW233168   1.366   7.018   6.329
10757SOL     OW33169   6.543   3.077   1.847
10757SOL    HW133170   6.514   3.034   1.761
10757SOL    HW233171   6.470   3.068   1.915
10758SOL     OW33172   1.088   1.688   0.755
10758SOL    HW133173   1.048   1.770   0.714
10758SOL    HW233174   1.113   1.707   0.850
10759SOL     OW33175   3.094   4.045   4.913
10759SOL    HW133176   3.066   4.137   4.886
10759SOL    HW233177   3.171   4.051   4.976
10760SOL     OW33178   0.879   5.028   6.855
10760SOL    HW133179   0.843   4.989   6.940
10760SOL    HW233180   0.813   5.094   6.818
10761SOL     OW33181   1.562   1.297   6.212
10761SOL    HW133182   1.491   1.366   6.199
10761SOL    HW233183   1.525   1.207   6.190
10762SOL     OW33184   1.463   6.687   0.367
10762SOL    HW133185   1.541   6.662   0.309
10762SOL    HW233186   1.379   6.653   0.324
10763SOL     OW33187   4.902   1.367   2.706
10763SOL    HW133188   4.920   1.464   2.721
10763SOL    HW233189   4.806   1.355   2.679
10764SOL     OW33190   5.102   6.035   4.859
10764SOL    HW133191   5.099   5.952   4.915
10764SOL    HW233192   5.107   6.009   4.762
10765SOL     OW33193   0.556   2.398   0.960
10765SOL    HW133194   0.521   2.484   0.921
10765SOL    HW233195   0.557   2.404   1.059
10766SOL     OW33196   2.402   5.146   6.073
10766SOL    HW133197   2.328   5.105   6.019
10766SOL    HW233198   2.387   5.245   6.079
10767SOL     OW33199   1.616   5.277   6.593
10767SOL    HW133200   1.583   5.371   6.589
10767SOL    HW233201   1.680   5.260   6.518
10768SOL     OW33202   5.341   6.166   6.636
10768SOL    HW133203   5.255   6.198   6.595
10768SOL    HW233204   5.396   6.245   6.664
10769SOL     OW33205   2.865   3.583   4.497
10769SOL    HW133206   2.890   3.666   4.447
10769SOL    HW233207   2.797   3.606   4.567
10770SOL     OW33208   4.896   0.056   3.529
10770SOL    HW133209   4.912   0.103   3.616
10770SOL    HW233210   4.912   6.978   3.541
10771SOL     OW33211   4.304   5.934   5.907
10771SOL    HW133212   4.313   6.033   5.892
10771SOL    HW233213   4.379   5.904   5.966
10772SOL     OW33214   4.754   4.381   2.736
10772SOL    HW133215   4.787   4.470   2.702
10772SOL    HW233216   4.663   4.363   2.699
10773SOL     OW33217   0.752   4.012   0.423
10773SOL    HW133218   0.849   3.986   0.431
10773SOL    HW233219   0.746   4.107   0.393
10774SOL     OW33220   0.501   3.360   0.934
10774SOL    HW133221   0.584   3.414   0.920
10774SOL    HW233222   0.501   3.281   0.872
10775SOL     OW33223   2.185   4.452   0.332
10775SOL    HW133224   2.120   4.459   0.408
10775SOL    HW233225   2.260   4.392   0.358
10776SOL     OW33226   0.841   3.316   3.076
10776SOL    HW133227   0.941   3.316   3.076
10776SOL    HW233228   0.808   3.263   2.998
10777SOL     OW33229   1.822   0.367   1.554
10777SOL    HW133230   1.879   0.348   1.474
10777SOL    HW233231   1.745   0.302   1.556
10778SOL     OW33232   4.488   0.273   3.510
10778SOL    HW133233   4.482   0.297   3.413
10778SOL    HW233234   4.446   0.345   3.565
10779SOL     OW33235   5.626   2.654   5.910
10779SOL    HW133236   5.555   2.724   5.900
10779SOL    HW233237   5.603   2.575   5.854
10780SOL     OW33238   1.498   5.041   5.098
10780SOL    HW133239   1.574   5.094   5.137
10780SOL    HW233240   1.489   4.954   5.148
10781SOL     OW33241   5.869   1.989   6.263
10781SOL    HW133242   5.837   2.079   6.294
10781SOL    HW233243   5.791   1.931   6.240
10782SOL     OW33244   0.736   3.265   4.963
10782SOL    HW133245   0.731   3.256   4.863
10782SOL    HW233246   0.742   3.173   5.004
10783SOL     OW33247   1.663   4.086   3.572
10783SOL    HW133248   1.727   4.161   3.587
10783SOL    HW233249   1.645   4.076   3.474
10784SOL     OW33250   4.767   5.415   3.897
10784SOL    HW133251   4.825   5.386   3.974
10784SOL    HW233252   4.674   5.431   3.930
10785SOL     OW33253   1.530   5.121   1.474
10785SOL    HW133254   1.501   5.189   1.406
10785SOL    HW233255   1.535   5.164   1.564
10786SOL     OW33256   5.189   1.513   2.574
10786SOL    HW133257   5.274   1.472   2.608
10786SOL    HW233258   5.190   1.513   2.474
10787SOL     OW33259   3.628   1.789   3.663
10787SOL    HW133260   3.634   1.773   3.565
10787SOL    HW233261   3.622   1.702   3.711
10788SOL     OW33262   1.698   3.502   0.089
10788SOL    HW133263   1.661   3.595   0.087
10788SOL    HW233264   1.634   3.442   0.138
10789SOL     OW33265   6.901   1.675   2.379
10789SOL    HW133266   6.879   1.610   2.306
10789SOL    HW233267   6.822   1.686   2.439
10790SOL     OW33268   6.923   1.997   5.510
10790SOL    HW133269   6.830   2.009   5.475
10790SOL    HW233270   6.950   1.901   5.502
10791SOL     OW33271   1.780   3.007   3.879
10791SOL    HW133272   1.800   2.988   3.783
10791SOL    HW233273   1.778   3.106   3.893
10792SOL     OW33274   3.211   1.010   2.240
10792SOL    HW133275   3.213   1.106   2.267
10792SOL    HW233276   3.222   0.952   2.320
10793SOL     OW33277   3.349   1.778   4.673
10793SOL    HW133278   3.328   1.718   4.750
10793SOL    HW233279   3.266   1.824   4.643
10794SOL     OW33280   4.720   3.240   6.789
10794SOL    HW133281   4.796   3.232   6.724
10794SOL    HW233282   4.753   3.280   6.874
10795SOL     OW33283   6.169   3.192   3.433
10795SOL    HW133284   6.132   3.166   3.344
10795SOL    HW233285   6.200   3.110   3.481
10796SOL     OW33286   0.577   1.377   6.121
10796SOL    HW133287   0.630   1.454   6.156
10796SOL    HW233288   0.585   1.374   6.021
10797SOL     OW33289   5.332   4.822   6.496
10797SOL    HW133290   5.354   4.911   6.535
10797SOL    HW233291   5.334   4.753   6.568
10798SOL     OW33292   1.738   6.100   0.528
10798SOL    HW133293   1.714   6.175   0.467
10798SOL    HW233294   1.754   6.135   0.620
10799SOL     OW33295   2.499   0.654   2.703
10799SOL    HW133296   2.522   0.750   2.723
10799SOL    HW233297   2.462   0.611   2.785
10800SOL     OW33298   1.912   0.207   4.971
10800SOL    HW133299   1.912   0.109   4.991
10800SOL    HW233300   2.006   0.239   4.964
10801SOL     OW33301   2.918   6.024   6.853
10801SOL    HW133302   2.874   6.093   6.794
10801SOL    HW233303   3.016   6.042   6.857
10802SOL     OW33304   0.962   4.719   3.981
10802SOL    HW133305   1.043   4.693   4.034
10802SOL    HW233306   0.955   4.661   3.900
10803SOL     OW33307   6.711   3.772   4.814
10803SOL    HW133308   6.684   3.808   4.725
10803SOL    HW233309   6.787   3.825   4.850
10804SOL     OW33310   3.958   4.503   1.061
10804SOL    HW133311   3.900   4.458   1.129
10804SOL    HW233312   4.054   4.494   1.087
10805SOL     OW33313   4.297   6.225   0.499
10805SOL    HW133314   4.336   6.316   0.515
10805SOL    HW233315   4.371   6.161   0.477
10806SOL     OW33316   5.421   3.028   6.547
10806SOL    HW133317   5.391   3.093   6.478
10806SOL    HW233318   5.373   3.045   6.633
10807SOL     OW33319   5.140   2.341   4.994
10807SOL    HW133320   5.092   2.392   4.923
10807SOL    HW233321   5.175   2.256   4.957
10808SOL     OW33322   0.639   2.080   6.647
10808SOL    HW133323   0.596   2.054   6.733
10808SOL    HW233324   0.728   2.035   6.639
10809SOL     OW33325   1.319   0.868   2.604
10809SOL    HW133326   1.402   0.912   2.640
10809SOL    HW233327   1.280   0.925   2.532
10810SOL     OW33328   1.992   0.983   6.001
10810SOL    HW133329   2.065   1.038   6.040
10810SOL    HW233330   2.019   0.950   5.911
10811SOL     OW33331   4.090   5.910   6.510
10811SOL    HW133332   4.058   5.952   6.425
10811SOL    HW233333   4.150   5.974   6.558
10812SOL     OW33334   6.323   2.945   2.951
10812SOL    HW133335   6.351   2.956   2.856
10812SOL    HW233336   6.402   2.924   3.008
10813SOL     OW33337   3.230   6.075   2.326
10813SOL    HW133338   3.243   5.985   2.284
10813SOL    HW233339   3.310   6.096   2.384
10814SOL     OW33340   1.684   6.332   4.530
10814SOL    HW133341   1.630   6.313   4.612
10814SOL    HW233342   1.681   6.253   4.469
10815SOL     OW33343   5.516   1.641   5.561
10815SOL    HW133344   5.416   1.640   5.558
10815SOL    HW233345   5.547   1.682   5.647
10816SOL     OW33346   2.177   1.859   1.683
10816SOL    HW133347   2.220   1.829   1.769
10816SOL    HW233348   2.125   1.783   1.644
10817SOL     OW33349   3.436   1.795   1.863
10817SOL    HW133350   3.375   1.875   1.860
10817SOL    HW233351   3.522   1.820   1.906
10818SOL     OW33352   4.850   3.626   6.315
10818SOL    HW133353   4.845   3.631   6.215
10818SOL    HW233354   4.946   3.612   6.343
10819SOL     OW33355   1.549   4.161   5.253
10819SOL    HW133356   1.549   4.071   5.296
10819SOL    HW233357   1.639   4.180   5.215
10820SOL     OW33358   1.037   5.812   4.784
10820SOL    HW133359   1.109   5.782   4.847
10820SOL    HW233360   1.016   5.738   4.721
10821SOL     OW33361   0.638   0.626   6.759
10821SOL    HW133362   0.636   0.706   6.699
10821SOL    HW233363   0.717   0.570   6.738
10822SOL     OW33364   0.512   4.447   6.316
10822SOL    HW133365   0.565   4.365   6.338
10822SOL    HW233366   0.531   4.474   6.221
10823SOL     OW33367   2.340   2.404   0.619
10823SOL    HW133368   2.387   2.490   0.638
10823SOL    HW233369   2.269   2.388   0.687
10824SOL     OW33370   5.366   1.018   4.240
10824SOL    HW133371   5.443   1.047   4.183
10824SOL    HW233372   5.282   1.019   4.186
10825SOL     OW33373   3.019   1.375   2.694
10825SOL    HW133374   2.942   1.340   2.747
10825SOL    HW233375   3.105   1.348   2.738
10826SOL     OW33376   6.895   3.808   1.146
10826SOL    HW133377   6.985   3.784   1.110
10826SOL    HW233378   6.827   3.795   1.074
10827SOL     OW33379   0.720   2.707   4.362
10827SOL    HW133380   0.684   2.677   4.451
10827SOL    HW233381   0.751   2.628   4.310
10828SOL     OW33382   2.469   4.886   0.042
10828SOL    HW133383   2.531   4.954   0.002
10828SOL    HW233384   2.410   4.849   6.991
10829SOL     OW33385   2.161   4.178   1.980
10829SOL    HW133386   2.107   4.252   1.939
10829SOL    HW233387   2.201   4.210   2.066
10830SOL     OW33388   6.240   0.722   3.616
10830SOL    HW133389   6.314   0.778   3.652
10830SOL    HW233390   6.263   0.691   3.524
10831SOL     OW33391   5.491   2.433   1.956
10831SOL    HW133392   5.531   2.437   2.047
10831SOL    HW233393   5.403   2.482   1.956
10832SOL     OW33394   0.734   3.211   2.764
10832SOL    HW133395   0.749   3.245   2.672
10832SOL    HW233396   0.819   3.171   2.799
10833SOL     OW33397   3.240   0.037   4.413
10833SOL    HW133398   3.305   0.112   4.425
10833SOL    HW233399   3.210   0.004   4.503
10834SOL     OW33400   0.186   1.645   5.842
10834SOL    HW133401   0.276   1.644   5.799
10834SOL    HW233402   0.195   1.620   5.939
10835SOL     OW33403   0.956   1.899   0.643
10835SOL    HW133404   0.883   1.882   0.577
10835SOL    HW233405   0.916   1.922   0.732
10836SOL     OW33406   0.999   2.830   1.251
10836SOL    HW133407   1.092   2.797   1.233
10836SOL    HW233408   1.003   2.901   1.322
10837SOL     OW33409   0.586   5.361   0.619
10837SOL    HW133410   0.576   5.351   0.520
10837SOL    HW233411   0.679   5.336   0.646
10838SOL     OW33412   6.073   6.028   0.920
10838SOL    HW133413   5.999   5.960   0.915
10838SOL    HW233414   6.035   6.116   0.950
10839SOL     OW33415   2.169   1.851   6.510
10839SOL    HW133416   2.254   1.901   6.491
10839SOL    HW233417   2.191   1.759   6.541
10840SOL     OW33418   2.161   0.239   2.436
10840SOL    HW133419   2.183   0.326   2.393
10840SOL    HW233420   2.079   0.250   2.493
10841SOL     OW33421   4.409   3.839   0.927
10841SOL    HW133422   4.398   3.834   1.026
10841SOL    HW233423   4.419   3.747   0.890
10842SOL     OW33424   6.217   2.042   1.738
10842SOL    HW133425   6.309   2.013   1.765
10842SOL    HW233426   6.150   1.978   1.776
10843SOL     OW33427   0.889   2.434   1.656
10843SOL    HW133428   0.941   2.514   1.687
10843SOL    HW233429   0.858   2.381   1.735
10844SOL     OW33430   5.387   0.209   4.125
10844SOL    HW133431   5.334   0.294   4.127
10844SOL    HW233432   5.398   0.179   4.030
10845SOL     OW33433   2.157   3.118   0.877
10845SOL    HW133434   2.210   3.177   0.939
10845SOL    HW233435   2.078   3.081   0.925
10846SOL     OW33436   3.612   2.778   1.916
10846SOL    HW133437   3.655   2.862   1.885
10846SOL    HW233438   3.647   2.700   1.864
10847SOL     OW33439   4.621   2.174   5.183
10847SOL    HW133440   4.549   2.244   5.183
10847SOL    HW233441   4.696   2.203   5.124
10848SOL     OW33442   1.427   0.780   6.680
10848SOL    HW133443   1.508   0.834   6.699
10848SOL    HW233444   1.351   0.840   6.658
10849SOL     OW33445   1.457   4.724   4.254
10849SOL    HW133446   1.505   4.692   4.335
10849SOL    HW233447   1.523   4.744   4.182
10850SOL     OW33448   5.632   0.842   2.569
10850SOL    HW133449   5.556   0.782   2.595
10850SOL    HW233450   5.703   0.788   2.524
10851SOL     OW33451   4.335   2.841   6.856
10851SOL    HW133452   4.386   2.857   6.771
10851SOL    HW233453   4.372   2.760   6.903
10852SOL     OW33454   5.892   0.688   5.970
10852SOL    HW133455   5.907   0.625   6.046
10852SOL    HW233456   5.973   0.744   5.957
10853SOL     OW33457   3.462   0.841   4.801
10853SOL    HW133458   3.407   0.759   4.786
10853SOL    HW233459   3.446   0.875   4.894
10854SOL     OW33460   6.178   6.977   0.674
10854SOL    HW133461   6.091   0.003   0.659
10854SOL    HW233462   6.243   0.019   0.717
10855SOL     OW33463   0.653   5.689   1.290
10855SOL    HW133464   0.723   5.725   1.229
10855SOL    HW233465   0.695   5.628   1.357
10856SOL     OW33466   5.684   6.459   6.646
10856SOL    HW133467   5.656   6.467   6.741
10856SOL    HW233468   5.604   6.437   6.589
10857SOL     OW33469   6.709   6.883   5.084
10857SOL    HW133470   6.757   6.878   4.996
10857SOL    HW233471   6.620   6.928   5.070
10858SOL     OW33472   1.940   1.925   7.017
10858SOL    HW133473   1.965   2.009   6.969
10858SOL    HW233474   1.851   1.937   0.040
10859SOL     OW33475   2.437   5.418   2.586
10859SOL    HW133476   2.433   5.415   2.686
10859SOL    HW233477   2.362   5.476   2.552
10860SOL     OW33478   5.810   1.932   1.398
10860SOL    HW133479   5.883   1.877   1.359
10860SOL    HW233480   5.824   1.942   1.496
10861SOL     OW33481   1.616   4.389   1.332
10861SOL    HW133482   1.645   4.401   1.237
10861SOL    HW233483   1.574   4.473   1.365
10862SOL     OW33484   3.265   4.302   5.532
10862SOL    HW133485   3.213   4.298   5.447
10862SOL    HW233486   3.231   4.377   5.589
10863SOL     OW33487   1.572   0.398   2.794
10863SOL    HW133488   1.561   0.498   2.798
10863SOL    HW233489   1.662   0.373   2.829
10864SOL     OW33490   3.030   3.903   2.114
10864SOL    HW133491   3.037   3.998   2.081
10864SOL    HW233492   3.000   3.903   2.209
10865SOL     OW33493   3.046   2.175   2.881
10865SOL    HW133494   3.081   2.093   2.928
10865SOL    HW233495   3.015   2.150   2.789
10866SOL     OW33496   1.048   3.321   4.449
10866SOL    HW133497   1.126   3.271   4.410
10866SOL    HW233498   1.058   3.327   4.548
10867SOL     OW33499   4.720   3.252   0.222
10867SOL    HW133500   4.707   3.171   0.166
10867SOL    HW233501   4.634   3.301   0.231
10868SOL     OW33502   1.133   6.968   5.148
10868SOL    HW133503   1.064   6.993   5.216
10868SOL    HW233504   1.142   6.869   5.146
10869NA      NA33505   0.181   1.006   6.510
10870NA      NA33506   4.640   4.811   5.109
10871NA      NA33507   0.845   4.837   3.026
10872NA      NA33508   6.108   3.707   3.601
10873NA      NA33509   3.848   2.589   5.386
10874NA      NA33510   2.347   4.292   7.003
10875NA      NA33511   1.459   5.454   0.401
10876NA      NA33512   4.204   5.146   2.046
10877NA      NA33513   5.231   3.413   1.351
10878NA      NA33514   3.844   1.827   0.510
10879NA      NA33515   5.376   6.510   1.416
10880NA      NA33516   2.935   6.835   4.796
10881NA      NA33517   4.173   5.060   2.753
10882NA      NA33518   4.007   4.862   6.485
   7.02059   7.02059   7.02059
